                         Program Version 3.0.3 - RELEASE   -
|  1> ! RI-MP2 RIJK def2-TZVP def2-TZVP/C def2-TZVP/JK TIGHTSCF
|  2> % maxcore 2000
|  3> % mp2 density relaxed end
|  4> *xyz 0 1
|  5>  O       -0.7646752128     0.8853332930    -0.1890097516
|  6>  C        0.3835467044     0.7460913762     0.1523455811
|  7>  C        1.4797221655     1.7385241689    -0.1399009898
|  8>  N        2.6037419124     1.2814520661    -1.1070902794
|  9>  C        1.5712306002     1.5544308190    -2.2207219878
| 10>  C        1.3669230156     2.7806294143    -1.2830081345
| 11>  C        2.9079214764     2.7948882621    -1.2200126157
| 12>  C        0.4076035394     3.9231798592    -1.4181956461
| 13>  O        0.7588787879     5.0698687880    -1.5483092509
| 14>  H        0.7112029443    -0.1362561478     0.7452487889
| 15>  H        1.8956384561     2.0939681459     0.8123104392
| 16>  H        2.0318186078     1.7472180114    -3.1917746541
| 17>  H        0.7753867742     0.8138439916    -2.2942362001
| 18>  H        3.3851163948     3.2135473949    -0.3314488145
| 19>  H        3.4512250435     3.0525978631    -2.1307300685
| 20>  H       -0.6655043697     3.6361992640    -1.3899803961
| 21> *
| 22>
| 23>                          ****END OF INPUT****

CARTESIAN COORDINATES (ANGSTROEM)
---------------------------------
  O     -0.764675    0.885333   -0.189010
  C      0.383547    0.746091    0.152346
  C      1.479722    1.738524   -0.139901
  N      2.603742    1.281452   -1.107090
  C      1.571231    1.554431   -2.220722
  C      1.366923    2.780629   -1.283008
  C      2.907921    2.794888   -1.220013
  C      0.407604    3.923180   -1.418196
  O      0.758879    5.069869   -1.548309
  H      0.711203   -0.136256    0.745249
  H      1.895638    2.093968    0.812310
  H      2.031819    1.747218   -3.191775
  H      0.775387    0.813844   -2.294236
  H      3.385116    3.213547   -0.331449
  H      3.451225    3.052598   -2.130730
  H     -0.665504    3.636199   -1.389980

 Total Charge           Charge          ....    0
 Multiplicity           Mult            ....    1
 Number of Electrons    NEL             ....   66
 Basis Dimension        Dim             ....  321

ORBITAL ENERGIES
----------------

  NO   OCC          E(Eh)            E(eV)
   0   2.0000     -20.582738      -560.0848
   1   2.0000     -20.570931      -559.7635
   2   2.0000     -15.603619      -424.5960
   3   2.0000     -11.354113      -308.9611
   4   2.0000     -11.341435      -308.6161
   5   2.0000     -11.303417      -307.5816
   6   2.0000     -11.289571      -307.2048
   7   2.0000     -11.285473      -307.0933
   8   2.0000     -11.284106      -307.0561
   9   2.0000      -1.421035       -38.6683
  10   2.0000      -1.406937       -38.2847
  11   2.0000      -1.322933       -35.9988
  12   2.0000      -1.004444       -27.3323
  13   2.0000      -0.996746       -27.1228
  14   2.0000      -0.950465       -25.8635
  15   2.0000      -0.860290       -23.4097
  16   2.0000      -0.826947       -22.5024
  17   2.0000      -0.758361       -20.6361
  18   2.0000      -0.705547       -19.1989
  19   2.0000      -0.695205       -18.9175
  20   2.0000      -0.674115       -18.3436
  21   2.0000      -0.662908       -18.0387
  22   2.0000      -0.655764       -17.8442
  23   2.0000      -0.567634       -15.4461
  24   2.0000      -0.565487       -15.3877
  25   2.0000      -0.551255       -15.0004
  26   2.0000      -0.520427       -14.1615
  27   2.0000      -0.509009       -13.8508
  28   2.0000      -0.503274       -13.6948
  29   2.0000      -0.481163       -13.0931
  30   2.0000      -0.476281       -12.9603
  31   2.0000      -0.437246       -11.8981
  32   2.0000      -0.390816       -10.6347
  33   0.0000       0.102885         2.7997
  34   0.0000       0.107821         2.9340
  35   0.0000       0.139689         3.8011
  36   0.0000       0.158571         4.3149
  37   0.0000       0.168435         4.5834

MULLIKEN ATOMIC CHARGES
-----------------------
   0 O :   -0.259069
   1 C :    0.059983
   2 C :   -0.006853
   3 N :   -0.206453
   4 C :   -0.201799
   5 C :    0.055957
   6 C :   -0.136571
   7 C :    0.064560
   8 O :   -0.253999
   9 H :    0.102953
  10 H :    0.132708
  11 H :    0.133534
  12 H :    0.146096
  13 H :    0.127905
  14 H :    0.133747
  15 H :    0.107299
Sum of atomic charges:    0.0000000

LOEWDIN ATOMIC CHARGES
----------------------
   0 O :    0.146920
   1 C :   -0.271766
   2 C :   -0.204199
   3 N :    0.110055
   4 C :   -0.184081
   5 C :   -0.218217
   6 C :   -0.184318
   7 C :   -0.260831
   8 O :    0.144506
   9 H :    0.120745
  10 H :    0.157040
  11 H :    0.130779
  12 H :    0.131192
  13 H :    0.129864
  14 H :    0.131318
  15 H :    0.120994

  Mayer bond orders larger than 0.1
B(  0-O ,  1-C ) :   1.9833 B(  1-C ,  2-C ) :   0.8630 B(  1-C ,  9-H ) :   0.9477
B(  2-C ,  3-N ) :   0.9143 B(  2-C ,  5-C ) :   0.8686 B(  2-C , 10-H ) :   0.8929
B(  3-N ,  4-C ) :   0.9123 B(  3-N ,  6-C ) :   0.9046 B(  4-C ,  5-C ) :   0.8942
B(  4-C , 11-H ) :   0.9273 B(  4-C , 12-H ) :   0.9231 B(  5-C ,  6-C ) :   0.8877
B(  5-C ,  7-C ) :   0.7923 B(  6-C , 13-H ) :   0.9243 B(  6-C , 14-H ) :   0.9276
B(  7-C ,  8-O ) :   1.9967 B(  7-C , 15-H ) :   0.9507

MP2 TOTAL ENERGY:     -437.084572935 Eh
FINAL SINGLE POINT ENERGY      -437.084572935339

DIPOLE MOMENT
-------------
                                X             Y             Z
Electronic contribution:     -2.82372       1.25388       0.91125
Nuclear contribution   :      3.20308      -1.69641      -0.74807
                        -----------------------------------------
Total Dipole Moment    :      0.37936      -0.44253       0.16318
                        -----------------------------------------
Magnitude (a.u.)       :      0.60529
Magnitude (Debye)      :      1.53852

                             ****ORCA TERMINATED NORMALLY****
TOTAL RUN TIME: 0 days 0 hours 16 minutes 4 seconds 214 msec
