                         Program Version 3.0.3 - RELEASE   -
|  1> ! RI-MP2 RIJK def2-TZVP def2-TZVP/C def2-TZVP/JK TIGHTSCF
|  2> % maxcore 2000
|  3> % mp2 density relaxed end
|  4> *xyz 0 1
|  5>  O       -0.0654580087     1.4480970269    -0.1329324305
|  6>  C        0.0034993188     0.0398515889    -0.0419423458
|  7>  C       -1.3825287062    -0.5822012239     0.0179617298
|  8>  O       -2.0479660578    -0.2145414379    -1.1791457384
|  9>  C       -3.4010885333    -0.6033295734    -1.2244088821
| 10>  C       -3.9846449829    -0.1427902159    -2.5545077675
| 11>  C       -5.4684528373    -0.5345793018    -2.6847094611
| 12>  C       -6.0502760768    -0.1046705911    -3.9538787345
| 13>  N       -6.4979516444     0.2409243481    -4.9613740937
| 14>  H       -0.6688656607     1.6353289139    -0.8613655082
| 15>  H        0.5539871636    -0.3946522802    -0.8916012396
| 16>  H        0.5540664044    -0.2001793729     0.8733719714
| 17>  H       -1.3179401023    -1.6787973844     0.1089047663
| 18>  H       -1.9309844705    -0.1945378580     0.8911022947
| 19>  H       -3.4895892587    -1.6991493588    -1.1255145274
| 20>  H       -3.9592267234    -0.1582490083    -0.3824641763
| 21>  H       -3.8794365123     0.9431404764    -2.6390618955
| 22>  H       -3.4099708750    -0.5858129123    -3.3733370324
| 23>  H       -5.5860989218    -1.6216871505    -2.6019043728
| 24>  H       -6.0541801946    -0.0931928249    -1.8694842165
| 25> *
| 26>
| 27>                          ****END OF INPUT****

CARTESIAN COORDINATES (ANGSTROEM)
---------------------------------
  O     -0.065458    1.448097   -0.132932
  C      0.003499    0.039852   -0.041942
  C     -1.382529   -0.582201    0.017962
  O     -2.047966   -0.214541   -1.179146
  C     -3.401089   -0.603330   -1.224409
  C     -3.984645   -0.142790   -2.554508
  C     -5.468453   -0.534579   -2.684709
  C     -6.050276   -0.104671   -3.953879
  N     -6.497952    0.240924   -4.961374
  H     -0.668866    1.635329   -0.861366
  H      0.553987   -0.394652   -0.891601
  H      0.554066   -0.200179    0.873372
  H     -1.317940   -1.678797    0.108905
  H     -1.930984   -0.194538    0.891102
  H     -3.489589   -1.699149   -1.125515
  H     -3.959227   -0.158249   -0.382464
  H     -3.879437    0.943140   -2.639062
  H     -3.409971   -0.585813   -3.373337
  H     -5.586099   -1.621687   -2.601904
  H     -6.054180   -0.093193   -1.869484

 Total Charge           Charge          ....    0
 Multiplicity           Mult            ....    1
 Number of Electrons    NEL             ....   70
 Basis Dimension        Dim             ....  345

ORBITAL ENERGIES
----------------

  NO   OCC          E(Eh)            E(eV)
   0   2.0000     -20.580060      -560.0119
   1   2.0000     -20.555971      -559.3564
   2   2.0000     -15.572019      -423.7362
   3   2.0000     -11.302923      -307.5682
   4   2.0000     -11.292019      -307.2715
   5   2.0000     -11.291093      -307.2463
   6   2.0000     -11.281837      -306.9944
   7   2.0000     -11.276744      -306.8558
   8   2.0000     -11.258345      -306.3551
   9   2.0000      -1.405510       -38.2459
  10   2.0000      -1.359923       -37.0054
  11   2.0000      -1.222219       -33.2583
  12   2.0000      -1.108484       -30.1634
  13   2.0000      -1.027723       -27.9658
  14   2.0000      -0.962320       -26.1860
  15   2.0000      -0.855065       -23.2675
  16   2.0000      -0.845746       -23.0139
  17   2.0000      -0.721378       -19.6297
  18   2.0000      -0.710265       -19.3273
  19   2.0000      -0.693423       -18.8690
  20   2.0000      -0.675153       -18.3719
  21   2.0000      -0.665364       -18.1055
  22   2.0000      -0.628941       -17.1144
  23   2.0000      -0.596478       -16.2310
  24   2.0000      -0.591659       -16.0999
  25   2.0000      -0.565722       -15.3941
  26   2.0000      -0.561034       -15.2665
  27   2.0000      -0.550507       -14.9801
  28   2.0000      -0.521917       -14.2021
  29   2.0000      -0.506097       -13.7716
  30   2.0000      -0.496893       -13.5212
  31   2.0000      -0.461763       -12.5652
  32   2.0000      -0.459418       -12.5014
  33   2.0000      -0.449110       -12.2209
  34   2.0000      -0.447481       -12.1766
  35   0.0000       0.111180         3.0254
  36   0.0000       0.137640         3.7454
  37   0.0000       0.146734         3.9928
  38   0.0000       0.158167         4.3040
  39   0.0000       0.163982         4.4622

MULLIKEN ATOMIC CHARGES
-----------------------
   0 O :   -0.484439
   1 C :    0.009344
   2 C :   -0.098549
   3 O :   -0.315311
   4 C :   -0.070946
   5 C :   -0.187686
   6 C :   -0.147481
   7 C :   -0.180796
   8 N :   -0.054755
   9 H :    0.325323
  10 H :    0.101150
  11 H :    0.110938
  12 H :    0.100579
  13 H :    0.106725
  14 H :    0.098085
  15 H :    0.099625
  16 H :    0.135519
  17 H :    0.138368
  18 H :    0.156950
  19 H :    0.157356
Sum of atomic charges:   -0.0000000

LOEWDIN ATOMIC CHARGES
----------------------
   0 O :   -0.047127
   1 C :   -0.353779
   2 C :   -0.336125
   3 O :    0.151884
   4 C :   -0.329166
   5 C :   -0.245609
   6 C :   -0.244371
   7 C :   -0.193349
   8 N :    0.058146
   9 H :    0.176273
  10 H :    0.120057
  11 H :    0.130929
  12 H :    0.122312
  13 H :    0.122567
  14 H :    0.121806
  15 H :    0.121623
  16 H :    0.147093
  17 H :    0.148097
  18 H :    0.164313
  19 H :    0.164426

  Mayer bond orders larger than 0.1
B(  0-O ,  1-C ) :   0.9349 B(  0-O ,  9-H ) :   0.8330 B(  1-C ,  2-C ) :   0.9574
B(  1-C , 10-H ) :   0.9330 B(  1-C , 11-H ) :   0.9236 B(  2-C ,  3-O ) :   0.8950
B(  2-C , 12-H ) :   0.9180 B(  2-C , 13-H ) :   0.9254 B(  3-O ,  4-C ) :   0.9578
B(  4-C ,  5-C ) :   0.9454 B(  4-C , 14-H ) :   0.9222 B(  4-C , 15-H ) :   0.9245
B(  5-C ,  6-C ) :   0.9204 B(  5-C , 16-H ) :   0.9243 B(  5-C , 17-H ) :   0.9222
B(  6-C ,  7-C ) :   0.9416 B(  6-C , 18-H ) :   0.9042 B(  6-C , 19-H ) :   0.9044
B(  7-C ,  8-N ) :   2.8814

MP2 TOTAL ENERGY:     -439.569902105 Eh
FINAL SINGLE POINT ENERGY      -439.569902104729

DIPOLE MOMENT
-------------
                                X             Y             Z
Electronic contribution:     -4.30601       2.35629      -5.79169
Nuclear contribution   :      4.44806      -3.44736       7.08440
                        -----------------------------------------
Total Dipole Moment    :      0.14205      -1.09107       1.29270
                        -----------------------------------------
Magnitude (a.u.)       :      1.69755
Magnitude (Debye)      :      4.31484

                             ****ORCA TERMINATED NORMALLY****
TOTAL RUN TIME: 0 days 0 hours 13 minutes 17 seconds 670 msec
