                         Program Version 3.0.3 - RELEASE   -
|  1> ! RI-MP2 RIJK def2-TZVP def2-TZVP/C def2-TZVP/JK TIGHTSCF
|  2> % maxcore 2000
|  3> % mp2 density relaxed end
|  4> *xyz 0 1
|  5>  O        0.4837048329    -0.1223627746    -0.4371324143
|  6>  C        0.2177809673     1.0400302881    -0.2903917851
|  7>  C        1.2477283753     2.1125892002     0.0694797432
|  8>  O        2.5100601732     1.5775366754     0.3975692731
|  9>  C        3.2679487600     1.4357326732    -0.8048866721
| 10>  C        2.8613720392     2.6225262594    -1.6971810800
| 11>  C        2.0804328479     2.3169025653    -2.9934323697
| 12>  O        0.8157582064     2.6297498560    -2.3609470137
| 13>  C        1.4828480433     3.0461772369    -1.1465064338
| 14>  H       -0.8200844849     1.4268892569    -0.3969146297
| 15>  H        0.8775797955     2.6594696687     0.9460098642
| 16>  H        4.3235793229     1.4464421382    -0.5238145581
| 17>  H        3.0391862245     0.4766241700    -1.2866413500
| 18>  H        3.6287767033     3.3925024705    -1.7655969828
| 19>  H        2.2832759297     2.9977338468    -3.8275829742
| 20>  H        2.1169662641     1.2810846264    -3.3493856507
| 21>  H        1.3022135595     4.1026591526    -0.9294825264
| 22> *
| 23>
| 24>                          ****END OF INPUT****

CARTESIAN COORDINATES (ANGSTROEM)
---------------------------------
  O      0.483705   -0.122363   -0.437132
  C      0.217781    1.040030   -0.290392
  C      1.247728    2.112589    0.069480
  O      2.510060    1.577537    0.397569
  C      3.267949    1.435733   -0.804887
  C      2.861372    2.622526   -1.697181
  C      2.080433    2.316903   -2.993432
  O      0.815758    2.629750   -2.360947
  C      1.482848    3.046177   -1.146506
  H     -0.820084    1.426889   -0.396915
  H      0.877580    2.659470    0.946010
  H      4.323579    1.446442   -0.523815
  H      3.039186    0.476624   -1.286641
  H      3.628777    3.392502   -1.765597
  H      2.283276    2.997734   -3.827583
  H      2.116966    1.281085   -3.349386
  H      1.302214    4.102659   -0.929483

 Total Charge           Charge          ....    0
 Multiplicity           Mult            ....    1
 Number of Electrons    NEL             ....   68
 Basis Dimension        Dim             ....  327

ORBITAL ENERGIES
----------------

  NO   OCC          E(Eh)            E(eV)
   0   2.0000     -20.568637      -559.7011
   1   2.0000     -20.568031      -559.6846
   2   2.0000     -20.556278      -559.3648
   3   2.0000     -11.331335      -308.3413
   4   2.0000     -11.306568      -307.6674
   5   2.0000     -11.301153      -307.5200
   6   2.0000     -11.295005      -307.3527
   7   2.0000     -11.285567      -307.0959
   8   2.0000     -11.251379      -306.1656
   9   2.0000      -1.416474       -38.5442
  10   2.0000      -1.393784       -37.9268
  11   2.0000      -1.379289       -37.5324
  12   2.0000      -1.058054       -28.7911
  13   2.0000      -1.037639       -28.2356
  14   2.0000      -0.935078       -25.4448
  15   2.0000      -0.890194       -24.2234
  16   2.0000      -0.782153       -21.2835
  17   2.0000      -0.765545       -20.8315
  18   2.0000      -0.735306       -20.0087
  19   2.0000      -0.701780       -19.0964
  20   2.0000      -0.667760       -18.1707
  21   2.0000      -0.647128       -17.6092
  22   2.0000      -0.639906       -17.4127
  23   2.0000      -0.629360       -17.1258
  24   2.0000      -0.598334       -16.2815
  25   2.0000      -0.564675       -15.3656
  26   2.0000      -0.558032       -15.1848
  27   2.0000      -0.520801       -14.1717
  28   2.0000      -0.504169       -13.7191
  29   2.0000      -0.473924       -12.8961
  30   2.0000      -0.465160       -12.6576
  31   2.0000      -0.461737       -12.5645
  32   2.0000      -0.440267       -11.9803
  33   2.0000      -0.403010       -10.9665
  34   0.0000       0.132086         3.5943
  35   0.0000       0.137974         3.7545
  36   0.0000       0.153882         4.1873
  37   0.0000       0.167618         4.5611
  38   0.0000       0.177494         4.8299

MULLIKEN ATOMIC CHARGES
-----------------------
   0 O :   -0.262351
   1 C :    0.079837
   2 C :    0.090203
   3 O :   -0.307231
   4 C :   -0.032475
   5 C :   -0.204262
   6 C :   -0.027543
   7 O :   -0.349602
   8 C :    0.116157
   9 H :    0.075710
  10 H :    0.129084
  11 H :    0.123464
  12 H :    0.102738
  13 H :    0.130975
  14 H :    0.108655
  15 H :    0.111326
  16 H :    0.115315
Sum of atomic charges:    0.0000000

LOEWDIN ATOMIC CHARGES
----------------------
   0 O :    0.146030
   1 C :   -0.273198
   2 C :   -0.308602
   3 O :    0.190166
   4 C :   -0.270012
   5 C :   -0.206118
   6 C :   -0.243724
   7 O :    0.137682
   8 C :   -0.222027
   9 H :    0.114752
  10 H :    0.153148
  11 H :    0.128333
  12 H :    0.128515
  13 H :    0.145994
  14 H :    0.120867
  15 H :    0.122353
  16 H :    0.135844

  Mayer bond orders larger than 0.1
B(  0-O ,  1-C ) :   2.0016 B(  1-C ,  2-C ) :   0.8227 B(  1-C ,  9-H ) :   0.9207
B(  2-C ,  3-O ) :   0.9697 B(  2-C ,  8-C ) :   0.9061 B(  2-C , 10-H ) :   0.9026
B(  3-O ,  4-C ) :   0.9123 B(  4-C ,  5-C ) :   0.9557 B(  4-C , 11-H ) :   0.9312
B(  4-C , 12-H ) :   0.8951 B(  5-C ,  6-C ) :   0.9821 B(  5-C ,  8-C ) :   0.9227
B(  5-C , 13-H ) :   0.9150 B(  6-C ,  7-O ) :   0.9155 B(  6-C , 14-H ) :   0.9177
B(  6-C , 15-H ) :   0.9076 B(  7-O ,  8-C ) :   0.9570 B(  8-C , 16-H ) :   0.9183

MP2 TOTAL ENERGY:     -458.205541571 Eh
FINAL SINGLE POINT ENERGY      -458.205541570745

DIPOLE MOMENT
-------------
                                X             Y             Z
Electronic contribution:     -2.72792      -1.80565       2.36186
Nuclear contribution   :      3.28886       2.93808      -2.69915
                        -----------------------------------------
Total Dipole Moment    :      0.56095       1.13244      -0.33729
                        -----------------------------------------
Magnitude (a.u.)       :      1.30799
Magnitude (Debye)      :      3.32464

                             ****ORCA TERMINATED NORMALLY****
TOTAL RUN TIME: 0 days 0 hours 18 minutes 4 seconds 316 msec
