                         Program Version 3.0.3 - RELEASE   -
|  1> ! RI-MP2 RIJK def2-TZVP def2-TZVP/C def2-TZVP/JK TIGHTSCF
|  2> % maxcore 2000
|  3> % mp2 density relaxed end
|  4> *xyz 0 1
|  5>  C       -0.1066487924     1.3920521682    -0.3208033683
|  6>  C        0.1041602857    -0.0728367648    -0.0008657398
|  7>  C        1.3181671844    -0.7629406948    -0.5925139418
|  8>  C        1.2455160602    -0.4606505563     0.8922696021
|  9>  N       -1.1703506510    -0.7390380761     0.1846525323
| 10>  C       -1.8135286450    -1.3331151559    -0.9839475120
| 11>  C       -1.2807807836    -2.1869718537     0.1141869998
| 12>  H        0.8485654031     1.9173362706    -0.4095712611
| 13>  H       -0.6467011758     1.5106183501    -1.2670096634
| 14>  H       -0.6975781527     1.8714562641     0.4657380482
| 15>  H        1.2535143177    -1.8011799494    -0.8982043241
| 16>  H        1.9854717888    -0.1701215751    -1.2093080078
| 17>  H        1.8759570259     0.3229163624     1.2990314466
| 18>  H        1.0922610909    -1.3012109993     1.5610155287
| 19>  H       -2.8806279324    -1.1555397194    -1.0840289500
| 20>  H       -1.2564059535    -1.3400394946    -1.9193209054
| 21>  H       -0.3982829397    -2.7838946258    -0.1054770838
| 22>  H       -1.9519107706    -2.6344944401     0.8423784998
| 23> *
| 24>
| 25>                          ****END OF INPUT****

CARTESIAN COORDINATES (ANGSTROEM)
---------------------------------
  C     -0.106649    1.392052   -0.320803
  C      0.104160   -0.072837   -0.000866
  C      1.318167   -0.762941   -0.592514
  C      1.245516   -0.460651    0.892270
  N     -1.170351   -0.739038    0.184653
  C     -1.813529   -1.333115   -0.983948
  C     -1.280781   -2.186972    0.114187
  H      0.848565    1.917336   -0.409571
  H     -0.646701    1.510618   -1.267010
  H     -0.697578    1.871456    0.465738
  H      1.253514   -1.801180   -0.898204
  H      1.985472   -0.170122   -1.209308
  H      1.875957    0.322916    1.299031
  H      1.092261   -1.301211    1.561016
  H     -2.880628   -1.155540   -1.084029
  H     -1.256406   -1.340039   -1.919321
  H     -0.398283   -2.783895   -0.105477
  H     -1.951911   -2.634494    0.842378

 Total Charge           Charge          ....    0
 Multiplicity           Mult            ....    1
 Number of Electrons    NEL             ....   54
 Basis Dimension        Dim             ....  283

ORBITAL ENERGIES
----------------

  NO   OCC          E(Eh)            E(eV)
   0   2.0000     -15.557173      -423.3322
   1   2.0000     -11.263350      -306.4913
   2   2.0000     -11.252862      -306.2059
   3   2.0000     -11.250530      -306.1425
   4   2.0000     -11.221323      -305.3477
   5   2.0000     -11.219543      -305.2993
   6   2.0000     -11.211589      -305.0829
   7   2.0000      -1.275655       -34.7123
   8   2.0000      -1.135138       -30.8887
   9   2.0000      -0.972415       -26.4608
  10   2.0000      -0.900475       -24.5032
  11   2.0000      -0.841071       -22.8867
  12   2.0000      -0.823007       -22.3952
  13   2.0000      -0.742235       -20.1972
  14   2.0000      -0.690473       -18.7887
  15   2.0000      -0.655646       -17.8410
  16   2.0000      -0.631271       -17.1777
  17   2.0000      -0.570136       -15.5142
  18   2.0000      -0.552657       -15.0386
  19   2.0000      -0.539093       -14.6695
  20   2.0000      -0.524739       -14.2789
  21   2.0000      -0.512986       -13.9591
  22   2.0000      -0.487886       -13.2760
  23   2.0000      -0.461483       -12.5576
  24   2.0000      -0.436678       -11.8826
  25   2.0000      -0.402838       -10.9618
  26   2.0000      -0.351386        -9.5617
  27   0.0000       0.148713         4.0467
  28   0.0000       0.157997         4.2993
  29   0.0000       0.163329         4.4444
  30   0.0000       0.182958         4.9785
  31   0.0000       0.197207         5.3663

MULLIKEN ATOMIC CHARGES
-----------------------
   0 C :   -0.432660
   1 C :    0.173073
   2 C :   -0.306083
   3 C :   -0.268397
   4 N :   -0.211313
   5 C :   -0.176094
   6 C :   -0.194829
   7 H :    0.122760
   8 H :    0.128711
   9 H :    0.139149
  10 H :    0.128843
  11 H :    0.128159
  12 H :    0.129946
  13 H :    0.132315
  14 H :    0.129359
  15 H :    0.126259
  16 H :    0.121031
  17 H :    0.129770
Sum of atomic charges:    0.0000000

LOEWDIN ATOMIC CHARGES
----------------------
   0 C :   -0.262759
   1 C :   -0.330415
   2 C :   -0.223103
   3 C :   -0.206028
   4 N :    0.142017
   5 C :   -0.259663
   6 C :   -0.267363
   7 H :    0.127100
   8 H :    0.126335
   9 H :    0.129895
  10 H :    0.129369
  11 H :    0.131916
  12 H :    0.132943
  13 H :    0.136328
  14 H :    0.122804
  15 H :    0.124677
  16 H :    0.121636
  17 H :    0.124310

  Mayer bond orders larger than 0.1
B(  0-C ,  1-C ) :   0.9242 B(  0-C ,  7-H ) :   0.9349 B(  0-C ,  8-H ) :   0.9327
B(  0-C ,  9-H ) :   0.9399 B(  1-C ,  2-C ) :   0.8732 B(  1-C ,  3-C ) :   0.8675
B(  1-C ,  4-N ) :   0.9104 B(  2-C ,  3-C ) :   0.8757 B(  2-C , 10-H ) :   0.9230
B(  2-C , 11-H ) :   0.9216 B(  3-C , 12-H ) :   0.9294 B(  3-C , 13-H ) :   0.9272
B(  4-N ,  5-C ) :   0.8814 B(  4-N ,  6-C ) :   0.8865 B(  5-C ,  6-C ) :   0.9380
B(  5-C , 14-H ) :   0.9263 B(  5-C , 15-H ) :   0.9214 B(  6-C , 16-H ) :   0.9255
B(  6-C , 17-H ) :   0.9275

MP2 TOTAL ENERGY:     -289.270637882 Eh
FINAL SINGLE POINT ENERGY      -289.270637882129

DIPOLE MOMENT
-------------
                                X             Y             Z
Electronic contribution:     -1.56410      -1.04690       1.09843
Nuclear contribution   :      1.77148       0.84298      -1.40011
                        -----------------------------------------
Total Dipole Moment    :      0.20738      -0.20391      -0.30168
                        -----------------------------------------
Magnitude (a.u.)       :      0.41904
Magnitude (Debye)      :      1.06513

                             ****ORCA TERMINATED NORMALLY****
TOTAL RUN TIME: 0 days 0 hours 9 minutes 8 seconds 620 msec
