                         Program Version 3.0.3 - RELEASE   -
|  1> ! RI-MP2 RIJK def2-TZVP def2-TZVP/C def2-TZVP/JK TIGHTSCF
|  2> % maxcore 2000
|  3> % mp2 density relaxed end
|  4> *xyz 0 1
|  5>  C        0.0183363180     1.4571656170    -0.0064379956
|  6>  C        0.0317007552    -0.0347115981    -0.0165020845
|  7>  N        0.0120813786    -0.7957386942    -1.1021885537
|  8>  C        0.0348594346    -2.0821070777    -0.6502611236
|  9>  O        0.0237196247    -3.1381703448    -1.5005583930
| 10>  C        0.0689013227    -2.1423461448     0.7200448783
| 11>  N        0.1018494497    -3.1687058115     1.6834557589
| 12>  N        0.0659818006    -0.7996930319     1.1019483908
| 13>  H        0.9106201821     1.8725121558     0.4766319214
| 14>  H       -0.0098504591     1.8117727066    -1.0376255369
| 15>  H       -0.8569719803     1.8563892905     0.5193934505
| 16>  H       -0.0013834140    -2.7620038597    -2.3884928160
| 17>  H        0.9210530527    -3.7586889893     1.5785967684
| 18>  H       -0.7107732550    -3.7733826862     1.6187748362
| 19>  H        0.0865744894    -0.4901009019     2.0594972888
| 20> *
| 21>
| 22>                          ****END OF INPUT****

CARTESIAN COORDINATES (ANGSTROEM)
---------------------------------
  C      0.018336    1.457166   -0.006438
  C      0.031701   -0.034712   -0.016502
  N      0.012081   -0.795739   -1.102189
  C      0.034859   -2.082107   -0.650261
  O      0.023720   -3.138170   -1.500558
  C      0.068901   -2.142346    0.720045
  N      0.101849   -3.168706    1.683456
  N      0.065982   -0.799693    1.101948
  H      0.910620    1.872512    0.476632
  H     -0.009850    1.811773   -1.037626
  H     -0.856972    1.856389    0.519393
  H     -0.001383   -2.762004   -2.388493
  H      0.921053   -3.758689    1.578597
  H     -0.710773   -3.773383    1.618775
  H      0.086574   -0.490101    2.059497

 Total Charge           Charge          ....    0
 Multiplicity           Mult            ....    1
 Number of Electrons    NEL             ....   60
 Basis Dimension        Dim             ....  290

ORBITAL ENERGIES
----------------

  NO   OCC          E(Eh)            E(eV)
   0   2.0000     -20.574979      -559.8736
   1   2.0000     -15.604364      -424.6163
   2   2.0000     -15.558701      -423.3738
   3   2.0000     -15.536470      -422.7688
   4   2.0000     -11.301347      -307.5253
   5   2.0000     -11.292981      -307.2976
   6   2.0000     -11.266991      -306.5904
   7   2.0000     -11.237879      -305.7982
   8   2.0000      -1.401230       -38.1294
   9   2.0000      -1.330086       -36.1935
  10   2.0000      -1.196396       -32.5556
  11   2.0000      -1.146127       -31.1877
  12   2.0000      -1.029470       -28.0133
  13   2.0000      -0.927517       -25.2390
  14   2.0000      -0.814309       -22.1585
  15   2.0000      -0.794668       -21.6240
  16   2.0000      -0.735485       -20.0136
  17   2.0000      -0.672242       -18.2926
  18   2.0000      -0.658162       -17.9095
  19   2.0000      -0.636682       -17.3250
  20   2.0000      -0.617764       -16.8102
  21   2.0000      -0.598094       -16.2750
  22   2.0000      -0.575209       -15.6522
  23   2.0000      -0.556271       -15.1369
  24   2.0000      -0.536330       -14.5943
  25   2.0000      -0.526495       -14.3266
  26   2.0000      -0.465940       -12.6789
  27   2.0000      -0.411487       -11.1971
  28   2.0000      -0.387452       -10.5431
  29   2.0000      -0.286369        -7.7925
  30   0.0000       0.128528         3.4974
  31   0.0000       0.143611         3.9079
  32   0.0000       0.168838         4.5943
  33   0.0000       0.169877         4.6226
  34   0.0000       0.173983         4.7343

MULLIKEN ATOMIC CHARGES
-----------------------
   0 C :   -0.433481
   1 C :    0.220989
   2 N :   -0.328494
   3 C :    0.195309
   4 O :   -0.453147
   5 C :    0.060469
   6 N :   -0.544124
   7 N :   -0.258745
   8 H :    0.140655
   9 H :    0.161250
  10 H :    0.140660
  11 H :    0.339526
  12 H :    0.255994
  13 H :    0.255988
  14 H :    0.247149
Sum of atomic charges:    0.0000000

LOEWDIN ATOMIC CHARGES
----------------------
   0 C :   -0.280954
   1 C :   -0.350106
   2 N :    0.099278
   3 C :   -0.402726
   4 O :    0.051778
   5 C :   -0.338096
   6 N :   -0.122421
   7 N :    0.211323
   8 H :    0.130092
   9 H :    0.142245
  10 H :    0.130094
  11 H :    0.197230
  12 H :    0.168510
  13 H :    0.168507
  14 H :    0.195247

  Mayer bond orders larger than 0.1
B(  0-C ,  1-C ) :   0.8601 B(  0-C ,  8-H ) :   0.9337 B(  0-C ,  9-H ) :   0.9515
B(  0-C , 10-H ) :   0.9337 B(  1-C ,  2-N ) :   1.5405 B(  1-C ,  7-N ) :   1.2103
B(  2-N ,  3-C ) :   1.2822 B(  3-C ,  4-O ) :   1.1101 B(  3-C ,  5-C ) :   1.4916
B(  4-O , 11-H ) :   0.8214 B(  5-C ,  6-N ) :   1.0876 B(  5-C ,  7-N ) :   1.0830
B(  6-N , 12-H ) :   0.8868 B(  6-N , 13-H ) :   0.8868 B(  7-N , 14-H ) :   0.8584

MP2 TOTAL ENERGY:     -395.378129810 Eh
FINAL SINGLE POINT ENERGY      -395.378129810473

DIPOLE MOMENT
-------------
                                X             Y             Z
Electronic contribution:     -0.00777      -3.84682      -1.75257
Nuclear contribution   :      0.02280       4.10080       2.46518
                        -----------------------------------------
Total Dipole Moment    :      0.01503       0.25399       0.71261
                        -----------------------------------------
Magnitude (a.u.)       :      0.75667
Magnitude (Debye)      :      1.92330

                             ****ORCA TERMINATED NORMALLY****
TOTAL RUN TIME: 0 days 0 hours 10 minutes 48 seconds 455 msec
