                         Program Version 3.0.3 - RELEASE   -
|  1> ! RI-MP2 RIJK def2-TZVP def2-TZVP/C def2-TZVP/JK TIGHTSCF
|  2> % maxcore 2000
|  3> % mp2 density relaxed end
|  4> *xyz 0 1
|  5>  C        1.4514592862    -0.6452313208    -1.0937612461
|  6>  C        0.3152531445    -0.3082110668    -0.1199919747
|  7>  C        0.6171461923    -0.6538104411     1.3301932172
|  8>  C       -0.5202804107    -1.1503346798     2.2209816198
|  9>  C        0.5303396618    -2.1087686738     1.7669701392
| 10>  C        1.6328365357     0.1507411358     2.0776636842
| 11>  O        2.0248296075    -0.0941012240     3.1951198653
| 12>  O        2.0614443413     1.2185627201     1.3695033262
| 13>  C        3.0196955162     2.0478220707     2.0373611680
| 14>  H        1.7033905797    -1.7102415550    -1.0522936275
| 15>  H        1.1629070178    -0.4094004156    -2.1228346006
| 16>  H        2.3530145863    -0.0746983602    -0.8575472672
| 17>  H        0.0669557595     0.7556436579    -0.1959187519
| 18>  H       -0.5859466506    -0.8586445167    -0.4155788203
| 19>  H       -0.4991221000    -0.8385622042     3.2581655784
| 20>  H       -1.5036926039    -1.1948526797     1.7662057171
| 21>  H        0.2794896505    -2.8282681587     0.9951102566
| 22>  H        1.2553038030    -2.4410873319     2.4997299105
| 23>  H        3.2641311937     2.8438503326     1.3337766158
| 24>  H        2.5962359820     2.4639104983     2.9549330602
| 25>  H        3.9138769873     1.4745803229     2.2943954397
| 26> *
| 27>
| 28>                          ****END OF INPUT****

CARTESIAN COORDINATES (ANGSTROEM)
---------------------------------
  C      1.451459   -0.645231   -1.093761
  C      0.315253   -0.308211   -0.119992
  C      0.617146   -0.653810    1.330193
  C     -0.520280   -1.150335    2.220982
  C      0.530340   -2.108769    1.766970
  C      1.632837    0.150741    2.077664
  O      2.024830   -0.094101    3.195120
  O      2.061444    1.218563    1.369503
  C      3.019696    2.047822    2.037361
  H      1.703391   -1.710242   -1.052294
  H      1.162907   -0.409400   -2.122835
  H      2.353015   -0.074698   -0.857547
  H      0.066956    0.755644   -0.195919
  H     -0.585947   -0.858645   -0.415579
  H     -0.499122   -0.838562    3.258166
  H     -1.503693   -1.194853    1.766206
  H      0.279490   -2.828268    0.995110
  H      1.255304   -2.441087    2.499730
  H      3.264131    2.843850    1.333777
  H      2.596236    2.463910    2.954933
  H      3.913877    1.474580    2.294395

 Total Charge           Charge          ....    0
 Multiplicity           Mult            ....    1
 Number of Electrons    NEL             ....   70
 Basis Dimension        Dim             ....  351

ORBITAL ENERGIES
----------------

  NO   OCC          E(Eh)            E(eV)
   0   2.0000     -20.599626      -560.5443
   1   2.0000     -20.532922      -558.7292
   2   2.0000     -11.374059      -309.5039
   3   2.0000     -11.283086      -307.0284
   4   2.0000     -11.250559      -306.1433
   5   2.0000     -11.236705      -305.7663
   6   2.0000     -11.234239      -305.6992
   7   2.0000     -11.229324      -305.5654
   8   2.0000     -11.212484      -305.1072
   9   2.0000      -1.456217       -39.6257
  10   2.0000      -1.353051       -36.8184
  11   2.0000      -1.164128       -31.6775
  12   2.0000      -1.027989       -27.9730
  13   2.0000      -0.981360       -26.7042
  14   2.0000      -0.884196       -24.0602
  15   2.0000      -0.837713       -22.7953
  16   2.0000      -0.828035       -22.5320
  17   2.0000      -0.754490       -20.5307
  18   2.0000      -0.695931       -18.9372
  19   2.0000      -0.675257       -18.3747
  20   2.0000      -0.668182       -18.1822
  21   2.0000      -0.639642       -17.4055
  22   2.0000      -0.607928       -16.5426
  23   2.0000      -0.599079       -16.3018
  24   2.0000      -0.572616       -15.5817
  25   2.0000      -0.555498       -15.1159
  26   2.0000      -0.536601       -14.6017
  27   2.0000      -0.528450       -14.3799
  28   2.0000      -0.512802       -13.9540
  29   2.0000      -0.500325       -13.6145
  30   2.0000      -0.495983       -13.4964
  31   2.0000      -0.459752       -12.5105
  32   2.0000      -0.446368       -12.1463
  33   2.0000      -0.426169       -11.5967
  34   2.0000      -0.404662       -11.0114
  35   0.0000       0.140209         3.8153
  36   0.0000       0.153863         4.1868
  37   0.0000       0.160695         4.3727
  38   0.0000       0.173711         4.7269
  39   0.0000       0.176926         4.8144

MULLIKEN ATOMIC CHARGES
-----------------------
   0 C :   -0.426870
   1 C :   -0.163819
   2 C :    0.075882
   3 C :   -0.269254
   4 C :   -0.275670
   5 C :    0.285278
   6 O :   -0.355952
   7 O :   -0.253563
   8 C :   -0.234186
   9 H :    0.123941
  10 H :    0.131581
  11 H :    0.137635
  12 H :    0.116528
  13 H :    0.108954
  14 H :    0.150624
  15 H :    0.135849
  16 H :    0.136449
  17 H :    0.152564
  18 H :    0.142848
  19 H :    0.140091
  20 H :    0.141089
Sum of atomic charges:    0.0000000

LOEWDIN ATOMIC CHARGES
----------------------
   0 C :   -0.312797
   1 C :   -0.248273
   2 C :   -0.212837
   3 C :   -0.186370
   4 C :   -0.189502
   5 C :   -0.441361
   6 O :    0.117017
   7 O :    0.236283
   8 C :   -0.311477
   9 H :    0.120491
  10 H :    0.120670
  11 H :    0.122075
  12 H :    0.144154
  13 H :    0.142589
  14 H :    0.141910
  15 H :    0.134787
  16 H :    0.136594
  17 H :    0.143086
  18 H :    0.114045
  19 H :    0.114574
  20 H :    0.114341

  Mayer bond orders larger than 0.1
B(  0-C ,  1-C ) :   0.9165 B(  0-C ,  9-H ) :   0.9389 B(  0-C , 10-H ) :   0.9387
B(  0-C , 11-H ) :   0.9375 B(  1-C ,  2-C ) :   0.9214 B(  1-C , 12-H ) :   0.9227
B(  1-C , 13-H ) :   0.9242 B(  2-C ,  3-C ) :   0.8263 B(  2-C ,  4-C ) :   0.8330
B(  2-C ,  5-C ) :   0.9627 B(  3-C ,  4-C ) :   0.9424 B(  3-C , 14-H ) :   0.9195
B(  3-C , 15-H ) :   0.9260 B(  4-C , 16-H ) :   0.9292 B(  4-C , 17-H ) :   0.9154
B(  5-C ,  6-O ) :   1.8808 B(  5-C ,  7-O ) :   1.1126 B(  7-O ,  8-C ) :   0.8420
B(  8-C , 18-H ) :   0.9350 B(  8-C , 19-H ) :   0.9373 B(  8-C , 20-H ) :   0.9396

MP2 TOTAL ENERGY:     -423.547105881 Eh
FINAL SINGLE POINT ENERGY      -423.547105881270

DIPOLE MOMENT
-------------
                                X             Y             Z
Electronic contribution:      1.11797       1.41297       5.60912
Nuclear contribution   :     -1.25345      -1.13922      -6.17514
                        -----------------------------------------
Total Dipole Moment    :     -0.13548       0.27375      -0.56602
                        -----------------------------------------
Magnitude (a.u.)       :      0.64317
Magnitude (Debye)      :      1.63481

                             ****ORCA TERMINATED NORMALLY****
TOTAL RUN TIME: 0 days 0 hours 19 minutes 44 seconds 162 msec
