                         Program Version 3.0.3 - RELEASE   -
|  1> ! RI-MP2 RIJK def2-TZVP def2-TZVP/C def2-TZVP/JK TIGHTSCF
|  2> % maxcore 2000
|  3> % mp2 density relaxed end
|  4> *xyz 0 1
|  5>  O        0.0257276405     0.0374302554    -0.3244983276
|  6>  C       -0.0138925465     1.1873168194     0.0075203593
|  7>  C       -1.3169205979     1.9984845534     0.3066963587
|  8>  C       -0.8423747837     3.2577450634     0.9739820288
|  9>  C       -0.0342700051     3.1897529337     2.2576071252
| 10>  C        0.6839742657     3.2879795677     0.9539148487
| 11>  C        1.2340440020     2.1054245403     0.2224071519
| 12>  O        0.7407911979     4.6339593520     0.4656527367
| 13>  C       -0.7147662673     4.6559705436     0.3655744364
| 14>  H       -1.8070488651     2.2057689140    -0.6526113116
| 15>  H       -2.0036514050     1.3731088530     0.8847352784
| 16>  H       -0.0213134660     4.0458144313     2.9247279643
| 17>  H       -0.0203242314     2.2245904619     2.7550866997
| 18>  H        2.0260212612     1.5401575031     0.7201134293
| 19>  H        1.6075527400     2.4085566324    -0.7626681159
| 20>  H       -1.0295599292     4.7010914452    -0.6840441868
| 21>  H       -1.1522880101     5.4971613303     0.9158958045
| 22> *
| 23>
| 24>                          ****END OF INPUT****

CARTESIAN COORDINATES (ANGSTROEM)
---------------------------------
  O      0.025728    0.037430   -0.324498
  C     -0.013893    1.187317    0.007520
  C     -1.316921    1.998485    0.306696
  C     -0.842375    3.257745    0.973982
  C     -0.034270    3.189753    2.257607
  C      0.683974    3.287980    0.953915
  C      1.234044    2.105425    0.222407
  O      0.740791    4.633959    0.465653
  C     -0.714766    4.655971    0.365574
  H     -1.807049    2.205769   -0.652611
  H     -2.003651    1.373109    0.884735
  H     -0.021313    4.045814    2.924728
  H     -0.020324    2.224590    2.755087
  H      2.026021    1.540158    0.720113
  H      1.607553    2.408557   -0.762668
  H     -1.029560    4.701091   -0.684044
  H     -1.152288    5.497161    0.915896

 Total Charge           Charge          ....    0
 Multiplicity           Mult            ....    1
 Number of Electrons    NEL             ....   66
 Basis Dimension        Dim             ....  327

ORBITAL ENERGIES
----------------

  NO   OCC          E(Eh)            E(eV)
   0   2.0000     -20.568050      -559.6851
   1   2.0000     -20.558500      -559.4252
   2   2.0000     -11.344376      -308.6962
   3   2.0000     -11.301788      -307.5373
   4   2.0000     -11.299590      -307.4775
   5   2.0000     -11.256760      -306.3120
   6   2.0000     -11.254807      -306.2589
   7   2.0000     -11.252925      -306.2077
   8   2.0000     -11.247735      -306.0664
   9   2.0000      -1.407677       -38.3048
  10   2.0000      -1.402328       -38.1593
  11   2.0000      -1.171299       -31.8727
  12   2.0000      -1.031185       -28.0600
  13   2.0000      -1.009688       -27.4750
  14   2.0000      -0.934238       -25.4219
  15   2.0000      -0.831284       -22.6204
  16   2.0000      -0.757947       -20.6248
  17   2.0000      -0.722532       -19.6611
  18   2.0000      -0.703617       -19.1464
  19   2.0000      -0.672004       -18.2862
  20   2.0000      -0.644849       -17.5472
  21   2.0000      -0.627533       -17.0761
  22   2.0000      -0.617852       -16.8126
  23   2.0000      -0.602049       -16.3826
  24   2.0000      -0.585632       -15.9359
  25   2.0000      -0.572626       -15.5819
  26   2.0000      -0.554259       -15.0821
  27   2.0000      -0.515880       -14.0378
  28   2.0000      -0.503770       -13.7083
  29   2.0000      -0.484439       -13.1822
  30   2.0000      -0.423245       -11.5171
  31   2.0000      -0.403361       -10.9760
  32   2.0000      -0.367833       -10.0092
  33   0.0000       0.120979         3.2920
  34   0.0000       0.128181         3.4880
  35   0.0000       0.158283         4.3071
  36   0.0000       0.170440         4.6379
  37   0.0000       0.174156         4.7390

MULLIKEN ATOMIC CHARGES
-----------------------
   0 O :   -0.238422
   1 C :    0.120611
   2 C :   -0.277580
   3 C :   -0.006413
   4 C :   -0.277163
   5 C :    0.195092
   6 C :   -0.265593
   7 O :   -0.324366
   8 C :   -0.032886
   9 H :    0.145298
  10 H :    0.149162
  11 H :    0.144239
  12 H :    0.145201
  13 H :    0.150133
  14 H :    0.156413
  15 H :    0.103798
  16 H :    0.112477
Sum of atomic charges:    0.0000000

LOEWDIN ATOMIC CHARGES
----------------------
   0 O :    0.168313
   1 C :   -0.281065
   2 C :   -0.196094
   3 C :   -0.196825
   4 C :   -0.156080
   5 C :   -0.271908
   6 C :   -0.186803
   7 O :    0.158410
   8 C :   -0.214692
   9 H :    0.160197
  10 H :    0.152456
  11 H :    0.145629
  12 H :    0.149565
  13 H :    0.153163
  14 H :    0.166876
  15 H :    0.126833
  16 H :    0.122027

  Mayer bond orders larger than 0.1
B(  0-O ,  1-C ) :   2.0804 B(  1-C ,  2-C ) :   0.8809 B(  1-C ,  6-C ) :   0.8711
B(  2-C ,  3-C ) :   0.9344 B(  2-C ,  6-C ) :  -0.1184 B(  2-C ,  9-H ) :   0.9043
B(  2-C , 10-H ) :   0.9062 B(  3-C ,  4-C ) :   0.8720 B(  3-C ,  5-C ) :   0.7460
B(  3-C ,  8-C ) :   0.9510 B(  4-C ,  5-C ) :   0.9172 B(  4-C , 11-H ) :   0.9113
B(  4-C , 12-H ) :   0.9126 B(  5-C ,  6-C ) :   0.9175 B(  5-C ,  7-O ) :   0.9867
B(  6-C , 13-H ) :   0.9097 B(  6-C , 14-H ) :   0.9015 B(  7-O ,  8-C ) :   0.9253
B(  8-C , 15-H ) :   0.9063 B(  8-C , 16-H ) :   0.9154

MP2 TOTAL ENERGY:     -421.089085961 Eh
FINAL SINGLE POINT ENERGY      -421.089085960937

DIPOLE MOMENT
-------------
                                X             Y             Z
Electronic contribution:      1.59328      -1.80016      -1.24123
Nuclear contribution   :     -2.10625       2.22767       1.50659
                        -----------------------------------------
Total Dipole Moment    :     -0.51297       0.42752       0.26536
                        -----------------------------------------
Magnitude (a.u.)       :      0.71855
Magnitude (Debye)      :      1.82642

                             ****ORCA TERMINATED NORMALLY****
TOTAL RUN TIME: 0 days 0 hours 17 minutes 23 seconds 95 msec
