                         Program Version 3.0.3 - RELEASE   -
|  1> ! RI-MP2 RIJK def2-TZVP def2-TZVP/C def2-TZVP/JK TIGHTSCF
|  2> % maxcore 2000
|  3> % mp2 density relaxed end
|  4> *xyz 0 1
|  5>  C       -0.0818224500     1.5355888138    -0.0879870575
|  6>  C        0.0040643596     0.0065304116    -0.0483669543
|  7>  C        0.7761117627    -0.5392508122     1.1588470448
|  8>  C        0.7723090232    -2.0598455813     1.2943107490
|  9>  C        1.6888725222    -2.8619474815     0.4021780949
| 10>  C        2.1255088586    -2.5022411612     1.8033829776
| 11>  C        2.9802533461    -1.2594116962     2.0082262459
| 12>  C        2.2823688232    -0.1215983667     1.2240600467
| 13>  O        2.8745713403     0.1250814841    -0.0507043168
| 14>  H        0.9108741485     1.9788453887    -0.2047392886
| 15>  H       -0.6987569731     1.8728582988    -0.9269800259
| 16>  H       -0.5277902213     1.9340659782     0.8309309645
| 17>  H       -1.0077158784    -0.4183522070    -0.0305643421
| 18>  H        0.4762272939    -0.3537990404    -0.9681566438
| 19>  H        0.3059282090    -0.1391698363     2.0697224090
| 20>  H       -0.1406287069    -2.5346862464     1.6387471505
| 21>  H        1.4229872597    -3.8986848558     0.2242427084
| 22>  H        2.1459184933    -2.3909989968    -0.4625576445
| 23>  H        2.2171319310    -3.3092836420     2.5221052688
| 24>  H        3.0050780715    -1.0142852647     3.0765004895
| 25>  H        4.0217263925    -1.3675634715     1.6837657545
| 26>  H        2.3833670824     0.8323948800     1.7482186847
| 27>  H        3.1458514620    -0.7120167453    -0.4363730554
| 28> *
| 29>
| 30>                          ****END OF INPUT****

CARTESIAN COORDINATES (ANGSTROEM)
---------------------------------
  C     -0.081822    1.535589   -0.087987
  C      0.004064    0.006530   -0.048367
  C      0.776112   -0.539251    1.158847
  C      0.772309   -2.059846    1.294311
  C      1.688873   -2.861947    0.402178
  C      2.125509   -2.502241    1.803383
  C      2.980253   -1.259412    2.008226
  C      2.282369   -0.121598    1.224060
  O      2.874571    0.125081   -0.050704
  H      0.910874    1.978845   -0.204739
  H     -0.698757    1.872858   -0.926980
  H     -0.527790    1.934066    0.830931
  H     -1.007716   -0.418352   -0.030564
  H      0.476227   -0.353799   -0.968157
  H      0.305928   -0.139170    2.069722
  H     -0.140629   -2.534686    1.638747
  H      1.422987   -3.898685    0.224243
  H      2.145918   -2.390999   -0.462558
  H      2.217132   -3.309284    2.522105
  H      3.005078   -1.014285    3.076500
  H      4.021726   -1.367563    1.683766
  H      2.383367    0.832395    1.748219
  H      3.145851   -0.712017   -0.436373

 Total Charge           Charge          ....    0
 Multiplicity           Mult            ....    1
 Number of Electrons    NEL             ....   70
 Basis Dimension        Dim             ....  363

ORBITAL ENERGIES
----------------

  NO   OCC          E(Eh)            E(eV)
   0   2.0000     -20.549049      -559.1680
   1   2.0000     -11.275538      -306.8230
   2   2.0000     -11.231180      -305.6160
   3   2.0000     -11.228298      -305.5375
   4   2.0000     -11.227323      -305.5110
   5   2.0000     -11.225050      -305.4492
   6   2.0000     -11.223796      -305.4150
   7   2.0000     -11.211269      -305.0741
   8   2.0000     -11.202572      -304.8375
   9   2.0000      -1.356168       -36.9032
  10   2.0000      -1.171121       -31.8678
  11   2.0000      -1.051588       -28.6152
  12   2.0000      -1.003983       -27.3198
  13   2.0000      -0.944138       -25.6913
  14   2.0000      -0.849400       -23.1133
  15   2.0000      -0.823773       -22.4160
  16   2.0000      -0.773218       -21.0403
  17   2.0000      -0.748440       -20.3661
  18   2.0000      -0.700927       -19.0732
  19   2.0000      -0.643284       -17.5046
  20   2.0000      -0.622798       -16.9472
  21   2.0000      -0.614999       -16.7350
  22   2.0000      -0.601758       -16.3747
  23   2.0000      -0.563734       -15.3400
  24   2.0000      -0.557012       -15.1571
  25   2.0000      -0.541801       -14.7431
  26   2.0000      -0.532768       -14.4974
  27   2.0000      -0.514604       -14.0031
  28   2.0000      -0.488195       -13.2845
  29   2.0000      -0.474623       -12.9151
  30   2.0000      -0.467064       -12.7095
  31   2.0000      -0.452093       -12.3021
  32   2.0000      -0.421536       -11.4706
  33   2.0000      -0.402404       -10.9500
  34   2.0000      -0.392999       -10.6940
  35   0.0000       0.134240         3.6529
  36   0.0000       0.151046         4.1102
  37   0.0000       0.158925         4.3246
  38   0.0000       0.164869         4.4863
  39   0.0000       0.184112         5.0099

MULLIKEN ATOMIC CHARGES
-----------------------
   0 C :   -0.425101
   1 C :   -0.136318
   2 C :   -0.108509
   3 C :   -0.071369
   4 C :   -0.305533
   5 C :   -0.099468
   6 C :   -0.253091
   7 C :    0.029646
   8 O :   -0.468444
   9 H :    0.150226
  10 H :    0.130352
  11 H :    0.116302
  12 H :    0.108233
  13 H :    0.089642
  14 H :    0.088221
  15 H :    0.122636
  16 H :    0.132549
  17 H :    0.103877
  18 H :    0.122287
  19 H :    0.118318
  20 H :    0.133023
  21 H :    0.114142
  22 H :    0.308380
Sum of atomic charges:   -0.0000000

LOEWDIN ATOMIC CHARGES
----------------------
   0 C :   -0.318013
   1 C :   -0.269970
   2 C :   -0.216783
   3 C :   -0.178905
   4 C :   -0.210674
   5 C :   -0.202319
   6 C :   -0.223159
   7 C :   -0.292328
   8 O :   -0.017715
   9 H :    0.125507
  10 H :    0.119973
  11 H :    0.118042
  12 H :    0.136651
  13 H :    0.136770
  14 H :    0.159918
  15 H :    0.143417
  16 H :    0.135460
  17 H :    0.123106
  18 H :    0.142193
  19 H :    0.145280
  20 H :    0.139121
  21 H :    0.141584
  22 H :    0.162843

  Mayer bond orders larger than 0.1
B(  0-C ,  1-C ) :   0.9087 B(  0-C ,  9-H ) :   0.9382 B(  0-C , 10-H ) :   0.9415
B(  0-C , 11-H ) :   0.9386 B(  1-C ,  2-C ) :   0.9302 B(  1-C , 12-H ) :   0.9386
B(  1-C , 13-H ) :   0.9134 B(  2-C ,  3-C ) :   0.9403 B(  2-C ,  7-C ) :   0.8872
B(  2-C , 14-H ) :   0.9178 B(  3-C ,  4-C ) :   0.8761 B(  3-C ,  5-C ) :   0.8587
B(  3-C , 15-H ) :   0.9286 B(  4-C ,  5-C ) :   0.8997 B(  4-C , 16-H ) :   0.9349
B(  4-C , 17-H ) :   0.9197 B(  5-C ,  6-C ) :   0.9530 B(  5-C , 18-H ) :   0.9340
B(  6-C ,  7-C ) :   0.9306 B(  6-C , 19-H ) :   0.9228 B(  6-C , 20-H ) :   0.9383
B(  7-C ,  8-O ) :   0.9207 B(  7-C , 21-H ) :   0.9379 B(  8-O , 22-H ) :   0.8423

MP2 TOTAL ENERGY:     -387.621165759 Eh
FINAL SINGLE POINT ENERGY      -387.621165759222

DIPOLE MOMENT
-------------
                                X             Y             Z
Electronic contribution:      3.12726      -2.20736       0.99645
Nuclear contribution   :     -3.23608       1.62548      -0.65230
                        -----------------------------------------
Total Dipole Moment    :     -0.10882      -0.58187       0.34415
                        -----------------------------------------
Magnitude (a.u.)       :      0.68473
Magnitude (Debye)      :      1.74045

                             ****ORCA TERMINATED NORMALLY****
TOTAL RUN TIME: 0 days 0 hours 34 minutes 2 seconds 381 msec
