                         Program Version 3.0.3 - RELEASE   -
|  1> ! RI-MP2 RIJK def2-TZVP def2-TZVP/C def2-TZVP/JK TIGHTSCF
|  2> % maxcore 2000
|  3> % mp2 density relaxed end
|  4> *xyz 0 1
|  5>  C        0.6299448290     1.4566240734    -0.0245822564
|  6>  O        0.7424128379     0.0567514573    -0.0063687949
|  7>  C       -0.0112014101    -0.5659040270    -1.0259624713
|  8>  C        0.1695942908    -2.0485815512    -0.9450356946
|  9>  C        0.9793493893    -2.7179242141    -0.0615065614
| 10>  N        0.8661537499    -4.0653622467    -0.3276268987
| 11>  C       -0.0003845290    -4.2648513195    -1.3715294188
| 12>  N       -0.3022923516    -5.5840036402    -1.7751725012
| 13>  C       -0.4492856182    -3.0288898485    -1.7817772039
| 14>  H        0.9900528749     1.8855845934    -0.9740198626
| 15>  H       -0.4110716830     1.7871729468     0.1238907825
| 16>  H        1.2424733077     1.8466503204     0.7922970092
| 17>  H       -1.0791944569    -0.2983423291    -0.9245479157
| 18>  H        0.3063826765    -0.1846317963    -2.0142810523
| 19>  H        1.6179758696    -2.3437904995     0.7194700238
| 20>  H        1.2626165280    -4.8116198774     0.2163875144
| 21>  H       -1.1778467811    -5.6059279018    -2.2836599641
| 22>  H        0.4122927217    -5.9719369775    -2.3853774014
| 23>  H       -1.1286140952    -2.8465049027    -2.6016633925
| 24> *
| 25>
| 26>                          ****END OF INPUT****

CARTESIAN COORDINATES (ANGSTROEM)
---------------------------------
  C      0.629945    1.456624   -0.024582
  O      0.742413    0.056751   -0.006369
  C     -0.011201   -0.565904   -1.025962
  C      0.169594   -2.048582   -0.945036
  C      0.979349   -2.717924   -0.061507
  N      0.866154   -4.065362   -0.327627
  C     -0.000385   -4.264851   -1.371529
  N     -0.302292   -5.584004   -1.775173
  C     -0.449286   -3.028890   -1.781777
  H      0.990053    1.885585   -0.974020
  H     -0.411072    1.787173    0.123891
  H      1.242473    1.846650    0.792297
  H     -1.079194   -0.298342   -0.924548
  H      0.306383   -0.184632   -2.014281
  H      1.617976   -2.343790    0.719470
  H      1.262617   -4.811620    0.216388
  H     -1.177847   -5.605928   -2.283660
  H      0.412293   -5.971937   -2.385377
  H     -1.128614   -2.846505   -2.601663

 Total Charge           Charge          ....    0
 Multiplicity           Mult            ....    1
 Number of Electrons    NEL             ....   68
 Basis Dimension        Dim             ....  339

ORBITAL ENERGIES
----------------

  NO   OCC          E(Eh)            E(eV)
   0   2.0000     -20.549189      -559.1719
   1   2.0000     -15.588290      -424.1789
   2   2.0000     -15.562842      -423.4865
   3   2.0000     -11.282540      -307.0135
   4   2.0000     -11.272126      -306.7301
   5   2.0000     -11.265981      -306.5629
   6   2.0000     -11.233056      -305.6670
   7   2.0000     -11.206436      -304.9426
   8   2.0000     -11.196371      -304.6687
   9   2.0000      -1.371100       -37.3095
  10   2.0000      -1.291989       -35.1568
  11   2.0000      -1.182381       -32.1742
  12   2.0000      -1.054864       -28.7043
  13   2.0000      -0.972632       -26.4667
  14   2.0000      -0.929376       -25.2896
  15   2.0000      -0.876510       -23.8511
  16   2.0000      -0.776766       -21.1369
  17   2.0000      -0.746024       -20.3004
  18   2.0000      -0.719039       -19.5660
  19   2.0000      -0.666453       -18.1351
  20   2.0000      -0.657727       -17.8977
  21   2.0000      -0.644081       -17.5263
  22   2.0000      -0.621007       -16.8985
  23   2.0000      -0.588331       -16.0093
  24   2.0000      -0.577446       -15.7131
  25   2.0000      -0.565038       -15.3755
  26   2.0000      -0.540243       -14.7008
  27   2.0000      -0.527659       -14.3583
  28   2.0000      -0.512906       -13.9569
  29   2.0000      -0.476394       -12.9633
  30   2.0000      -0.438382       -11.9290
  31   2.0000      -0.421381       -11.4664
  32   2.0000      -0.333444        -9.0735
  33   2.0000      -0.275064        -7.4849
  34   0.0000       0.131895         3.5891
  35   0.0000       0.150358         4.0914
  36   0.0000       0.159456         4.3390
  37   0.0000       0.174123         4.7381
  38   0.0000       0.185458         5.0466

MULLIKEN ATOMIC CHARGES
-----------------------
   0 C :   -0.218637
   1 O :   -0.298647
   2 C :   -0.076103
   3 C :    0.112431
   4 C :   -0.143123
   5 N :   -0.263442
   6 C :    0.214635
   7 N :   -0.546000
   8 C :   -0.347873
   9 H :    0.108999
  10 H :    0.109292
  11 H :    0.136587
  12 H :    0.099180
  13 H :    0.097661
  14 H :    0.151365
  15 H :    0.242114
  16 H :    0.251409
  17 H :    0.251557
  18 H :    0.118595
Sum of atomic charges:   -0.0000000

LOEWDIN ATOMIC CHARGES
----------------------
   0 C :   -0.364295
   1 O :    0.142217
   2 C :   -0.286441
   3 C :   -0.199092
   4 C :   -0.210749
   5 N :    0.191100
   6 C :   -0.338438
   7 N :   -0.120339
   8 C :   -0.175760
   9 H :    0.100580
  10 H :    0.100774
  11 H :    0.112617
  12 H :    0.125061
  13 H :    0.124418
  14 H :    0.136631
  15 H :    0.190559
  16 H :    0.169141
  17 H :    0.164984
  18 H :    0.137034

  Mayer bond orders larger than 0.1
B(  0-C ,  1-O ) :   0.9232 B(  0-C ,  9-H ) :   0.9365 B(  0-C , 10-H ) :   0.9363
B(  0-C , 11-H ) :   0.9405 B(  1-O ,  2-C ) :   0.9816 B(  2-C ,  3-C ) :   0.9258
B(  2-C , 12-H ) :   0.9233 B(  2-C , 13-H ) :   0.9229 B(  3-C ,  4-C ) :   1.4984
B(  3-C ,  8-C ) :   1.1990 B(  4-C ,  5-N ) :   1.1174 B(  4-C , 14-H ) :   0.8991
B(  5-N ,  6-C ) :   1.1293 B(  5-N , 15-H ) :   0.8706 B(  6-C ,  7-N ) :   1.0342
B(  6-C ,  8-C ) :   1.4911 B(  7-N , 16-H ) :   0.8899 B(  7-N , 17-H ) :   0.8747
B(  8-C , 18-H ) :   0.9279

MP2 TOTAL ENERGY:     -418.513892550 Eh
FINAL SINGLE POINT ENERGY      -418.513892549871

DIPOLE MOMENT
-------------
                                X             Y             Z
Electronic contribution:      0.93817      -5.92607       0.75493
Nuclear contribution   :     -0.88478       5.68556      -1.19422
                        -----------------------------------------
Total Dipole Moment    :      0.05339      -0.24051      -0.43929
                        -----------------------------------------
Magnitude (a.u.)       :      0.50366
Magnitude (Debye)      :      1.28019

                             ****ORCA TERMINATED NORMALLY****
TOTAL RUN TIME: 0 days 0 hours 15 minutes 52 seconds 779 msec
