                         Program Version 3.0.3 - RELEASE   -
|  1> ! RI-MP2 RIJK def2-TZVP def2-TZVP/C def2-TZVP/JK TIGHTSCF
|  2> % maxcore 2000
|  3> % mp2 density relaxed end
|  4> *xyz 0 1
|  5>  C        0.2576166459     1.5531582666     0.0749150112
|  6>  C        0.2321909378     0.0268581833     0.1068212317
|  7>  O       -1.0039357980    -0.4582147456     0.6279030636
|  8>  C        0.5020003142    -0.5890365907    -1.2821558966
|  9>  O        1.6203001244     0.0778950639    -1.8823424210
| 10>  C        2.6730212781    -0.8438345975    -2.1618499405
| 11>  C        2.3861816722    -2.0715101932    -1.3034752037
| 12>  C        0.8485054327    -2.1028056286    -1.3140950304
| 13>  C        0.2186466857    -3.0095102519    -0.2576973062
| 14>  H        1.2254435872     1.9197534265    -0.2707122355
| 15>  H       -0.5072706658     1.9364201942    -0.6135926076
| 16>  H        0.0504265808     1.9500356973     1.0725703186
| 17>  H        0.9936066452    -0.3289428118     0.8118521352
| 18>  H       -1.7114110880    -0.0452786734     0.1201212167
| 19>  H       -0.3885088381    -0.3884210520    -1.8998704776
| 20>  H        2.6703136637    -1.1040485179    -3.2318349795
| 21>  H        3.6263850583    -0.3550587945    -1.9359597624
| 22>  H        2.8340690541    -2.9865536922    -1.6998577933
| 23>  H        2.7591581596    -1.9272748172    -0.2823570115
| 24>  H        0.5386736679    -2.4687820256    -2.3022933036
| 25>  H        0.5154667680    -2.7240758153     0.7552627916
| 26>  H       -0.8721580682    -2.9763506120    -0.2949442189
| 27>  H        0.5379161023    -4.0444772324    -0.4217491803
| 28> *
| 29>
| 30>                          ****END OF INPUT****

CARTESIAN COORDINATES (ANGSTROEM)
---------------------------------
  C      0.257617    1.553158    0.074915
  C      0.232191    0.026858    0.106821
  O     -1.003936   -0.458215    0.627903
  C      0.502000   -0.589037   -1.282156
  O      1.620300    0.077895   -1.882342
  C      2.673021   -0.843835   -2.161850
  C      2.386182   -2.071510   -1.303475
  C      0.848505   -2.102806   -1.314095
  C      0.218647   -3.009510   -0.257697
  H      1.225444    1.919753   -0.270712
  H     -0.507271    1.936420   -0.613593
  H      0.050427    1.950036    1.072570
  H      0.993607   -0.328943    0.811852
  H     -1.711411   -0.045279    0.120121
  H     -0.388509   -0.388421   -1.899870
  H      2.670314   -1.104049   -3.231835
  H      3.626385   -0.355059   -1.935960
  H      2.834069   -2.986554   -1.699858
  H      2.759158   -1.927275   -0.282357
  H      0.538674   -2.468782   -2.302293
  H      0.515467   -2.724076    0.755263
  H     -0.872158   -2.976351   -0.294944
  H      0.537916   -4.044477   -0.421749

 Total Charge           Charge          ....    0
 Multiplicity           Mult            ....    1
 Number of Electrons    NEL             ....   72
 Basis Dimension        Dim             ....  363

ORBITAL ENERGIES
----------------

  NO   OCC          E(Eh)            E(eV)
   0   2.0000     -20.552393      -559.2591
   1   2.0000     -20.547212      -559.1181
   2   2.0000     -11.275569      -306.8238
   3   2.0000     -11.274972      -306.8076
   4   2.0000     -11.271040      -306.7006
   5   2.0000     -11.230932      -305.6092
   6   2.0000     -11.222707      -305.3854
   7   2.0000     -11.209820      -305.0347
   8   2.0000     -11.209424      -305.0239
   9   2.0000      -1.373957       -37.3873
  10   2.0000      -1.356381       -36.9090
  11   2.0000      -1.079026       -29.3618
  12   2.0000      -1.035631       -28.1810
  13   2.0000      -0.979602       -26.6563
  14   2.0000      -0.922317       -25.0975
  15   2.0000      -0.849022       -23.1031
  16   2.0000      -0.806541       -21.9471
  17   2.0000      -0.768133       -20.9020
  18   2.0000      -0.684835       -18.6353
  19   2.0000      -0.669241       -18.2110
  20   2.0000      -0.644151       -17.5282
  21   2.0000      -0.629007       -17.1161
  22   2.0000      -0.603399       -16.4193
  23   2.0000      -0.592714       -16.1286
  24   2.0000      -0.577545       -15.7158
  25   2.0000      -0.552554       -15.0358
  26   2.0000      -0.537598       -14.6288
  27   2.0000      -0.525584       -14.3019
  28   2.0000      -0.521871       -14.2008
  29   2.0000      -0.498005       -13.5514
  30   2.0000      -0.491522       -13.3750
  31   2.0000      -0.478394       -13.0178
  32   2.0000      -0.469668       -12.7803
  33   2.0000      -0.452117       -12.3027
  34   2.0000      -0.430724       -11.7206
  35   2.0000      -0.398369       -10.8402
  36   0.0000       0.131518         3.5788
  37   0.0000       0.147633         4.0173
  38   0.0000       0.153467         4.1760
  39   0.0000       0.161197         4.3864
  40   0.0000       0.189050         5.1443

MULLIKEN ATOMIC CHARGES
-----------------------
   0 C :   -0.381867
   1 C :    0.053432
   2 O :   -0.480407
   3 C :    0.078056
   4 O :   -0.325138
   5 C :   -0.022474
   6 C :   -0.267571
   7 C :   -0.092017
   8 C :   -0.338702
   9 H :    0.145461
  10 H :    0.107884
  11 H :    0.143051
  12 H :    0.088204
  13 H :    0.311505
  14 H :    0.073700
  15 H :    0.090077
  16 H :    0.109067
  17 H :    0.127874
  18 H :    0.107270
  19 H :    0.094349
  20 H :    0.122027
  21 H :    0.128377
  22 H :    0.127844
Sum of atomic charges:   -0.0000000

LOEWDIN ATOMIC CHARGES
----------------------
   0 C :   -0.304218
   1 C :   -0.353954
   2 O :   -0.015890
   3 C :   -0.273113
   4 O :    0.165118
   5 C :   -0.305370
   6 C :   -0.244290
   7 C :   -0.255224
   8 C :   -0.291420
   9 H :    0.131034
  10 H :    0.121342
  11 H :    0.124485
  12 H :    0.143652
  13 H :    0.172496
  14 H :    0.137372
  15 H :    0.119580
  16 H :    0.123172
  17 H :    0.138227
  18 H :    0.138426
  19 H :    0.155260
  20 H :    0.125315
  21 H :    0.125326
  22 H :    0.122674

  Mayer bond orders larger than 0.1
B(  0-C ,  1-C ) :   0.9449 B(  0-C ,  9-H ) :   0.9299 B(  0-C , 10-H ) :   0.9174
B(  0-C , 11-H ) :   0.9424 B(  1-C ,  2-O ) :   0.8848 B(  1-C ,  3-C ) :   0.9292
B(  1-C , 12-H ) :   0.9172 B(  2-O , 13-H ) :   0.8413 B(  3-C ,  4-O ) :   0.9225
B(  3-C ,  7-C ) :   0.9141 B(  3-C , 14-H ) :   0.8919 B(  4-O ,  5-C ) :   0.9372
B(  5-C ,  6-C ) :   0.9561 B(  5-C , 15-H ) :   0.9288 B(  5-C , 16-H ) :   0.9249
B(  6-C ,  7-C ) :   0.9207 B(  6-C , 17-H ) :   0.9242 B(  6-C , 18-H ) :   0.9194
B(  7-C ,  8-C ) :   0.9409 B(  7-C , 19-H ) :   0.9316 B(  8-C , 20-H ) :   0.9254
B(  8-C , 21-H ) :   0.9373 B(  8-C , 22-H ) :   0.9324

MP2 TOTAL ENERGY:     -424.737612802 Eh
FINAL SINGLE POINT ENERGY      -424.737612802469

DIPOLE MOMENT
-------------
                                X             Y             Z
Electronic contribution:     -0.54201       1.93196      -1.26330
Nuclear contribution   :      0.62947      -2.16963       0.94072
                        -----------------------------------------
Total Dipole Moment    :      0.08747      -0.23767      -0.32258
                        -----------------------------------------
Magnitude (a.u.)       :      0.41012
Magnitude (Debye)      :      1.04243

                             ****ORCA TERMINATED NORMALLY****
TOTAL RUN TIME: 0 days 0 hours 21 minutes 52 seconds 909 msec
