                         Program Version 3.0.3 - RELEASE   -
|  1> ! RI-MP2 RIJK def2-TZVP def2-TZVP/C def2-TZVP/JK TIGHTSCF
|  2> % maxcore 2000
|  3> % mp2 density relaxed end
|  4> *xyz 0 1
|  5>  C       -0.1860951696     1.5711196432     0.0636425906
|  6>  C       -0.0405749016     0.0763208310    -0.0196376810
|  7>  C       -0.0431458397    -0.5794239437    -1.1826788782
|  8>  C        0.1650033827    -2.0629904321    -1.3434742056
|  9>  C        0.3425470711    -2.7767305065    -0.0275875104
| 10>  C       -0.2701250452    -2.1385983109     1.1876029485
| 11>  C        0.1278508705    -0.6570052143     1.2937213685
| 12>  N        0.9701394086    -3.8761500730     0.1402142188
| 13>  O        1.4717670627    -4.3894161386    -1.0714872938
| 14>  H        0.6722316166     2.0217688997     0.5791818611
| 15>  H       -0.2639744318     2.0280094131    -0.9265581397
| 16>  H       -1.0758111098     1.8522487248     0.6420576740
| 17>  H       -0.1679466811    -0.0200680407    -2.1077427912
| 18>  H       -0.6816478711    -2.5112816949    -1.8869798600
| 19>  H        1.0370236187    -2.2629370589    -1.9765059735
| 20>  H       -1.3639009747    -2.1942078495     1.0940110488
| 21>  H        0.0143403384    -2.7009834882     2.0798429999
| 22>  H        1.1708473425    -0.5708319592     1.6315096744
| 23>  H       -0.4757002884    -0.1709411499     2.0702841224
| 24>  H        1.9412701014    -5.1754624913    -0.7741520836
| 25> *
| 26>
| 27>                          ****END OF INPUT****

CARTESIAN COORDINATES (ANGSTROEM)
---------------------------------
  C     -0.186095    1.571120    0.063643
  C     -0.040575    0.076321   -0.019638
  C     -0.043146   -0.579424   -1.182679
  C      0.165003   -2.062990   -1.343474
  C      0.342547   -2.776731   -0.027588
  C     -0.270125   -2.138598    1.187603
  C      0.127851   -0.657005    1.293721
  N      0.970139   -3.876150    0.140214
  O      1.471767   -4.389416   -1.071487
  H      0.672232    2.021769    0.579182
  H     -0.263974    2.028009   -0.926558
  H     -1.075811    1.852249    0.642058
  H     -0.167947   -0.020068   -2.107743
  H     -0.681648   -2.511282   -1.886980
  H      1.037024   -2.262937   -1.976506
  H     -1.363901   -2.194208    1.094011
  H      0.014340   -2.700983    2.079843
  H      1.170847   -0.570832    1.631510
  H     -0.475700   -0.170941    2.070284
  H      1.941270   -5.175462   -0.774152

 Total Charge           Charge          ....    0
 Multiplicity           Mult            ....    1
 Number of Electrons    NEL             ....   68
 Basis Dimension        Dim             ....  345

ORBITAL ENERGIES
----------------

  NO   OCC          E(Eh)            E(eV)
   0   2.0000     -20.583199      -560.0973
   1   2.0000     -15.605782      -424.6549
   2   2.0000     -11.272682      -306.7453
   3   2.0000     -11.236208      -305.7528
   4   2.0000     -11.234193      -305.6979
   5   2.0000     -11.232919      -305.6633
   6   2.0000     -11.231993      -305.6381
   7   2.0000     -11.223882      -305.4174
   8   2.0000     -11.223540      -305.4081
   9   2.0000      -1.409326       -38.3497
  10   2.0000      -1.173306       -31.9273
  11   2.0000      -1.107785       -30.1444
  12   2.0000      -1.017884       -27.6980
  13   2.0000      -1.002384       -27.2763
  14   2.0000      -0.903170       -24.5765
  15   2.0000      -0.865154       -23.5420
  16   2.0000      -0.759399       -20.6643
  17   2.0000      -0.702297       -19.1105
  18   2.0000      -0.676375       -18.4051
  19   2.0000      -0.656944       -17.8764
  20   2.0000      -0.624174       -16.9846
  21   2.0000      -0.603738       -16.4285
  22   2.0000      -0.597449       -16.2574
  23   2.0000      -0.580839       -15.8054
  24   2.0000      -0.567870       -15.4525
  25   2.0000      -0.555071       -15.1042
  26   2.0000      -0.548244       -14.9185
  27   2.0000      -0.521767       -14.1980
  28   2.0000      -0.512711       -13.9516
  29   2.0000      -0.491282       -13.3685
  30   2.0000      -0.465673       -12.6716
  31   2.0000      -0.420504       -11.4425
  32   2.0000      -0.375189       -10.2094
  33   2.0000      -0.341556        -9.2942
  34   0.0000       0.127083         3.4581
  35   0.0000       0.152318         4.1448
  36   0.0000       0.155442         4.2298
  37   0.0000       0.160304         4.3621
  38   0.0000       0.168675         4.5899

MULLIKEN ATOMIC CHARGES
-----------------------
   0 C :   -0.416762
   1 C :    0.031961
   2 C :   -0.240919
   3 C :   -0.144371
   4 C :   -0.019723
   5 C :   -0.190404
   6 C :   -0.204819
   7 N :   -0.085740
   8 O :   -0.375266
   9 H :    0.135974
  10 H :    0.131464
  11 H :    0.135146
  12 H :    0.114940
  13 H :    0.136755
  14 H :    0.150690
  15 H :    0.119391
  16 H :    0.132817
  17 H :    0.125612
  18 H :    0.128383
  19 H :    0.334869
Sum of atomic charges:    0.0000000

LOEWDIN ATOMIC CHARGES
----------------------
   0 C :   -0.273303
   1 C :   -0.199901
   2 C :   -0.148694
   3 C :   -0.220620
   4 C :   -0.274741
   5 C :   -0.215830
   6 C :   -0.216518
   7 N :    0.022364
   8 O :   -0.081175
   9 H :    0.130248
  10 H :    0.127816
  11 H :    0.128418
  12 H :    0.143808
  13 H :    0.159101
  14 H :    0.158875
  15 H :    0.151961
  16 H :    0.146711
  17 H :    0.148580
  18 H :    0.144945
  19 H :    0.167958

  Mayer bond orders larger than 0.1
B(  0-C ,  1-C ) :   0.8923 B(  0-C ,  9-H ) :   0.9301 B(  0-C , 10-H ) :   0.9456
B(  0-C , 11-H ) :   0.9324 B(  1-C ,  2-C ) :   1.7606 B(  1-C ,  6-C ) :   0.9338
B(  2-C ,  3-C ) :   0.9367 B(  2-C , 12-H ) :   0.9266 B(  3-C ,  4-C ) :   0.9748
B(  3-C , 13-H ) :   0.8970 B(  3-C , 14-H ) :   0.9057 B(  4-C ,  5-C ) :   0.9375
B(  4-C ,  7-N ) :   1.8800 B(  5-C ,  6-C ) :   0.9186 B(  5-C , 15-H ) :   0.9204
B(  5-C , 16-H ) :   0.9265 B(  6-C , 17-H ) :   0.9026 B(  6-C , 18-H ) :   0.9311
B(  7-N ,  8-O ) :   0.8032 B(  8-O , 19-H ) :   0.8457

MP2 TOTAL ENERGY:     -402.435410416 Eh
FINAL SINGLE POINT ENERGY      -402.435410415690

DIPOLE MOMENT
-------------
                                X             Y             Z
Electronic contribution:      2.35582      -8.10726      -1.56726
Nuclear contribution   :     -2.44565       8.41974       1.63031
                        -----------------------------------------
Total Dipole Moment    :     -0.08983       0.31248       0.06305
                        -----------------------------------------
Magnitude (a.u.)       :      0.33119
Magnitude (Debye)      :      0.84182

                             ****ORCA TERMINATED NORMALLY****
TOTAL RUN TIME: 0 days 0 hours 17 minutes 11 seconds 727 msec
