                         Program Version 3.0.3 - RELEASE   -
|  1> ! RI-MP2 RIJK def2-TZVP def2-TZVP/C def2-TZVP/JK TIGHTSCF
|  2> % maxcore 2000
|  3> % mp2 density relaxed end
|  4> *xyz 0 1
|  5>  C       -0.1124881309     1.5463146829     0.2814710076
|  6>  C       -0.0549035852     0.0533753894     0.0213573704
|  7>  C       -1.3472493632    -0.5636644968    -0.4460972289
|  8>  O       -1.6816570507     0.0130618552    -1.7242332922
|  9>  C       -2.8663254380    -0.3887953066    -2.2433373429
| 10>  N       -3.1060342377     0.2683585819    -3.4198634980
| 11>  O       -3.6123190767    -1.1871632408    -1.7258826827
| 12>  C        1.2282368944    -0.5422987995    -0.5074238559
| 13>  C        0.8061024615    -0.8058977295     0.9175143172
| 14>  H        0.8591995925     1.9262013296     0.6108206938
| 15>  H       -0.4002315840     2.0888747899    -0.6242117555
| 16>  H       -0.8462661949     1.7827640144     1.0612579213
| 17>  H       -1.2583870512    -1.6491202516    -0.5560104253
| 18>  H       -2.1662665336    -0.3669068917     0.2540447042
| 19>  H       -2.3378245962     0.7262812791    -3.8803189049
| 20>  H       -3.8379452545    -0.1124822261    -3.9945221861
| 21>  H        1.1606314465    -1.3580453480    -1.2192682192
| 22>  H        2.0646290958     0.1267644363    -0.6780752121
| 23>  H        1.3492235229    -0.3102689205     1.7149346550
| 24>  H        0.4581162433    -1.8015819575     1.1724001043
| 25> *
| 26>
| 27>                          ****END OF INPUT****

CARTESIAN COORDINATES (ANGSTROEM)
---------------------------------
  C     -0.112488    1.546315    0.281471
  C     -0.054904    0.053375    0.021357
  C     -1.347249   -0.563664   -0.446097
  O     -1.681657    0.013062   -1.724233
  C     -2.866325   -0.388795   -2.243337
  N     -3.106034    0.268359   -3.419863
  O     -3.612319   -1.187163   -1.725883
  C      1.228237   -0.542299   -0.507424
  C      0.806102   -0.805898    0.917514
  H      0.859200    1.926201    0.610821
  H     -0.400232    2.088875   -0.624212
  H     -0.846266    1.782764    1.061258
  H     -1.258387   -1.649120   -0.556010
  H     -2.166267   -0.366907    0.254045
  H     -2.337825    0.726281   -3.880319
  H     -3.837945   -0.112482   -3.994522
  H      1.160631   -1.358045   -1.219268
  H      2.064629    0.126764   -0.678075
  H      1.349224   -0.310269    1.714935
  H      0.458116   -1.801582    1.172400

 Total Charge           Charge          ....    0
 Multiplicity           Mult            ....    1
 Number of Electrons    NEL             ....   70
 Basis Dimension        Dim             ....  345

ORBITAL ENERGIES
----------------

  NO   OCC          E(Eh)            E(eV)
   0   2.0000     -20.595596      -560.4347
   1   2.0000     -20.523345      -558.4686
   2   2.0000     -15.583521      -424.0492
   3   2.0000     -11.399098      -310.1852
   4   2.0000     -11.285793      -307.1020
   5   2.0000     -11.242389      -305.9210
   6   2.0000     -11.228977      -305.5560
   7   2.0000     -11.227137      -305.5059
   8   2.0000     -11.218532      -305.2718
   9   2.0000      -1.458868       -39.6978
  10   2.0000      -1.352921       -36.8149
  11   2.0000      -1.215437       -33.0737
  12   2.0000      -1.159022       -31.5386
  13   2.0000      -0.985998       -26.8304
  14   2.0000      -0.949012       -25.8239
  15   2.0000      -0.832117       -22.6431
  16   2.0000      -0.809960       -22.0401
  17   2.0000      -0.754190       -20.5226
  18   2.0000      -0.743141       -20.2219
  19   2.0000      -0.701897       -19.0996
  20   2.0000      -0.682472       -18.5710
  21   2.0000      -0.653169       -17.7736
  22   2.0000      -0.640438       -17.4272
  23   2.0000      -0.620574       -16.8867
  24   2.0000      -0.573383       -15.6025
  25   2.0000      -0.562049       -15.2941
  26   2.0000      -0.557936       -15.1822
  27   2.0000      -0.541479       -14.7344
  28   2.0000      -0.516521       -14.0553
  29   2.0000      -0.490548       -13.3485
  30   2.0000      -0.464044       -12.6273
  31   2.0000      -0.456848       -12.4315
  32   2.0000      -0.429608       -11.6902
  33   2.0000      -0.419357       -11.4113
  34   2.0000      -0.404373       -11.0035
  35   0.0000       0.130063         3.5392
  36   0.0000       0.145616         3.9624
  37   0.0000       0.167504         4.5580
  38   0.0000       0.176461         4.8017
  39   0.0000       0.182555         4.9676

MULLIKEN ATOMIC CHARGES
-----------------------
   0 C :   -0.410291
   1 C :    0.144669
   2 C :   -0.090371
   3 O :   -0.283611
   4 C :    0.409518
   5 N :   -0.513245
   6 O :   -0.378190
   7 C :   -0.288019
   8 C :   -0.307140
   9 H :    0.126587
  10 H :    0.142965
  11 H :    0.128993
  12 H :    0.122947
  13 H :    0.133814
  14 H :    0.266681
  15 H :    0.268222
  16 H :    0.130042
  17 H :    0.130082
  18 H :    0.131378
  19 H :    0.134971
Sum of atomic charges:   -0.0000000

LOEWDIN ATOMIC CHARGES
----------------------
   0 C :   -0.264739
   1 C :   -0.285756
   2 C :   -0.234060
   3 O :    0.232741
   4 C :   -0.615847
   5 N :   -0.039607
   6 O :    0.073226
   7 C :   -0.207149
   8 C :   -0.206357
   9 H :    0.128111
  10 H :    0.129218
  11 H :    0.127732
  12 H :    0.137280
  13 H :    0.137459
  14 H :    0.173831
  15 H :    0.176852
  16 H :    0.134879
  17 H :    0.133746
  18 H :    0.134257
  19 H :    0.134183

  Mayer bond orders larger than 0.1
B(  0-C ,  1-C ) :   0.9172 B(  0-C ,  9-H ) :   0.9295 B(  0-C , 10-H ) :   0.9402
B(  0-C , 11-H ) :   0.9351 B(  1-C ,  2-C ) :   0.9370 B(  1-C ,  7-C ) :   0.8553
B(  1-C ,  8-C ) :   0.8641 B(  2-C ,  3-O ) :   0.8469 B(  2-C , 12-H ) :   0.9228
B(  2-C , 13-H ) :   0.9400 B(  3-O ,  4-C ) :   1.0839 B(  4-C ,  5-N ) :   1.1535
B(  4-C ,  6-O ) :   1.9289 B(  5-N , 14-H ) :   0.8651 B(  5-N , 15-H ) :   0.8676
B(  7-C ,  8-C ) :   0.9103 B(  7-C , 16-H ) :   0.9260 B(  7-C , 17-H ) :   0.9286
B(  8-C , 18-H ) :   0.9270 B(  8-C , 19-H ) :   0.9241

MP2 TOTAL ENERGY:     -439.605001231 Eh
FINAL SINGLE POINT ENERGY      -439.605001231326

DIPOLE MOMENT
-------------
                                X             Y             Z
Electronic contribution:     -7.47718      -2.31659      -5.33172
Nuclear contribution   :      8.19447       2.76611       4.83597
                        -----------------------------------------
Total Dipole Moment    :      0.71729       0.44952      -0.49574
                        -----------------------------------------
Magnitude (a.u.)       :      0.98099
Magnitude (Debye)      :      2.49347

                             ****ORCA TERMINATED NORMALLY****
TOTAL RUN TIME: 0 days 0 hours 17 minutes 9 seconds 708 msec
