                         Program Version 3.0.3 - RELEASE   -
|  1> ! RI-MP2 RIJK def2-TZVP def2-TZVP/C def2-TZVP/JK TIGHTSCF
|  2> % maxcore 2000
|  3> % mp2 density relaxed end
|  4> *xyz 0 1
|  5>  C       -0.1377118845     1.2593144218     0.1295166887
|  6>  O        0.1076936154    -0.1219885939    -0.0095937746
|  7>  C        0.7372134382    -0.5781637666    -1.2189723895
|  8>  C        0.0416043643    -0.0426958392    -2.4668650907
|  9>  C        2.2626037393    -0.2958051368    -1.1430234505
| 10>  C        2.8126980629    -1.5136879387    -0.4372003266
| 11>  C        1.9298574882    -2.5074162238    -0.3960422293
| 12>  C        0.6380831463    -2.1407963673    -1.0947308846
| 13>  O       -0.5466379567    -2.5743093623    -0.4686079420
| 14>  H        0.7637087024     1.8647221154    -0.0407748027
| 15>  H       -0.9278487536     1.6151416178    -0.5446888988
| 16>  H       -0.4647022014     1.4149191953     1.1608245251
| 17>  H        0.1351993840     1.0430086289    -2.5638921593
| 18>  H        0.4855323339    -0.4912681115    -3.3602405321
| 19>  H       -1.0212614249    -0.3030844336    -2.4459944163
| 20>  H        2.6911130899    -0.1911517001    -2.1492668081
| 21>  H        2.4794274390     0.6414267717    -0.6183246501
| 22>  H        3.8239986089    -1.5498751524    -0.0469265584
| 23>  H        2.0833182355    -3.4914396313     0.0313250821
| 24>  H        0.6221382984    -2.5831533789    -2.1004694117
| 25>  H       -0.7145689758    -1.9229256046     0.2261872893
| 26> *
| 27>
| 28>                          ****END OF INPUT****

CARTESIAN COORDINATES (ANGSTROEM)
---------------------------------
  C     -0.137712    1.259314    0.129517
  O      0.107694   -0.121989   -0.009594
  C      0.737213   -0.578164   -1.218972
  C      0.041604   -0.042696   -2.466865
  C      2.262604   -0.295805   -1.143023
  C      2.812698   -1.513688   -0.437200
  C      1.929857   -2.507416   -0.396042
  C      0.638083   -2.140796   -1.094731
  O     -0.546638   -2.574309   -0.468608
  H      0.763709    1.864722   -0.040775
  H     -0.927849    1.615142   -0.544689
  H     -0.464702    1.414919    1.160825
  H      0.135199    1.043009   -2.563892
  H      0.485532   -0.491268   -3.360241
  H     -1.021261   -0.303084   -2.445994
  H      2.691113   -0.191152   -2.149267
  H      2.479427    0.641427   -0.618325
  H      3.823999   -1.549875   -0.046927
  H      2.083318   -3.491440    0.031325
  H      0.622138   -2.583153   -2.100469
  H     -0.714569   -1.922926    0.226187

 Total Charge           Charge          ....    0
 Multiplicity           Mult            ....    1
 Number of Electrons    NEL             ....   70
 Basis Dimension        Dim             ....  351

ORBITAL ENERGIES
----------------

  NO   OCC          E(Eh)            E(eV)
   0   2.0000     -20.560799      -559.4878
   1   2.0000     -20.539089      -558.8970
   2   2.0000     -11.292723      -307.2906
   3   2.0000     -11.276816      -306.8578
   4   2.0000     -11.275809      -306.8304
   5   2.0000     -11.230243      -305.5904
   6   2.0000     -11.227207      -305.5078
   7   2.0000     -11.221610      -305.3555
   8   2.0000     -11.218483      -305.2704
   9   2.0000      -1.387864       -37.7657
  10   2.0000      -1.343317       -36.5535
  11   2.0000      -1.126173       -30.6447
  12   2.0000      -1.018850       -27.7243
  13   2.0000      -0.950437       -25.8627
  14   2.0000      -0.941733       -25.6259
  15   2.0000      -0.886432       -24.1210
  16   2.0000      -0.767153       -20.8753
  17   2.0000      -0.744290       -20.2531
  18   2.0000      -0.703907       -19.1543
  19   2.0000      -0.659337       -17.9415
  20   2.0000      -0.657228       -17.8841
  21   2.0000      -0.634171       -17.2567
  22   2.0000      -0.599164       -16.3041
  23   2.0000      -0.586014       -15.9463
  24   2.0000      -0.572036       -15.5659
  25   2.0000      -0.565835       -15.3971
  26   2.0000      -0.552859       -15.0441
  27   2.0000      -0.547483       -14.8978
  28   2.0000      -0.521293       -14.1851
  29   2.0000      -0.497600       -13.5404
  30   2.0000      -0.481872       -13.1124
  31   2.0000      -0.467366       -12.7177
  32   2.0000      -0.424065       -11.5394
  33   2.0000      -0.417991       -11.3741
  34   2.0000      -0.352318        -9.5871
  35   0.0000       0.131641         3.5821
  36   0.0000       0.151621         4.1258
  37   0.0000       0.161974         4.4075
  38   0.0000       0.168684         4.5901
  39   0.0000       0.185946         5.0599

MULLIKEN ATOMIC CHARGES
-----------------------
   0 C :   -0.244352
   1 O :   -0.362601
   2 C :    0.239600
   3 C :   -0.466742
   4 C :   -0.204533
   5 C :   -0.163582
   6 C :   -0.233399
   7 C :    0.188990
   8 O :   -0.483071
   9 H :    0.111557
  10 H :    0.128951
  11 H :    0.146017
  12 H :    0.141650
  13 H :    0.137933
  14 H :    0.154583
  15 H :    0.119912
  16 H :    0.112031
  17 H :    0.128153
  18 H :    0.130813
  19 H :    0.088706
  20 H :    0.329385
Sum of atomic charges:    0.0000000

LOEWDIN ATOMIC CHARGES
----------------------
   0 C :   -0.356169
   1 O :    0.164149
   2 C :   -0.326307
   3 C :   -0.278749
   4 C :   -0.202816
   5 C :   -0.153487
   6 C :   -0.143429
   7 C :   -0.290945
   8 O :   -0.014366
   9 H :    0.102859
  10 H :    0.104726
  11 H :    0.115744
  12 H :    0.125751
  13 H :    0.131450
  14 H :    0.134680
  15 H :    0.145608
  16 H :    0.138926
  17 H :    0.135490
  18 H :    0.139106
  19 H :    0.149776
  20 H :    0.178005

  Mayer bond orders larger than 0.1
B(  0-C ,  1-O ) :   0.9130 B(  0-C ,  9-H ) :   0.9297 B(  0-C , 10-H ) :   0.9373
B(  0-C , 11-H ) :   0.9399 B(  1-O ,  2-C ) :   0.8742 B(  2-C ,  3-C ) :   0.8935
B(  2-C ,  4-C ) :   0.9317 B(  2-C ,  7-C ) :   0.8961 B(  3-C , 12-H ) :   0.9345
B(  3-C , 13-H ) :   0.9251 B(  3-C , 14-H ) :   0.9454 B(  4-C ,  5-C ) :   0.9431
B(  4-C , 15-H ) :   0.9027 B(  4-C , 16-H ) :   0.9104 B(  5-C ,  6-C ) :   1.7621
B(  5-C , 17-H ) :   0.9233 B(  6-C ,  7-C ) :   0.9275 B(  6-C , 18-H ) :   0.9297
B(  7-C ,  8-O ) :   0.9838 B(  7-C , 19-H ) :   0.9237 B(  8-O , 20-H ) :   0.8141

MP2 TOTAL ENERGY:     -423.521294186 Eh
FINAL SINGLE POINT ENERGY      -423.521294186100

DIPOLE MOMENT
-------------
                                X             Y             Z
Electronic contribution:      0.13197      -5.54363       2.68203
Nuclear contribution   :      0.30569       6.55639      -2.90005
                        -----------------------------------------
Total Dipole Moment    :      0.43766       1.01276      -0.21801
                        -----------------------------------------
Magnitude (a.u.)       :      1.12461
Magnitude (Debye)      :      2.85854

                             ****ORCA TERMINATED NORMALLY****
TOTAL RUN TIME: 0 days 0 hours 19 minutes 52 seconds 510 msec
