                         Program Version 3.0.3 - RELEASE   -
|  1> ! RI-MP2 RIJK def2-TZVP def2-TZVP/C def2-TZVP/JK TIGHTSCF
|  2> % maxcore 2000
|  3> % mp2 density relaxed end
|  4> *xyz 0 1
|  5>  C        0.2477113604     1.5151933255     0.2888499730
|  6>  C        0.0090822726     0.0267098964     0.0117009354
|  7>  C        0.6584069597    -0.4103592870    -1.3074887032
|  8>  C        0.5228177113    -0.8595810773     1.1614266047
|  9>  N       -0.1339188004    -0.6130566084     2.4334734806
| 10>  C        0.5167237160    -0.1062904825     3.5240311324
| 11>  C       -0.3440766160     0.0624991140     4.7680728373
| 12>  O        1.6991901963     0.1857613304     3.5158898417
| 13>  H        1.3190973640     1.7291742399     0.3720973729
| 14>  H       -0.1585241276     2.1331953669    -0.5184184035
| 15>  H       -0.2256561652     1.8277790900     1.2237582824
| 16>  H       -1.0761463959    -0.1368815354    -0.0752124157
| 17>  H        1.7457180396    -0.2749390701    -1.2710011629
| 18>  H        0.4616904857    -1.4661253263    -1.5234330500
| 19>  H        0.2792001623     0.1801032407    -2.1472242300
| 20>  H        0.4020457929    -1.9165595750     0.8891624730
| 21>  H        1.5875981782    -0.6792807276     1.3335340007
| 22>  H       -1.1125874148    -0.8333058357     2.5160497937
| 23>  H       -1.4005109121    -0.1724031337     4.6123534097
| 24>  H        0.0492331462    -0.5839522347     5.5575794257
| 25>  H       -0.2549843833     1.0938643598     5.1180080821
| 26> *
| 27>
| 28>                          ****END OF INPUT****

CARTESIAN COORDINATES (ANGSTROEM)
---------------------------------
  C      0.247711    1.515193    0.288850
  C      0.009082    0.026710    0.011701
  C      0.658407   -0.410359   -1.307489
  C      0.522818   -0.859581    1.161427
  N     -0.133919   -0.613057    2.433473
  C      0.516724   -0.106290    3.524031
  C     -0.344077    0.062499    4.768073
  O      1.699190    0.185761    3.515890
  H      1.319097    1.729174    0.372097
  H     -0.158524    2.133195   -0.518418
  H     -0.225656    1.827779    1.223758
  H     -1.076146   -0.136882   -0.075212
  H      1.745718   -0.274939   -1.271001
  H      0.461690   -1.466125   -1.523433
  H      0.279200    0.180103   -2.147224
  H      0.402046   -1.916560    0.889162
  H      1.587598   -0.679281    1.333534
  H     -1.112587   -0.833306    2.516050
  H     -1.400511   -0.172403    4.612353
  H      0.049233   -0.583952    5.557579
  H     -0.254984    1.093864    5.118008

 Total Charge           Charge          ....    0
 Multiplicity           Mult            ....    1
 Number of Electrons    NEL             ....   64
 Basis Dimension        Dim             ....  326

ORBITAL ENERGIES
----------------

  NO   OCC          E(Eh)            E(eV)
   0   2.0000     -20.507247      -558.0306
   1   2.0000     -15.579891      -423.9504
   2   2.0000     -11.345490      -308.7265
   3   2.0000     -11.256039      -306.2924
   4   2.0000     -11.235629      -305.7370
   5   2.0000     -11.231711      -305.6304
   6   2.0000     -11.215999      -305.2029
   7   2.0000     -11.209403      -305.0234
   8   2.0000      -1.374182       -37.3934
   9   2.0000      -1.227688       -33.4071
  10   2.0000      -1.079673       -29.3794
  11   2.0000      -1.004442       -27.3323
  12   2.0000      -0.930319       -25.3153
  13   2.0000      -0.918966       -25.0063
  14   2.0000      -0.786733       -21.4081
  15   2.0000      -0.782141       -21.2831
  16   2.0000      -0.682666       -18.5763
  17   2.0000      -0.658149       -17.9091
  18   2.0000      -0.636187       -17.3115
  19   2.0000      -0.614707       -16.7270
  20   2.0000      -0.591838       -16.1047
  21   2.0000      -0.584409       -15.9026
  22   2.0000      -0.563520       -15.3341
  23   2.0000      -0.542153       -14.7527
  24   2.0000      -0.536816       -14.6075
  25   2.0000      -0.525560       -14.3012
  26   2.0000      -0.518240       -14.1020
  27   2.0000      -0.481800       -13.1104
  28   2.0000      -0.474085       -12.9005
  29   2.0000      -0.467007       -12.7079
  30   2.0000      -0.417373       -11.3573
  31   2.0000      -0.384832       -10.4718
  32   0.0000       0.120994         3.2924
  33   0.0000       0.143752         3.9117
  34   0.0000       0.159602         4.3430
  35   0.0000       0.178184         4.8486
  36   0.0000       0.185021         5.0347

MULLIKEN ATOMIC CHARGES
-----------------------
   0 C :   -0.386589
   1 C :   -0.039657
   2 C :   -0.402648
   3 C :   -0.128943
   4 N :   -0.359539
   5 C :    0.332189
   6 C :   -0.409975
   7 O :   -0.390262
   8 H :    0.130948
   9 H :    0.130305
  10 H :    0.126830
  11 H :    0.073933
  12 H :    0.129133
  13 H :    0.127276
  14 H :    0.134086
  15 H :    0.128447
  16 H :    0.157756
  17 H :    0.230755
  18 H :    0.111354
  19 H :    0.152836
  20 H :    0.151765
Sum of atomic charges:    0.0000000

LOEWDIN ATOMIC CHARGES
----------------------
   0 C :   -0.293685
   1 C :   -0.316847
   2 C :   -0.294763
   3 C :   -0.259260
   4 N :    0.106054
   5 C :   -0.484280
   6 C :   -0.281228
   7 O :    0.069767
   8 H :    0.128072
   9 H :    0.122435
  10 H :    0.123264
  11 H :    0.144739
  12 H :    0.125786
  13 H :    0.121945
  14 H :    0.124358
  15 H :    0.133533
  16 H :    0.151536
  17 H :    0.183252
  18 H :    0.118384
  19 H :    0.138845
  20 H :    0.138094

  Mayer bond orders larger than 0.1
B(  0-C ,  1-C ) :   0.9271 B(  0-C ,  8-H ) :   0.9288 B(  0-C ,  9-H ) :   0.9367
B(  0-C , 10-H ) :   0.9356 B(  1-C ,  2-C ) :   0.9241 B(  1-C ,  3-C ) :   0.9219
B(  1-C , 11-H ) :   0.9260 B(  2-C , 12-H ) :   0.9322 B(  2-C , 13-H ) :   0.9363
B(  2-C , 14-H ) :   0.9393 B(  3-C ,  4-N ) :   0.8254 B(  3-C , 15-H ) :   0.9359
B(  3-C , 16-H ) :   0.9163 B(  4-N ,  5-C ) :   1.1483 B(  4-N , 17-H ) :   0.8738
B(  5-C ,  6-C ) :   0.8944 B(  5-C ,  7-O ) :   1.8791 B(  6-C , 18-H ) :   0.9397
B(  6-C , 19-H ) :   0.9248 B(  6-C , 20-H ) :   0.9262

MP2 TOTAL ENERGY:     -365.688934341 Eh
FINAL SINGLE POINT ENERGY      -365.688934340641

DIPOLE MOMENT
-------------
                                X             Y             Z
Electronic contribution:      2.04658      -1.45888       6.51870
Nuclear contribution   :     -3.36868       1.05296      -6.90471
                        -----------------------------------------
Total Dipole Moment    :     -1.32210      -0.40592      -0.38601
                        -----------------------------------------
Magnitude (a.u.)       :      1.43587
Magnitude (Debye)      :      3.64969

                             ****ORCA TERMINATED NORMALLY****
TOTAL RUN TIME: 0 days 0 hours 13 minutes 31 seconds 910 msec
