                         Program Version 3.0.3 - RELEASE   -
|  1> ! RI-MP2 RIJK def2-TZVP def2-TZVP/C def2-TZVP/JK TIGHTSCF
|  2> % maxcore 2000
|  3> % mp2 density relaxed end
|  4> *xyz 0 1
|  5>  C       -0.2621163097     1.5236382172    -0.8792149877
|  6>  C       -0.0505541894     0.1181152927    -0.2974264339
|  7>  C        0.6305734553     0.1981416236     1.0770109100
|  8>  C       -1.3750530021    -0.6409943394    -0.2155356755
|  9>  C       -2.2192398959    -0.8741554283    -1.4977231326
| 10>  C       -2.6651417708    -2.2379572724    -0.9078689044
| 11>  C       -2.8967395749    -3.4181824762    -1.8403440778
| 12>  C       -1.4209607535    -2.1886965253     0.0437450643
| 13>  C       -0.2068476741    -2.9804928398    -0.4419478642
| 14>  H        0.6866342560     2.0650339624    -0.9585786595
| 15>  H       -0.7095328578     1.4831548748    -1.8772237958
| 16>  H       -0.9285576203     2.1151215014    -0.2395177259
| 17>  H        0.6172116540    -0.4278261991    -0.9780028753
| 18>  H        0.8018659400    -0.7941763307     1.5057393715
| 19>  H        1.5989211955     0.7056912097     1.0111066775
| 20>  H        0.0097361249     0.7609053303     1.7848300045
| 21>  H       -2.0072934312    -0.1485130574     0.5356865513
| 22>  H       -2.9943375104    -0.1442585891    -1.7462345649
| 23>  H       -1.5814964377    -1.0105959269    -2.3791607337
| 24>  H       -3.5651816320    -2.0819641349    -0.3014833763
| 25>  H       -2.0310766385    -3.6082412973    -2.4831162317
| 26>  H       -3.1059927264    -4.3380426913    -1.2821760671
| 27>  H       -3.7550164917    -3.2285948286    -2.4950326147
| 28>  H       -1.6318411882    -2.4724413214     1.0801709277
| 29>  H        0.0672342748    -2.7386347860    -1.4740706481
| 30>  H        0.6703137242    -2.7852414867     0.1833020833
| 31>  H       -0.4052950402    -4.0567782114    -0.4004750311
| 32> *
| 33>
| 34>                          ****END OF INPUT****

CARTESIAN COORDINATES (ANGSTROEM)
---------------------------------
  C     -0.262116    1.523638   -0.879215
  C     -0.050554    0.118115   -0.297426
  C      0.630573    0.198142    1.077011
  C     -1.375053   -0.640994   -0.215536
  C     -2.219240   -0.874155   -1.497723
  C     -2.665142   -2.237957   -0.907869
  C     -2.896740   -3.418182   -1.840344
  C     -1.420961   -2.188697    0.043745
  C     -0.206848   -2.980493   -0.441948
  H      0.686634    2.065034   -0.958579
  H     -0.709533    1.483155   -1.877224
  H     -0.928558    2.115122   -0.239518
  H      0.617212   -0.427826   -0.978003
  H      0.801866   -0.794176    1.505739
  H      1.598921    0.705691    1.011107
  H      0.009736    0.760905    1.784830
  H     -2.007293   -0.148513    0.535687
  H     -2.994338   -0.144259   -1.746235
  H     -1.581496   -1.010596   -2.379161
  H     -3.565182   -2.081964   -0.301483
  H     -2.031077   -3.608241   -2.483116
  H     -3.105993   -4.338043   -1.282176
  H     -3.755016   -3.228595   -2.495033
  H     -1.631841   -2.472441    1.080171
  H      0.067234   -2.738635   -1.474071
  H      0.670314   -2.785241    0.183302
  H     -0.405295   -4.056778   -0.400475

 Total Charge           Charge          ....    0
 Multiplicity           Mult            ....    1
 Number of Electrons    NEL             ....   72
 Basis Dimension        Dim             ....  387

ORBITAL ENERGIES
----------------

  NO   OCC          E(Eh)            E(eV)
   0   2.0000     -11.219348      -305.2940
   1   2.0000     -11.219273      -305.2919
   2   2.0000     -11.218818      -305.2796
   3   2.0000     -11.215964      -305.2019
   4   2.0000     -11.209763      -305.0331
   5   2.0000     -11.209201      -305.0179
   6   2.0000     -11.207847      -304.9810
   7   2.0000     -11.207421      -304.9694
   8   2.0000     -11.207019      -304.9585
   9   2.0000      -1.139514       -31.0078
  10   2.0000      -1.058369       -28.7997
  11   2.0000      -0.979849       -26.6630
  12   2.0000      -0.963437       -26.2165
  13   2.0000      -0.922268       -25.0962
  14   2.0000      -0.853435       -23.2232
  15   2.0000      -0.843959       -22.9653
  16   2.0000      -0.759900       -20.6779
  17   2.0000      -0.711793       -19.3689
  18   2.0000      -0.661435       -17.9986
  19   2.0000      -0.619018       -16.8443
  20   2.0000      -0.604997       -16.4628
  21   2.0000      -0.586541       -15.9606
  22   2.0000      -0.560306       -15.2467
  23   2.0000      -0.552255       -15.0276
  24   2.0000      -0.538656       -14.6576
  25   2.0000      -0.537470       -14.6253
  26   2.0000      -0.529722       -14.4145
  27   2.0000      -0.526945       -14.3389
  28   2.0000      -0.516757       -14.0617
  29   2.0000      -0.487073       -13.2539
  30   2.0000      -0.482124       -13.1193
  31   2.0000      -0.462644       -12.5892
  32   2.0000      -0.433651       -11.8002
  33   2.0000      -0.432080       -11.7575
  34   2.0000      -0.410574       -11.1723
  35   2.0000      -0.401562       -10.9271
  36   0.0000       0.130389         3.5481
  37   0.0000       0.148151         4.0314
  38   0.0000       0.150729         4.1016
  39   0.0000       0.165165         4.4944
  40   0.0000       0.185340         5.0434

MULLIKEN ATOMIC CHARGES
-----------------------
   0 C :   -0.397053
   1 C :   -0.028097
   2 C :   -0.410360
   3 C :   -0.083801
   4 C :   -0.309365
   5 C :    0.004384
   6 C :   -0.424595
   7 C :   -0.021028
   8 C :   -0.483781
   9 H :    0.130156
  10 H :    0.132430
  11 H :    0.120128
  12 H :    0.080841
  13 H :    0.126332
  14 H :    0.131228
  15 H :    0.121019
  16 H :    0.089642
  17 H :    0.120487
  18 H :    0.108275
  19 H :    0.092068
  20 H :    0.123991
  21 H :    0.130177
  22 H :    0.132869
  23 H :    0.102749
  24 H :    0.135734
  25 H :    0.135082
  26 H :    0.140490
Sum of atomic charges:   -0.0000000

LOEWDIN ATOMIC CHARGES
----------------------
   0 C :   -0.290864
   1 C :   -0.295783
   2 C :   -0.292217
   3 C :   -0.197110
   4 C :   -0.202750
   5 C :   -0.238726
   6 C :   -0.303775
   7 C :   -0.209674
   8 C :   -0.297896
   9 H :    0.121915
  10 H :    0.123132
  11 H :    0.123193
  12 H :    0.151117
  13 H :    0.120921
  14 H :    0.122168
  15 H :    0.122957
  16 H :    0.154374
  17 H :    0.122761
  18 H :    0.136486
  19 H :    0.150436
  20 H :    0.122023
  21 H :    0.123426
  22 H :    0.124910
  23 H :    0.138023
  24 H :    0.122964
  25 H :    0.122700
  26 H :    0.125291

  Mayer bond orders larger than 0.1
B(  0-C ,  1-C ) :   0.9108 B(  0-C ,  9-H ) :   0.9410 B(  0-C , 10-H ) :   0.9392
B(  0-C , 11-H ) :   0.9345 B(  1-C ,  2-C ) :   0.9214 B(  1-C ,  3-C ) :   0.9063
B(  1-C , 12-H ) :   0.9171 B(  2-C , 13-H ) :   0.9393 B(  2-C , 14-H ) :   0.9412
B(  2-C , 15-H ) :   0.9329 B(  3-C ,  4-C ) :   0.9204 B(  3-C ,  7-C ) :   0.9236
B(  3-C , 16-H ) :   0.9145 B(  4-C ,  5-C ) :   0.9355 B(  4-C , 17-H ) :   0.9220
B(  4-C , 18-H ) :   0.9195 B(  5-C ,  6-C ) :   0.8783 B(  5-C ,  7-C ) :   0.9150
B(  5-C , 19-H ) :   0.9255 B(  6-C , 20-H ) :   0.9386 B(  6-C , 21-H ) :   0.9433
B(  6-C , 22-H ) :   0.9400 B(  7-C ,  8-C ) :   0.8707 B(  7-C , 23-H ) :   0.9162
B(  8-C , 24-H ) :   0.9444 B(  8-C , 25-H ) :   0.9381 B(  8-C , 26-H ) :   0.9373

MP2 TOTAL ENERGY:     -352.915697146 Eh
FINAL SINGLE POINT ENERGY      -352.915697146407

DIPOLE MOMENT
-------------
                                X             Y             Z
Electronic contribution:     -2.16173      -0.27972       0.49798
Nuclear contribution   :      2.14367       0.23760      -0.47849
                        -----------------------------------------
Total Dipole Moment    :     -0.01806      -0.04212       0.01949
                        -----------------------------------------
Magnitude (a.u.)       :      0.04980
Magnitude (Debye)      :      0.12657

                             ****ORCA TERMINATED NORMALLY****
TOTAL RUN TIME: 0 days 0 hours 23 minutes 41 seconds 54 msec
