                         Program Version 3.0.3 - RELEASE   -
|  1> ! RI-MP2 RIJK def2-TZVP def2-TZVP/C def2-TZVP/JK TIGHTSCF
|  2> % maxcore 2000
|  3> % mp2 density relaxed end
|  4> *xyz 0 1
|  5>  C       -0.4196495464     1.4239372850    -0.1495546117
|  6>  N       -0.3946007100    -0.0291350187    -0.2079509055
|  7>  C        0.5363412242    -0.5792233962    -0.8527309471
|  8>  N        1.6771834242    -0.1480183141    -1.5603748152
|  9>  C        1.9800614164    -1.4980343280    -2.1070091926
| 10>  C        3.4089448798    -1.9719996276    -1.9113421655
| 11>  C        0.8726277320    -2.0184309213    -1.1629093278
| 12>  C        0.7770360130    -3.2195884728    -0.3342275487
| 13>  O       -0.0572388727    -3.0241656901    -1.4854390053
| 14>  H        0.5751940221     1.8889990590    -0.2231749602
| 15>  H       -1.0455005982     1.8308526821    -0.9554510008
| 16>  H       -0.8717963706     1.7390805050     0.7955327904
| 17>  H        1.7106759828     0.6941041668    -2.1166954281
| 18>  H        1.6663728245    -1.6115852650    -3.1525320718
| 19>  H        3.7069966963    -1.8787117761    -0.8631927926
| 20>  H        3.5088474064    -3.0195513739    -2.2150327849
| 21>  H        4.1039910948    -1.3825864070    -2.5183070886
| 22>  H        1.5274482162    -4.0030270501    -0.4293224570
| 23>  H        0.2666969353    -3.1586288668     0.6248913328
| 24> *
| 25>
| 26>                          ****END OF INPUT****

CARTESIAN COORDINATES (ANGSTROEM)
---------------------------------
  C     -0.419650    1.423937   -0.149555
  N     -0.394601   -0.029135   -0.207951
  C      0.536341   -0.579223   -0.852731
  N      1.677183   -0.148018   -1.560375
  C      1.980061   -1.498034   -2.107009
  C      3.408945   -1.972000   -1.911342
  C      0.872628   -2.018431   -1.162909
  C      0.777036   -3.219588   -0.334228
  O     -0.057239   -3.024166   -1.485439
  H      0.575194    1.888999   -0.223175
  H     -1.045501    1.830853   -0.955451
  H     -0.871796    1.739081    0.795533
  H      1.710676    0.694104   -2.116695
  H      1.666373   -1.611585   -3.152532
  H      3.706997   -1.878712   -0.863193
  H      3.508847   -3.019551   -2.215033
  H      4.103991   -1.382586   -2.518307
  H      1.527448   -4.003027   -0.429322
  H      0.266697   -3.158629    0.624891

 Total Charge           Charge          ....    0
 Multiplicity           Mult            ....    1
 Number of Electrons    NEL             ....   68
 Basis Dimension        Dim             ....  339

ORBITAL ENERGIES
----------------

  NO   OCC          E(Eh)            E(eV)
   0   2.0000     -20.580551      -560.0253
   1   2.0000     -15.576958      -423.8706
   2   2.0000     -15.535235      -422.7352
   3   2.0000     -11.308954      -307.7323
   4   2.0000     -11.302753      -307.5635
   5   2.0000     -11.292499      -307.2845
   6   2.0000     -11.283204      -307.0316
   7   2.0000     -11.242890      -305.9346
   8   2.0000     -11.230115      -305.5870
   9   2.0000      -1.427701       -38.8497
  10   2.0000      -1.289430       -35.0872
  11   2.0000      -1.191290       -32.4167
  12   2.0000      -1.020846       -27.7786
  13   2.0000      -0.970279       -26.4026
  14   2.0000      -0.924117       -25.1465
  15   2.0000      -0.906126       -24.6569
  16   2.0000      -0.817906       -22.2563
  17   2.0000      -0.749963       -20.4075
  18   2.0000      -0.698835       -19.0163
  19   2.0000      -0.678681       -18.4679
  20   2.0000      -0.642647       -17.4873
  21   2.0000      -0.632791       -17.2191
  22   2.0000      -0.601913       -16.3789
  23   2.0000      -0.586563       -15.9612
  24   2.0000      -0.575868       -15.6702
  25   2.0000      -0.555088       -15.1047
  26   2.0000      -0.537918       -14.6375
  27   2.0000      -0.525533       -14.3005
  28   2.0000      -0.506396       -13.7797
  29   2.0000      -0.481482       -13.1018
  30   2.0000      -0.450294       -12.2531
  31   2.0000      -0.439558       -11.9610
  32   2.0000      -0.398054       -10.8316
  33   2.0000      -0.357877        -9.7383
  34   0.0000       0.124470         3.3870
  35   0.0000       0.144866         3.9420
  36   0.0000       0.155501         4.2314
  37   0.0000       0.168014         4.5719
  38   0.0000       0.180404         4.9090

MULLIKEN ATOMIC CHARGES
-----------------------
   0 C :   -0.296993
   1 N :   -0.222209
   2 C :    0.077594
   3 N :   -0.379345
   4 C :    0.084688
   5 C :   -0.407573
   6 C :    0.136633
   7 C :   -0.072989
   8 O :   -0.322400
   9 H :    0.109676
  10 H :    0.138197
  11 H :    0.143763
  12 H :    0.239148
  13 H :    0.112907
  14 H :    0.134130
  15 H :    0.133178
  16 H :    0.132889
  17 H :    0.121237
  18 H :    0.137469
Sum of atomic charges:    0.0000000

LOEWDIN ATOMIC CHARGES
----------------------
   0 C :   -0.336395
   1 N :    0.073373
   2 C :   -0.309168
   3 N :    0.098397
   4 C :   -0.231953
   5 C :   -0.294563
   6 C :   -0.262439
   7 C :   -0.219889
   8 O :    0.191761
   9 H :    0.104492
  10 H :    0.117353
  11 H :    0.117815
  12 H :    0.170334
  13 H :    0.145510
  14 H :    0.128483
  15 H :    0.128851
  16 H :    0.125952
  17 H :    0.122796
  18 H :    0.129288

  Mayer bond orders larger than 0.1
B(  0-C ,  1-N ) :   0.8670 B(  0-C ,  9-H ) :   0.9289 B(  0-C , 10-H ) :   0.9280
B(  0-C , 11-H ) :   0.9443 B(  1-N ,  2-C ) :   2.0173 B(  2-C ,  3-N ) :   1.0866
B(  2-C ,  6-C ) :   0.8319 B(  3-N ,  4-C ) :   0.9591 B(  3-N , 12-H ) :   0.8617
B(  4-C ,  5-C ) :   0.8865 B(  4-C ,  6-C ) :   0.8739 B(  4-C , 13-H ) :   0.9346
B(  5-C , 14-H ) :   0.9398 B(  5-C , 15-H ) :   0.9333 B(  5-C , 16-H ) :   0.9330
B(  6-C ,  7-C ) :   0.9717 B(  6-C ,  8-O ) :   0.9111 B(  7-C ,  8-O ) :   0.8998
B(  7-C , 17-H ) :   0.9139 B(  7-C , 18-H ) :   0.9095

MP2 TOTAL ENERGY:     -418.455863192 Eh
FINAL SINGLE POINT ENERGY      -418.455863191581

DIPOLE MOMENT
-------------
                                X             Y             Z
Electronic contribution:     -4.27565      -2.74974      -0.28605
Nuclear contribution   :      5.39985       3.10835      -0.11399
                        -----------------------------------------
Total Dipole Moment    :      1.12420       0.35861      -0.40004
                        -----------------------------------------
Magnitude (a.u.)       :      1.24598
Magnitude (Debye)      :      3.16702

                             ****ORCA TERMINATED NORMALLY****
TOTAL RUN TIME: 0 days 0 hours 17 minutes 49 seconds 364 msec
