                         Program Version 3.0.3 - RELEASE   -
|  1> ! RI-MP2 RIJK def2-TZVP def2-TZVP/C def2-TZVP/JK TIGHTSCF
|  2> % maxcore 2000
|  3> % mp2 density relaxed end
|  4> *xyz 0 1
|  5>  C        0.1273933004     1.7388597710     0.4179586909
|  6>  C       -0.0449178455     0.2739307963     0.0932467270
|  7>  O        0.8406208620    -0.2696699174    -0.8701157402
|  8>  C        0.9745727046    -0.7583805763     0.4644135464
|  9>  C        2.2145709796    -0.4081168355     1.2203940870
| 10>  O        2.9841083931     0.4721773963     0.9275048530
| 11>  C       -1.4760786909    -0.1894544084    -0.0274150000
| 12>  C       -2.0208110913    -0.6284615495    -1.3211011495
| 13>  O       -1.6922052991    -1.5680299313    -0.2933790520
| 14>  H        1.1853761352     1.9966907261     0.4639633587
| 15>  H       -0.3483100648     2.3461082165    -0.3596383996
| 16>  H       -0.3477662271     1.9842214641     1.3734497382
| 17>  H        0.6044357883    -1.7716987967     0.6144016785
| 18>  H        2.3726386344    -1.0419871901     2.1219269981
| 19>  H       -2.1545446490     0.2462354804     0.7071463215
| 20>  H       -3.0835315897    -0.5132039729    -1.5261462912
| 21>  H       -1.3597370102    -0.6458904325    -2.1837165170
| 22> *
| 23>
| 24>                          ****END OF INPUT****

CARTESIAN COORDINATES (ANGSTROEM)
---------------------------------
  C      0.127393    1.738860    0.417959
  C     -0.044918    0.273931    0.093247
  O      0.840621   -0.269670   -0.870116
  C      0.974573   -0.758381    0.464414
  C      2.214571   -0.408117    1.220394
  O      2.984108    0.472177    0.927505
  C     -1.476079   -0.189454   -0.027415
  C     -2.020811   -0.628462   -1.321101
  O     -1.692205   -1.568030   -0.293379
  H      1.185376    1.996691    0.463963
  H     -0.348310    2.346108   -0.359638
  H     -0.347766    1.984221    1.373450
  H      0.604436   -1.771699    0.614402
  H      2.372639   -1.041987    2.121927
  H     -2.154545    0.246235    0.707146
  H     -3.083532   -0.513204   -1.526146
  H     -1.359737   -0.645890   -2.183717

 Total Charge           Charge          ....    0
 Multiplicity           Mult            ....    1
 Number of Electrons    NEL             ....   68
 Basis Dimension        Dim             ....  327

ORBITAL ENERGIES
----------------

  NO   OCC          E(Eh)            E(eV)
   0   2.0000     -20.589235      -560.2616
   1   2.0000     -20.583525      -560.1062
   2   2.0000     -20.567973      -559.6830
   3   2.0000     -11.344098      -308.6886
   4   2.0000     -11.322700      -308.1063
   5   2.0000     -11.305098      -307.6274
   6   2.0000     -11.304081      -307.5997
   7   2.0000     -11.295074      -307.3546
   8   2.0000     -11.235043      -305.7210
   9   2.0000      -1.449319       -39.4380
  10   2.0000      -1.422448       -38.7068
  11   2.0000      -1.400611       -38.1126
  12   2.0000      -1.048523       -28.5318
  13   2.0000      -0.987922       -26.8827
  14   2.0000      -0.946272       -25.7494
  15   2.0000      -0.901876       -24.5413
  16   2.0000      -0.819053       -22.2876
  17   2.0000      -0.775560       -21.1041
  18   2.0000      -0.740676       -20.1548
  19   2.0000      -0.697306       -18.9747
  20   2.0000      -0.684616       -18.6294
  21   2.0000      -0.660298       -17.9676
  22   2.0000      -0.612182       -16.6583
  23   2.0000      -0.602093       -16.3838
  24   2.0000      -0.586216       -15.9517
  25   2.0000      -0.568469       -15.4688
  26   2.0000      -0.555778       -15.1235
  27   2.0000      -0.535236       -14.5645
  28   2.0000      -0.533763       -14.5244
  29   2.0000      -0.486217       -13.2306
  30   2.0000      -0.485586       -13.2135
  31   2.0000      -0.455891       -12.4054
  32   2.0000      -0.437353       -11.9010
  33   2.0000      -0.416192       -11.3252
  34   0.0000       0.101529         2.7627
  35   0.0000       0.137752         3.7484
  36   0.0000       0.163161         4.4398
  37   0.0000       0.171059         4.6547
  38   0.0000       0.173445         4.7197

MULLIKEN ATOMIC CHARGES
-----------------------
   0 C :   -0.440404
   1 C :    0.205684
   2 O :   -0.322670
   3 C :    0.000957
   4 C :    0.097755
   5 O :   -0.264074
   6 C :    0.036988
   7 C :   -0.089242
   8 O :   -0.333607
   9 H :    0.182786
  10 H :    0.142448
  11 H :    0.137487
  12 H :    0.157256
  13 H :    0.082890
  14 H :    0.142930
  15 H :    0.121281
  16 H :    0.141537
Sum of atomic charges:    0.0000000

LOEWDIN ATOMIC CHARGES
----------------------
   0 C :   -0.257558
   1 C :   -0.310361
   2 O :    0.227880
   3 C :   -0.244795
   4 C :   -0.286077
   5 O :    0.144881
   6 C :   -0.263125
   7 C :   -0.245674
   8 O :    0.160343
   9 H :    0.142155
  10 H :    0.136243
  11 H :    0.133651
  12 H :    0.151800
  13 H :    0.116263
  14 H :    0.145242
  15 H :    0.120569
  16 H :    0.128564

  Mayer bond orders larger than 0.1
B(  0-C ,  1-C ) :   0.8824 B(  0-C ,  9-H ) :   0.9262 B(  0-C , 10-H ) :   0.9275
B(  0-C , 11-H ) :   0.9353 B(  1-C ,  2-O ) :   0.8771 B(  1-C ,  3-C ) :   0.9442
B(  1-C ,  6-C ) :   0.9162 B(  2-O ,  3-C ) :   0.8970 B(  3-C ,  4-C ) :   0.8681
B(  3-C , 12-H ) :   0.8740 B(  4-C ,  5-O ) :   1.9735 B(  4-C , 13-H ) :   0.9372
B(  6-C ,  7-C ) :   0.9796 B(  6-C ,  8-O ) :   0.8872 B(  6-C , 14-H ) :   0.9094
B(  7-C ,  8-O ) :   0.9076 B(  7-C , 15-H ) :   0.9260 B(  7-C , 16-H ) :   0.8989

MP2 TOTAL ENERGY:     -458.183231239 Eh
FINAL SINGLE POINT ENERGY      -458.183231239432

DIPOLE MOMENT
-------------
                                X             Y             Z
Electronic contribution:      3.53251      -3.33373      -0.27193
Nuclear contribution   :     -4.57127       3.53229       0.68372
                        -----------------------------------------
Total Dipole Moment    :     -1.03876       0.19855       0.41179
                        -----------------------------------------
Magnitude (a.u.)       :      1.13491
Magnitude (Debye)      :      2.88471

                             ****ORCA TERMINATED NORMALLY****
TOTAL RUN TIME: 0 days 0 hours 15 minutes 5 seconds 81 msec
