                         Program Version 3.0.3 - RELEASE   -
|  1> ! RI-MP2 RIJK def2-TZVP def2-TZVP/C def2-TZVP/JK TIGHTSCF
|  2> % maxcore 2000
|  3> % mp2 density relaxed end
|  4> *xyz 0 1
|  5>  C       -0.0198012569    -1.1379464148    -0.0285231800
|  6>  C       -0.0133656233     0.0648944438    -0.0068019839
|  7>  C       -0.0031574893     1.4987613679     0.0209320751
|  8>  C        0.4877280327     2.1906896148     1.2850701450
|  9>  C        1.3434745774     2.2086429316     0.0416067347
| 10>  C        1.3019095128     3.7300252937    -0.2331691630
| 11>  C        1.6052300704     4.3280731095     1.1686717277
| 12>  C        0.1957497122     3.7068180244     1.3741654978
| 13>  O       -0.1003777134     4.0680515430    -0.0088741603
| 14>  H       -0.0331230307    -2.1990967387    -0.0533312893
| 15>  H       -0.8025133744     1.9907853366    -0.5220654443
| 16>  H        0.7205327845     1.6126267132     2.1694141932
| 17>  H        2.2603320977     1.6449308630    -0.0680303965
| 18>  H        1.7104440638     4.1192729310    -1.1648241017
| 19>  H        2.4469710465     3.9317754188     1.7422328035
| 20>  H        1.5835044332     5.4189474116     1.1694735065
| 21>  H       -0.5335960432     4.0721941605     2.0959346756
| 22> *
| 23>
| 24>                          ****END OF INPUT****

CARTESIAN COORDINATES (ANGSTROEM)
---------------------------------
  C     -0.019801   -1.137946   -0.028523
  C     -0.013366    0.064894   -0.006802
  C     -0.003157    1.498761    0.020932
  C      0.487728    2.190690    1.285070
  C      1.343475    2.208643    0.041607
  C      1.301910    3.730025   -0.233169
  C      1.605230    4.328073    1.168672
  C      0.195750    3.706818    1.374165
  O     -0.100378    4.068052   -0.008874
  H     -0.033123   -2.199097   -0.053331
  H     -0.802513    1.990785   -0.522065
  H      0.720533    1.612627    2.169414
  H      2.260332    1.644931   -0.068030
  H      1.710444    4.119273   -1.164824
  H      2.446971    3.931775    1.742233
  H      1.583504    5.418947    1.169474
  H     -0.533596    4.072194    2.095935

 Total Charge           Charge          ....    0
 Multiplicity           Mult            ....    1
 Number of Electrons    NEL             ....   64
 Basis Dimension        Dim             ....  327

ORBITAL ENERGIES
----------------

  NO   OCC          E(Eh)            E(eV)
   0   2.0000     -20.557968      -559.4108
   1   2.0000     -11.300891      -307.5129
   2   2.0000     -11.300878      -307.5125
   3   2.0000     -11.259215      -306.3788
   4   2.0000     -11.245337      -306.0012
   5   2.0000     -11.244655      -305.9826
   6   2.0000     -11.239734      -305.8487
   7   2.0000     -11.233832      -305.6881
   8   2.0000     -11.219160      -305.2889
   9   2.0000      -1.403830       -38.2002
  10   2.0000      -1.168662       -31.8009
  11   2.0000      -1.043206       -28.3871
  12   2.0000      -1.005262       -27.3546
  13   2.0000      -0.955414       -25.9981
  14   2.0000      -0.876032       -23.8380
  15   2.0000      -0.774745       -21.0819
  16   2.0000      -0.771381       -20.9903
  17   2.0000      -0.733437       -19.9578
  18   2.0000      -0.711292       -19.3552
  19   2.0000      -0.681467       -18.5437
  20   2.0000      -0.655454       -17.8358
  21   2.0000      -0.586354       -15.9555
  22   2.0000      -0.581212       -15.8156
  23   2.0000      -0.544982       -14.8297
  24   2.0000      -0.519936       -14.1482
  25   2.0000      -0.502695       -13.6790
  26   2.0000      -0.489905       -13.3310
  27   2.0000      -0.462644       -12.5892
  28   2.0000      -0.438687       -11.9373
  29   2.0000      -0.416768       -11.3408
  30   2.0000      -0.374256       -10.1840
  31   2.0000      -0.360910        -9.8209
  32   0.0000       0.146261         3.9800
  33   0.0000       0.164635         4.4799
  34   0.0000       0.165599         4.5062
  35   0.0000       0.168565         4.5869
  36   0.0000       0.175680         4.7805

MULLIKEN ATOMIC CHARGES
-----------------------
   0 C :   -0.122177
   1 C :    0.007125
   2 C :   -0.344867
   3 C :   -0.134342
   4 C :   -0.134324
   5 C :    0.059788
   6 C :   -0.244614
   7 C :    0.059789
   8 O :   -0.323286
   9 H :    0.189055
  10 H :    0.168432
  11 H :    0.145944
  12 H :    0.145945
  13 H :    0.142296
  14 H :    0.117347
  15 H :    0.125593
  16 H :    0.142296
Sum of atomic charges:    0.0000000

LOEWDIN ATOMIC CHARGES
----------------------
   0 C :   -0.101089
   1 C :   -0.088920
   2 C :   -0.166768
   3 C :   -0.145350
   4 C :   -0.145350
   5 C :   -0.227274
   6 C :   -0.194579
   7 C :   -0.227274
   8 O :    0.167367
   9 H :    0.125967
  10 H :    0.172289
  11 H :    0.149440
  12 H :    0.149440
  13 H :    0.132980
  14 H :    0.129591
  15 H :    0.136551
  16 H :    0.132980

  Mayer bond orders larger than 0.1
B(  0-C ,  1-C ) :   2.5912 B(  0-C ,  2-C ) :  -0.1776 B(  0-C ,  9-H ) :   0.8847
B(  1-C ,  2-C ) :   1.1619 B(  2-C ,  3-C ) :   0.8568 B(  2-C ,  4-C ) :   0.8568
B(  2-C , 10-H ) :   0.9197 B(  3-C ,  4-C ) :   0.8724 B(  3-C ,  7-C ) :   0.8997
B(  3-C , 11-H ) :   0.9237 B(  4-C ,  5-C ) :   0.8997 B(  4-C , 12-H ) :   0.9237
B(  5-C ,  6-C ) :   0.9380 B(  5-C ,  8-O ) :   0.9011 B(  5-C , 13-H ) :   0.9058
B(  6-C ,  7-C ) :   0.9380 B(  6-C , 14-H ) :   0.9072 B(  6-C , 15-H ) :   0.9258
B(  7-C ,  8-O ) :   0.9011 B(  7-C , 16-H ) :   0.9058

MP2 TOTAL ENERGY:     -383.922953629 Eh
FINAL SINGLE POINT ENERGY      -383.922953628633

DIPOLE MOMENT
-------------
                                X             Y             Z
Electronic contribution:     -2.19471      -1.38076      -1.53020
Nuclear contribution   :      2.85118       1.53409       1.98407
                        -----------------------------------------
Total Dipole Moment    :      0.65647       0.15334       0.45387
                        -----------------------------------------
Magnitude (a.u.)       :      0.81269
Magnitude (Debye)      :      2.06570

                             ****ORCA TERMINATED NORMALLY****
TOTAL RUN TIME: 0 days 0 hours 17 minutes 42 seconds 746 msec
