                         Program Version 3.0.3 - RELEASE   -
|  1> ! RI-MP2 RIJK def2-TZVP def2-TZVP/C def2-TZVP/JK TIGHTSCF
|  2> % maxcore 2000
|  3> % mp2 density relaxed end
|  4> *xyz 0 1
|  5>  C       -0.2630763027     1.4254546080     0.0439097638
|  6>  C        0.0787147696    -0.0691590577    -0.0674187029
|  7>  C        0.8248766855    -0.3762087743    -1.3756533973
|  8>  C        0.8427637125    -0.5481328890     1.1449416830
|  9>  C        0.1449426054    -0.9793342579     2.4239162739
| 10>  C        1.0334292784    -1.9543128123     1.6994514788
| 11>  O        0.5535087494    -3.1369758299     1.1584654892
| 12>  C        2.5056786115    -1.6818308978     2.0138230554
| 13>  C        2.3051363700    -0.2148772768     1.5003711862
| 14>  H        0.6477852589     2.0346515252     0.0744969115
| 15>  H       -0.8544790167     1.7583258668    -0.8156307860
| 16>  H       -0.8354439252     1.6349882638     0.9530081064
| 17>  H       -0.8645390268    -0.6318579265    -0.0887513181
| 18>  H        1.7716843425     0.1722534997    -1.4358405155
| 19>  H        1.0451523853    -1.4446186280    -1.4591245229
| 20>  H        0.2231210805    -0.0831957926    -2.2423592388
| 21>  H        0.4267645786    -0.5628202009     3.3898536316
| 22>  H       -0.9167710772    -1.1764845236     2.3065673288
| 23>  H        0.2541923363    -3.7035166886     1.8779861891
| 24>  H        2.8249938242    -1.8129322133     3.0538411598
| 25>  H        3.1711812024    -2.2528474598     1.3622305836
| 26>  H        2.9294790992     0.0105869010     0.6334776623
| 27>  H        2.4395765483     0.5771406544     2.2440632883
| 28> *
| 29>
| 30>                          ****END OF INPUT****

CARTESIAN COORDINATES (ANGSTROEM)
---------------------------------
  C     -0.263076    1.425455    0.043910
  C      0.078715   -0.069159   -0.067419
  C      0.824877   -0.376209   -1.375653
  C      0.842764   -0.548133    1.144942
  C      0.144943   -0.979334    2.423916
  C      1.033429   -1.954313    1.699451
  O      0.553509   -3.136976    1.158465
  C      2.505679   -1.681831    2.013823
  C      2.305136   -0.214877    1.500371
  H      0.647785    2.034652    0.074497
  H     -0.854479    1.758326   -0.815631
  H     -0.835444    1.634988    0.953008
  H     -0.864539   -0.631858   -0.088751
  H      1.771684    0.172253   -1.435841
  H      1.045152   -1.444619   -1.459125
  H      0.223121   -0.083196   -2.242359
  H      0.426765   -0.562820    3.389854
  H     -0.916771   -1.176485    2.306567
  H      0.254192   -3.703517    1.877986
  H      2.824994   -1.812932    3.053841
  H      3.171181   -2.252847    1.362231
  H      2.929479    0.010587    0.633478
  H      2.439577    0.577141    2.244063

 Total Charge           Charge          ....    0
 Multiplicity           Mult            ....    1
 Number of Electrons    NEL             ....   70
 Basis Dimension        Dim             ....  363

ORBITAL ENERGIES
----------------

  NO   OCC          E(Eh)            E(eV)
   0   2.0000     -20.563706      -559.5669
   1   2.0000     -11.280067      -306.9462
   2   2.0000     -11.228407      -305.5405
   3   2.0000     -11.225768      -305.4687
   4   2.0000     -11.222352      -305.3757
   5   2.0000     -11.221150      -305.3430
   6   2.0000     -11.220847      -305.3348
   7   2.0000     -11.208388      -304.9957
   8   2.0000     -11.205236      -304.9100
   9   2.0000      -1.373832       -37.3839
  10   2.0000      -1.181270       -32.1440
  11   2.0000      -1.057164       -28.7669
  12   2.0000      -0.982089       -26.7240
  13   2.0000      -0.922844       -25.1119
  14   2.0000      -0.882735       -24.0204
  15   2.0000      -0.826851       -22.4998
  16   2.0000      -0.788792       -21.4641
  17   2.0000      -0.725772       -19.7493
  18   2.0000      -0.667760       -18.1707
  19   2.0000      -0.639420       -17.3995
  20   2.0000      -0.629708       -17.1352
  21   2.0000      -0.615487       -16.7483
  22   2.0000      -0.591492       -16.0953
  23   2.0000      -0.563358       -15.3297
  24   2.0000      -0.541325       -14.7302
  25   2.0000      -0.533053       -14.5051
  26   2.0000      -0.528803       -14.3894
  27   2.0000      -0.528020       -14.3681
  28   2.0000      -0.504521       -13.7287
  29   2.0000      -0.478380       -13.0174
  30   2.0000      -0.475895       -12.9498
  31   2.0000      -0.458494       -12.4762
  32   2.0000      -0.439590       -11.9619
  33   2.0000      -0.382279       -10.4023
  34   2.0000      -0.361740        -9.8435
  35   0.0000       0.134620         3.6632
  36   0.0000       0.144212         3.9242
  37   0.0000       0.164990         4.4896
  38   0.0000       0.170585         4.6418
  39   0.0000       0.181409         4.9364

MULLIKEN ATOMIC CHARGES
-----------------------
   0 C :   -0.409493
   1 C :   -0.044672
   2 C :   -0.424717
   3 C :    0.071123
   4 C :   -0.314589
   5 C :    0.131199
   6 O :   -0.452439
   7 C :   -0.216257
   8 C :   -0.239914
   9 H :    0.124002
  10 H :    0.131877
  11 H :    0.132681
  12 H :    0.085896
  13 H :    0.116153
  14 H :    0.150355
  15 H :    0.129648
  16 H :    0.121476
  17 H :    0.132067
  18 H :    0.325715
  19 H :    0.106167
  20 H :    0.108585
  21 H :    0.117186
  22 H :    0.117953
Sum of atomic charges:    0.0000000

LOEWDIN ATOMIC CHARGES
----------------------
   0 C :   -0.286419
   1 C :   -0.271722
   2 C :   -0.286412
   3 C :   -0.171410
   4 C :   -0.179298
   5 C :   -0.326604
   6 O :    0.024870
   7 C :   -0.197702
   8 C :   -0.185699
   9 H :    0.123545
  10 H :    0.121946
  11 H :    0.123934
  12 H :    0.159607
  13 H :    0.120393
  14 H :    0.128627
  15 H :    0.122431
  16 H :    0.130125
  17 H :    0.143046
  18 H :    0.183857
  19 H :    0.123755
  20 H :    0.137962
  21 H :    0.133671
  22 H :    0.127497

  Mayer bond orders larger than 0.1
B(  0-C ,  1-C ) :   0.9121 B(  0-C ,  9-H ) :   0.9319 B(  0-C , 10-H ) :   0.9421
B(  0-C , 11-H ) :   0.9398 B(  1-C ,  2-C ) :   0.9198 B(  1-C ,  3-C ) :   0.9020
B(  1-C , 12-H ) :   0.9211 B(  2-C , 13-H ) :   0.9313 B(  2-C , 14-H ) :   0.9391
B(  2-C , 15-H ) :   0.9383 B(  3-C ,  4-C ) :   0.8398 B(  3-C ,  5-C ) :   0.8073
B(  3-C ,  8-C ) :   0.9210 B(  4-C ,  5-C ) :   0.9220 B(  4-C , 16-H ) :   0.9017
B(  4-C , 17-H ) :   0.9290 B(  5-C ,  6-O ) :   1.0791 B(  5-C ,  7-C ) :   1.0212
B(  6-O , 18-H ) :   0.8343 B(  7-C ,  8-C ) :   0.9886 B(  7-C , 19-H ) :   0.9111
B(  7-C , 20-H ) :   0.9068 B(  8-C , 21-H ) :   0.9237 B(  8-C , 22-H ) :   0.9143

MP2 TOTAL ENERGY:     -387.594642466 Eh
FINAL SINGLE POINT ENERGY      -387.594642466148

DIPOLE MOMENT
-------------
                                X             Y             Z
Electronic contribution:     -0.02929      -6.11657       3.38619
Nuclear contribution   :     -0.04953       6.12157      -2.94447
                        -----------------------------------------
Total Dipole Moment    :     -0.07882       0.00500       0.44172
                        -----------------------------------------
Magnitude (a.u.)       :      0.44873
Magnitude (Debye)      :      1.14058

                             ****ORCA TERMINATED NORMALLY****
TOTAL RUN TIME: 0 days 0 hours 22 minutes 41 seconds 543 msec
