                         Program Version 3.0.3 - RELEASE   -
|  1> ! RI-MP2 RIJK def2-TZVP def2-TZVP/C def2-TZVP/JK TIGHTSCF
|  2> % maxcore 2000
|  3> % mp2 density relaxed end
|  4> *xyz 0 1
|  5>  C       -0.0762841825     1.5614883768     0.0952740785
|  6>  C        0.0992579044     0.0702389880    -0.0200797799
|  7>  N       -0.7957218440    -0.8496297889     0.7483701547
|  8>  C        0.6566384258    -0.8120848014     1.0422235077
|  9>  C        1.4437955259    -1.9343924178     0.3772260456
| 10>  C        1.2375165321    -1.6685724353    -1.1072364216
| 11>  C        1.7603039026    -2.6064605678    -2.1532130993
| 12>  O        1.3273568678    -2.3083382151    -3.4675339710
| 13>  C        0.5253940684    -0.5560210117    -1.3126918137
| 14>  H        0.8139984519     2.0917677642    -0.2595121643
| 15>  H       -0.9279850526     1.9064491361    -0.5027114576
| 16>  H       -0.2545336492     1.8593840389     1.1339316893
| 17>  H       -1.2721643250    -0.3044131090     1.4669627861
| 18>  H        0.9811133714    -0.4173080316     1.9996434614
| 19>  H        2.5074911711    -1.8984295373     0.6496696939
| 20>  H        1.0711645281    -2.9233630376     0.6713982534
| 21>  H        2.8577565638    -2.5624580381    -2.1833774765
| 22>  H        1.5088139253    -3.6437610060    -1.8699156645
| 23>  H        0.3642891841    -2.3297180485    -3.4589169042
| 24>  H        0.2613235206    -0.1544965278    -2.2837086180
| 25> *
| 26>
| 27>                          ****END OF INPUT****

CARTESIAN COORDINATES (ANGSTROEM)
---------------------------------
  C     -0.076284    1.561488    0.095274
  C      0.099258    0.070239   -0.020080
  N     -0.795722   -0.849630    0.748370
  C      0.656638   -0.812085    1.042224
  C      1.443796   -1.934392    0.377226
  C      1.237517   -1.668572   -1.107236
  C      1.760304   -2.606461   -2.153213
  O      1.327357   -2.308338   -3.467534
  C      0.525394   -0.556021   -1.312692
  H      0.813998    2.091768   -0.259512
  H     -0.927985    1.906449   -0.502711
  H     -0.254534    1.859384    1.133932
  H     -1.272164   -0.304413    1.466963
  H      0.981113   -0.417308    1.999643
  H      2.507491   -1.898430    0.649670
  H      1.071165   -2.923363    0.671398
  H      2.857757   -2.562458   -2.183377
  H      1.508814   -3.643761   -1.869916
  H      0.364289   -2.329718   -3.458917
  H      0.261324   -0.154497   -2.283709

 Total Charge           Charge          ....    0
 Multiplicity           Mult            ....    1
 Number of Electrons    NEL             ....   68
 Basis Dimension        Dim             ....  345

ORBITAL ENERGIES
----------------

  NO   OCC          E(Eh)            E(eV)
   0   2.0000     -20.555656      -559.3478
   1   2.0000     -15.553302      -423.2269
   2   2.0000     -11.280838      -306.9672
   3   2.0000     -11.264610      -306.5256
   4   2.0000     -11.256224      -306.2974
   5   2.0000     -11.233210      -305.6712
   6   2.0000     -11.231890      -305.6353
   7   2.0000     -11.228370      -305.5395
   8   2.0000     -11.218315      -305.2659
   9   2.0000      -1.361256       -37.0416
  10   2.0000      -1.268668       -34.5222
  11   2.0000      -1.093025       -29.7427
  12   2.0000      -1.005989       -27.3744
  13   2.0000      -0.957055       -26.0428
  14   2.0000      -0.936486       -25.4831
  15   2.0000      -0.841660       -22.9027
  16   2.0000      -0.766666       -20.8620
  17   2.0000      -0.730107       -19.8672
  18   2.0000      -0.694712       -18.9041
  19   2.0000      -0.668914       -18.2021
  20   2.0000      -0.635653       -17.2970
  21   2.0000      -0.607961       -16.5434
  22   2.0000      -0.589311       -16.0360
  23   2.0000      -0.577711       -15.7203
  24   2.0000      -0.575667       -15.6647
  25   2.0000      -0.543542       -14.7905
  26   2.0000      -0.523365       -14.2415
  27   2.0000      -0.511644       -13.9225
  28   2.0000      -0.497917       -13.5490
  29   2.0000      -0.475934       -12.9508
  30   2.0000      -0.460417       -12.5286
  31   2.0000      -0.442537       -12.0420
  32   2.0000      -0.376076       -10.2336
  33   2.0000      -0.334677        -9.1070
  34   0.0000       0.130828         3.5600
  35   0.0000       0.144044         3.9196
  36   0.0000       0.150162         4.0861
  37   0.0000       0.157920         4.2972
  38   0.0000       0.176785         4.8106

MULLIKEN ATOMIC CHARGES
-----------------------
   0 C :   -0.389396
   1 C :    0.292029
   2 N :   -0.397926
   3 C :   -0.173865
   4 C :   -0.128733
   5 C :   -0.017096
   6 C :   -0.037673
   7 O :   -0.471272
   8 C :   -0.343407
   9 H :    0.139594
  10 H :    0.140348
  11 H :    0.124143
  12 H :    0.209742
  13 H :    0.130972
  14 H :    0.115358
  15 H :    0.119261
  16 H :    0.121405
  17 H :    0.118587
  18 H :    0.319975
  19 H :    0.127953
Sum of atomic charges:   -0.0000000

LOEWDIN ATOMIC CHARGES
----------------------
   0 C :   -0.273672
   1 C :   -0.285171
   2 N :    0.018384
   3 C :   -0.220300
   4 C :   -0.192039
   5 C :   -0.158356
   6 C :   -0.313946
   7 O :   -0.038895
   8 C :   -0.102603
   9 H :    0.132850
  10 H :    0.130075
  11 H :    0.127331
  12 H :    0.165228
  13 H :    0.134653
  14 H :    0.143921
  15 H :    0.147872
  16 H :    0.139216
  17 H :    0.126358
  18 H :    0.176412
  19 H :    0.142681

  Mayer bond orders larger than 0.1
B(  0-C ,  1-C ) :   0.9102 B(  0-C ,  9-H ) :   0.9253 B(  0-C , 10-H ) :   0.9419
B(  0-C , 11-H ) :   0.9324 B(  1-C ,  2-N ) :   0.8275 B(  1-C ,  3-C ) :   0.8699
B(  1-C ,  8-C ) :   0.9024 B(  2-N ,  3-C ) :   1.0462 B(  2-N , 12-H ) :   0.8708
B(  3-C ,  4-C ) :   0.9214 B(  3-C , 13-H ) :   0.9255 B(  4-C ,  5-C ) :   0.9694
B(  4-C , 14-H ) :   0.9067 B(  4-C , 15-H ) :   0.8881 B(  5-C ,  6-C ) :   0.8957
B(  5-C ,  8-C ) :   1.7905 B(  6-C ,  7-O ) :   0.9534 B(  6-C , 16-H ) :   0.9103
B(  6-C , 17-H ) :   0.9576 B(  7-O , 18-H ) :   0.8406 B(  8-C , 19-H ) :   0.9377

MP2 TOTAL ENERGY:     -402.442008992 Eh
FINAL SINGLE POINT ENERGY      -402.442008991817

DIPOLE MOMENT
-------------
                                X             Y             Z
Electronic contribution:     -0.34100      -2.33775      -1.99619
Nuclear contribution   :      0.34240       2.73365       2.76052
                        -----------------------------------------
Total Dipole Moment    :      0.00140       0.39590       0.76434
                        -----------------------------------------
Magnitude (a.u.)       :      0.86078
Magnitude (Debye)      :      2.18794

                             ****ORCA TERMINATED NORMALLY****
TOTAL RUN TIME: 0 days 0 hours 18 minutes 25 seconds 762 msec
