                         Program Version 3.0.3 - RELEASE   -
|  1> ! RI-MP2 RIJK def2-TZVP def2-TZVP/C def2-TZVP/JK TIGHTSCF
|  2> % maxcore 2000
|  3> % mp2 density relaxed end
|  4> *xyz 0 1
|  5>  O       -0.2815478333     1.4593559399    -0.0561984206
|  6>  C       -0.0954856327     0.0976149479     0.0526747155
|  7>  C       -0.3268313592    -0.8537611725    -1.0837954053
|  8>  C       -1.1668738834    -0.9787875692     0.1732744291
|  9>  C       -0.3396237298    -1.6979899836     1.2376848052
| 10>  C        0.7352578718    -0.5740007647     1.1587267971
| 11>  O       -0.9761458003    -1.7148594646     2.5154740510
| 12>  C       -1.2340483851    -2.9053875471     3.0887559631
| 13>  O       -1.7803925335    -3.0095305398     4.1450932848
| 14>  H        0.3583921518     1.8087799363    -0.6860630273
| 15>  H       -0.8617878325    -0.4251302905    -1.9253987614
| 16>  H        0.4017016469    -1.6180961464    -1.3494631870
| 17>  H       -2.2467147087    -0.9070892962     0.1625658476
| 18>  H       -0.0078314416    -2.7111234483     0.9785127197
| 19>  H        1.7640656790    -0.8649591877     0.9225415146
| 20>  H        0.7143735807     0.0076232508     2.0820046451
| 21>  H       -0.8812799800    -3.7607057141     2.4793898687
| 22> *
| 23>
| 24>                          ****END OF INPUT****

CARTESIAN COORDINATES (ANGSTROEM)
---------------------------------
  O     -0.281548    1.459356   -0.056198
  C     -0.095486    0.097615    0.052675
  C     -0.326831   -0.853761   -1.083795
  C     -1.166874   -0.978788    0.173274
  C     -0.339624   -1.697990    1.237685
  C      0.735258   -0.574001    1.158727
  O     -0.976146   -1.714859    2.515474
  C     -1.234048   -2.905388    3.088756
  O     -1.780393   -3.009531    4.145093
  H      0.358392    1.808780   -0.686063
  H     -0.861788   -0.425130   -1.925399
  H      0.401702   -1.618096   -1.349463
  H     -2.246715   -0.907089    0.162566
  H     -0.007831   -2.711123    0.978513
  H      1.764066   -0.864959    0.922542
  H      0.714374    0.007623    2.082005
  H     -0.881280   -3.760706    2.479390

 Total Charge           Charge          ....    0
 Multiplicity           Mult            ....    1
 Number of Electrons    NEL             ....   68
 Basis Dimension        Dim             ....  327

ORBITAL ENERGIES
----------------

  NO   OCC          E(Eh)            E(eV)
   0   2.0000     -20.609653      -560.8172
   1   2.0000     -20.580998      -560.0374
   2   2.0000     -20.549670      -559.1850
   3   2.0000     -11.383578      -309.7629
   4   2.0000     -11.316934      -307.9494
   5   2.0000     -11.307801      -307.7009
   6   2.0000     -11.249206      -306.1065
   7   2.0000     -11.248340      -306.0829
   8   2.0000     -11.243948      -305.9634
   9   2.0000      -1.463949       -39.8361
  10   2.0000      -1.394421       -37.9441
  11   2.0000      -1.374134       -37.3921
  12   2.0000      -1.201164       -32.6853
  13   2.0000      -1.011968       -27.5371
  14   2.0000      -0.919533       -25.0218
  15   2.0000      -0.851344       -23.1662
  16   2.0000      -0.838317       -22.8118
  17   2.0000      -0.781970       -21.2785
  18   2.0000      -0.732713       -19.9381
  19   2.0000      -0.710587       -19.3361
  20   2.0000      -0.677136       -18.4258
  21   2.0000      -0.667093       -18.1525
  22   2.0000      -0.645208       -17.5570
  23   2.0000      -0.619349       -16.8533
  24   2.0000      -0.600082       -16.3291
  25   2.0000      -0.570833       -15.5332
  26   2.0000      -0.549576       -14.9547
  27   2.0000      -0.547257       -14.8916
  28   2.0000      -0.520959       -14.1760
  29   2.0000      -0.492756       -13.4086
  30   2.0000      -0.461309       -12.5529
  31   2.0000      -0.444372       -12.0920
  32   2.0000      -0.420205       -11.4344
  33   2.0000      -0.397097       -10.8056
  34   0.0000       0.129725         3.5300
  35   0.0000       0.140490         3.8229
  36   0.0000       0.148633         4.0445
  37   0.0000       0.163831         4.4581
  38   0.0000       0.173057         4.7091

MULLIKEN ATOMIC CHARGES
-----------------------
   0 O :   -0.444945
   1 C :    0.151671
   2 C :   -0.305065
   3 C :   -0.143487
   4 C :    0.050129
   5 C :   -0.192566
   6 O :   -0.207106
   7 C :    0.189239
   8 O :   -0.268376
   9 H :    0.330310
  10 H :    0.142731
  11 H :    0.129882
  12 H :    0.154399
  13 H :    0.088940
  14 H :    0.122039
  15 H :    0.130179
  16 H :    0.072026
Sum of atomic charges:   -0.0000000

LOEWDIN ATOMIC CHARGES
----------------------
   0 O :    0.037800
   1 C :   -0.339706
   2 C :   -0.191375
   3 C :   -0.145091
   4 C :   -0.254115
   5 C :   -0.173467
   6 O :    0.273370
   7 C :   -0.450278
   8 O :    0.120208
   9 H :    0.187891
  10 H :    0.146017
  11 H :    0.131697
  12 H :    0.145060
  13 H :    0.130531
  14 H :    0.128341
  15 H :    0.152257
  16 H :    0.100859

  Mayer bond orders larger than 0.1
B(  0-O ,  1-C ) :   1.0674 B(  0-O ,  9-H ) :   0.8321 B(  1-C ,  2-C ) :   0.9149
B(  1-C ,  3-C ) :   0.8551 B(  1-C ,  5-C ) :   0.9716 B(  2-C ,  3-C ) :   0.8436
B(  2-C , 10-H ) :   0.9235 B(  2-C , 11-H ) :   0.9013 B(  3-C ,  4-C ) :   0.9144
B(  3-C , 12-H ) :   0.8882 B(  4-C ,  5-C ) :   0.9505 B(  4-C ,  6-O ) :   0.8817
B(  4-C , 13-H ) :   0.9174 B(  5-C , 14-H ) :   0.9056 B(  5-C , 15-H ) :   0.9011
B(  6-O ,  7-C ) :   1.0636 B(  7-C ,  8-O ) :   2.0324 B(  7-C , 16-H ) :   0.9170

MP2 TOTAL ENERGY:     -458.208200179 Eh
FINAL SINGLE POINT ENERGY      -458.208200179295

DIPOLE MOMENT
-------------
                                X             Y             Z
Electronic contribution:     -2.76925      -0.54726       5.25024
Nuclear contribution   :      3.87020       0.47797      -7.06223
                        -----------------------------------------
Total Dipole Moment    :      1.10095      -0.06929      -1.81200
                        -----------------------------------------
Magnitude (a.u.)       :      2.12137
Magnitude (Debye)      :      5.39210

                             ****ORCA TERMINATED NORMALLY****
TOTAL RUN TIME: 0 days 0 hours 15 minutes 36 seconds 282 msec
