                         Program Version 3.0.3 - RELEASE   -
|  1> ! RI-MP2 RIJK def2-TZVP def2-TZVP/C def2-TZVP/JK TIGHTSCF
|  2> % maxcore 2000
|  3> % mp2 density relaxed end
|  4> *xyz 0 1
|  5>  C       -0.0912754693     1.4392437312     0.1845144809
|  6>  C        0.0594376200    -0.0798475291    -0.0084150227
|  7>  C        0.8413758489    -0.4388635092    -1.2272384606
|  8>  C        2.0353193477    -1.0567505386    -1.4313100638
|  9>  C        2.1938827187    -1.0565919633    -2.8493925236
| 10>  C        3.3186964580    -1.6161257587    -3.6673891001
| 11>  C        3.4321532236    -3.1455065513    -3.5632238235
| 12>  N        1.1724057379    -0.4826743313    -3.4408407765
| 13>  O        0.3104245739    -0.0894916364    -2.4143299968
| 14>  H        0.8856562823     1.9171662533     0.3031361494
| 15>  H       -0.5858389994     1.8914084533    -0.6788534844
| 16>  H       -0.6884563999     1.6540995894     1.0751828016
| 17>  H        0.5559634694    -0.5263158710     0.8583245071
| 18>  H       -0.9346444486    -0.5384990339    -0.0766531413
| 19>  H        2.7058962205    -1.4521357170    -0.6860654282
| 20>  H        3.1606070153    -1.3198711071    -4.7083833125
| 21>  H        4.2603665406    -1.1570709257    -3.3422066993
| 22>  H        3.6039289925    -3.4642189257    -2.5302294858
| 23>  H        2.5156642398    -3.6284792193    -3.9145971143
| 24>  H        4.2653913280    -3.5113022097    -4.1704569459
| 25> *
| 26>
| 27>                          ****END OF INPUT****

CARTESIAN COORDINATES (ANGSTROEM)
---------------------------------
  C     -0.091275    1.439244    0.184514
  C      0.059438   -0.079848   -0.008415
  C      0.841376   -0.438864   -1.227238
  C      2.035319   -1.056751   -1.431310
  C      2.193883   -1.056592   -2.849393
  C      3.318696   -1.616126   -3.667389
  C      3.432153   -3.145507   -3.563224
  N      1.172406   -0.482674   -3.440841
  O      0.310425   -0.089492   -2.414330
  H      0.885656    1.917166    0.303136
  H     -0.585839    1.891408   -0.678853
  H     -0.688456    1.654100    1.075183
  H      0.555963   -0.526316    0.858325
  H     -0.934644   -0.538499   -0.076653
  H      2.705896   -1.452136   -0.686065
  H      3.160607   -1.319871   -4.708383
  H      4.260367   -1.157071   -3.342207
  H      3.603929   -3.464219   -2.530229
  H      2.515664   -3.628479   -3.914597
  H      4.265391   -3.511302   -4.170457

 Total Charge           Charge          ....    0
 Multiplicity           Mult            ....    1
 Number of Electrons    NEL             ....   68
 Basis Dimension        Dim             ....  345

ORBITAL ENERGIES
----------------

  NO   OCC          E(Eh)            E(eV)
   0   2.0000     -20.627653      -561.3070
   1   2.0000     -15.602973      -424.5785
   2   2.0000     -11.310364      -307.7707
   3   2.0000     -11.273890      -306.7782
   4   2.0000     -11.249102      -306.1036
   5   2.0000     -11.238663      -305.8196
   6   2.0000     -11.227681      -305.5207
   7   2.0000     -11.224983      -305.4473
   8   2.0000     -11.223886      -305.4175
   9   2.0000      -1.478024       -40.2191
  10   2.0000      -1.167764       -31.7765
  11   2.0000      -1.094490       -29.7826
  12   2.0000      -1.032817       -28.1044
  13   2.0000      -1.018268       -27.7085
  14   2.0000      -0.883731       -24.0475
  15   2.0000      -0.879812       -23.9409
  16   2.0000      -0.796381       -21.6706
  17   2.0000      -0.751155       -20.4400
  18   2.0000      -0.688425       -18.7330
  19   2.0000      -0.654654       -17.8140
  20   2.0000      -0.626007       -17.0345
  21   2.0000      -0.619338       -16.8531
  22   2.0000      -0.600398       -16.3377
  23   2.0000      -0.586922       -15.9710
  24   2.0000      -0.570102       -15.5133
  25   2.0000      -0.532912       -14.5013
  26   2.0000      -0.528883       -14.3916
  27   2.0000      -0.522644       -14.2219
  28   2.0000      -0.509346       -13.8600
  29   2.0000      -0.503474       -13.7002
  30   2.0000      -0.493571       -13.4307
  31   2.0000      -0.460348       -12.5267
  32   2.0000      -0.402555       -10.9541
  33   2.0000      -0.350107        -9.5269
  34   0.0000       0.123220         3.3530
  35   0.0000       0.140152         3.8137
  36   0.0000       0.146989         3.9998
  37   0.0000       0.170454         4.6383
  38   0.0000       0.181673         4.9436

MULLIKEN ATOMIC CHARGES
-----------------------
   0 C :   -0.389010
   1 C :   -0.244224
   2 C :    0.189731
   3 C :   -0.274981
   4 C :    0.125992
   5 C :   -0.250424
   6 C :   -0.386393
   7 N :   -0.129833
   8 O :   -0.118906
   9 H :    0.129828
  10 H :    0.146491
  11 H :    0.133341
  12 H :    0.130380
  13 H :    0.134351
  14 H :    0.145671
  15 H :    0.140175
  16 H :    0.124401
  17 H :    0.122667
  18 H :    0.136991
  19 H :    0.133753
Sum of atomic charges:   -0.0000000

LOEWDIN ATOMIC CHARGES
----------------------
   0 C :   -0.304527
   1 C :   -0.254318
   2 C :   -0.276199
   3 C :   -0.152414
   4 C :   -0.285448
   5 C :   -0.251733
   6 C :   -0.306424
   7 N :    0.056852
   8 O :    0.289039
   9 H :    0.123760
  10 H :    0.127066
  11 H :    0.122088
  12 H :    0.149700
  13 H :    0.151096
  14 H :    0.147656
  15 H :    0.150141
  16 H :    0.145920
  17 H :    0.120185
  18 H :    0.125559
  19 H :    0.122001

  Mayer bond orders larger than 0.1
B(  0-C ,  1-C ) :   0.9164 B(  0-C ,  9-H ) :   0.9346 B(  0-C , 10-H ) :   0.9365
B(  0-C , 11-H ) :   0.9357 B(  1-C ,  2-C ) :   0.8989 B(  1-C , 12-H ) :   0.9472
B(  1-C , 13-H ) :   0.9278 B(  2-C ,  3-C ) :   1.5331 B(  2-C ,  8-O ) :   1.1187
B(  3-C ,  4-C ) :   1.1890 B(  3-C , 14-H ) :   0.9086 B(  4-C ,  5-C ) :   0.8743
B(  4-C ,  7-N ) :   1.6299 B(  5-C ,  6-C ) :   0.9127 B(  5-C , 15-H ) :   0.9474
B(  5-C , 16-H ) :   0.9348 B(  6-C , 17-H ) :   0.9381 B(  6-C , 18-H ) :   0.9362
B(  6-C , 19-H ) :   0.9362 B(  7-N ,  8-O ) :   0.8772

MP2 TOTAL ENERGY:     -402.463173185 Eh
FINAL SINGLE POINT ENERGY      -402.463173184961

DIPOLE MOMENT
-------------
                                X             Y             Z
Electronic contribution:     -2.92247       1.77291      -3.30800
Nuclear contribution   :      3.42610      -2.08378       4.30447
                        -----------------------------------------
Total Dipole Moment    :      0.50363      -0.31087       0.99646
                        -----------------------------------------
Magnitude (a.u.)       :      1.15898
Magnitude (Debye)      :      2.94588

                             ****ORCA TERMINATED NORMALLY****
TOTAL RUN TIME: 0 days 0 hours 19 minutes 50 seconds 12 msec
