                         Program Version 3.0.3 - RELEASE   -
|  1> ! RI-MP2 RIJK def2-TZVP def2-TZVP/C def2-TZVP/JK TIGHTSCF
|  2> % maxcore 2000
|  3> % mp2 density relaxed end
|  4> *xyz 0 1
|  5>  O       -0.3499631512     1.3311137233     0.0528009302
|  6>  C       -0.0576782370    -0.0641541666     0.0169952869
|  7>  C        0.7542233501    -0.4103109656    -1.1543363051
|  8>  C        1.4460164424    -0.6681428997    -2.1032371631
|  9>  C        0.5978306277    -0.5589248185     1.3064167699
| 10>  C        1.5622831315     0.3096973475     2.0669896282
| 11>  C        0.1875827675     0.0294543197     2.6274406775
| 12>  H        0.4440371268     1.8001631691    -0.2245356186
| 13>  H       -1.0362292139    -0.5530203851    -0.0778003335
| 14>  H        2.0449815432    -0.9034035082    -2.9482794403
| 15>  H        0.8149338327    -1.6227882102     1.2846444383
| 16>  H        2.4238365626    -0.1620305937     2.5254033282
| 17>  H        1.7465003256     1.3134870540     1.7000735034
| 18>  H       -0.5245022640     0.8461370637     2.6020776841
| 19>  H        0.0962944659    -0.6344645797     3.4797259639
| 20> *
| 21>
| 22>                          ****END OF INPUT****

CARTESIAN COORDINATES (ANGSTROEM)
---------------------------------
  O     -0.349963    1.331114    0.052801
  C     -0.057678   -0.064154    0.016995
  C      0.754223   -0.410311   -1.154336
  C      1.446016   -0.668143   -2.103237
  C      0.597831   -0.558925    1.306417
  C      1.562283    0.309697    2.066990
  C      0.187583    0.029454    2.627441
  H      0.444037    1.800163   -0.224536
  H     -1.036229   -0.553020   -0.077800
  H      2.044982   -0.903404   -2.948279
  H      0.814934   -1.622788    1.284644
  H      2.423837   -0.162031    2.525403
  H      1.746500    1.313487    1.700074
  H     -0.524502    0.846137    2.602078
  H      0.096294   -0.634465    3.479726

 Total Charge           Charge          ....    0
 Multiplicity           Mult            ....    1
 Number of Electrons    NEL             ....   52
 Basis Dimension        Dim             ....  265

ORBITAL ENERGIES
----------------

  NO   OCC          E(Eh)            E(eV)
   0   2.0000     -20.567787      -559.6779
   1   2.0000     -11.314600      -307.8859
   2   2.0000     -11.239547      -305.8436
   3   2.0000     -11.238801      -305.8233
   4   2.0000     -11.233556      -305.6806
   5   2.0000     -11.228449      -305.5416
   6   2.0000     -11.224952      -305.4465
   7   2.0000      -1.375701       -37.4347
   8   2.0000      -1.146371       -31.1944
   9   2.0000      -1.052937       -28.6519
  10   2.0000      -0.959833       -26.1184
  11   2.0000      -0.826545       -22.4914
  12   2.0000      -0.798109       -21.7177
  13   2.0000      -0.751366       -20.4457
  14   2.0000      -0.697176       -18.9711
  15   2.0000      -0.687206       -18.6998
  16   2.0000      -0.646918       -17.6035
  17   2.0000      -0.614448       -16.7200
  18   2.0000      -0.560322       -15.2471
  19   2.0000      -0.541060       -14.7230
  20   2.0000      -0.515588       -14.0299
  21   2.0000      -0.474021       -12.8988
  22   2.0000      -0.431689       -11.7468
  23   2.0000      -0.420287       -11.4366
  24   2.0000      -0.400211       -10.8903
  25   2.0000      -0.391766       -10.6605
  26   0.0000       0.135004         3.6737
  27   0.0000       0.154394         4.2013
  28   0.0000       0.162663         4.4263
  29   0.0000       0.166071         4.5190
  30   0.0000       0.172488         4.6936

MULLIKEN ATOMIC CHARGES
-----------------------
   0 O :   -0.465402
   1 C :    0.028047
   2 C :   -0.095266
   3 C :   -0.144575
   4 C :   -0.075025
   5 C :   -0.308157
   6 C :   -0.226345
   7 H :    0.323252
   8 H :    0.119862
   9 H :    0.194109
  10 H :    0.125668
  11 H :    0.133039
  12 H :    0.115463
  13 H :    0.142716
  14 H :    0.132614
Sum of atomic charges:    0.0000000

LOEWDIN ATOMIC CHARGES
----------------------
   0 O :    0.001280
   1 C :   -0.316528
   2 C :   -0.090272
   3 C :   -0.087551
   4 C :   -0.210461
   5 C :   -0.228720
   6 C :   -0.223974
   7 H :    0.179374
   8 H :    0.164746
   9 H :    0.128348
  10 H :    0.154145
  11 H :    0.131168
  12 H :    0.129364
  13 H :    0.138749
  14 H :    0.130331

  Mayer bond orders larger than 0.1
B(  0-O ,  1-C ) :   0.9229 B(  0-O ,  7-H ) :   0.8400 B(  1-C ,  2-C ) :   1.1650
B(  1-C ,  4-C ) :   0.9155 B(  1-C ,  8-H ) :   0.9002 B(  2-C ,  3-C ) :   2.5744
B(  3-C ,  9-H ) :   0.8987 B(  4-C ,  5-C ) :   0.8848 B(  4-C ,  6-C ) :   0.8855
B(  4-C , 10-H ) :   0.9173 B(  5-C ,  6-C ) :   0.8995 B(  5-C , 11-H ) :   0.9279
B(  5-C , 12-H ) :   0.9288 B(  6-C , 13-H ) :   0.9199 B(  6-C , 14-H ) :   0.9308

MP2 TOTAL ENERGY:     -307.921111945 Eh
FINAL SINGLE POINT ENERGY      -307.921111944959

DIPOLE MOMENT
-------------
                                X             Y             Z
Electronic contribution:     -0.86877       0.06278      -4.53970
Nuclear contribution   :      1.37807      -0.29397       4.50894
                        -----------------------------------------
Total Dipole Moment    :      0.50931      -0.23119      -0.03076
                        -----------------------------------------
Magnitude (a.u.)       :      0.56017
Magnitude (Debye)      :      1.42383

                             ****ORCA TERMINATED NORMALLY****
TOTAL RUN TIME: 0 days 0 hours 8 minutes 24 seconds 278 msec
