                         Program Version 3.0.3 - RELEASE   -
|  1> ! RI-MP2 RIJK def2-TZVP def2-TZVP/C def2-TZVP/JK TIGHTSCF
|  2> % maxcore 2000
|  3> % mp2 density relaxed end
|  4> *xyz 0 1
|  5>  N       -0.2185723620     1.2410748299     0.0063964055
|  6>  C       -0.0586427190    -0.0156428761    -0.0035295925
|  7>  O        1.1135137634    -0.7014345052     0.0040859105
|  8>  C        0.8366464907    -2.1152450296    -0.0126013768
|  9>  C       -0.6588567701    -2.2290307395    -0.0316489956
| 10>  C       -1.1632608428    -0.9887389122    -0.0259932948
| 11>  N       -2.4511980321    -0.4880222889    -0.0367298340
| 12>  C       -3.5946804492    -1.2391439380    -0.0578989382
| 13>  O       -3.6247898805    -2.4491851553    -0.0698291849
| 14>  H        0.6693328665     1.7409427688     0.0217786890
| 15>  H        1.3170331411    -2.5506560720    -0.8982495067
| 16>  H        1.2957127560    -2.5674231310     0.8759481178
| 17>  H       -1.2050381098    -3.1575505698    -0.0469966126
| 18>  H       -2.5039647315     0.5238049187    -0.0278536784
| 19>  H       -4.4997702206    -0.6042325198    -0.0628623482
| 20> *
| 21>
| 22>                          ****END OF INPUT****

CARTESIAN COORDINATES (ANGSTROEM)
---------------------------------
  N     -0.218572    1.241075    0.006396
  C     -0.058643   -0.015643   -0.003530
  O      1.113514   -0.701435    0.004086
  C      0.836646   -2.115245   -0.012601
  C     -0.658857   -2.229031   -0.031649
  C     -1.163261   -0.988739   -0.025993
  N     -2.451198   -0.488022   -0.036730
  C     -3.594680   -1.239144   -0.057899
  O     -3.624790   -2.449185   -0.069829
  H      0.669333    1.740943    0.021779
  H      1.317033   -2.550656   -0.898250
  H      1.295713   -2.567423    0.875948
  H     -1.205038   -3.157551   -0.046997
  H     -2.503965    0.523805   -0.027854
  H     -4.499770   -0.604233   -0.062862

 Total Charge           Charge          ....    0
 Multiplicity           Mult            ....    1
 Number of Electrons    NEL             ....   66
 Basis Dimension        Dim             ....  315

ORBITAL ENERGIES
----------------

  NO   OCC          E(Eh)            E(eV)
   0   2.0000     -20.608100      -560.7749
   1   2.0000     -20.544070      -559.0326
   2   2.0000     -15.615734      -424.9257
   3   2.0000     -15.545964      -423.0272
   4   2.0000     -11.367737      -309.3318
   5   2.0000     -11.354023      -308.9587
   6   2.0000     -11.310838      -307.7835
   7   2.0000     -11.298606      -307.4507
   8   2.0000     -11.255125      -306.2675
   9   2.0000      -1.447725       -39.3946
  10   2.0000      -1.404371       -38.2149
  11   2.0000      -1.274384       -34.6777
  12   2.0000      -1.204678       -32.7809
  13   2.0000      -1.094501       -29.7829
  14   2.0000      -0.980517       -26.6812
  15   2.0000      -0.889190       -24.1961
  16   2.0000      -0.834350       -22.7038
  17   2.0000      -0.772337       -21.0163
  18   2.0000      -0.738213       -20.0878
  19   2.0000      -0.711270       -19.3546
  20   2.0000      -0.688171       -18.7261
  21   2.0000      -0.684388       -18.6232
  22   2.0000      -0.636729       -17.3263
  23   2.0000      -0.605526       -16.4772
  24   2.0000      -0.602773       -16.4023
  25   2.0000      -0.577236       -15.7074
  26   2.0000      -0.546589       -14.8734
  27   2.0000      -0.535721       -14.5777
  28   2.0000      -0.490455       -13.3460
  29   2.0000      -0.458129       -12.4663
  30   2.0000      -0.450685       -12.2638
  31   2.0000      -0.416519       -11.3341
  32   2.0000      -0.345494        -9.4014
  33   0.0000       0.099403         2.7049
  34   0.0000       0.144677         3.9369
  35   0.0000       0.148654         4.0451
  36   0.0000       0.166310         4.5255
  37   0.0000       0.168421         4.5830

MULLIKEN ATOMIC CHARGES
-----------------------
   0 N :   -0.450653
   1 C :    0.139943
   2 O :   -0.258260
   3 C :    0.035327
   4 C :   -0.270293
   5 C :    0.203497
   6 N :   -0.301586
   7 C :    0.208461
   8 O :   -0.347267
   9 H :    0.229815
  10 H :    0.132172
  11 H :    0.132172
  12 H :    0.181006
  13 H :    0.269288
  14 H :    0.096380
Sum of atomic charges:   -0.0000000

LOEWDIN ATOMIC CHARGES
----------------------
   0 N :   -0.072149
   1 C :   -0.379689
   2 O :    0.251498
   3 C :   -0.243215
   4 C :   -0.122503
   5 C :   -0.195920
   6 N :    0.156251
   7 C :   -0.399848
   8 O :    0.084615
   9 H :    0.170269
  10 H :    0.136434
  11 H :    0.136434
  12 H :    0.152171
  13 H :    0.209450
  14 H :    0.116202

  Mayer bond orders larger than 0.1
B(  0-N ,  1-C ) :   1.9392 B(  0-N ,  9-H ) :   0.8557 B(  1-C ,  2-O ) :   1.1270
B(  1-C ,  5-C ) :   0.9494 B(  2-O ,  3-C ) :   0.8702 B(  3-C ,  4-C ) :   0.9848
B(  3-C , 10-H ) :   0.9105 B(  3-C , 11-H ) :   0.9105 B(  4-C ,  5-C ) :   1.7047
B(  4-C , 12-H ) :   0.8927 B(  5-C ,  6-N ) :   1.0126 B(  6-N ,  7-C ) :   1.0857
B(  6-N , 13-H ) :   0.8455 B(  7-C ,  8-O ) :   1.8897 B(  7-C , 14-H ) :   0.9290

MP2 TOTAL ENERGY:     -453.254377131 Eh
FINAL SINGLE POINT ENERGY      -453.254377131043

DIPOLE MOMENT
-------------
                                X             Y             Z
Electronic contribution:     -1.06157       0.73029      -0.00584
Nuclear contribution   :      1.54152      -0.59972       0.01292
                        -----------------------------------------
Total Dipole Moment    :      0.47995       0.13057       0.00708
                        -----------------------------------------
Magnitude (a.u.)       :      0.49744
Magnitude (Debye)      :      1.26440

                             ****ORCA TERMINATED NORMALLY****
TOTAL RUN TIME: 0 days 0 hours 14 minutes 39 seconds 181 msec
