                         Program Version 3.0.3 - RELEASE   -
|  1> ! RI-MP2 RIJK def2-TZVP def2-TZVP/C def2-TZVP/JK TIGHTSCF
|  2> % maxcore 2000
|  3> % mp2 density relaxed end
|  4> *xyz 0 1
|  5>  C        0.0199353347     1.4698070528    -0.0185393578
|  6>  C        0.0092502401     0.0137700734    -0.0048905709
|  7>  C        0.0133511304    -1.1921084208     0.0140068878
|  8>  C       -0.0015869758    -2.6252159734     0.0198162149
|  9>  C       -0.4738867164    -3.3922008061     1.2530046469
| 10>  C       -1.3200972000    -3.3853276665     0.0261521567
| 11>  C       -2.6944997887    -2.7475045030    -0.2026652080
| 12>  C       -2.8935488089    -3.7202281287    -1.4039319543
| 13>  C       -1.6562556087    -4.5392253386    -0.9280856622
| 14>  H        1.0293322500     1.8626814380     0.1485773964
| 15>  H       -0.3347162274     1.8677756359    -0.9761980254
| 16>  H       -0.6252208129     1.8788915399     0.7672171409
| 17>  H        0.8004633457    -3.0980513500    -0.5427126713
| 18>  H        0.0653625174    -4.2992706478     1.5085944332
| 19>  H       -0.7992155370    -2.8017217984     2.1031006584
| 20>  H       -3.3923321344    -2.9380369451     0.6188419121
| 21>  H       -2.6950185118    -1.6771881923    -0.4233167491
| 22>  H       -3.8442068840    -4.2553498731    -1.4495366814
| 23>  H       -2.7235837357    -3.2312701733    -2.3660323133
| 24>  H       -0.9065939502    -4.7921389544    -1.6833094782
| 25>  H       -1.9355813465    -5.4550959785    -0.3966451654
| 26> *
| 27>
| 28>                          ****END OF INPUT****

CARTESIAN COORDINATES (ANGSTROEM)
---------------------------------
  C      0.019935    1.469807   -0.018539
  C      0.009250    0.013770   -0.004891
  C      0.013351   -1.192108    0.014007
  C     -0.001587   -2.625216    0.019816
  C     -0.473887   -3.392201    1.253005
  C     -1.320097   -3.385328    0.026152
  C     -2.694500   -2.747505   -0.202665
  C     -2.893549   -3.720228   -1.403932
  C     -1.656256   -4.539225   -0.928086
  H      1.029332    1.862681    0.148577
  H     -0.334716    1.867776   -0.976198
  H     -0.625221    1.878892    0.767217
  H      0.800463   -3.098051   -0.542713
  H      0.065363   -4.299271    1.508594
  H     -0.799216   -2.801722    2.103101
  H     -3.392332   -2.938037    0.618842
  H     -2.695019   -1.677188   -0.423317
  H     -3.844207   -4.255350   -1.449537
  H     -2.723584   -3.231270   -2.366032
  H     -0.906594   -4.792139   -1.683309
  H     -1.935581   -5.455096   -0.396645

 Total Charge           Charge          ....    0
 Multiplicity           Mult            ....    1
 Number of Electrons    NEL             ....   66
 Basis Dimension        Dim             ....  351

ORBITAL ENERGIES
----------------

  NO   OCC          E(Eh)            E(eV)
   0   2.0000     -11.245360      -306.0018
   1   2.0000     -11.241481      -305.8963
   2   2.0000     -11.237971      -305.8007
   3   2.0000     -11.226671      -305.4932
   4   2.0000     -11.221363      -305.3488
   5   2.0000     -11.219145      -305.2885
   6   2.0000     -11.217111      -305.2331
   7   2.0000     -11.215623      -305.1926
   8   2.0000     -11.211607      -305.0833
   9   2.0000      -1.171380       -31.8749
  10   2.0000      -1.077551       -29.3217
  11   2.0000      -1.041208       -28.3327
  12   2.0000      -0.954249       -25.9664
  13   2.0000      -0.901096       -24.5201
  14   2.0000      -0.847786       -23.0694
  15   2.0000      -0.833830       -22.6897
  16   2.0000      -0.729547       -19.8520
  17   2.0000      -0.675846       -18.3907
  18   2.0000      -0.656770       -17.8716
  19   2.0000      -0.634277       -17.2595
  20   2.0000      -0.620540       -16.8857
  21   2.0000      -0.581122       -15.8131
  22   2.0000      -0.579992       -15.7824
  23   2.0000      -0.550931       -14.9916
  24   2.0000      -0.533979       -14.5303
  25   2.0000      -0.524384       -14.2692
  26   2.0000      -0.500946       -13.6314
  27   2.0000      -0.477864       -13.0033
  28   2.0000      -0.439649       -11.9635
  29   2.0000      -0.434213       -11.8155
  30   2.0000      -0.411281       -11.1915
  31   2.0000      -0.356233        -9.6936
  32   2.0000      -0.334423        -9.1001
  33   0.0000       0.138592         3.7713
  34   0.0000       0.150846         4.1047
  35   0.0000       0.154160         4.1949
  36   0.0000       0.163266         4.4427
  37   0.0000       0.183889         5.0039

MULLIKEN ATOMIC CHARGES
-----------------------
   0 C :   -0.485198
   1 C :    0.027898
   2 C :   -0.010438
   3 C :   -0.265839
   4 C :   -0.253451
   5 C :    0.078878
   6 C :   -0.212408
   7 C :   -0.235818
   8 C :   -0.212447
   9 H :    0.160990
  10 H :    0.159741
  11 H :    0.160483
  12 H :    0.131936
  13 H :    0.130472
  14 H :    0.134955
  15 H :    0.110697
  16 H :    0.126140
  17 H :    0.115480
  18 H :    0.114106
  19 H :    0.113117
  20 H :    0.110706
Sum of atomic charges:    0.0000000

LOEWDIN ATOMIC CHARGES
----------------------
   0 C :   -0.298615
   1 C :   -0.104128
   2 C :   -0.070815
   3 C :   -0.176836
   4 C :   -0.171380
   5 C :   -0.201608
   6 C :   -0.192295
   7 C :   -0.229781
   8 C :   -0.197799
   9 H :    0.140254
  10 H :    0.138856
  11 H :    0.140062
  12 H :    0.162582
  13 H :    0.135767
  14 H :    0.140683
  15 H :    0.134417
  16 H :    0.133554
  17 H :    0.122784
  18 H :    0.132293
  19 H :    0.127505
  20 H :    0.134500

  Mayer bond orders larger than 0.1
B(  0-C ,  1-C ) :   0.8597 B(  0-C ,  9-H ) :   0.9482 B(  0-C , 10-H ) :   0.9486
B(  0-C , 11-H ) :   0.9475 B(  1-C ,  2-C ) :   2.6298 B(  1-C ,  3-C ) :  -0.1131
B(  2-C ,  3-C ) :   1.1317 B(  3-C ,  4-C ) :   0.8689 B(  3-C ,  5-C ) :   0.8159
B(  3-C , 12-H ) :   0.9391 B(  4-C ,  5-C ) :   0.8557 B(  4-C , 13-H ) :   0.9192
B(  4-C , 14-H ) :   0.9222 B(  5-C ,  6-C ) :   0.9169 B(  5-C ,  8-C ) :   0.8870
B(  6-C ,  7-C ) :   0.9681 B(  6-C , 15-H ) :   0.9225 B(  6-C , 16-H ) :   0.9175
B(  7-C ,  8-C ) :   0.9641 B(  7-C , 17-H ) :   0.9321 B(  7-C , 18-H ) :   0.9221
B(  8-C , 19-H ) :   0.9196 B(  8-C , 20-H ) :   0.9197

MP2 TOTAL ENERGY:     -349.244515952 Eh
FINAL SINGLE POINT ENERGY      -349.244515951891

DIPOLE MOMENT
-------------
                                X             Y             Z
Electronic contribution:      2.71713       0.11396       0.86205
Nuclear contribution   :     -2.83914      -0.09658      -0.87012
                        -----------------------------------------
Total Dipole Moment    :     -0.12201       0.01738      -0.00808
                        -----------------------------------------
Magnitude (a.u.)       :      0.12351
Magnitude (Debye)      :      0.31393

                             ****ORCA TERMINATED NORMALLY****
TOTAL RUN TIME: 0 days 0 hours 21 minutes 2 seconds 646 msec
