                         Program Version 3.0.3 - RELEASE   -
|  1> ! RI-MP2 RIJK def2-TZVP def2-TZVP/C def2-TZVP/JK TIGHTSCF
|  2> % maxcore 2000
|  3> % mp2 density relaxed end
|  4> *xyz 0 1
|  5>  N       -0.1152792558     1.4690054737     0.3636834276
|  6>  C       -0.0548698538     0.0820412919     0.1069662875
|  7>  C       -1.0994163653    -0.8092428011     0.0893672966
|  8>  N       -0.5576120359    -2.0867844875    -0.0803454279
|  9>  C        0.7887719514    -1.9857176800    -0.1876755462
| 10>  O        1.5404347556    -3.0892484170    -0.3922864600
| 11>  C        1.1624846052    -0.6605823207    -0.0713840124
| 12>  C        2.5863712536    -0.2080736818    -0.0828370035
| 13>  O        3.3883905339    -1.0247017308    -0.9657580279
| 14>  H        0.4820917380     1.9989540824    -0.2611881962
| 15>  H       -1.0589000117     1.8253046465     0.2706861536
| 16>  H       -2.1593531000    -0.6660389257     0.2131478657
| 17>  H       -1.0736285855    -2.9390805773    -0.2054596512
| 18>  H        2.4354527707    -2.7549327992    -0.5773398205
| 19>  H        2.6738244524     0.8526946904    -0.3589345936
| 20>  H        3.0760595106    -0.3178588837     0.8925751286
| 21>  H        3.0243223467    -0.9090947501    -1.8515945001
| 22> *
| 23>
| 24>                          ****END OF INPUT****

CARTESIAN COORDINATES (ANGSTROEM)
---------------------------------
  N     -0.115279    1.469005    0.363683
  C     -0.054870    0.082041    0.106966
  C     -1.099416   -0.809243    0.089367
  N     -0.557612   -2.086784   -0.080345
  C      0.788772   -1.985718   -0.187676
  O      1.540435   -3.089248   -0.392286
  C      1.162485   -0.660582   -0.071384
  C      2.586371   -0.208074   -0.082837
  O      3.388391   -1.024702   -0.965758
  H      0.482092    1.998954   -0.261188
  H     -1.058900    1.825305    0.270686
  H     -2.159353   -0.666039    0.213148
  H     -1.073629   -2.939081   -0.205460
  H      2.435453   -2.754933   -0.577340
  H      2.673824    0.852695   -0.358935
  H      3.076060   -0.317859    0.892575
  H      3.024322   -0.909095   -1.851595

 Total Charge           Charge          ....    0
 Multiplicity           Mult            ....    1
 Number of Electrons    NEL             ....   68
 Basis Dimension        Dim             ....  327

ORBITAL ENERGIES
----------------

  NO   OCC          E(Eh)            E(eV)
   0   2.0000     -20.586976      -560.2001
   1   2.0000     -20.572180      -559.7975
   2   2.0000     -15.593989      -424.3340
   3   2.0000     -15.556710      -423.3196
   4   2.0000     -11.320424      -308.0444
   5   2.0000     -11.288246      -307.1688
   6   2.0000     -11.255626      -306.2811
   7   2.0000     -11.230437      -305.5957
   8   2.0000     -11.201873      -304.8185
   9   2.0000      -1.415270       -38.5115
  10   2.0000      -1.368417       -37.2365
  11   2.0000      -1.278637       -34.7935
  12   2.0000      -1.194806       -32.5123
  13   2.0000      -1.047235       -28.4967
  14   2.0000      -0.967440       -26.3254
  15   2.0000      -0.916616       -24.9424
  16   2.0000      -0.791179       -21.5291
  17   2.0000      -0.783653       -21.3243
  18   2.0000      -0.739273       -20.1167
  19   2.0000      -0.705702       -19.2031
  20   2.0000      -0.672596       -18.3023
  21   2.0000      -0.633277       -17.2323
  22   2.0000      -0.628040       -17.0898
  23   2.0000      -0.613353       -16.6902
  24   2.0000      -0.603409       -16.4196
  25   2.0000      -0.595642       -16.2083
  26   2.0000      -0.582998       -15.8642
  27   2.0000      -0.540940       -14.7197
  28   2.0000      -0.527724       -14.3601
  29   2.0000      -0.497232       -13.5304
  30   2.0000      -0.469435       -12.7740
  31   2.0000      -0.464502       -12.6398
  32   2.0000      -0.320464        -8.7203
  33   2.0000      -0.270167        -7.3516
  34   0.0000       0.125172         3.4061
  35   0.0000       0.143327         3.9001
  36   0.0000       0.148500         4.0409
  37   0.0000       0.179468         4.8836
  38   0.0000       0.188712         5.1351

MULLIKEN ATOMIC CHARGES
-----------------------
   0 N :   -0.524235
   1 C :    0.131118
   2 C :   -0.177883
   3 N :   -0.267947
   4 C :    0.219699
   5 O :   -0.438468
   6 C :   -0.220462
   7 C :    0.002098
   8 O :   -0.506515
   9 H :    0.238862
  10 H :    0.235551
  11 H :    0.137116
  12 H :    0.246808
  13 H :    0.356112
  14 H :    0.107103
  15 H :    0.134757
  16 H :    0.326287
Sum of atomic charges:    0.0000000

LOEWDIN ATOMIC CHARGES
----------------------
   0 N :   -0.104592
   1 C :   -0.268961
   2 C :   -0.246094
   3 N :    0.187582
   4 C :   -0.351513
   5 O :    0.061529
   6 C :   -0.202289
   7 C :   -0.291310
   8 O :   -0.064609
   9 H :    0.162046
  10 H :    0.165192
  11 H :    0.128905
  12 H :    0.192642
  13 H :    0.196240
  14 H :    0.122782
  15 H :    0.136607
  16 H :    0.175842

  Mayer bond orders larger than 0.1
B(  0-N ,  1-C ) :   0.9562 B(  0-N ,  9-H ) :   0.8788 B(  0-N , 10-H ) :   0.8863
B(  1-C ,  2-C ) :   1.5397 B(  1-C ,  6-C ) :   1.1918 B(  2-C ,  3-N ) :   1.0358
B(  2-C , 11-H ) :   0.9168 B(  3-N ,  4-C ) :   1.1980 B(  3-N , 12-H ) :   0.8690
B(  4-C ,  5-O ) :   1.1343 B(  4-C ,  6-C ) :   1.4376 B(  5-O , 13-H ) :   0.7845
B(  6-C ,  7-C ) :   0.9256 B(  7-C ,  8-O ) :   0.8227 B(  7-C , 14-H ) :   0.9392
B(  7-C , 15-H ) :   0.9328 B(  8-O , 16-H ) :   0.8364

MP2 TOTAL ENERGY:     -454.436188876 Eh
FINAL SINGLE POINT ENERGY      -454.436188876489

DIPOLE MOMENT
-------------
                                X             Y             Z
Electronic contribution:     -0.67856      -3.90364      -0.19288
Nuclear contribution   :      0.09004       4.29773      -0.52021
                        -----------------------------------------
Total Dipole Moment    :     -0.58852       0.39408      -0.71308
                        -----------------------------------------
Magnitude (a.u.)       :      1.00506
Magnitude (Debye)      :      2.55466

                             ****ORCA TERMINATED NORMALLY****
TOTAL RUN TIME: 0 days 0 hours 15 minutes 48 seconds 405 msec
