                         Program Version 3.0.3 - RELEASE   -
|  1> ! RI-MP2 RIJK def2-TZVP def2-TZVP/C def2-TZVP/JK TIGHTSCF
|  2> % maxcore 2000
|  3> % mp2 density relaxed end
|  4> *xyz 0 1
|  5>  C        0.0353019039     1.4903716923     0.0649563190
|  6>  C       -0.0843781689     0.0056535139    -0.0596141681
|  7>  C       -0.9639925551    -0.8649106042     0.7862299617
|  8>  C       -1.0706237168    -2.2490162674     0.1639194789
|  9>  C        0.4023805628    -2.0096365449    -0.2204995896
| 10>  N        0.5287335452    -0.9588716191     0.9402894144
| 11>  C        0.3704698853    -0.8543504896    -1.2078317733
| 12>  C        0.2658025724    -0.7589731024    -2.6613342710
| 13>  O        1.5042389436    -0.4888148826    -1.9715450678
| 14>  H        0.9999995762     1.8247475185    -0.3277003369
| 15>  H       -0.7593338388     1.9989036428    -0.4925133832
| 16>  H       -0.0357383619     1.7946472428     1.1131190668
| 17>  H       -1.5794931633    -0.4419186827     1.5735979579
| 18>  H       -1.1655947996    -3.0146714359     0.9379967870
| 19>  H       -1.7943948785    -2.4341465082    -0.6367338918
| 20>  H        1.1341609015    -2.8090997185    -0.3119481959
| 21>  H        0.2625145249    -1.6627782481    -3.2695204298
| 22>  H       -0.2078052728     0.1085399832    -3.1191541386
| 23> *
| 24>
| 25>                          ****END OF INPUT****

CARTESIAN COORDINATES (ANGSTROEM)
---------------------------------
  C      0.035302    1.490372    0.064956
  C     -0.084378    0.005654   -0.059614
  C     -0.963993   -0.864911    0.786230
  C     -1.070624   -2.249016    0.163919
  C      0.402381   -2.009637   -0.220500
  N      0.528734   -0.958872    0.940289
  C      0.370470   -0.854350   -1.207832
  C      0.265803   -0.758973   -2.661334
  O      1.504239   -0.488815   -1.971545
  H      1.000000    1.824748   -0.327700
  H     -0.759334    1.998904   -0.492513
  H     -0.035738    1.794647    1.113119
  H     -1.579493   -0.441919    1.573598
  H     -1.165595   -3.014671    0.937997
  H     -1.794395   -2.434147   -0.636734
  H      1.134161   -2.809100   -0.311948
  H      0.262515   -1.662778   -3.269520
  H     -0.207805    0.108540   -3.119154

 Total Charge           Charge          ....    0
 Multiplicity           Mult            ....    1
 Number of Electrons    NEL             ....   66
 Basis Dimension        Dim             ....  333

ORBITAL ENERGIES
----------------

  NO   OCC          E(Eh)            E(eV)
   0   2.0000     -20.571620      -559.7822
   1   2.0000     -15.565886      -423.5693
   2   2.0000     -11.299528      -307.4758
   3   2.0000     -11.287237      -307.1413
   4   2.0000     -11.273618      -306.7707
   5   2.0000     -11.273401      -306.7648
   6   2.0000     -11.270065      -306.6740
   7   2.0000     -11.242906      -305.9350
   8   2.0000     -11.225814      -305.4699
   9   2.0000      -1.418920       -38.6108
  10   2.0000      -1.318488       -35.8779
  11   2.0000      -1.033366       -28.1193
  12   2.0000      -0.980821       -26.6895
  13   2.0000      -0.961906       -26.1748
  14   2.0000      -0.917708       -24.9721
  15   2.0000      -0.868404       -23.6305
  16   2.0000      -0.761545       -20.7227
  17   2.0000      -0.729708       -19.8564
  18   2.0000      -0.690398       -18.7867
  19   2.0000      -0.681557       -18.5461
  20   2.0000      -0.644441       -17.5361
  21   2.0000      -0.607410       -16.5285
  22   2.0000      -0.573923       -15.6172
  23   2.0000      -0.565963       -15.4006
  24   2.0000      -0.548091       -14.9143
  25   2.0000      -0.542167       -14.7531
  26   2.0000      -0.524307       -14.2671
  27   2.0000      -0.499342       -13.5878
  28   2.0000      -0.480308       -13.0699
  29   2.0000      -0.442849       -12.0505
  30   2.0000      -0.421742       -11.4762
  31   2.0000      -0.410310       -11.1651
  32   2.0000      -0.370743       -10.0884
  33   0.0000       0.138496         3.7687
  34   0.0000       0.151401         4.1198
  35   0.0000       0.164912         4.4875
  36   0.0000       0.174418         4.7461
  37   0.0000       0.191146         5.2013

MULLIKEN ATOMIC CHARGES
-----------------------
   0 C :   -0.456931
   1 C :    0.094170
   2 C :   -0.121537
   3 C :   -0.186907
   4 C :   -0.021641
   5 N :   -0.221392
   6 C :    0.140630
   7 C :   -0.089433
   8 O :   -0.334340
   9 H :    0.159392
  10 H :    0.134416
  11 H :    0.146784
  12 H :    0.131313
  13 H :    0.124575
  14 H :    0.115273
  15 H :    0.146709
  16 H :    0.118845
  17 H :    0.120075
Sum of atomic charges:    0.0000000

LOEWDIN ATOMIC CHARGES
----------------------
   0 C :   -0.262929
   1 C :   -0.227766
   2 C :   -0.189807
   3 C :   -0.206077
   4 C :   -0.141827
   5 N :    0.166208
   6 C :   -0.282498
   7 C :   -0.231430
   8 O :    0.176491
   9 H :    0.138477
  10 H :    0.131461
  11 H :    0.137659
  12 H :    0.136760
  13 H :    0.143408
  14 H :    0.129151
  15 H :    0.136922
  16 H :    0.122851
  17 H :    0.122947

  Mayer bond orders larger than 0.1
B(  0-C ,  1-C ) :   0.8547 B(  0-C ,  9-H ) :   0.9417 B(  0-C , 10-H ) :   0.9367
B(  0-C , 11-H ) :   0.9390 B(  1-C ,  2-C ) :   0.8681 B(  1-C ,  5-N ) :   0.8661
B(  1-C ,  6-C ) :   0.9175 B(  2-C ,  3-C ) :   0.9560 B(  2-C ,  5-N ) :   0.8856
B(  2-C , 12-H ) :   0.9135 B(  3-C ,  4-C ) :   0.9262 B(  3-C , 13-H ) :   0.9164
B(  3-C , 14-H ) :   0.9088 B(  4-C ,  5-N ) :   0.9095 B(  4-C ,  6-C ) :   0.9207
B(  4-C , 15-H ) :   0.8997 B(  6-C ,  7-C ) :   0.9759 B(  6-C ,  8-O ) :   0.8766
B(  7-C ,  8-O ) :   0.8893 B(  7-C , 16-H ) :   0.9159 B(  7-C , 17-H ) :   0.9043

MP2 TOTAL ENERGY:     -401.175680583 Eh
FINAL SINGLE POINT ENERGY      -401.175680582547

DIPOLE MOMENT
-------------
                                X             Y             Z
Electronic contribution:      2.86982      -1.92627      -0.29559
Nuclear contribution   :     -4.00844       1.74611      -0.11281
                        -----------------------------------------
Total Dipole Moment    :     -1.13862      -0.18016      -0.40840
                        -----------------------------------------
Magnitude (a.u.)       :      1.22299
Magnitude (Debye)      :      3.10860

                             ****ORCA TERMINATED NORMALLY****
TOTAL RUN TIME: 0 days 0 hours 18 minutes 4 seconds 297 msec
