                         Program Version 3.0.3 - RELEASE   -
|  1> ! RI-MP2 RIJK def2-TZVP def2-TZVP/C def2-TZVP/JK TIGHTSCF
|  2> % maxcore 2000
|  3> % mp2 density relaxed end
|  4> *xyz 0 1
|  5>  C        0.3148598689     1.3589645437     0.3454101579
|  6>  C        0.0663476187    -0.0410048520    -0.1641557607
|  7>  C        0.9775567883    -0.6638483510    -1.1820610159
|  8>  N        0.9313021057    -1.1498591712     0.1931163600
|  9>  C        1.9724838766    -1.0561638424     1.1209392996
| 10>  O        1.8957838947    -0.4894617361     2.1793777473
| 11>  N        3.0867252347    -1.8034598490     0.6913720126
| 12>  C        4.3058655636    -1.9543210584     1.3383345255
| 13>  O        4.6551699419    -1.4192296620     2.3533968792
| 14>  H        1.3722759668     1.6293520128     0.2874908751
| 15>  H       -0.2587334868     2.0722490505    -0.2551656752
| 16>  H        0.0076887390     1.4522273989     1.3894330645
| 17>  H       -0.9828136711    -0.3287897492    -0.2081411137
| 18>  H        0.5889441123    -1.3401363918    -1.9391594308
| 19>  H        1.8475942349    -0.0836111190    -1.4833615268
| 20>  H        2.9657141872    -2.3337315087    -0.1587785335
| 21>  H        4.9484270846    -2.6553555453     0.7657963150
| 22> *
| 23>
| 24>                          ****END OF INPUT****

CARTESIAN COORDINATES (ANGSTROEM)
---------------------------------
  C      0.314860    1.358965    0.345410
  C      0.066348   -0.041005   -0.164156
  C      0.977557   -0.663848   -1.182061
  N      0.931302   -1.149859    0.193116
  C      1.972484   -1.056164    1.120939
  O      1.895784   -0.489462    2.179378
  N      3.086725   -1.803460    0.691372
  C      4.305866   -1.954321    1.338335
  O      4.655170   -1.419230    2.353397
  H      1.372276    1.629352    0.287491
  H     -0.258733    2.072249   -0.255166
  H      0.007689    1.452227    1.389433
  H     -0.982814   -0.328790   -0.208141
  H      0.588944   -1.340136   -1.939159
  H      1.847594   -0.083611   -1.483362
  H      2.965714   -2.333732   -0.158779
  H      4.948427   -2.655356    0.765796

 Total Charge           Charge          ....    0
 Multiplicity           Mult            ....    1
 Number of Electrons    NEL             ....   68
 Basis Dimension        Dim             ....  327

ORBITAL ENERGIES
----------------

  NO   OCC          E(Eh)            E(eV)
   0   2.0000     -20.545689      -559.0766
   1   2.0000     -20.534738      -558.7786
   2   2.0000     -15.619368      -425.0246
   3   2.0000     -15.596101      -424.3915
   4   2.0000     -11.396564      -310.1163
   5   2.0000     -11.369531      -309.3807
   6   2.0000     -11.292538      -307.2856
   7   2.0000     -11.290737      -307.2366
   8   2.0000     -11.231626      -305.6281
   9   2.0000      -1.423826       -38.7443
  10   2.0000      -1.396171       -37.9918
  11   2.0000      -1.306472       -35.5509
  12   2.0000      -1.249624       -34.0040
  13   2.0000      -1.030247       -28.0345
  14   2.0000      -0.971517       -26.4363
  15   2.0000      -0.890255       -24.2251
  16   2.0000      -0.830341       -22.5947
  17   2.0000      -0.781917       -21.2771
  18   2.0000      -0.736491       -20.0409
  19   2.0000      -0.702568       -19.1178
  20   2.0000      -0.695584       -18.9278
  21   2.0000      -0.653259       -17.7761
  22   2.0000      -0.626551       -17.0493
  23   2.0000      -0.620171       -16.8757
  24   2.0000      -0.588853       -16.0235
  25   2.0000      -0.572274       -15.5724
  26   2.0000      -0.546135       -14.8611
  27   2.0000      -0.534304       -14.5391
  28   2.0000      -0.518987       -14.1224
  29   2.0000      -0.496002       -13.4969
  30   2.0000      -0.466822       -12.7029
  31   2.0000      -0.432824       -11.7777
  32   2.0000      -0.426636       -11.6094
  33   2.0000      -0.406843       -11.0708
  34   0.0000       0.116668         3.1747
  35   0.0000       0.130695         3.5564
  36   0.0000       0.143520         3.9054
  37   0.0000       0.161454         4.3934
  38   0.0000       0.169386         4.6092

MULLIKEN ATOMIC CHARGES
-----------------------
   0 C :   -0.383334
   1 C :   -0.004623
   2 C :   -0.221218
   3 N :   -0.232489
   4 C :    0.345697
   5 O :   -0.288457
   6 N :   -0.308908
   7 C :    0.176910
   8 O :   -0.270776
   9 H :    0.132427
  10 H :    0.137513
  11 H :    0.158374
  12 H :    0.131915
  13 H :    0.141989
  14 H :    0.148410
  15 H :    0.253755
  16 H :    0.082817
Sum of atomic charges:    0.0000000

LOEWDIN ATOMIC CHARGES
----------------------
   0 C :   -0.288893
   1 C :   -0.252345
   2 C :   -0.227210
   3 N :    0.169524
   4 C :   -0.496568
   5 O :    0.145336
   6 N :    0.115224
   7 C :   -0.399560
   8 O :    0.125614
   9 H :    0.130850
  10 H :    0.130258
  11 H :    0.136633
  12 H :    0.146431
  13 H :    0.126512
  14 H :    0.130634
  15 H :    0.196909
  16 H :    0.110651

  Mayer bond orders larger than 0.1
B(  0-C ,  1-C ) :   0.9408 B(  0-C ,  9-H ) :   0.9311 B(  0-C , 10-H ) :   0.9270
B(  0-C , 11-H ) :   0.9300 B(  1-C ,  2-C ) :   0.9226 B(  1-C ,  3-N ) :   0.8802
B(  1-C , 12-H ) :   0.9173 B(  2-C ,  3-N ) :   0.8424 B(  2-C , 13-H ) :   0.9213
B(  2-C , 14-H ) :   0.9170 B(  3-N ,  4-C ) :   1.0322 B(  4-C ,  5-O ) :   2.0111
B(  4-C ,  6-N ) :   0.9661 B(  6-N ,  7-C ) :   1.0224 B(  6-N , 15-H ) :   0.8643
B(  7-C ,  8-O ) :   1.9944 B(  7-C , 16-H ) :   0.9262

MP2 TOTAL ENERGY:     -454.430972493 Eh
FINAL SINGLE POINT ENERGY      -454.430972493334

DIPOLE MOMENT
-------------
                                X             Y             Z
Electronic contribution:      4.95499      -4.75723       5.12216
Nuclear contribution   :     -5.55226       4.46159      -7.36804
                        -----------------------------------------
Total Dipole Moment    :     -0.59727      -0.29563      -2.24589
                        -----------------------------------------
Magnitude (a.u.)       :      2.34268
Magnitude (Debye)      :      5.95461

                             ****ORCA TERMINATED NORMALLY****
TOTAL RUN TIME: 0 days 0 hours 14 minutes 40 seconds 613 msec
