                         Program Version 3.0.3 - RELEASE   -
|  1> ! RI-MP2 RIJK def2-TZVP def2-TZVP/C def2-TZVP/JK TIGHTSCF
|  2> % maxcore 2000
|  3> % mp2 density relaxed end
|  4> *xyz 0 1
|  5>  O        0.3456575288     0.9036154883    -0.9911144086
|  6>  C        0.0759209108    -0.3286601129    -0.3401303914
|  7>  C       -1.2820620880    -0.2114291829     0.3315080846
|  8>  C       -2.4748791616    -0.1644374611    -0.6659036074
|  9>  C       -2.7042435438    -1.6792479500    -0.4105081402
| 10>  C       -1.8293040279    -1.5646952486     0.8705525472
| 11>  N       -4.0569397740    -2.1650690685    -0.2915771963
| 12>  C       -4.5382414967    -3.2422233667    -0.9713806582
| 13>  O       -3.9047151364    -3.9243813579    -1.7484243980
| 14>  H        1.1807962311     0.8219754808    -1.4606787169
| 15>  H        0.0715580966    -1.1650171987    -1.0587995960
| 16>  H        0.8410016638    -0.5576021515     0.4198256058
| 17>  H       -1.2440215374     0.6085189349     1.0526067770
| 18>  H       -3.3040564110     0.4371498395    -0.2799569111
| 19>  H       -2.2590656531     0.1528204913    -1.6880692734
| 20>  H       -2.2301312101    -2.3015859330    -1.1697458857
| 21>  H       -1.1129153833    -2.3690889819     1.0611336781
| 22>  H       -2.4425341865    -1.4270718394     1.7663438266
| 23>  H       -4.6880997562    -1.6809255522     0.3285820937
| 24>  H       -5.6035442051    -3.4331290895    -0.7312184100
| 25> *
| 26>
| 27>                          ****END OF INPUT****

CARTESIAN COORDINATES (ANGSTROEM)
---------------------------------
  O      0.345658    0.903615   -0.991114
  C      0.075921   -0.328660   -0.340130
  C     -1.282062   -0.211429    0.331508
  C     -2.474879   -0.164437   -0.665904
  C     -2.704244   -1.679248   -0.410508
  C     -1.829304   -1.564695    0.870553
  N     -4.056940   -2.165069   -0.291577
  C     -4.538241   -3.242223   -0.971381
  O     -3.904715   -3.924381   -1.748424
  H      1.180796    0.821975   -1.460679
  H      0.071558   -1.165017   -1.058800
  H      0.841002   -0.557602    0.419826
  H     -1.244022    0.608519    1.052607
  H     -3.304056    0.437150   -0.279957
  H     -2.259066    0.152820   -1.688069
  H     -2.230131   -2.301586   -1.169746
  H     -1.112915   -2.369089    1.061134
  H     -2.442534   -1.427072    1.766344
  H     -4.688100   -1.680926    0.328582
  H     -5.603544   -3.433129   -0.731218

 Total Charge           Charge          ....    0
 Multiplicity           Mult            ....    1
 Number of Electrons    NEL             ....   70
 Basis Dimension        Dim             ....  345

ORBITAL ENERGIES
----------------

  NO   OCC          E(Eh)            E(eV)
   0   2.0000     -20.558934      -559.4370
   1   2.0000     -20.520233      -558.3839
   2   2.0000     -15.588099      -424.1737
   3   2.0000     -11.347783      -308.7889
   4   2.0000     -11.279653      -306.9350
   5   2.0000     -11.268276      -306.6254
   6   2.0000     -11.232175      -305.6430
   7   2.0000     -11.229782      -305.5779
   8   2.0000     -11.224702      -305.4397
   9   2.0000      -1.380917       -37.5767
  10   2.0000      -1.363433       -37.1009
  11   2.0000      -1.239857       -33.7382
  12   2.0000      -1.129763       -30.7424
  13   2.0000      -0.971523       -26.4365
  14   2.0000      -0.910260       -24.7694
  15   2.0000      -0.879941       -23.9444
  16   2.0000      -0.807120       -21.9629
  17   2.0000      -0.765261       -20.8238
  18   2.0000      -0.713411       -19.4129
  19   2.0000      -0.700619       -19.0648
  20   2.0000      -0.676922       -18.4200
  21   2.0000      -0.641449       -17.4547
  22   2.0000      -0.631920       -17.1954
  23   2.0000      -0.604320       -16.4444
  24   2.0000      -0.587007       -15.9733
  25   2.0000      -0.566926       -15.4268
  26   2.0000      -0.547592       -14.9007
  27   2.0000      -0.530600       -14.4384
  28   2.0000      -0.504960       -13.7407
  29   2.0000      -0.472483       -12.8569
  30   2.0000      -0.467111       -12.7107
  31   2.0000      -0.453472       -12.3396
  32   2.0000      -0.434970       -11.8361
  33   2.0000      -0.426620       -11.6089
  34   2.0000      -0.383693       -10.4408
  35   0.0000       0.125784         3.4228
  36   0.0000       0.132323         3.6007
  37   0.0000       0.154321         4.1993
  38   0.0000       0.160758         4.3745
  39   0.0000       0.172685         4.6990

MULLIKEN ATOMIC CHARGES
-----------------------
   0 O :   -0.466414
   1 C :   -0.138772
   2 C :    0.014972
   3 C :   -0.201417
   4 C :   -0.060469
   5 C :   -0.221536
   6 N :   -0.326340
   7 C :    0.195741
   8 O :   -0.366513
   9 H :    0.317846
  10 H :    0.107654
  11 H :    0.103245
  12 H :    0.106454
  13 H :    0.106950
  14 H :    0.137036
  15 H :    0.143340
  16 H :    0.129016
  17 H :    0.110386
  18 H :    0.231661
  19 H :    0.077161
Sum of atomic charges:   -0.0000000

LOEWDIN ATOMIC CHARGES
----------------------
   0 O :   -0.044835
   1 C :   -0.334678
   2 C :   -0.232252
   3 C :   -0.196861
   4 C :   -0.252411
   5 C :   -0.198808
   6 N :    0.101456
   7 C :   -0.435296
   8 O :    0.052981
   9 H :    0.172997
  10 H :    0.120919
  11 H :    0.118594
  12 H :    0.143098
  13 H :    0.134477
  14 H :    0.134217
  15 H :    0.157999
  16 H :    0.130336
  17 H :    0.134812
  18 H :    0.184798
  19 H :    0.108454

  Mayer bond orders larger than 0.1
B(  0-O ,  1-C ) :   1.0265 B(  0-O ,  9-H ) :   0.8470 B(  1-C ,  2-C ) :   0.9221
B(  1-C , 10-H ) :   0.9163 B(  1-C , 11-H ) :   0.9355 B(  2-C ,  3-C ) :   0.9029
B(  2-C ,  5-C ) :   0.8907 B(  2-C , 12-H ) :   0.9178 B(  3-C ,  4-C ) :   0.9339
B(  3-C , 13-H ) :   0.9161 B(  3-C , 14-H ) :   0.9314 B(  4-C ,  5-C ) :   0.9248
B(  4-C ,  6-N ) :   0.7992 B(  4-C , 15-H ) :   0.9226 B(  5-C , 16-H ) :   0.9302
B(  5-C , 17-H ) :   0.9171 B(  6-N ,  7-C ) :   1.1570 B(  6-N , 18-H ) :   0.8697
B(  7-C ,  8-O ) :   1.8845 B(  7-C , 19-H ) :   0.9295

MP2 TOTAL ENERGY:     -439.576750836 Eh
FINAL SINGLE POINT ENERGY      -439.576750835997

DIPOLE MOMENT
-------------
                                X             Y             Z
Electronic contribution:     -3.32848      -3.13684      -2.50756
Nuclear contribution   :      3.50097       3.81651       3.43227
                        -----------------------------------------
Total Dipole Moment    :      0.17249       0.67967       0.92471
                        -----------------------------------------
Magnitude (a.u.)       :      1.16051
Magnitude (Debye)      :      2.94978

                             ****ORCA TERMINATED NORMALLY****
TOTAL RUN TIME: 0 days 0 hours 26 minutes 45 seconds 28 msec
