                         Program Version 3.0.3 - RELEASE   -
|  1> ! RI-MP2 RIJK def2-TZVP def2-TZVP/C def2-TZVP/JK TIGHTSCF
|  2> % maxcore 2000
|  3> % mp2 density relaxed end
|  4> *xyz 0 1
|  5>  C       -0.0256451105     1.4648827269     0.1462707990
|  6>  C       -0.0061864678     0.0100542240     0.0823528185
|  7>  C        0.0254830526    -1.1923942643     0.0127968733
|  8>  C        0.0270255209    -2.6507661289    -0.0462099014
|  9>  C       -1.3840011164    -3.2781760633    -0.0654155181
| 10>  C       -1.3007574168    -4.8070998548    -0.0488970906
| 11>  N       -2.1437318161    -2.7676806042     1.0771696463
| 12>  C       -3.4813625219    -2.9604517406     1.2154067490
| 13>  O       -4.1639324858    -3.6821951984     0.5170491045
| 14>  H        0.6107564629     1.9026665062    -0.6305011347
| 15>  H       -1.0388297238     1.8556683767     0.0020705216
| 16>  H        0.3361349383     1.8279805380     1.1144745599
| 17>  H        0.5593318566    -2.9933451056    -0.9410548580
| 18>  H        0.5807661205    -3.0554907708     0.8123005246
| 19>  H       -1.8934809640    -2.9640309481    -0.9854861051
| 20>  H       -2.3039253299    -5.2328770483    -0.0824885945
| 21>  H       -0.7365081984    -5.1642410276    -0.9166440734
| 22>  H       -0.7988940049    -5.1568162135     0.8595661489
| 23>  H       -1.7369183084    -1.9954899497     1.5848293855
| 24>  H       -3.8935941870    -2.3839661638     2.0686727347
| 25> *
| 26>
| 27>                          ****END OF INPUT****

CARTESIAN COORDINATES (ANGSTROEM)
---------------------------------
  C     -0.025645    1.464883    0.146271
  C     -0.006186    0.010054    0.082353
  C      0.025483   -1.192394    0.012797
  C      0.027026   -2.650766   -0.046210
  C     -1.384001   -3.278176   -0.065416
  C     -1.300757   -4.807100   -0.048897
  N     -2.143732   -2.767681    1.077170
  C     -3.481363   -2.960452    1.215407
  O     -4.163932   -3.682195    0.517049
  H      0.610756    1.902667   -0.630501
  H     -1.038830    1.855668    0.002071
  H      0.336135    1.827981    1.114475
  H      0.559332   -2.993345   -0.941055
  H      0.580766   -3.055491    0.812301
  H     -1.893481   -2.964031   -0.985486
  H     -2.303925   -5.232877   -0.082489
  H     -0.736508   -5.164241   -0.916644
  H     -0.798894   -5.156816    0.859566
  H     -1.736918   -1.995490    1.584829
  H     -3.893594   -2.383966    2.068673

 Total Charge           Charge          ....    0
 Multiplicity           Mult            ....    1
 Number of Electrons    NEL             ....   68
 Basis Dimension        Dim             ....  345

ORBITAL ENERGIES
----------------

  NO   OCC          E(Eh)            E(eV)
   0   2.0000     -20.520042      -558.3787
   1   2.0000     -15.583068      -424.0368
   2   2.0000     -11.344744      -308.7062
   3   2.0000     -11.279575      -306.9328
   4   2.0000     -11.261124      -306.4308
   5   2.0000     -11.254669      -306.2551
   6   2.0000     -11.234727      -305.7125
   7   2.0000     -11.228602      -305.5458
   8   2.0000     -11.214551      -305.1634
   9   2.0000      -1.379649       -37.5422
  10   2.0000      -1.237780       -33.6817
  11   2.0000      -1.090424       -29.6719
  12   2.0000      -1.049910       -28.5695
  13   2.0000      -0.988172       -26.8895
  14   2.0000      -0.926623       -25.2147
  15   2.0000      -0.864291       -23.5186
  16   2.0000      -0.786290       -21.3960
  17   2.0000      -0.730309       -19.8727
  18   2.0000      -0.679813       -18.4986
  19   2.0000      -0.668985       -18.2040
  20   2.0000      -0.627503       -17.0752
  21   2.0000      -0.611080       -16.6283
  22   2.0000      -0.597560       -16.2604
  23   2.0000      -0.595586       -16.2067
  24   2.0000      -0.578544       -15.7430
  25   2.0000      -0.572700       -15.5840
  26   2.0000      -0.562855       -15.3161
  27   2.0000      -0.531306       -14.4576
  28   2.0000      -0.518518       -14.1096
  29   2.0000      -0.496623       -13.5138
  30   2.0000      -0.425900       -11.5893
  31   2.0000      -0.396388       -10.7863
  32   2.0000      -0.378841       -10.3088
  33   2.0000      -0.377848       -10.2818
  34   0.0000       0.121873         3.3163
  35   0.0000       0.141475         3.8497
  36   0.0000       0.158016         4.2998
  37   0.0000       0.170009         4.6262
  38   0.0000       0.174837         4.7576

MULLIKEN ATOMIC CHARGES
-----------------------
   0 C :   -0.479984
   1 C :    0.064445
   2 C :   -0.026001
   3 C :   -0.413448
   4 C :    0.103363
   5 C :   -0.404082
   6 N :   -0.317036
   7 C :    0.186887
   8 O :   -0.372511
   9 H :    0.165497
  10 H :    0.164795
  11 H :    0.162337
  12 H :    0.151720
  13 H :    0.155554
  14 H :    0.112960
  15 H :    0.177480
  16 H :    0.123957
  17 H :    0.118439
  18 H :    0.244374
  19 H :    0.081255
Sum of atomic charges:   -0.0000000

LOEWDIN ATOMIC CHARGES
----------------------
   0 C :   -0.293934
   1 C :   -0.106969
   2 C :   -0.099978
   3 C :   -0.234588
   4 C :   -0.283914
   5 C :   -0.287415
   6 N :    0.102305
   7 C :   -0.435626
   8 O :    0.055484
   9 H :    0.142836
  10 H :    0.141812
  11 H :    0.140846
  12 H :    0.162245
  13 H :    0.159559
  14 H :    0.153477
  15 H :    0.134350
  16 H :    0.125283
  17 H :    0.123200
  18 H :    0.191541
  19 H :    0.109485

  Mayer bond orders larger than 0.1
B(  0-C ,  1-C ) :   0.8541 B(  0-C ,  9-H ) :   0.9462 B(  0-C , 10-H ) :   0.9442
B(  0-C , 11-H ) :   0.9477 B(  1-C ,  2-C ) :   2.7021 B(  1-C ,  3-C ) :  -0.1088
B(  2-C ,  3-C ) :   1.0226 B(  3-C ,  4-C ) :   0.9009 B(  3-C , 12-H ) :   0.9257
B(  3-C , 13-H ) :   0.9354 B(  4-C ,  5-C ) :   0.9297 B(  4-C ,  6-N ) :   0.8152
B(  4-C , 14-H ) :   0.9320 B(  5-C , 15-H ) :   0.9307 B(  5-C , 16-H ) :   0.9336
B(  5-C , 17-H ) :   0.9281 B(  6-N ,  7-C ) :   1.1687 B(  6-N , 18-H ) :   0.8638
B(  7-C ,  8-O ) :   1.8686 B(  7-C , 19-H ) :   0.9287

MP2 TOTAL ENERGY:     -402.457170735 Eh
FINAL SINGLE POINT ENERGY      -402.457170735274

DIPOLE MOMENT
-------------
                                X             Y             Z
Electronic contribution:     -3.98540      -0.40044       1.04317
Nuclear contribution   :      5.18954       1.33836      -0.73536
                        -----------------------------------------
Total Dipole Moment    :      1.20414       0.93792       0.30781
                        -----------------------------------------
Magnitude (a.u.)       :      1.55705
Magnitude (Debye)      :      3.95770

                             ****ORCA TERMINATED NORMALLY****
TOTAL RUN TIME: 0 days 0 hours 16 minutes 42 seconds 334 msec
