                         Program Version 3.0.3 - RELEASE   -
|  1> ! RI-MP2 RIJK def2-TZVP def2-TZVP/C def2-TZVP/JK TIGHTSCF
|  2> % maxcore 2000
|  3> % mp2 density relaxed end
|  4> *xyz 0 1
|  5>  C       -0.2330293844     1.6448725294     0.0967156017
|  6>  C        0.1396250054     0.1745797411    -0.1259464586
|  7>  C        0.8241549035    -0.4535182901     1.0820480534
|  8>  C       -0.0194596737    -0.8495499045     2.3158560658
|  9>  C       -0.4959618628    -2.1911257751     1.6758079015
| 10>  C        0.9805024175    -1.9888423670     1.1529384880
| 11>  C        0.9781390697    -1.9727844548     2.7274389216
| 12>  N       -0.1286296975    -2.9622412150     2.9027421240
| 13>  C        0.2249965159    -4.3623061042     2.6936713237
| 14>  H        0.6535758537     2.2460516797     0.3273835468
| 15>  H       -0.7053636441     2.0762018000    -0.7913003609
| 16>  H       -0.9321306802     1.7545779956     0.9326812122
| 17>  H       -0.7613410643    -0.3984538212    -0.3798304115
| 18>  H        0.8059210456     0.0951653115    -0.9952836061
| 19>  H        1.7401437296     0.0983824343     1.3330865873
| 20>  H       -0.5989368553    -0.2376136162     3.0071424747
| 21>  H       -1.4036419863    -2.3912781369     1.1043075486
| 22>  H        1.5524599816    -2.6375777454     0.4888467944
| 23>  H        1.8316410950    -1.8976778938     3.4042359228
| 24>  H        0.7378343081    -4.7406160235     3.5844665515
| 25>  H       -0.6912600477    -4.9485721685     2.5650723730
| 26>  H        0.8741195106    -4.5473810555     1.8209089461
| 27> *
| 28>
| 29>                          ****END OF INPUT****

CARTESIAN COORDINATES (ANGSTROEM)
---------------------------------
  C     -0.233029    1.644873    0.096716
  C      0.139625    0.174580   -0.125946
  C      0.824155   -0.453518    1.082048
  C     -0.019460   -0.849550    2.315856
  C     -0.495962   -2.191126    1.675808
  C      0.980502   -1.988842    1.152938
  C      0.978139   -1.972784    2.727439
  N     -0.128630   -2.962241    2.902742
  C      0.224997   -4.362306    2.693671
  H      0.653576    2.246052    0.327384
  H     -0.705364    2.076202   -0.791300
  H     -0.932131    1.754578    0.932681
  H     -0.761341   -0.398454   -0.379830
  H      0.805921    0.095165   -0.995284
  H      1.740144    0.098382    1.333087
  H     -0.598937   -0.237614    3.007142
  H     -1.403642   -2.391278    1.104308
  H      1.552460   -2.637578    0.488847
  H      1.831641   -1.897678    3.404236
  H      0.737834   -4.740616    3.584467
  H     -0.691260   -4.948572    2.565072
  H      0.874120   -4.547381    1.820909

 Total Charge           Charge          ....    0
 Multiplicity           Mult            ....    1
 Number of Electrons    NEL             ....   68
 Basis Dimension        Dim             ....  357

ORBITAL ENERGIES
----------------

  NO   OCC          E(Eh)            E(eV)
   0   2.0000     -15.543476      -422.9595
   1   2.0000     -11.267806      -306.6126
   2   2.0000     -11.267372      -306.6008
   3   2.0000     -11.238904      -305.8261
   4   2.0000     -11.237424      -305.7858
   5   2.0000     -11.234076      -305.6948
   6   2.0000     -11.229872      -305.5804
   7   2.0000     -11.219198      -305.2899
   8   2.0000     -11.213152      -305.1254
   9   2.0000      -1.296573       -35.2815
  10   2.0000      -1.122891       -30.5554
  11   2.0000      -1.033415       -28.1206
  12   2.0000      -0.939053       -25.5529
  13   2.0000      -0.874896       -23.8071
  14   2.0000      -0.866292       -23.5730
  15   2.0000      -0.856292       -23.3009
  16   2.0000      -0.777313       -21.1518
  17   2.0000      -0.693708       -18.8768
  18   2.0000      -0.682985       -18.5850
  19   2.0000      -0.647845       -17.6288
  20   2.0000      -0.617622       -16.8063
  21   2.0000      -0.597762       -16.2659
  22   2.0000      -0.583002       -15.8643
  23   2.0000      -0.567447       -15.4410
  24   2.0000      -0.547920       -14.9097
  25   2.0000      -0.510733       -13.8977
  26   2.0000      -0.503988       -13.7142
  27   2.0000      -0.485721       -13.2172
  28   2.0000      -0.458000       -12.4628
  29   2.0000      -0.434806       -11.8317
  30   2.0000      -0.432574       -11.7709
  31   2.0000      -0.426800       -11.6138
  32   2.0000      -0.418743       -11.3946
  33   2.0000      -0.352538        -9.5931
  34   0.0000       0.139841         3.8053
  35   0.0000       0.148152         4.0314
  36   0.0000       0.160845         4.3768
  37   0.0000       0.168687         4.5902
  38   0.0000       0.182686         4.9711

MULLIKEN ATOMIC CHARGES
-----------------------
   0 C :   -0.397635
   1 C :   -0.214546
   2 C :   -0.070975
   3 C :   -0.093736
   4 C :   -0.092140
   5 C :   -0.136451
   6 C :   -0.065689
   7 N :   -0.187203
   8 C :   -0.318412
   9 H :    0.123968
  10 H :    0.133389
  11 H :    0.127182
  12 H :    0.110189
  13 H :    0.109551
  14 H :    0.093612
  15 H :    0.131850
  16 H :    0.124021
  17 H :    0.131277
  18 H :    0.120218
  19 H :    0.135293
  20 H :    0.134993
  21 H :    0.101245
Sum of atomic charges:   -0.0000000

LOEWDIN ATOMIC CHARGES
----------------------
   0 C :   -0.316640
   1 C :   -0.273801
   2 C :   -0.201867
   3 C :   -0.121270
   4 C :   -0.166640
   5 C :   -0.133478
   6 C :   -0.164009
   7 N :    0.088729
   8 C :   -0.338742
   9 H :    0.120806
  10 H :    0.120315
  11 H :    0.121052
  12 H :    0.139181
  13 H :    0.137556
  14 H :    0.145025
  15 H :    0.129798
  16 H :    0.124989
  17 H :    0.124870
  18 H :    0.126329
  19 H :    0.116929
  20 H :    0.116952
  21 H :    0.103917

  Mayer bond orders larger than 0.1
B(  0-C ,  1-C ) :   0.9146 B(  0-C ,  9-H ) :   0.9395 B(  0-C , 10-H ) :   0.9406
B(  0-C , 11-H ) :   0.9400 B(  1-C ,  2-C ) :   0.9127 B(  1-C , 12-H ) :   0.9303
B(  1-C , 13-H ) :   0.9366 B(  2-C ,  3-C ) :   0.8969 B(  2-C ,  5-C ) :   0.9026
B(  2-C , 14-H ) :   0.9242 B(  3-C ,  4-C ) :   0.8743 B(  3-C ,  6-C ) :   0.8958
B(  3-C , 15-H ) :   0.8853 B(  4-C ,  5-C ) :   0.8833 B(  4-C ,  7-N ) :   0.9335
B(  4-C , 16-H ) :   0.8969 B(  5-C ,  6-C ) :   0.8941 B(  5-C , 17-H ) :   0.9021
B(  6-C ,  7-N ) :   0.9318 B(  6-C , 18-H ) :   0.8987 B(  7-N ,  8-C ) :   0.8950
B(  8-C , 19-H ) :   0.9404 B(  8-C , 20-H ) :   0.9405 B(  8-C , 21-H ) :   0.9192

MP2 TOTAL ENERGY:     -366.451674001 Eh
FINAL SINGLE POINT ENERGY      -366.451674001467

DIPOLE MOMENT
-------------
                                X             Y             Z
Electronic contribution:      0.35884      -2.92111       3.63118
Nuclear contribution   :     -0.07465       2.96896      -4.08189
                        -----------------------------------------
Total Dipole Moment    :      0.28419       0.04785      -0.45071
                        -----------------------------------------
Magnitude (a.u.)       :      0.53497
Magnitude (Debye)      :      1.35979

                             ****ORCA TERMINATED NORMALLY****
TOTAL RUN TIME: 0 days 0 hours 18 minutes 51 seconds 844 msec
