                         Program Version 3.0.3 - RELEASE   -
|  1> ! RI-MP2 RIJK def2-TZVP def2-TZVP/C def2-TZVP/JK TIGHTSCF
|  2> % maxcore 2000
|  3> % mp2 density relaxed end
|  4> *xyz 0 1
|  5>  O       -0.0505829834     1.4445784433    -0.0166137372
|  6>  C       -0.0005592321     0.0218445832     0.0313929002
|  7>  C        0.7947369521    -0.5062994032     1.2298874359
|  8>  C        0.5786359260    -2.0163790962     1.3592292284
|  9>  C       -0.8887118962    -2.3254785284     1.6770758871
| 10>  N       -1.8650750883    -1.6373399804     0.8104280658
| 11>  C       -2.3048367452    -0.3037796872     1.2110663709
| 12>  C       -1.4351847879    -0.4719847843     0.0197375375
| 13>  H        0.8493947349     1.7663998149    -0.1360780074
| 14>  H        0.4832257307    -0.3628967560    -0.8826333927
| 15>  H        1.8567925741    -0.2700063051     1.0911901451
| 16>  H        0.4721447883     0.0110283925     2.1414220984
| 17>  H        0.8633739458    -2.5049140187     0.4178899961
| 18>  H        1.2173287360    -2.4446560198     2.1392003502
| 19>  H       -1.0669451025    -3.4026421864     1.5807937677
| 20>  H       -1.0962940554    -2.0655171068     2.7232854647
| 21>  H       -3.3655583541    -0.0974277605     1.0905982814
| 22>  H       -1.8597060020     0.1398357683     2.0999360538
| 23>  H       -1.9029536210    -0.4209752994    -0.9616235960
| 24> *
| 25>
| 26>                          ****END OF INPUT****

CARTESIAN COORDINATES (ANGSTROEM)
---------------------------------
  O     -0.050583    1.444578   -0.016614
  C     -0.000559    0.021845    0.031393
  C      0.794737   -0.506299    1.229887
  C      0.578636   -2.016379    1.359229
  C     -0.888712   -2.325479    1.677076
  N     -1.865075   -1.637340    0.810428
  C     -2.304837   -0.303780    1.211066
  C     -1.435185   -0.471985    0.019738
  H      0.849395    1.766400   -0.136078
  H      0.483226   -0.362897   -0.882633
  H      1.856793   -0.270006    1.091190
  H      0.472145    0.011028    2.141422
  H      0.863374   -2.504914    0.417890
  H      1.217329   -2.444656    2.139200
  H     -1.066945   -3.402642    1.580794
  H     -1.096294   -2.065517    2.723285
  H     -3.365558   -0.097428    1.090598
  H     -1.859706    0.139836    2.099936
  H     -1.902954   -0.420975   -0.961624

 Total Charge           Charge          ....    0
 Multiplicity           Mult            ....    1
 Number of Electrons    NEL             ....   62
 Basis Dimension        Dim             ....  314

ORBITAL ENERGIES
----------------

  NO   OCC          E(Eh)            E(eV)
   0   2.0000     -20.557256      -559.3914
   1   2.0000     -15.551073      -423.1662
   2   2.0000     -11.284990      -307.0802
   3   2.0000     -11.251299      -306.1634
   4   2.0000     -11.248762      -306.0944
   5   2.0000     -11.244555      -305.9799
   6   2.0000     -11.227272      -305.5096
   7   2.0000     -11.226531      -305.4894
   8   2.0000      -1.363544       -37.1039
   9   2.0000      -1.264861       -34.4186
  10   2.0000      -1.073597       -29.2141
  11   2.0000      -1.015621       -27.6365
  12   2.0000      -0.897529       -24.4230
  13   2.0000      -0.862320       -23.4649
  14   2.0000      -0.814780       -22.1713
  15   2.0000      -0.735342       -20.0097
  16   2.0000      -0.700719       -19.0675
  17   2.0000      -0.678479       -18.4623
  18   2.0000      -0.638166       -17.3654
  19   2.0000      -0.626619       -17.0512
  20   2.0000      -0.590959       -16.0808
  21   2.0000      -0.571902       -15.5622
  22   2.0000      -0.551385       -15.0039
  23   2.0000      -0.542938       -14.7741
  24   2.0000      -0.506708       -13.7882
  25   2.0000      -0.500697       -13.6246
  26   2.0000      -0.481739       -13.1088
  27   2.0000      -0.443778       -12.0758
  28   2.0000      -0.436756       -11.8847
  29   2.0000      -0.430580       -11.7167
  30   2.0000      -0.359864        -9.7924
  31   0.0000       0.128087         3.4854
  32   0.0000       0.149087         4.0569
  33   0.0000       0.155934         4.2432
  34   0.0000       0.180017         4.8985
  35   0.0000       0.188499         5.1293

MULLIKEN ATOMIC CHARGES
-----------------------
   0 O :   -0.446461
   1 C :    0.034665
   2 C :   -0.243409
   3 C :   -0.239729
   4 C :   -0.154401
   5 N :   -0.220326
   6 C :   -0.196235
   7 C :   -0.005153
   8 H :    0.310363
   9 H :    0.079907
  10 H :    0.119681
  11 H :    0.120961
  12 H :    0.114171
  13 H :    0.123157
  14 H :    0.127343
  15 H :    0.116620
  16 H :    0.122447
  17 H :    0.116121
  18 H :    0.120281
Sum of atomic charges:   -0.0000000

LOEWDIN ATOMIC CHARGES
----------------------
   0 O :   -0.016546
   1 C :   -0.341625
   2 C :   -0.254827
   3 C :   -0.265359
   4 C :   -0.283952
   5 N :    0.111536
   6 C :   -0.241260
   7 C :   -0.231276
   8 H :    0.172040
   9 H :    0.139062
  10 H :    0.135399
  11 H :    0.140376
  12 H :    0.140366
  13 H :    0.139474
  14 H :    0.132839
  15 H :    0.130961
  16 H :    0.124059
  17 H :    0.125174
  18 H :    0.143558

  Mayer bond orders larger than 0.1
B(  0-O ,  1-C ) :   1.0336 B(  0-O ,  8-H ) :   0.8464 B(  1-C ,  2-C ) :   0.9083
B(  1-C ,  7-C ) :   0.9184 B(  1-C ,  9-H ) :   0.9454 B(  2-C ,  3-C ) :   0.8994
B(  2-C , 10-H ) :   0.9270 B(  2-C , 11-H ) :   0.9335 B(  3-C ,  4-C ) :   0.9420
B(  3-C , 12-H ) :   0.9281 B(  3-C , 13-H ) :   0.9195 B(  4-C ,  5-N ) :   0.8923
B(  4-C , 14-H ) :   0.9331 B(  4-C , 15-H ) :   0.9406 B(  5-N ,  6-C ) :   0.8970
B(  5-N ,  7-C ) :   0.9184 B(  6-C ,  7-C ) :   0.9299 B(  6-C , 16-H ) :   0.9210
B(  6-C , 17-H ) :   0.9130 B(  7-C , 18-H ) :   0.9217

MP2 TOTAL ENERGY:     -364.424922177 Eh
FINAL SINGLE POINT ENERGY      -364.424922177183

DIPOLE MOMENT
-------------
                                X             Y             Z
Electronic contribution:     -2.07196       1.99538      -2.27436
Nuclear contribution   :      3.02069      -2.02149       2.48759
                        -----------------------------------------
Total Dipole Moment    :      0.94872      -0.02610       0.21322
                        -----------------------------------------
Magnitude (a.u.)       :      0.97274
Magnitude (Debye)      :      2.47250

                             ****ORCA TERMINATED NORMALLY****
TOTAL RUN TIME: 0 days 0 hours 13 minutes 36 seconds 394 msec
