                         Program Version 3.0.3 - RELEASE   -
|  1> ! RI-MP2 RIJK def2-TZVP def2-TZVP/C def2-TZVP/JK TIGHTSCF
|  2> % maxcore 2000
|  3> % mp2 density relaxed end
|  4> *xyz 0 1
|  5>  C       -0.2456021718     1.3266469341    -0.0458607234
|  6>  O        0.2585012932     0.0176390138     0.1450189620
|  7>  C        0.7388601770    -0.5734840969    -1.0207958449
|  8>  C        1.1602209389    -2.0589099743    -0.9385140098
|  9>  C       -0.0750089589    -2.7545186867    -0.3443065854
| 10>  C       -1.1258482640    -2.0489607405    -1.2251679054
| 11>  O       -2.3208797184    -2.1390657011    -1.2151139678
| 12>  C       -0.2301676058    -1.1695320370    -2.1030266884
| 13>  N        0.8538665941    -2.1861457674    -2.4168666110
| 14>  H        0.5248277295     1.9972263205    -0.4552192404
| 15>  H       -1.1122997935     1.3333081500    -0.7213319557
| 16>  H       -0.5565278394     1.6978716710     0.9325182097
| 17>  H        1.5106742375     0.0446033152    -1.5056559805
| 18>  H        2.1449406481    -2.3692041919    -0.5923261920
| 19>  H       -0.0684302346    -3.8337698921    -0.5115056277
| 20>  H       -0.2422413233    -2.5404073002     0.7128718941
| 21>  H       -0.6910861793    -0.6123477339    -2.9154444383
| 22>  H        1.5863695708    -1.6930784527    -2.9306325351
| 23> *
| 24>
| 25>                          ****END OF INPUT****

CARTESIAN COORDINATES (ANGSTROEM)
---------------------------------
  C     -0.245602    1.326647   -0.045861
  O      0.258501    0.017639    0.145019
  C      0.738860   -0.573484   -1.020796
  C      1.160221   -2.058910   -0.938514
  C     -0.075009   -2.754519   -0.344307
  C     -1.125848   -2.048961   -1.225168
  O     -2.320880   -2.139066   -1.215114
  C     -0.230168   -1.169532   -2.103027
  N      0.853867   -2.186146   -2.416867
  H      0.524828    1.997226   -0.455219
  H     -1.112300    1.333308   -0.721332
  H     -0.556528    1.697872    0.932518
  H      1.510674    0.044603   -1.505656
  H      2.144941   -2.369204   -0.592326
  H     -0.068430   -3.833770   -0.511506
  H     -0.242241   -2.540407    0.712872
  H     -0.691086   -0.612348   -2.915444
  H      1.586370   -1.693078   -2.930633

 Total Charge           Charge          ....    0
 Multiplicity           Mult            ....    1
 Number of Electrons    NEL             ....   68
 Basis Dimension        Dim             ....  333

ORBITAL ENERGIES
----------------

  NO   OCC          E(Eh)            E(eV)
   0   2.0000     -20.577526      -559.9430
   1   2.0000     -20.547474      -559.1252
   2   2.0000     -15.573131      -423.7664
   3   2.0000     -11.331120      -308.3355
   4   2.0000     -11.308054      -307.7078
   5   2.0000     -11.286287      -307.1155
   6   2.0000     -11.281369      -306.9817
   7   2.0000     -11.278766      -306.9108
   8   2.0000     -11.236720      -305.7667
   9   2.0000      -1.405490       -38.2453
  10   2.0000      -1.390887       -37.8480
  11   2.0000      -1.277043       -34.7501
  12   2.0000      -1.038584       -28.2613
  13   2.0000      -0.981996       -26.7215
  14   2.0000      -0.954480       -25.9727
  15   2.0000      -0.901961       -24.5436
  16   2.0000      -0.793480       -21.5917
  17   2.0000      -0.738897       -20.1064
  18   2.0000      -0.709531       -19.3073
  19   2.0000      -0.685623       -18.6568
  20   2.0000      -0.680661       -18.5217
  21   2.0000      -0.653147       -17.7730
  22   2.0000      -0.609555       -16.5868
  23   2.0000      -0.596742       -16.2382
  24   2.0000      -0.589059       -16.0291
  25   2.0000      -0.558969       -15.2103
  26   2.0000      -0.539524       -14.6812
  27   2.0000      -0.528456       -14.3800
  28   2.0000      -0.521864       -14.2006
  29   2.0000      -0.492373       -13.3981
  30   2.0000      -0.477847       -13.0029
  31   2.0000      -0.442282       -12.0351
  32   2.0000      -0.421188       -11.4611
  33   2.0000      -0.380303       -10.3486
  34   0.0000       0.124954         3.4002
  35   0.0000       0.140281         3.8172
  36   0.0000       0.153009         4.1636
  37   0.0000       0.165699         4.5089
  38   0.0000       0.176769         4.8101

MULLIKEN ATOMIC CHARGES
-----------------------
   0 C :   -0.228744
   1 O :   -0.303312
   2 C :   -0.016938
   3 C :   -0.006920
   4 C :   -0.174575
   5 C :    0.066350
   6 O :   -0.250950
   7 C :    0.002015
   8 N :   -0.352262
   9 H :    0.116223
  10 H :    0.129785
  11 H :    0.148272
  12 H :    0.097426
  13 H :    0.141958
  14 H :    0.136474
  15 H :    0.136759
  16 H :    0.148556
  17 H :    0.209883
Sum of atomic charges:   -0.0000000

LOEWDIN ATOMIC CHARGES
----------------------
   0 C :   -0.342257
   1 O :    0.169973
   2 C :   -0.300325
   3 C :   -0.220875
   4 C :   -0.198296
   5 C :   -0.292419
   6 O :    0.164067
   7 C :   -0.204588
   8 N :    0.019750
   9 H :    0.104371
  10 H :    0.107631
  11 H :    0.116843
  12 H :    0.137698
  13 H :    0.132955
  14 H :    0.150577
  15 H :    0.151385
  16 H :    0.135526
  17 H :    0.167986

  Mayer bond orders larger than 0.1
B(  0-C ,  1-O ) :   0.8928 B(  0-C ,  9-H ) :   0.9334 B(  0-C , 10-H ) :   0.9339
B(  0-C , 11-H ) :   0.9403 B(  1-O ,  2-C ) :   1.0242 B(  2-C ,  3-C ) :   0.9280
B(  2-C ,  7-C ) :   0.9298 B(  2-C , 12-H ) :   0.9314 B(  3-C ,  4-C ) :   0.9041
B(  3-C ,  8-N ) :   0.9681 B(  3-C , 13-H ) :   0.8983 B(  4-C ,  5-C ) :   0.9563
B(  4-C ,  7-C ) :  -0.1376 B(  4-C , 14-H ) :   0.8903 B(  4-C , 15-H ) :   0.8899
B(  5-C ,  6-O ) :   2.0762 B(  5-C ,  7-C ) :   0.7912 B(  7-C ,  8-N ) :   0.9445
B(  7-C , 16-H ) :   0.8997 B(  8-N , 17-H ) :   0.8708

MP2 TOTAL ENERGY:     -438.341006719 Eh
FINAL SINGLE POINT ENERGY      -438.341006718703

DIPOLE MOMENT
-------------
                                X             Y             Z
Electronic contribution:     -2.69927      -3.91349      -1.00532
Nuclear contribution   :      3.89550       4.88736       0.96162
                        -----------------------------------------
Total Dipole Moment    :      1.19623       0.97387      -0.04369
                        -----------------------------------------
Magnitude (a.u.)       :      1.54315
Magnitude (Debye)      :      3.92238

                             ****ORCA TERMINATED NORMALLY****
TOTAL RUN TIME: 0 days 0 hours 28 minutes 2 seconds 488 msec
