                         Program Version 3.0.3 - RELEASE   -
|  1> ! RI-MP2 RIJK def2-TZVP def2-TZVP/C def2-TZVP/JK TIGHTSCF
|  2> % maxcore 2000
|  3> % mp2 density relaxed end
|  4> *xyz 0 1
|  5>  C       -0.0786130051     1.5615752203     0.0833950976
|  6>  C        0.0617013901     0.0641290548    -0.0831590250
|  7>  C        0.5858297659    -0.6543444132    -1.2669730128
|  8>  C        1.7604482445     0.0376220449    -1.9367238768
|  9>  O        1.4343527698     1.2104381721    -2.6546791328
| 10>  C        2.4186889490     0.1213475807    -0.5303888191
| 11>  N        1.3154098698    -0.6993598890     0.0846839993
| 12>  H        0.5843005809     2.1260619056    -0.5707946092
| 13>  H       -1.1048276586     1.8538466916    -0.1619980452
| 14>  H        0.1078128107     1.8492576468     1.1245504168
| 15>  H       -0.7398071095    -0.4884819232     0.4060399698
| 16>  H        0.0864633471    -1.5288397772    -1.6729833782
| 17>  H        2.3079170154    -0.6666012553    -2.5757222721
| 18>  H        2.2238243469     1.5111129175    -3.1160544710
| 19>  H        3.3667506393    -0.4146140054    -0.4503931322
| 20>  H        2.5329059939     1.1223348892    -0.1059218591
| 21> *
| 22>
| 23>                          ****END OF INPUT****

CARTESIAN COORDINATES (ANGSTROEM)
---------------------------------
  C     -0.078613    1.561575    0.083395
  C      0.061701    0.064129   -0.083159
  C      0.585830   -0.654344   -1.266973
  C      1.760448    0.037622   -1.936724
  O      1.434353    1.210438   -2.654679
  C      2.418689    0.121348   -0.530389
  N      1.315410   -0.699360    0.084684
  H      0.584301    2.126062   -0.570795
  H     -1.104828    1.853847   -0.161998
  H      0.107813    1.849258    1.124550
  H     -0.739807   -0.488482    0.406040
  H      0.086463   -1.528840   -1.672983
  H      2.307917   -0.666601   -2.575722
  H      2.223824    1.511113   -3.116054
  H      3.366751   -0.414614   -0.450393
  H      2.532906    1.122335   -0.105922

 Total Charge           Charge          ....    0
 Multiplicity           Mult            ....    1
 Number of Electrons    NEL             ....   54
 Basis Dimension        Dim             ....  271

ORBITAL ENERGIES
----------------

  NO   OCC          E(Eh)            E(eV)
   0   2.0000     -20.565113      -559.6052
   1   2.0000     -15.557772      -423.3485
   2   2.0000     -11.291341      -307.2530
   3   2.0000     -11.259925      -306.3981
   4   2.0000     -11.255949      -306.2899
   5   2.0000     -11.251602      -306.1717
   6   2.0000     -11.214309      -305.1569
   7   2.0000      -1.373534       -37.3758
   8   2.0000      -1.279494       -34.8168
   9   2.0000      -1.018273       -27.7086
  10   2.0000      -0.959326       -26.1046
  11   2.0000      -0.928524       -25.2664
  12   2.0000      -0.772619       -21.0240
  13   2.0000      -0.751737       -20.4558
  14   2.0000      -0.720844       -19.6152
  15   2.0000      -0.674424       -18.3520
  16   2.0000      -0.625129       -17.0106
  17   2.0000      -0.600860       -16.3502
  18   2.0000      -0.580456       -15.7950
  19   2.0000      -0.561307       -15.2739
  20   2.0000      -0.543574       -14.7914
  21   2.0000      -0.534266       -14.5381
  22   2.0000      -0.485608       -13.2141
  23   2.0000      -0.455849       -12.4043
  24   2.0000      -0.436694       -11.8831
  25   2.0000      -0.413996       -11.2654
  26   2.0000      -0.369032       -10.0419
  27   0.0000       0.127322         3.4646
  28   0.0000       0.157352         4.2818
  29   0.0000       0.166122         4.5204
  30   0.0000       0.180499         4.9116
  31   0.0000       0.200578         5.4580

MULLIKEN ATOMIC CHARGES
-----------------------
   0 C :   -0.396739
   1 C :   -0.004273
   2 C :   -0.082088
   3 C :    0.031586
   4 O :   -0.461826
   5 C :   -0.163645
   6 N :   -0.239424
   7 H :    0.156646
   8 H :    0.132600
   9 H :    0.131024
  10 H :    0.113757
  11 H :    0.129001
  12 H :    0.096443
  13 H :    0.316946
  14 H :    0.124090
  15 H :    0.115903
Sum of atomic charges:   -0.0000000

LOEWDIN ATOMIC CHARGES
----------------------
   0 C :   -0.296929
   1 C :   -0.272808
   2 C :   -0.180002
   3 C :   -0.332017
   4 O :   -0.019463
   5 C :   -0.238713
   6 N :    0.108840
   7 H :    0.128066
   8 H :    0.131960
   9 H :    0.126640
  10 H :    0.152557
  11 H :    0.132149
  12 H :    0.135592
  13 H :    0.174679
  14 H :    0.125914
  15 H :    0.123534

  Mayer bond orders larger than 0.1
B(  0-C ,  1-C ) :   0.8778 B(  0-C ,  7-H ) :   0.9346 B(  0-C ,  8-H ) :   0.9290
B(  0-C ,  9-H ) :   0.9338 B(  1-C ,  2-C ) :   0.9526 B(  1-C ,  6-N ) :   0.9123
B(  1-C , 10-H ) :   0.9325 B(  2-C ,  3-C ) :   0.9171 B(  2-C ,  6-N ) :   0.8549
B(  2-C , 11-H ) :   0.9019 B(  3-C ,  4-O ) :   1.0598 B(  3-C ,  5-C ) :   0.9507
B(  3-C , 12-H ) :   0.9433 B(  4-O , 13-H ) :   0.8432 B(  5-C ,  6-N ) :   0.9292
B(  5-C , 14-H ) :   0.9174 B(  5-C , 15-H ) :   0.9261

MP2 TOTAL ENERGY:     -325.177653805 Eh
FINAL SINGLE POINT ENERGY      -325.177653804762

DIPOLE MOMENT
-------------
                                X             Y             Z
Electronic contribution:      0.82320      -2.29865      -1.74207
Nuclear contribution   :     -0.39268       2.60865       1.24534
                        -----------------------------------------
Total Dipole Moment    :      0.43052       0.31000      -0.49673
                        -----------------------------------------
Magnitude (a.u.)       :      0.72677
Magnitude (Debye)      :      1.84731

                             ****ORCA TERMINATED NORMALLY****
TOTAL RUN TIME: 0 days 0 hours 8 minutes 54 seconds 991 msec
