                         Program Version 3.0.3 - RELEASE   -
|  1> ! RI-MP2 RIJK def2-TZVP def2-TZVP/C def2-TZVP/JK TIGHTSCF
|  2> % maxcore 2000
|  3> % mp2 density relaxed end
|  4> *xyz 0 1
|  5>  C       -0.0851173881     1.6797426646    -0.0023653791
|  6>  C        0.0275583924     0.1530935748    -0.0573834369
|  7>  C       -1.3513346052    -0.5446208212     0.0266310650
|  8>  C       -2.0412507965    -0.2849073067     1.2867480864
|  9>  N       -2.5696260393    -0.0653217452     2.2911252138
| 10>  C        0.7278356616    -0.3037837796    -1.3328306681
| 11>  C        2.2589244836    -0.1159270027    -1.4302326910
| 12>  C        2.2924515942    -1.6485151452    -1.5937240215
| 13>  O        0.8634889835    -1.7433965285    -1.4016574129
| 14>  H        0.9027713676     2.1490261123    -0.0403013720
| 15>  H       -0.6707644995     2.0624064148    -0.8464257252
| 16>  H       -0.5753243571     2.0025300488     0.9200082792
| 17>  H        0.6257748016    -0.1967771272     0.7932996307
| 18>  H       -1.9937063548    -0.2102114547    -0.7977890975
| 19>  H       -1.2127185098    -1.6240835384    -0.0900092187
| 20>  H        0.1780860282     0.0725624751    -2.2097290359
| 21>  H        2.6184925271     0.4663317437    -2.2790711389
| 22>  H        2.7232454494     0.2577129652    -0.5151025855
| 23>  H        2.5911646197    -2.0045473205    -2.5870471416
| 24>  H        2.8453032615    -2.2114041996    -0.8335091902
| 25> *
| 26>
| 27>                          ****END OF INPUT****

CARTESIAN COORDINATES (ANGSTROEM)
---------------------------------
  C     -0.085117    1.679743   -0.002365
  C      0.027558    0.153094   -0.057383
  C     -1.351335   -0.544621    0.026631
  C     -2.041251   -0.284907    1.286748
  N     -2.569626   -0.065322    2.291125
  C      0.727836   -0.303784   -1.332831
  C      2.258924   -0.115927   -1.430233
  C      2.292452   -1.648515   -1.593724
  O      0.863489   -1.743397   -1.401657
  H      0.902771    2.149026   -0.040301
  H     -0.670764    2.062406   -0.846426
  H     -0.575324    2.002530    0.920008
  H      0.625775   -0.196777    0.793300
  H     -1.993706   -0.210211   -0.797789
  H     -1.212719   -1.624084   -0.090009
  H      0.178086    0.072562   -2.209729
  H      2.618493    0.466332   -2.279071
  H      2.723245    0.257713   -0.515103
  H      2.591165   -2.004547   -2.587047
  H      2.845303   -2.211404   -0.833509

 Total Charge           Charge          ....    0
 Multiplicity           Mult            ....    1
 Number of Electrons    NEL             ....   68
 Basis Dimension        Dim             ....  345

ORBITAL ENERGIES
----------------

  NO   OCC          E(Eh)            E(eV)
   0   2.0000     -20.560392      -559.4767
   1   2.0000     -15.563041      -423.4919
   2   2.0000     -11.299031      -307.4623
   3   2.0000     -11.291373      -307.2539
   4   2.0000     -11.274688      -306.7999
   5   2.0000     -11.268415      -306.6292
   6   2.0000     -11.257335      -306.3277
   7   2.0000     -11.244397      -305.9756
   8   2.0000     -11.233012      -305.6658
   9   2.0000      -1.391892       -37.8753
  10   2.0000      -1.213982       -33.0341
  11   2.0000      -1.114754       -30.3340
  12   2.0000      -1.028496       -27.9868
  13   2.0000      -0.985004       -26.8033
  14   2.0000      -0.944227       -25.6937
  15   2.0000      -0.840147       -22.8615
  16   2.0000      -0.775571       -21.1044
  17   2.0000      -0.707823       -19.2609
  18   2.0000      -0.689128       -18.7521
  19   2.0000      -0.662660       -18.0319
  20   2.0000      -0.649957       -17.6862
  21   2.0000      -0.625988       -17.0340
  22   2.0000      -0.590930       -16.0800
  23   2.0000      -0.579004       -15.7555
  24   2.0000      -0.552493       -15.0341
  25   2.0000      -0.548422       -14.9233
  26   2.0000      -0.538632       -14.6569
  27   2.0000      -0.525501       -14.2996
  28   2.0000      -0.506432       -13.7807
  29   2.0000      -0.479235       -13.0407
  30   2.0000      -0.473870       -12.8947
  31   2.0000      -0.451002       -12.2724
  32   2.0000      -0.443196       -12.0600
  33   2.0000      -0.424115       -11.5408
  34   0.0000       0.125772         3.4224
  35   0.0000       0.138961         3.7813
  36   0.0000       0.149510         4.0684
  37   0.0000       0.155726         4.2375
  38   0.0000       0.180080         4.9002

MULLIKEN ATOMIC CHARGES
-----------------------
   0 C :   -0.427311
   1 C :   -0.094015
   2 C :   -0.138301
   3 C :   -0.190008
   4 N :   -0.058595
   5 C :    0.142062
   6 C :   -0.307591
   7 C :   -0.007607
   8 O :   -0.345629
   9 H :    0.138205
  10 H :    0.127395
  11 H :    0.166473
  12 H :    0.103568
  13 H :    0.148854
  14 H :    0.183845
  15 H :    0.087715
  16 H :    0.135989
  17 H :    0.128393
  18 H :    0.101195
  19 H :    0.105362
Sum of atomic charges:    0.0000000

LOEWDIN ATOMIC CHARGES
----------------------
   0 C :   -0.279810
   1 C :   -0.257747
   2 C :   -0.220619
   3 C :   -0.194083
   4 N :    0.051875
   5 C :   -0.264658
   6 C :   -0.225948
   7 C :   -0.268197
   8 O :    0.129774
   9 H :    0.127509
  10 H :    0.127063
  11 H :    0.134829
  12 H :    0.161678
  13 H :    0.165633
  14 H :    0.172470
  15 H :    0.138515
  16 H :    0.131507
  17 H :    0.134992
  18 H :    0.117866
  19 H :    0.117352

  Mayer bond orders larger than 0.1
B(  0-C ,  1-C ) :   0.9258 B(  0-C ,  9-H ) :   0.9354 B(  0-C , 10-H ) :   0.9260
B(  0-C , 11-H ) :   0.9327 B(  1-C ,  2-C ) :   0.9072 B(  1-C ,  5-C ) :   0.9417
B(  1-C , 12-H ) :   0.9113 B(  2-C ,  3-C ) :   0.9274 B(  2-C , 13-H ) :   0.9028
B(  2-C , 14-H ) :   0.9023 B(  3-C ,  4-N ) :   2.8860 B(  5-C ,  6-C ) :   0.8997
B(  5-C ,  8-O ) :   0.9116 B(  5-C , 15-H ) :   0.9026 B(  6-C ,  7-C ) :   0.9849
B(  6-C , 16-H ) :   0.9281 B(  6-C , 17-H ) :   0.9244 B(  7-C ,  8-O ) :   0.9368
B(  7-C , 18-H ) :   0.9195 B(  7-C , 19-H ) :   0.9178

MP2 TOTAL ENERGY:     -402.460235343 Eh
FINAL SINGLE POINT ENERGY      -402.460235342993

DIPOLE MOMENT
-------------
                                X             Y             Z
Electronic contribution:     -5.50563      -3.73526       3.62732
Nuclear contribution   :      6.88276       4.06301      -4.98213
                        -----------------------------------------
Total Dipole Moment    :      1.37713       0.32774      -1.35481
                        -----------------------------------------
Magnitude (a.u.)       :      1.95944
Magnitude (Debye)      :      4.98051

                             ****ORCA TERMINATED NORMALLY****
TOTAL RUN TIME: 0 days 0 hours 20 minutes 40 seconds 384 msec
