                         Program Version 3.0.3 - RELEASE   -
|  1> ! RI-MP2 RIJK def2-TZVP def2-TZVP/C def2-TZVP/JK TIGHTSCF
|  2> % maxcore 2000
|  3> % mp2 density relaxed end
|  4> *xyz 0 1
|  5>  C       -0.3062871390     1.6808243540     0.2766591561
|  6>  C        0.1489206990     0.2471768298     0.0192946563
|  7>  O        1.1808934577    -0.0554940728     0.9462958275
|  8>  C       -1.0340672400    -0.7034463868     0.2276238308
|  9>  O       -1.6768184650    -1.1843937543    -0.6690141254
| 10>  C        0.6699743178     0.0690017520    -1.4192458543
| 11>  O        0.6232448393     0.9055519356    -2.2835805565
| 12>  C        1.3235690130    -1.2830391346    -1.7481589763
| 13>  O        1.5525265980    -2.1325022958    -0.9228468929
| 14>  H        0.5521723640     2.3512492420     0.1926673715
| 15>  H       -1.0620071349     1.9829359894    -0.4503040568
| 16>  H       -0.7156842986     1.7628219545     1.2868861477
| 17>  H        1.4598699033    -0.9677183700     0.7790943674
| 18>  H       -1.2388653886    -0.9148605116     1.3004621710
| 19>  H        1.5761006841    -1.3962577713    -2.8206718160
| 20> *
| 21>
| 22>                          ****END OF INPUT****

CARTESIAN COORDINATES (ANGSTROEM)
---------------------------------
  C     -0.306287    1.680824    0.276659
  C      0.148921    0.247177    0.019295
  O      1.180893   -0.055494    0.946296
  C     -1.034067   -0.703446    0.227624
  O     -1.676818   -1.184394   -0.669014
  C      0.669974    0.069002   -1.419246
  O      0.623245    0.905552   -2.283581
  C      1.323569   -1.283039   -1.748159
  O      1.552527   -2.132502   -0.922847
  H      0.552172    2.351249    0.192667
  H     -1.062007    1.982936   -0.450304
  H     -0.715684    1.762822    1.286886
  H      1.459870   -0.967718    0.779094
  H     -1.238865   -0.914861    1.300462
  H      1.576101   -1.396258   -2.820672

 Total Charge           Charge          ....    0
 Multiplicity           Mult            ....    1
 Number of Electrons    NEL             ....   68
 Basis Dimension        Dim             ....  315

ORBITAL ENERGIES
----------------

  NO   OCC          E(Eh)            E(eV)
   0   2.0000     -20.614213      -560.9413
   1   2.0000     -20.605946      -560.7163
   2   2.0000     -20.592974      -560.3633
   3   2.0000     -20.588869      -560.2516
   4   2.0000     -11.377609      -309.6005
   5   2.0000     -11.372873      -309.4716
   6   2.0000     -11.358839      -309.0897
   7   2.0000     -11.336388      -308.4788
   8   2.0000     -11.246239      -306.0257
   9   2.0000      -1.459033       -39.7023
  10   2.0000      -1.438311       -39.1384
  11   2.0000      -1.428642       -38.8753
  12   2.0000      -1.400028       -38.0967
  13   2.0000      -1.080859       -29.4117
  14   2.0000      -0.978526       -26.6270
  15   2.0000      -0.916507       -24.9394
  16   2.0000      -0.857961       -23.3463
  17   2.0000      -0.786099       -21.3908
  18   2.0000      -0.737017       -20.0553
  19   2.0000      -0.720222       -19.5982
  20   2.0000      -0.713822       -19.4241
  21   2.0000      -0.680884       -18.5278
  22   2.0000      -0.673635       -18.3305
  23   2.0000      -0.618449       -16.8289
  24   2.0000      -0.612116       -16.6565
  25   2.0000      -0.573548       -15.6070
  26   2.0000      -0.567120       -15.4321
  27   2.0000      -0.564100       -15.3499
  28   2.0000      -0.550595       -14.9824
  29   2.0000      -0.544918       -14.8280
  30   2.0000      -0.537706       -14.6317
  31   2.0000      -0.523208       -14.2372
  32   2.0000      -0.448837       -12.2135
  33   2.0000      -0.422429       -11.4949
  34   0.0000       0.040524         1.1027
  35   0.0000       0.103948         2.8286
  36   0.0000       0.144454         3.9308
  37   0.0000       0.159670         4.3448
  38   0.0000       0.170324         4.6347

MULLIKEN ATOMIC CHARGES
-----------------------
   0 C :   -0.391340
   1 C :    0.277850
   2 O :   -0.462055
   3 C :    0.038384
   4 O :   -0.249751
   5 C :    0.147979
   6 O :   -0.231892
   7 C :    0.109970
   8 O :   -0.278990
   9 H :    0.151965
  10 H :    0.155005
  11 H :    0.148588
  12 H :    0.339120
  13 H :    0.110688
  14 H :    0.134478
Sum of atomic charges:    0.0000000

LOEWDIN ATOMIC CHARGES
----------------------
   0 C :   -0.248700
   1 C :   -0.390812
   2 O :    0.033976
   3 C :   -0.252165
   4 O :    0.156741
   5 C :   -0.278684
   6 O :    0.213226
   7 C :   -0.234644
   8 O :    0.154099
   9 H :    0.140013
  10 H :    0.139619
  11 H :    0.135036
  12 H :    0.179446
  13 H :    0.123581
  14 H :    0.129267

  Mayer bond orders larger than 0.1
B(  0-C ,  1-C ) :   0.8819 B(  0-C ,  9-H ) :   0.9287 B(  0-C , 10-H ) :   0.9263
B(  0-C , 11-H ) :   0.9299 B(  1-C ,  2-O ) :   0.9295 B(  1-C ,  3-C ) :   0.8417
B(  1-C ,  5-C ) :   0.8015 B(  2-O , 12-H ) :   0.8101 B(  3-C ,  4-O ) :   1.9913
B(  3-C , 13-H ) :   0.9381 B(  5-C ,  6-O ) :   1.9633 B(  5-C ,  7-C ) :   0.8777
B(  7-C ,  8-O ) :   1.8756 B(  7-C , 14-H ) :   0.9247

MP2 TOTAL ENERGY:     -494.148781552 Eh
FINAL SINGLE POINT ENERGY      -494.148781552407

DIPOLE MOMENT
-------------
                                X             Y             Z
Electronic contribution:      1.22659      -4.05996      -3.36439
Nuclear contribution   :     -1.06040       4.20331       3.65167
                        -----------------------------------------
Total Dipole Moment    :      0.16620       0.14335       0.28728
                        -----------------------------------------
Magnitude (a.u.)       :      0.36153
Magnitude (Debye)      :      0.91892

                             ****ORCA TERMINATED NORMALLY****
TOTAL RUN TIME: 0 days 0 hours 15 minutes 54 seconds 129 msec
