                         Program Version 3.0.3 - RELEASE   -
|  1> ! RI-MP2 RIJK def2-TZVP def2-TZVP/C def2-TZVP/JK TIGHTSCF
|  2> % maxcore 2000
|  3> % mp2 density relaxed end
|  4> *xyz 0 1
|  5>  C       -0.0027652968     1.5652921631    -0.1398588029
|  6>  C       -0.0527939324     0.0692198957     0.0250626690
|  7>  O        1.2191751070    -0.6371039735    -0.0778089172
|  8>  C        0.5603682389    -0.6285143114     1.1467706182
|  9>  C        1.1279897097    -0.2934754713     2.5383524611
| 10>  C       -0.2051747548    -0.7959979409     3.1476276879
| 11>  C        0.2536108856    -1.8157705227     2.0748205591
| 12>  O        1.6359772098    -1.6878957387     2.6046429739
| 13>  H        0.8250250834     1.9924346876     0.4317133441
| 14>  H        0.1320618776     1.8321075334    -1.1930037626
| 15>  H       -0.9383630690     2.0196146876     0.2042428384
| 16>  H       -0.8613409156    -0.4366109297    -0.5050974138
| 17>  H        1.7931222340     0.5042382247     2.8658317935
| 18>  H       -0.1116265402    -1.1608275501     4.1700952468
| 19>  H       -1.1164729007    -0.2186879385     2.9705156129
| 20>  H       -0.1151364765    -2.8160850753     1.8524855517
| 21> *
| 22>
| 23>                          ****END OF INPUT****

CARTESIAN COORDINATES (ANGSTROEM)
---------------------------------
  C     -0.002765    1.565292   -0.139859
  C     -0.052794    0.069220    0.025063
  O      1.219175   -0.637104   -0.077809
  C      0.560368   -0.628514    1.146771
  C      1.127990   -0.293475    2.538352
  C     -0.205175   -0.795998    3.147628
  C      0.253611   -1.815771    2.074821
  O      1.635977   -1.687896    2.604643
  H      0.825025    1.992435    0.431713
  H      0.132062    1.832108   -1.193004
  H     -0.938363    2.019615    0.204243
  H     -0.861341   -0.436611   -0.505097
  H      1.793122    0.504238    2.865832
  H     -0.111627   -1.160828    4.170095
  H     -1.116473   -0.218688    2.970516
  H     -0.115136   -2.816085    1.852486

 Total Charge           Charge          ....    0
 Multiplicity           Mult            ....    1
 Number of Electrons    NEL             ....   60
 Basis Dimension        Dim             ....  296

ORBITAL ENERGIES
----------------

  NO   OCC          E(Eh)            E(eV)
   0   2.0000     -20.571284      -559.7731
   1   2.0000     -20.555184      -559.3350
   2   2.0000     -11.307477      -307.6921
   3   2.0000     -11.306938      -307.6774
   4   2.0000     -11.305468      -307.6374
   5   2.0000     -11.297426      -307.4186
   6   2.0000     -11.248378      -306.0839
   7   2.0000     -11.235043      -305.7211
   8   2.0000      -1.431120       -38.9428
   9   2.0000      -1.389418       -37.8080
  10   2.0000      -1.075884       -29.2763
  11   2.0000      -1.020791       -27.7771
  12   2.0000      -0.903851       -24.5950
  13   2.0000      -0.898009       -24.4361
  14   2.0000      -0.849781       -23.1237
  15   2.0000      -0.739277       -20.1167
  16   2.0000      -0.715657       -19.4740
  17   2.0000      -0.675760       -18.3884
  18   2.0000      -0.649474       -17.6731
  19   2.0000      -0.605309       -16.4713
  20   2.0000      -0.590172       -16.0594
  21   2.0000      -0.559956       -15.2372
  22   2.0000      -0.551104       -14.9963
  23   2.0000      -0.530730       -14.4419
  24   2.0000      -0.508663       -13.8414
  25   2.0000      -0.499078       -13.5806
  26   2.0000      -0.475479       -12.9384
  27   2.0000      -0.442920       -12.0525
  28   2.0000      -0.427747       -11.6396
  29   2.0000      -0.411928       -11.2091
  30   0.0000       0.132982         3.6186
  31   0.0000       0.157379         4.2825
  32   0.0000       0.166987         4.5440
  33   0.0000       0.174831         4.7574
  34   0.0000       0.188811         5.1378

MULLIKEN ATOMIC CHARGES
-----------------------
   0 C :   -0.395445
   1 C :    0.021243
   2 O :   -0.323381
   3 C :    0.159284
   4 C :   -0.037589
   5 C :   -0.171230
   6 C :   -0.036308
   7 O :   -0.296529
   8 H :    0.140929
   9 H :    0.144243
  10 H :    0.130624
  11 H :    0.122548
  12 H :    0.148551
  13 H :    0.130485
  14 H :    0.114971
  15 H :    0.147606
Sum of atomic charges:   -0.0000000

LOEWDIN ATOMIC CHARGES
----------------------
   0 C :   -0.290918
   1 C :   -0.248510
   2 O :    0.204562
   3 C :   -0.288043
   4 C :   -0.189205
   5 C :   -0.194195
   6 C :   -0.187591
   7 O :    0.136401
   8 H :    0.131592
   9 H :    0.131279
  10 H :    0.130924
  11 H :    0.139838
  12 H :    0.127817
  13 H :    0.137620
  14 H :    0.130168
  15 H :    0.128264

  Mayer bond orders larger than 0.1
B(  0-C ,  1-C ) :   0.8858 B(  0-C ,  8-H ) :   0.9423 B(  0-C ,  9-H ) :   0.9336
B(  0-C , 10-H ) :   0.9239 B(  1-C ,  2-O ) :   0.8648 B(  1-C ,  3-C ) :   0.9896
B(  1-C , 11-H ) :   0.9041 B(  2-O ,  3-C ) :   0.9452 B(  3-C ,  4-C ) :   0.9089
B(  3-C ,  6-C ) :   0.9150 B(  4-C ,  5-C ) :   0.9097 B(  4-C ,  7-O ) :   0.9180
B(  4-C , 12-H ) :   0.8812 B(  5-C ,  6-C ) :   0.9082 B(  5-C , 13-H ) :   0.9185
B(  5-C , 14-H ) :   0.9103 B(  6-C ,  7-O ) :   0.9150 B(  6-C , 15-H ) :   0.8811

MP2 TOTAL ENERGY:     -383.002783230 Eh
FINAL SINGLE POINT ENERGY      -383.002783230054

DIPOLE MOMENT
-------------
                                X             Y             Z
Electronic contribution:      3.51042      -4.75459       0.52641
Nuclear contribution   :     -4.72627       5.49208      -0.37835
                        -----------------------------------------
Total Dipole Moment    :     -1.21586       0.73749       0.14806
                        -----------------------------------------
Magnitude (a.u.)       :      1.42973
Magnitude (Debye)      :      3.63408

                             ****ORCA TERMINATED NORMALLY****
TOTAL RUN TIME: 0 days 0 hours 10 minutes 22 seconds 879 msec
