                         Program Version 3.0.3 - RELEASE   -
|  1> ! RI-MP2 RIJK def2-TZVP def2-TZVP/C def2-TZVP/JK TIGHTSCF
|  2> % maxcore 2000
|  3> % mp2 density relaxed end
|  4> *xyz 0 1
|  5>  C        0.0049282360     1.5688798794     0.0186375966
|  6>  C        0.0404685314     0.0625169207    -0.0691303715
|  7>  O       -1.1035833854    -0.5890701215     0.4073375769
|  8>  C        0.6272978020    -0.7277273193    -1.2149858900
|  9>  C        1.9183115911    -0.0964611244    -1.7066260417
| 10>  O        2.4569667757    -0.0280423421    -0.3556636814
| 11>  C        1.3187339356    -0.7353978780     0.1563788286
| 12>  C        1.4744976491    -1.7079622146     1.1767357885
| 13>  C        1.5844737811    -2.4988065279     2.0779599114
| 14>  H        0.9628860825     2.0083527182    -0.2652409658
| 15>  H       -0.7828645306     1.9713038108    -0.6257390240
| 16>  H       -0.2111465133     1.8745298010     1.0482648058
| 17>  H       -1.0308241243    -0.6606193825     1.3669369947
| 18>  H        0.0593156457    -1.5122302768    -1.6950481808
| 19>  H        2.5243440889    -0.7688558961    -2.3232100303
| 20>  H        1.8587755061     0.8896052891    -2.1798978147
| 21>  H        1.6951547583    -3.2141051957     2.8550554875
| 22> *
| 23>
| 24>                          ****END OF INPUT****

CARTESIAN COORDINATES (ANGSTROEM)
---------------------------------
  C      0.004928    1.568880    0.018638
  C      0.040469    0.062517   -0.069130
  O     -1.103583   -0.589070    0.407338
  C      0.627298   -0.727727   -1.214986
  C      1.918312   -0.096461   -1.706626
  O      2.456967   -0.028042   -0.355664
  C      1.318734   -0.735398    0.156379
  C      1.474498   -1.707962    1.176736
  C      1.584474   -2.498807    2.077960
  H      0.962886    2.008353   -0.265241
  H     -0.782865    1.971304   -0.625739
  H     -0.211147    1.874530    1.048265
  H     -1.030824   -0.660619    1.366937
  H      0.059316   -1.512230   -1.695048
  H      2.524344   -0.768856   -2.323210
  H      1.858776    0.889605   -2.179898
  H      1.695155   -3.214105    2.855055

 Total Charge           Charge          ....    0
 Multiplicity           Mult            ....    1
 Number of Electrons    NEL             ....   66
 Basis Dimension        Dim             ....  327

ORBITAL ENERGIES
----------------

  NO   OCC          E(Eh)            E(eV)
   0   2.0000     -20.572987      -559.8194
   1   2.0000     -20.569584      -559.7268
   2   2.0000     -11.317469      -307.9640
   3   2.0000     -11.309520      -307.7477
   4   2.0000     -11.296040      -307.3809
   5   2.0000     -11.252233      -306.1888
   6   2.0000     -11.246056      -306.0207
   7   2.0000     -11.238284      -305.8092
   8   2.0000     -11.224991      -305.4475
   9   2.0000      -1.412464       -38.4351
  10   2.0000      -1.380654       -37.5695
  11   2.0000      -1.123269       -30.5657
  12   2.0000      -1.049185       -28.5498
  13   2.0000      -0.987541       -26.8723
  14   2.0000      -0.957151       -26.0454
  15   2.0000      -0.839907       -22.8550
  16   2.0000      -0.778750       -21.1909
  17   2.0000      -0.753409       -20.5013
  18   2.0000      -0.710274       -19.3275
  19   2.0000      -0.678454       -18.4617
  20   2.0000      -0.654086       -17.7986
  21   2.0000      -0.648345       -17.6424
  22   2.0000      -0.597641       -16.2626
  23   2.0000      -0.589603       -16.0439
  24   2.0000      -0.562400       -15.3037
  25   2.0000      -0.545577       -14.8459
  26   2.0000      -0.510597       -13.8941
  27   2.0000      -0.501517       -13.6470
  28   2.0000      -0.495287       -13.4775
  29   2.0000      -0.449636       -12.2352
  30   2.0000      -0.421251       -11.4628
  31   2.0000      -0.395544       -10.7633
  32   2.0000      -0.349454        -9.5091
  33   0.0000       0.134430         3.6580
  34   0.0000       0.139540         3.7971
  35   0.0000       0.152609         4.1527
  36   0.0000       0.161085         4.3833
  37   0.0000       0.168596         4.5877

MULLIKEN ATOMIC CHARGES
-----------------------
   0 C :   -0.399642
   1 C :    0.195615
   2 O :   -0.464172
   3 C :   -0.165230
   4 C :   -0.033634
   5 O :   -0.324944
   6 C :   -0.042439
   7 C :   -0.025122
   8 C :   -0.077459
   9 H :    0.153116
  10 H :    0.141378
  11 H :    0.122877
  12 H :    0.332521
  13 H :    0.151719
  14 H :    0.118947
  15 H :    0.117799
  16 H :    0.198671
Sum of atomic charges:   -0.0000000

LOEWDIN ATOMIC CHARGES
----------------------
   0 C :   -0.265541
   1 C :   -0.328015
   2 O :    0.046427
   3 C :   -0.124928
   4 C :   -0.233409
   5 O :    0.179640
   6 C :   -0.247261
   7 C :   -0.072326
   8 C :   -0.069155
   9 H :    0.136731
  10 H :    0.131717
  11 H :    0.130019
  12 H :    0.188198
  13 H :    0.148192
  14 H :    0.128782
  15 H :    0.121403
  16 H :    0.129528

  Mayer bond orders larger than 0.1
B(  0-C ,  1-C ) :   0.9152 B(  0-C ,  9-H ) :   0.9257 B(  0-C , 10-H ) :   0.9358
B(  0-C , 11-H ) :   0.9255 B(  1-C ,  2-O ) :   1.0056 B(  1-C ,  3-C ) :   0.8727
B(  1-C ,  6-C ) :   0.8188 B(  2-O , 12-H ) :   0.8296 B(  3-C ,  4-C ) :   0.9626
B(  3-C ,  6-C ) :   0.8231 B(  3-C , 13-H ) :   0.9009 B(  4-C ,  5-O ) :   0.8968
B(  4-C , 14-H ) :   0.9151 B(  4-C , 15-H ) :   0.9196 B(  5-O ,  6-C ) :   0.9868
B(  6-C ,  7-C ) :   1.2141 B(  6-C ,  8-C ) :  -0.1668 B(  7-C ,  8-C ) :   2.6009
B(  8-C , 16-H ) :   0.8733

MP2 TOTAL ENERGY:     -421.028834358 Eh
FINAL SINGLE POINT ENERGY      -421.028834358395

DIPOLE MOMENT
-------------
                                X             Y             Z
Electronic contribution:      1.73191      -4.13013       1.93237
Nuclear contribution   :     -1.92346       4.12038      -1.96459
                        -----------------------------------------
Total Dipole Moment    :     -0.19155      -0.00976      -0.03222
                        -----------------------------------------
Magnitude (a.u.)       :      0.19449
Magnitude (Debye)      :      0.49435

                             ****ORCA TERMINATED NORMALLY****
TOTAL RUN TIME: 0 days 0 hours 21 minutes 9 seconds 194 msec
