                         Program Version 3.0.3 - RELEASE   -
|  1> ! RI-MP2 RIJK def2-TZVP def2-TZVP/C def2-TZVP/JK TIGHTSCF
|  2> % maxcore 2000
|  3> % mp2 density relaxed end
|  4> *xyz 0 1
|  5>  C       -0.0272252075     1.5586618096     0.0285791833
|  6>  C        0.0047128051     0.0279948434    -0.0035951079
|  7>  O       -1.3310604812    -0.4889491217    -0.0357023379
|  8>  C        0.6672799249    -0.4949414645    -1.2885961702
|  9>  C        0.6953234274    -2.0276719777    -1.3370905834
| 10>  C        1.3903294077    -2.6264094002    -0.0983615076
| 11>  C        0.8200449138    -2.0595091506     1.1923387182
| 12>  O        0.4658955571    -2.7492881039     2.1191575464
| 13>  C        0.7401753681    -0.5376631022     1.2329296145
| 14>  H        0.9812737885     1.9827161788    -0.0120776617
| 15>  H       -0.6004875727     1.9386475398    -0.8218777783
| 16>  H       -0.5032366277     1.9173523449     0.9485528232
| 17>  H       -1.7561761210    -0.2807124820     0.8032609780
| 18>  H        0.1163590802    -0.1025149221    -2.1497636196
| 19>  H        1.6862863619    -0.0919503563    -1.3461974909
| 20>  H       -0.3328745487    -2.3974541727    -1.3859422955
| 21>  H        1.2050256849    -2.3663164078    -2.2448412176
| 22>  H        1.3119216806    -3.7155456861    -0.0675744107
| 23>  H        2.4593200138    -2.3676348054    -0.1246159150
| 24>  H        1.7618066869    -0.1354331528     1.2607198207
| 25>  H        0.2408325279    -0.2365021305     2.1599354019
| 26> *
| 27>
| 28>                          ****END OF INPUT****

CARTESIAN COORDINATES (ANGSTROEM)
---------------------------------
  C     -0.027225    1.558662    0.028579
  C      0.004713    0.027995   -0.003595
  O     -1.331060   -0.488949   -0.035702
  C      0.667280   -0.494941   -1.288596
  C      0.695323   -2.027672   -1.337091
  C      1.390329   -2.626409   -0.098362
  C      0.820045   -2.059509    1.192339
  O      0.465896   -2.749288    2.119158
  C      0.740175   -0.537663    1.232930
  H      0.981274    1.982716   -0.012078
  H     -0.600488    1.938648   -0.821878
  H     -0.503237    1.917352    0.948553
  H     -1.756176   -0.280712    0.803261
  H      0.116359   -0.102515   -2.149764
  H      1.686286   -0.091950   -1.346197
  H     -0.332875   -2.397454   -1.385942
  H      1.205026   -2.366316   -2.244841
  H      1.311922   -3.715546   -0.067574
  H      2.459320   -2.367635   -0.124616
  H      1.761807   -0.135433    1.260720
  H      0.240833   -0.236502    2.159935

 Total Charge           Charge          ....    0
 Multiplicity           Mult            ....    1
 Number of Electrons    NEL             ....   70
 Basis Dimension        Dim             ....  351

ORBITAL ENERGIES
----------------

  NO   OCC          E(Eh)            E(eV)
   0   2.0000     -20.561612      -559.5099
   1   2.0000     -20.540381      -558.9322
   2   2.0000     -11.324708      -308.1610
   3   2.0000     -11.301567      -307.5313
   4   2.0000     -11.238154      -305.8057
   5   2.0000     -11.233343      -305.6748
   6   2.0000     -11.230943      -305.6095
   7   2.0000     -11.230295      -305.5919
   8   2.0000     -11.227137      -305.5059
   9   2.0000      -1.384613       -37.6772
  10   2.0000      -1.370728       -37.2994
  11   2.0000      -1.114879       -30.3374
  12   2.0000      -1.039228       -28.2788
  13   2.0000      -0.998377       -27.1672
  14   2.0000      -0.946041       -25.7431
  15   2.0000      -0.846722       -23.0405
  16   2.0000      -0.790148       -21.5010
  17   2.0000      -0.742226       -20.1970
  18   2.0000      -0.677347       -18.4315
  19   2.0000      -0.662197       -18.0193
  20   2.0000      -0.644402       -17.5351
  21   2.0000      -0.623298       -16.9608
  22   2.0000      -0.613977       -16.7072
  23   2.0000      -0.605594       -16.4791
  24   2.0000      -0.567918       -15.4538
  25   2.0000      -0.559639       -15.2286
  26   2.0000      -0.550168       -14.9708
  27   2.0000      -0.542689       -14.7673
  28   2.0000      -0.521109       -14.1801
  29   2.0000      -0.505931       -13.7671
  30   2.0000      -0.489466       -13.3190
  31   2.0000      -0.475456       -12.9378
  32   2.0000      -0.458762       -12.4835
  33   2.0000      -0.446303       -12.1445
  34   2.0000      -0.396966       -10.8020
  35   0.0000       0.113339         3.0841
  36   0.0000       0.140947         3.8354
  37   0.0000       0.161130         4.3846
  38   0.0000       0.166879         4.5410
  39   0.0000       0.170069         4.6278

MULLIKEN ATOMIC CHARGES
-----------------------
   0 C :   -0.387142
   1 C :    0.199795
   2 O :   -0.474092
   3 C :   -0.241359
   4 C :   -0.217691
   5 C :   -0.206147
   6 C :    0.152815
   7 O :   -0.272585
   8 C :   -0.285734
   9 H :    0.126616
  10 H :    0.145929
  11 H :    0.126741
  12 H :    0.317934
  13 H :    0.125921
  14 H :    0.111593
  15 H :    0.137385
  16 H :    0.127977
  17 H :    0.137290
  18 H :    0.116051
  19 H :    0.128455
  20 H :    0.130250
Sum of atomic charges:    0.0000000

LOEWDIN ATOMIC CHARGES
----------------------
   0 C :   -0.276706
   1 C :   -0.399763
   2 O :    0.013183
   3 C :   -0.222516
   4 C :   -0.252780
   5 C :   -0.226151
   6 C :   -0.322856
   7 O :    0.148939
   8 C :   -0.198095
   9 H :    0.127516
  10 H :    0.129965
  11 H :    0.124307
  12 H :    0.178044
  13 H :    0.147009
  14 H :    0.143772
  15 H :    0.147123
  16 H :    0.137669
  17 H :    0.146214
  18 H :    0.151290
  19 H :    0.156923
  20 H :    0.146912

  Mayer bond orders larger than 0.1
B(  0-C ,  1-C ) :   0.9125 B(  0-C ,  9-H ) :   0.9340 B(  0-C , 10-H ) :   0.9445
B(  0-C , 11-H ) :   0.9269 B(  1-C ,  2-O ) :   0.8969 B(  1-C ,  3-C ) :   0.8994
B(  1-C ,  8-C ) :   0.9131 B(  2-O , 12-H ) :   0.8393 B(  3-C ,  4-C ) :   0.9410
B(  3-C , 13-H ) :   0.9136 B(  3-C , 14-H ) :   0.9294 B(  4-C ,  5-C ) :   0.9002
B(  4-C , 15-H ) :   0.9245 B(  4-C , 16-H ) :   0.9284 B(  5-C ,  6-C ) :   0.9176
B(  5-C , 17-H ) :   0.9190 B(  5-C , 18-H ) :   0.9026 B(  6-C ,  7-O ) :   2.0524
B(  6-C ,  8-C ) :   0.9211 B(  8-C , 19-H ) :   0.9020 B(  8-C , 20-H ) :   0.9073

MP2 TOTAL ENERGY:     -423.573280947 Eh
FINAL SINGLE POINT ENERGY      -423.573280947259

DIPOLE MOMENT
-------------
                                X             Y             Z
Electronic contribution:     -1.75813      -5.09168       4.63015
Nuclear contribution   :      2.24830       6.05663      -5.14673
                        -----------------------------------------
Total Dipole Moment    :      0.49017       0.96495      -0.51658
                        -----------------------------------------
Magnitude (a.u.)       :      1.19926
Magnitude (Debye)      :      3.04829

                             ****ORCA TERMINATED NORMALLY****
TOTAL RUN TIME: 0 days 0 hours 20 minutes 33 seconds 348 msec
