                         Program Version 3.0.3 - RELEASE   -
|  1> ! RI-MP2 RIJK def2-TZVP def2-TZVP/C def2-TZVP/JK TIGHTSCF
|  2> % maxcore 2000
|  3> % mp2 density relaxed end
|  4> *xyz 0 1
|  5>  C       -0.0095905316     1.4865047480    -0.0791007069
|  6>  C        0.0213133798    -0.0287637610    -0.0378887114
|  7>  C        1.3611150476    -0.7297771728    -0.1872139505
|  8>  C        0.6813193762    -0.7074511768     1.1506202055
|  9>  C       -1.1507968670    -0.7224916898    -0.6218307865
| 10>  N       -1.3239650327    -2.0279292345    -0.6887746216
| 11>  C       -2.5396951925    -2.2165752412    -1.3031063428
| 12>  C       -3.1149416361    -1.0156965119    -1.6144520167
| 13>  N       -2.2156310099    -0.0654696631    -1.1729376486
| 14>  H        0.8949383013     1.8999267497     0.3746921613
| 15>  H       -0.0587533569     1.8637557489    -1.1081067033
| 16>  H       -0.8651303210     1.8904549674     0.4764324954
| 17>  H        1.3564907595    -1.6648508269    -0.7341647439
| 18>  H        2.2356360315    -0.1048127379    -0.3362843186
| 19>  H        1.0850552112    -0.0672021898     1.9282178296
| 20>  H        0.2239987896    -1.6275413896     1.4938685036
| 21>  H       -2.9295586418    -3.2066782629    -1.4848893207
| 22>  H       -4.0427776048    -0.7458027986    -2.0899859788
| 23>  H       -2.3252803125     0.9311255228    -1.2465467549
| 24> *
| 25>
| 26>                          ****END OF INPUT****

CARTESIAN COORDINATES (ANGSTROEM)
---------------------------------
  C     -0.009591    1.486505   -0.079101
  C      0.021313   -0.028764   -0.037889
  C      1.361115   -0.729777   -0.187214
  C      0.681319   -0.707451    1.150620
  C     -1.150797   -0.722492   -0.621831
  N     -1.323965   -2.027929   -0.688775
  C     -2.539695   -2.216575   -1.303106
  C     -3.114942   -1.015697   -1.614452
  N     -2.215631   -0.065470   -1.172938
  H      0.894938    1.899927    0.374692
  H     -0.058753    1.863756   -1.108107
  H     -0.865130    1.890455    0.476432
  H      1.356491   -1.664851   -0.734165
  H      2.235636   -0.104813   -0.336284
  H      1.085055   -0.067202    1.928218
  H      0.223999   -1.627541    1.493869
  H     -2.929559   -3.206678   -1.484889
  H     -4.042778   -0.745803   -2.089986
  H     -2.325280    0.931126   -1.246547

 Total Charge           Charge          ....    0
 Multiplicity           Mult            ....    1
 Number of Electrons    NEL             ....   66
 Basis Dimension        Dim             ....  339

ORBITAL ENERGIES
----------------

  NO   OCC          E(Eh)            E(eV)
   0   2.0000     -15.609890      -424.7667
   1   2.0000     -15.528393      -422.5491
   2   2.0000     -11.294539      -307.3400
   3   2.0000     -11.250773      -306.1491
   4   2.0000     -11.248385      -306.0841
   5   2.0000     -11.235160      -305.7242
   6   2.0000     -11.233557      -305.6806
   7   2.0000     -11.226686      -305.4937
   8   2.0000     -11.226001      -305.4750
   9   2.0000      -1.333052       -36.2742
  10   2.0000      -1.164939       -31.6996
  11   2.0000      -1.150432       -31.3048
  12   2.0000      -1.006017       -27.3751
  13   2.0000      -0.971631       -26.4394
  14   2.0000      -0.844316       -22.9750
  15   2.0000      -0.824135       -22.4258
  16   2.0000      -0.800532       -21.7836
  17   2.0000      -0.780389       -21.2355
  18   2.0000      -0.703437       -19.1415
  19   2.0000      -0.646498       -17.5921
  20   2.0000      -0.618276       -16.8241
  21   2.0000      -0.604843       -16.4586
  22   2.0000      -0.595302       -16.1990
  23   2.0000      -0.580874       -15.8064
  24   2.0000      -0.573793       -15.6137
  25   2.0000      -0.551587       -15.0095
  26   2.0000      -0.515119       -14.0171
  27   2.0000      -0.511197       -13.9104
  28   2.0000      -0.433480       -11.7956
  29   2.0000      -0.425043       -11.5660
  30   2.0000      -0.420502       -11.4424
  31   2.0000      -0.390227       -10.6186
  32   2.0000      -0.298207        -8.1146
  33   0.0000       0.122617         3.3366
  34   0.0000       0.159349         4.3361
  35   0.0000       0.171719         4.6727
  36   0.0000       0.179003         4.8709
  37   0.0000       0.192440         5.2366

MULLIKEN ATOMIC CHARGES
-----------------------
   0 C :   -0.471101
   1 C :    0.122984
   2 C :   -0.275880
   3 C :   -0.275951
   4 C :    0.199038
   5 N :   -0.319972
   6 C :   -0.095892
   7 C :   -0.111959
   8 N :   -0.275838
   9 H :    0.143042
  10 H :    0.139899
  11 H :    0.139824
  12 H :    0.149986
  13 H :    0.127200
  14 H :    0.127195
  15 H :    0.149965
  16 H :    0.130976
  17 H :    0.146393
  18 H :    0.250091
Sum of atomic charges:    0.0000000

LOEWDIN ATOMIC CHARGES
----------------------
   0 C :   -0.269555
   1 C :   -0.246111
   2 C :   -0.193591
   3 C :   -0.193595
   4 C :   -0.278918
   5 N :    0.109060
   6 C :   -0.267571
   7 C :   -0.249212
   8 N :    0.198998
   9 H :    0.133964
  10 H :    0.125425
  11 H :    0.125432
  12 H :    0.142144
  13 H :    0.131663
  14 H :    0.131646
  15 H :    0.142145
  16 H :    0.131542
  17 H :    0.132895
  18 H :    0.193638

  Mayer bond orders larger than 0.1
B(  0-C ,  1-C ) :   0.8808 B(  0-C ,  9-H ) :   0.9301 B(  0-C , 10-H ) :   0.9414
B(  0-C , 11-H ) :   0.9414 B(  1-C ,  2-C ) :   0.8459 B(  1-C ,  3-C ) :   0.8459
B(  1-C ,  4-C ) :   0.9683 B(  2-C ,  3-C ) :   0.9224 B(  2-C , 12-H ) :   0.9189
B(  2-C , 13-H ) :   0.9276 B(  3-C , 14-H ) :   0.9275 B(  3-C , 15-H ) :   0.9189
B(  4-C ,  5-N ) :   1.5125 B(  4-C ,  8-N ) :   1.1436 B(  5-N ,  6-C ) :   1.2668
B(  6-C ,  7-C ) :   1.5240 B(  6-C , 16-H ) :   0.9428 B(  7-C ,  8-N ) :   1.1146
B(  7-C , 17-H ) :   0.9110 B(  8-N , 18-H ) :   0.8637

MP2 TOTAL ENERGY:     -381.425713589 Eh
FINAL SINGLE POINT ENERGY      -381.425713589321

DIPOLE MOMENT
-------------
                                X             Y             Z
Electronic contribution:     -4.69766      -3.84672      -2.32247
Nuclear contribution   :      4.37091       5.16008       2.13451
                        -----------------------------------------
Total Dipole Moment    :     -0.32675       1.31336      -0.18796
                        -----------------------------------------
Magnitude (a.u.)       :      1.36639
Magnitude (Debye)      :      3.47308

                             ****ORCA TERMINATED NORMALLY****
TOTAL RUN TIME: 0 days 0 hours 18 minutes 35 seconds 954 msec
