                         Program Version 3.0.3 - RELEASE   -
|  1> ! RI-MP2 RIJK def2-TZVP def2-TZVP/C def2-TZVP/JK TIGHTSCF
|  2> % maxcore 2000
|  3> % mp2 density relaxed end
|  4> *xyz 0 1
|  5>  C        0.0679373130     1.5229954224     0.1226673921
|  6>  C        0.0109977615     0.0289682682    -0.0256017827
|  7>  C        0.6175256552    -0.7758259726    -1.2191882858
|  8>  C        0.6193086716    -1.8346477233    -0.0707139610
|  9>  C        1.5483613640    -3.0124469793     0.0129344133
| 10>  O        0.9193060656    -0.7273652598     0.8505435862
| 11>  C       -0.9024766571    -2.0059826599     0.1630779615
| 12>  C       -1.3155151025    -0.7404090279     0.1941181832
| 13>  H        1.0812657977     1.8930712852    -0.0544036793
| 14>  H       -0.6076173935     2.0039170725    -0.5922262361
| 15>  H       -0.2348595781     1.8194174196     1.1320490993
| 16>  H        0.0011159294    -0.9556579814    -2.1028664634
| 17>  H        1.6256745244    -0.4404756642    -1.4801462181
| 18>  H        2.5823804524    -2.7055952835    -0.1653694058
| 19>  H        1.4928033999    -3.4743452656     1.0038763171
| 20>  H        1.2764034399    -3.7672651210    -0.7320633232
| 21>  H       -1.4438639618    -2.9364824196     0.2594213362
| 22>  H       -2.2999470917    -0.3134261901     0.3236985965
| 23> *
| 24>
| 25>                          ****END OF INPUT****

CARTESIAN COORDINATES (ANGSTROEM)
---------------------------------
  C      0.067937    1.522995    0.122667
  C      0.010998    0.028968   -0.025602
  C      0.617526   -0.775826   -1.219188
  C      0.619309   -1.834648   -0.070714
  C      1.548361   -3.012447    0.012934
  O      0.919306   -0.727365    0.850544
  C     -0.902477   -2.005983    0.163078
  C     -1.315515   -0.740409    0.194118
  H      1.081266    1.893071   -0.054404
  H     -0.607617    2.003917   -0.592226
  H     -0.234860    1.819417    1.132049
  H      0.001116   -0.955658   -2.102866
  H      1.625675   -0.440476   -1.480146
  H      2.582380   -2.705595   -0.165369
  H      1.492803   -3.474345    1.003876
  H      1.276403   -3.767265   -0.732063
  H     -1.443864   -2.936482    0.259421
  H     -2.299947   -0.313426    0.323699

 Total Charge           Charge          ....    0
 Multiplicity           Mult            ....    1
 Number of Electrons    NEL             ....   60
 Basis Dimension        Dim             ....  308

ORBITAL ENERGIES
----------------

  NO   OCC          E(Eh)            E(eV)
   0   2.0000     -20.536901      -558.8375
   1   2.0000     -11.294336      -307.3345
   2   2.0000     -11.294328      -307.3343
   3   2.0000     -11.228879      -305.5533
   4   2.0000     -11.228515      -305.5434
   5   2.0000     -11.227124      -305.5056
   6   2.0000     -11.220131      -305.3153
   7   2.0000     -11.220128      -305.3152
   8   2.0000      -1.381530       -37.5933
   9   2.0000      -1.090270       -29.6677
  10   2.0000      -1.032003       -28.0822
  11   2.0000      -0.989044       -26.9132
  12   2.0000      -0.949467       -25.8363
  13   2.0000      -0.836069       -22.7506
  14   2.0000      -0.753479       -20.5032
  15   2.0000      -0.725003       -19.7283
  16   2.0000      -0.656991       -17.8776
  17   2.0000      -0.649463       -17.6728
  18   2.0000      -0.608034       -16.5455
  19   2.0000      -0.579571       -15.7709
  20   2.0000      -0.575156       -15.6508
  21   2.0000      -0.571110       -15.5407
  22   2.0000      -0.551624       -15.0105
  23   2.0000      -0.529912       -14.4196
  24   2.0000      -0.499579       -13.5942
  25   2.0000      -0.480284       -13.0692
  26   2.0000      -0.476870       -12.9763
  27   2.0000      -0.431845       -11.7511
  28   2.0000      -0.411030       -11.1847
  29   2.0000      -0.347734        -9.4623
  30   0.0000       0.135258         3.6806
  31   0.0000       0.143246         3.8979
  32   0.0000       0.149391         4.0651
  33   0.0000       0.183003         4.9798
  34   0.0000       0.190843         5.1931

MULLIKEN ATOMIC CHARGES
-----------------------
   0 C :   -0.431870
   1 C :    0.173935
   2 C :   -0.123430
   3 C :    0.173829
   4 C :   -0.431894
   5 O :   -0.290852
   6 C :   -0.201870
   7 C :   -0.201968
   8 H :    0.142692
   9 H :    0.134746
  10 H :    0.144720
  11 H :    0.113917
  12 H :    0.109862
  13 H :    0.142697
  14 H :    0.144721
  15 H :    0.134746
  16 H :    0.133021
  17 H :    0.133000
Sum of atomic charges:    0.0000000

LOEWDIN ATOMIC CHARGES
----------------------
   0 C :   -0.270807
   1 C :   -0.302439
   2 C :   -0.150024
   3 C :   -0.302428
   4 C :   -0.270804
   5 O :    0.182237
   6 C :   -0.108111
   7 C :   -0.108105
   8 H :    0.131811
   9 H :    0.132986
  10 H :    0.134528
  11 H :    0.127216
  12 H :    0.134393
  13 H :    0.131814
  14 H :    0.134526
  15 H :    0.132987
  16 H :    0.135111
  17 H :    0.135110

  Mayer bond orders larger than 0.1
B(  0-C ,  1-C ) :   0.8341 B(  0-C ,  8-H ) :   0.9533 B(  0-C ,  9-H ) :   0.9370
B(  0-C , 10-H ) :   0.9429 B(  1-C ,  2-C ) :   0.9199 B(  1-C ,  5-O ) :   0.9429
B(  1-C ,  7-C ) :   0.9106 B(  2-C ,  3-C ) :   0.9199 B(  2-C , 11-H ) :   0.9034
B(  2-C , 12-H ) :   0.9209 B(  3-C ,  4-C ) :   0.8341 B(  3-C ,  5-O ) :   0.9433
B(  3-C ,  6-C ) :   0.9105 B(  4-C , 13-H ) :   0.9533 B(  4-C , 14-H ) :   0.9429
B(  4-C , 15-H ) :   0.9370 B(  6-C ,  7-C ) :   1.7870 B(  6-C , 16-H ) :   0.9332
B(  7-C , 17-H ) :   0.9332

MP2 TOTAL ENERGY:     -347.164930472 Eh
FINAL SINGLE POINT ENERGY      -347.164930472452

DIPOLE MOMENT
-------------
                                X             Y             Z
Electronic contribution:     -1.35555      -0.48497       1.75797
Nuclear contribution   :      1.05693       0.40196      -2.35739
                        -----------------------------------------
Total Dipole Moment    :     -0.29862      -0.08300      -0.59942
                        -----------------------------------------
Magnitude (a.u.)       :      0.67481
Magnitude (Debye)      :      1.71524

                             ****ORCA TERMINATED NORMALLY****
TOTAL RUN TIME: 0 days 0 hours 12 minutes 35 seconds 416 msec
