                         Program Version 3.0.3 - RELEASE   -
|  1> ! RI-MP2 RIJK def2-TZVP def2-TZVP/C def2-TZVP/JK TIGHTSCF
|  2> % maxcore 2000
|  3> % mp2 density relaxed end
|  4> *xyz 0 1
|  5>  O        0.1439663873     1.2858435905    -0.4583097044
|  6>  C       -0.0177384148    -0.0315201112     0.0221309944
|  7>  C       -1.4791878042    -0.4270416550     0.1233279436
|  8>  O       -2.0026171475    -0.3783161167    -1.2242121348
|  9>  C       -3.3142830915    -0.5624434943    -1.3624954502
| 10>  C       -4.2741815345     0.0893952177    -2.0616491922
| 11>  N       -5.4729323723    -0.6070660234    -1.9266373107
| 12>  C       -5.1838584559    -1.6065042729    -1.1660749481
| 13>  O       -3.8801479797    -1.6634471760    -0.7757658084
| 14>  H       -0.3127278768     1.3287969129    -1.3057704511
| 15>  H        0.5086802391    -0.7646345526    -0.6088964333
| 16>  H        0.4297876958    -0.0668178692     1.0206525112
| 17>  H       -1.5938895176    -1.4376437949     0.5297648487
| 18>  H       -2.0340938976     0.2847247937     0.7458077076
| 19>  H       -4.1884978248     0.9904290378    -2.6449774076
| 20>  H       -5.8310740349    -2.3852860466    -0.7956760146
| 21> *
| 22>
| 23>                          ****END OF INPUT****

CARTESIAN COORDINATES (ANGSTROEM)
---------------------------------
  O      0.143966    1.285844   -0.458310
  C     -0.017738   -0.031520    0.022131
  C     -1.479188   -0.427042    0.123328
  O     -2.002617   -0.378316   -1.224212
  C     -3.314283   -0.562443   -1.362495
  C     -4.274182    0.089395   -2.061649
  N     -5.472932   -0.607066   -1.926637
  C     -5.183858   -1.606504   -1.166075
  O     -3.880148   -1.663447   -0.775766
  H     -0.312728    1.328797   -1.305770
  H      0.508680   -0.764635   -0.608896
  H      0.429788   -0.066818    1.020653
  H     -1.593890   -1.437644    0.529765
  H     -2.034094    0.284725    0.745808
  H     -4.188498    0.990429   -2.644977
  H     -5.831074   -2.385286   -0.795676

 Total Charge           Charge          ....    0
 Multiplicity           Mult            ....    1
 Number of Electrons    NEL             ....   68
 Basis Dimension        Dim             ....  321

ORBITAL ENERGIES
----------------

  NO   OCC          E(Eh)            E(eV)
   0   2.0000     -20.646776      -561.8273
   1   2.0000     -20.613125      -560.9117
   2   2.0000     -20.564139      -559.5787
   3   2.0000     -15.572881      -423.7596
   4   2.0000     -11.360664      -309.1394
   5   2.0000     -11.335391      -308.4517
   6   2.0000     -11.305397      -307.6355
   7   2.0000     -11.291219      -307.2497
   8   2.0000     -11.257464      -306.3312
   9   2.0000      -1.508705       -41.0539
  10   2.0000      -1.428821       -38.8802
  11   2.0000      -1.370031       -37.2804
  12   2.0000      -1.238292       -33.6956
  13   2.0000      -1.058058       -28.7912
  14   2.0000      -1.001784       -27.2599
  15   2.0000      -0.875503       -23.8236
  16   2.0000      -0.857355       -23.3298
  17   2.0000      -0.809779       -22.0352
  18   2.0000      -0.765834       -20.8394
  19   2.0000      -0.714351       -19.4385
  20   2.0000      -0.692057       -18.8318
  21   2.0000      -0.678558       -18.4645
  22   2.0000      -0.671479       -18.2719
  23   2.0000      -0.623672       -16.9710
  24   2.0000      -0.607361       -16.5271
  25   2.0000      -0.597044       -16.2464
  26   2.0000      -0.594567       -16.1790
  27   2.0000      -0.559130       -15.2147
  28   2.0000      -0.518688       -14.1142
  29   2.0000      -0.500523       -13.6199
  30   2.0000      -0.463778       -12.6200
  31   2.0000      -0.462613       -12.5883
  32   2.0000      -0.457476       -12.4486
  33   2.0000      -0.332694        -9.0531
  34   0.0000       0.134006         3.6465
  35   0.0000       0.145417         3.9570
  36   0.0000       0.156506         4.2588
  37   0.0000       0.172873         4.7041
  38   0.0000       0.178447         4.8558

MULLIKEN ATOMIC CHARGES
-----------------------
   0 O :   -0.478737
   1 C :    0.000405
   2 C :   -0.090291
   3 O :   -0.312039
   4 C :    0.287837
   5 C :   -0.156429
   6 N :   -0.264255
   7 C :    0.110146
   8 O :   -0.214910
   9 H :    0.327679
  10 H :    0.109842
  11 H :    0.118499
  12 H :    0.129538
  13 H :    0.123299
  14 H :    0.148723
  15 H :    0.160694
Sum of atomic charges:    0.0000000

LOEWDIN ATOMIC CHARGES
----------------------
   0 O :   -0.041532
   1 C :   -0.354469
   2 C :   -0.286308
   3 O :    0.240682
   4 C :   -0.396917
   5 C :   -0.237807
   6 N :    0.099004
   7 C :   -0.327084
   8 O :    0.334026
   9 H :    0.178152
  10 H :    0.123143
  11 H :    0.135322
  12 H :    0.131053
  13 H :    0.130923
  14 H :    0.139624
  15 H :    0.132188

  Mayer bond orders larger than 0.1
B(  0-O ,  1-C ) :   0.9310 B(  0-O ,  9-H ) :   0.8360 B(  1-C ,  2-C ) :   0.9576
B(  1-C , 10-H ) :   0.9287 B(  1-C , 11-H ) :   0.9221 B(  2-C ,  3-O ) :   0.8158
B(  2-C , 12-H ) :   0.9221 B(  2-C , 13-H ) :   0.9142 B(  3-O ,  4-C ) :   1.0948
B(  4-C ,  5-C ) :   1.5727 B(  4-C ,  8-O ) :   1.0158 B(  5-C ,  6-N ) :   1.1661
B(  5-C , 14-H ) :   0.9322 B(  6-N ,  7-C ) :   1.6635 B(  7-C ,  8-O ) :   1.0422
B(  7-C , 15-H ) :   0.9248

MP2 TOTAL ENERGY:     -474.278817242 Eh
FINAL SINGLE POINT ENERGY      -474.278817241841

DIPOLE MOMENT
-------------
                                X             Y             Z
Electronic contribution:     -5.41311      -1.37550      -2.86525
Nuclear contribution   :      5.75879       0.78570       3.37582
                        -----------------------------------------
Total Dipole Moment    :      0.34568      -0.58980       0.51057
                        -----------------------------------------
Magnitude (a.u.)       :      0.85325
Magnitude (Debye)      :      2.16880

                             ****ORCA TERMINATED NORMALLY****
TOTAL RUN TIME: 0 days 0 hours 12 minutes 11 seconds 425 msec
