                         Program Version 3.0.3 - RELEASE   -
|  1> ! RI-MP2 RIJK def2-TZVP def2-TZVP/C def2-TZVP/JK TIGHTSCF
|  2> % maxcore 2000
|  3> % mp2 density relaxed end
|  4> *xyz 0 1
|  5>  C        0.7584729498     1.4792432798    -0.0313444502
|  6>  C       -0.0988311348     0.1932847013     0.0451552508
|  7>  C       -0.0881896793    -0.4936246030    -1.2977451631
|  8>  C        0.3124530451    -1.7032967493    -1.6866540704
|  9>  C        0.8807522648    -2.8296552784    -0.8653670329
| 10>  C        0.1854265770    -3.0923196367     0.4753576399
| 11>  C        0.3975864057    -2.0139677924     1.5153743732
| 12>  O        1.5701885928    -1.1941605916     1.3941972857
| 13>  C        0.2837106772    -0.5659695442     1.3006712644
| 14>  H        1.8128673395     1.2200913634    -0.1615915194
| 15>  H        0.4514304373     2.1058176256    -0.8738100090
| 16>  H        0.6606395607     2.0707752646     0.8849205921
| 17>  H       -1.1374352993     0.5186689816     0.2213317354
| 18>  H       -0.4594118274     0.1655866812    -2.0827512540
| 19>  H        0.2335012968    -1.9130883800    -2.7519371022
| 20>  H        0.8357664144    -3.7496319843    -1.4576559628
| 21>  H        1.9439153837    -2.6416507224    -0.6695744402
| 22>  H       -0.8923935807    -3.2359102500     0.3263377413
| 23>  H        0.5687904001    -4.0342958074     0.8875686385
| 24>  H        0.2146171909    -2.3522778235     2.5384176517
| 25>  H        0.0461132457     0.0204869156     2.1936355009
| 26> *
| 27>
| 28>                          ****END OF INPUT****

CARTESIAN COORDINATES (ANGSTROEM)
---------------------------------
  C      0.758473    1.479243   -0.031344
  C     -0.098831    0.193285    0.045155
  C     -0.088190   -0.493625   -1.297745
  C      0.312453   -1.703297   -1.686654
  C      0.880752   -2.829655   -0.865367
  C      0.185427   -3.092320    0.475358
  C      0.397586   -2.013968    1.515374
  O      1.570189   -1.194161    1.394197
  C      0.283711   -0.565970    1.300671
  H      1.812867    1.220091   -0.161592
  H      0.451430    2.105818   -0.873810
  H      0.660640    2.070775    0.884921
  H     -1.137435    0.518669    0.221332
  H     -0.459412    0.165587   -2.082751
  H      0.233501   -1.913088   -2.751937
  H      0.835766   -3.749632   -1.457656
  H      1.943915   -2.641651   -0.669574
  H     -0.892394   -3.235910    0.326338
  H      0.568790   -4.034296    0.887569
  H      0.214617   -2.352278    2.538418
  H      0.046113    0.020487    2.193636

 Total Charge           Charge          ....    0
 Multiplicity           Mult            ....    1
 Number of Electrons    NEL             ....   68
 Basis Dimension        Dim             ....  351

ORBITAL ENERGIES
----------------

  NO   OCC          E(Eh)            E(eV)
   0   2.0000     -20.558066      -559.4134
   1   2.0000     -11.282139      -307.0026
   2   2.0000     -11.281118      -306.9748
   3   2.0000     -11.242027      -305.9111
   4   2.0000     -11.229127      -305.5601
   5   2.0000     -11.225079      -305.4499
   6   2.0000     -11.223389      -305.4039
   7   2.0000     -11.222801      -305.3879
   8   2.0000     -11.216748      -305.2232
   9   2.0000      -1.402677       -38.1688
  10   2.0000      -1.102384       -29.9974
  11   2.0000      -1.061493       -28.8847
  12   2.0000      -0.997943       -27.1554
  13   2.0000      -0.928153       -25.2563
  14   2.0000      -0.891434       -24.2571
  15   2.0000      -0.846383       -23.0313
  16   2.0000      -0.765530       -20.8311
  17   2.0000      -0.710665       -19.3382
  18   2.0000      -0.704002       -19.1569
  19   2.0000      -0.645457       -17.5638
  20   2.0000      -0.626147       -17.0383
  21   2.0000      -0.613580       -16.6964
  22   2.0000      -0.580948       -15.8084
  23   2.0000      -0.562861       -15.3162
  24   2.0000      -0.544589       -14.8190
  25   2.0000      -0.541610       -14.7380
  26   2.0000      -0.515151       -14.0180
  27   2.0000      -0.506340       -13.7782
  28   2.0000      -0.495224       -13.4757
  29   2.0000      -0.468455       -12.7473
  30   2.0000      -0.466705       -12.6997
  31   2.0000      -0.436975       -11.8907
  32   2.0000      -0.412430       -11.2228
  33   2.0000      -0.345824        -9.4103
  34   0.0000       0.131288         3.5725
  35   0.0000       0.153377         4.1736
  36   0.0000       0.160409         4.3650
  37   0.0000       0.162422         4.4197
  38   0.0000       0.177704         4.8356

MULLIKEN ATOMIC CHARGES
-----------------------
   0 C :   -0.420370
   1 C :    0.106589
   2 C :   -0.242199
   3 C :   -0.193654
   4 C :   -0.158245
   5 C :   -0.175469
   6 C :    0.013388
   7 O :   -0.350593
   8 C :   -0.021414
   9 H :    0.148439
  10 H :    0.132454
  11 H :    0.127531
  12 H :    0.094020
  13 H :    0.112445
  14 H :    0.114419
  15 H :    0.126670
  16 H :    0.130721
  17 H :    0.114544
  18 H :    0.122395
  19 H :    0.109685
  20 H :    0.108643
Sum of atomic charges:   -0.0000000

LOEWDIN ATOMIC CHARGES
----------------------
   0 C :   -0.277232
   1 C :   -0.255150
   2 C :   -0.155217
   3 C :   -0.174982
   4 C :   -0.253522
   5 C :   -0.246097
   6 C :   -0.262618
   7 O :    0.159809
   8 C :   -0.246833
   9 H :    0.130378
  10 H :    0.122832
  11 H :    0.122935
  12 H :    0.168680
  13 H :    0.150591
  14 H :    0.145623
  15 H :    0.143047
  16 H :    0.154591
  17 H :    0.147786
  18 H :    0.144379
  19 H :    0.138229
  20 H :    0.142771

  Mayer bond orders larger than 0.1
B(  0-C ,  1-C ) :   0.8709 B(  0-C ,  9-H ) :   0.9340 B(  0-C , 10-H ) :   0.9386
B(  0-C , 11-H ) :   0.9336 B(  1-C ,  2-C ) :   0.9120 B(  1-C ,  8-C ) :   0.9238
B(  1-C , 12-H ) :   0.9066 B(  2-C ,  3-C ) :   1.8310 B(  2-C , 13-H ) :   0.9255
B(  3-C ,  4-C ) :   0.9429 B(  3-C , 14-H ) :   0.9272 B(  4-C ,  5-C ) :   0.9191
B(  4-C , 15-H ) :   0.9318 B(  4-C , 16-H ) :   0.9072 B(  5-C ,  6-C ) :   0.9331
B(  5-C , 17-H ) :   0.9110 B(  5-C , 18-H ) :   0.9271 B(  6-C ,  7-O ) :   0.8931
B(  6-C ,  8-C ) :   0.9822 B(  6-C , 19-H ) :   0.9229 B(  7-O ,  8-C ) :   0.8815
B(  8-C , 20-H ) :   0.9205

MP2 TOTAL ENERGY:     -386.399881565 Eh
FINAL SINGLE POINT ENERGY      -386.399881564794

DIPOLE MOMENT
-------------
                                X             Y             Z
Electronic contribution:      0.87083      -1.62944       2.17725
Nuclear contribution   :     -1.50385       1.54592      -2.21069
                        -----------------------------------------
Total Dipole Moment    :     -0.63302      -0.08353      -0.03344
                        -----------------------------------------
Magnitude (a.u.)       :      0.63938
Magnitude (Debye)      :      1.62517

                             ****ORCA TERMINATED NORMALLY****
TOTAL RUN TIME: 0 days 0 hours 18 minutes 45 seconds 182 msec
