                         Program Version 3.0.3 - RELEASE   -
|  1> ! RI-MP2 RIJK def2-TZVP def2-TZVP/C def2-TZVP/JK TIGHTSCF
|  2> % maxcore 2000
|  3> % mp2 density relaxed end
|  4> *xyz 0 1
|  5>  C        0.0294202755     1.5891409144     0.0172990843
|  6>  C        0.0569458488     0.0482990595    -0.0189123850
|  7>  C        0.7095815151    -0.4539668017    -1.3220271243
|  8>  C        0.7294324350    -0.5269171387     1.1999435797
|  9>  C        0.2163734874    -1.3197641954     2.1457934925
| 10>  C       -1.1627399508    -1.8782163987     2.2937830681
| 11>  C        1.2794586555    -1.6337837858     3.1666228403
| 12>  O        2.4521431050    -0.9602341516     2.7328440180
| 13>  C        2.1810423906    -0.2554056260     1.5274903721
| 14>  H        1.0406003419     2.0078976769    -0.0249294612
| 15>  H       -0.5264011794     1.9829568755    -0.8399844448
| 16>  H       -0.4479869538     1.9556986734     0.9309586057
| 17>  H       -0.9836512573    -0.2973854613    -0.0200510561
| 18>  H        1.7443915712    -0.1061566467    -1.4104423708
| 19>  H        0.7178667292    -1.5471710476    -1.3653580876
| 20>  H        0.1612184904    -0.0818388546    -2.1936865472
| 21>  H       -1.1433253275    -2.9755693775     2.3119671196
| 22>  H       -1.6167098264    -1.5601722237     3.2412354702
| 23>  H       -1.8278884410    -1.5691323833     1.4841904584
| 24>  H        0.9974203545    -1.2902349515     4.1766205630
| 25>  H        1.4728367591    -2.7173600598     3.2433975660
| 26>  H        2.8636671428    -0.6035647809     0.7356120774
| 27>  H        2.3854617143     0.8176408549     1.6733300318
| 28> *
| 29>
| 30>                          ****END OF INPUT****

CARTESIAN COORDINATES (ANGSTROEM)
---------------------------------
  C      0.029420    1.589141    0.017299
  C      0.056946    0.048299   -0.018912
  C      0.709582   -0.453967   -1.322027
  C      0.729432   -0.526917    1.199944
  C      0.216373   -1.319764    2.145793
  C     -1.162740   -1.878216    2.293783
  C      1.279459   -1.633784    3.166623
  O      2.452143   -0.960234    2.732844
  C      2.181042   -0.255406    1.527490
  H      1.040600    2.007898   -0.024929
  H     -0.526401    1.982957   -0.839984
  H     -0.447987    1.955699    0.930959
  H     -0.983651   -0.297385   -0.020051
  H      1.744392   -0.106157   -1.410442
  H      0.717867   -1.547171   -1.365358
  H      0.161218   -0.081839   -2.193687
  H     -1.143325   -2.975569    2.311967
  H     -1.616710   -1.560172    3.241235
  H     -1.827888   -1.569132    1.484190
  H      0.997420   -1.290235    4.176621
  H      1.472837   -2.717360    3.243398
  H      2.863667   -0.603565    0.735612
  H      2.385462    0.817641    1.673330

 Total Charge           Charge          ....    0
 Multiplicity           Mult            ....    1
 Number of Electrons    NEL             ....   70
 Basis Dimension        Dim             ....  363

ORBITAL ENERGIES
----------------

  NO   OCC          E(Eh)            E(eV)
   0   2.0000     -20.543418      -559.0148
   1   2.0000     -11.270272      -306.6797
   2   2.0000     -11.270178      -306.6771
   3   2.0000     -11.237942      -305.7999
   4   2.0000     -11.228159      -305.5337
   5   2.0000     -11.227369      -305.5122
   6   2.0000     -11.223626      -305.4104
   7   2.0000     -11.217831      -305.2527
   8   2.0000     -11.217802      -305.2519
   9   2.0000      -1.369731       -37.2723
  10   2.0000      -1.113241       -30.2928
  11   2.0000      -1.052870       -28.6501
  12   2.0000      -0.983740       -26.7689
  13   2.0000      -0.936655       -25.4877
  14   2.0000      -0.932590       -25.3771
  15   2.0000      -0.844977       -22.9930
  16   2.0000      -0.794874       -21.6296
  17   2.0000      -0.706331       -19.2203
  18   2.0000      -0.661675       -18.0051
  19   2.0000      -0.654501       -17.8099
  20   2.0000      -0.626715       -17.0538
  21   2.0000      -0.594668       -16.1817
  22   2.0000      -0.577379       -15.7113
  23   2.0000      -0.568827       -15.4786
  24   2.0000      -0.567681       -15.4474
  25   2.0000      -0.557378       -15.1670
  26   2.0000      -0.552312       -15.0292
  27   2.0000      -0.533793       -14.5253
  28   2.0000      -0.518415       -14.1068
  29   2.0000      -0.488576       -13.2948
  30   2.0000      -0.486253       -13.2316
  31   2.0000      -0.463467       -12.6116
  32   2.0000      -0.454438       -12.3659
  33   2.0000      -0.420298       -11.4369
  34   2.0000      -0.328857        -8.9487
  35   0.0000       0.126779         3.4498
  36   0.0000       0.147725         4.0198
  37   0.0000       0.165308         4.4983
  38   0.0000       0.168204         4.5771
  39   0.0000       0.175544         4.7768

MULLIKEN ATOMIC CHARGES
-----------------------
   0 C :   -0.418222
   1 C :   -0.007598
   2 C :   -0.417915
   3 C :   -0.020550
   4 C :   -0.053034
   5 C :   -0.415082
   6 C :    0.022289
   7 O :   -0.342568
   8 C :   -0.039564
   9 H :    0.126039
  10 H :    0.132660
  11 H :    0.138072
  12 H :    0.076747
  13 H :    0.125910
  14 H :    0.138064
  15 H :    0.132624
  16 H :    0.142879
  17 H :    0.142840
  18 H :    0.133685
  19 H :    0.095273
  20 H :    0.095513
  21 H :    0.106023
  22 H :    0.105915
Sum of atomic charges:   -0.0000000

LOEWDIN ATOMIC CHARGES
----------------------
   0 C :   -0.284906
   1 C :   -0.268561
   2 C :   -0.284881
   3 C :   -0.133790
   4 C :   -0.174437
   5 C :   -0.271351
   6 C :   -0.265079
   7 O :    0.149530
   8 C :   -0.258642
   9 H :    0.122636
  10 H :    0.123364
  11 H :    0.125392
  12 H :    0.154677
  13 H :    0.122612
  14 H :    0.125394
  15 H :    0.123356
  16 H :    0.133102
  17 H :    0.133103
  18 H :    0.127681
  19 H :    0.124770
  20 H :    0.124821
  21 H :    0.125623
  22 H :    0.125585

  Mayer bond orders larger than 0.1
B(  0-C ,  1-C ) :   0.9087 B(  0-C ,  9-H ) :   0.9321 B(  0-C , 10-H ) :   0.9373
B(  0-C , 11-H ) :   0.9389 B(  1-C ,  2-C ) :   0.9089 B(  1-C ,  3-C ) :   0.8861
B(  1-C , 12-H ) :   0.9435 B(  2-C , 13-H ) :   0.9321 B(  2-C , 14-H ) :   0.9389
B(  2-C , 15-H ) :   0.9373 B(  3-C ,  4-C ) :   1.7145 B(  3-C ,  8-C ) :   0.9608
B(  4-C ,  5-C ) :   0.8727 B(  4-C ,  6-C ) :   0.9892 B(  5-C , 16-H ) :   0.9330
B(  5-C , 17-H ) :   0.9329 B(  5-C , 18-H ) :   0.9490 B(  6-C ,  7-O ) :   0.9438
B(  6-C , 19-H ) :   0.9088 B(  6-C , 20-H ) :   0.9089 B(  7-O ,  8-C ) :   0.9346
B(  8-C , 21-H ) :   0.9158 B(  8-C , 22-H ) :   0.9159

MP2 TOTAL ENERGY:     -387.623156300 Eh
FINAL SINGLE POINT ENERGY      -387.623156299784

DIPOLE MOMENT
-------------
                                X             Y             Z
Electronic contribution:      4.34110      -2.13842       5.45933
Nuclear contribution   :     -5.07651       2.14547      -5.84093
                        -----------------------------------------
Total Dipole Moment    :     -0.73540       0.00704      -0.38161
                        -----------------------------------------
Magnitude (a.u.)       :      0.82855
Magnitude (Debye)      :      2.10600

                             ****ORCA TERMINATED NORMALLY****
TOTAL RUN TIME: 0 days 0 hours 21 minutes 13 seconds 522 msec
