                         Program Version 3.0.3 - RELEASE   -
|  1> ! RI-MP2 RIJK def2-TZVP def2-TZVP/C def2-TZVP/JK TIGHTSCF
|  2> % maxcore 2000
|  3> % mp2 density relaxed end
|  4> *xyz 0 1
|  5>  C       -0.1686524512     1.6331730839    -0.2705330022
|  6>  C        0.0588081854     0.1418315977    -0.1090711610
|  7>  N        1.0359817174    -0.5209514891    -1.0587398463
|  8>  C        2.3832617114    -0.0626541622    -0.6753444369
|  9>  C        1.7415692301    -1.1041729239     0.1512582667
| 10>  C        0.7730435451    -0.4593792652     1.1343954701
| 11>  C        1.2205204734     0.2981768592     2.4017954932
| 12>  C        0.3574608311    -0.7316758921     3.1525483208
| 13>  O       -0.0375749703    -1.3598065218     1.9132299596
| 14>  H        0.7413628878     2.2201007963    -0.1128521992
| 15>  H       -0.5390176940     1.8500190321    -1.2776721731
| 16>  H       -0.9191000810     1.9829607220     0.4464639844
| 17>  H       -0.8880955932    -0.3957697609    -0.2168479922
| 18>  H        3.1492585235    -0.3746805421    -1.3787089286
| 19>  H        2.5278344106     0.9374932185    -0.2734460524
| 20>  H        2.0683222386    -2.1381624941     0.1896173233
| 21>  H        2.2928374421     0.2636459741     2.6033610994
| 22>  H        0.8758306707     1.3320998279     2.4670498607
| 23>  H        0.9014491855    -1.4245116430     3.8053729513
| 24>  H       -0.5048823929    -0.3319901273     3.6983615321
| 25> *
| 26>
| 27>                          ****END OF INPUT****

CARTESIAN COORDINATES (ANGSTROEM)
---------------------------------
  C     -0.168652    1.633173   -0.270533
  C      0.058808    0.141832   -0.109071
  N      1.035982   -0.520951   -1.058740
  C      2.383262   -0.062654   -0.675344
  C      1.741569   -1.104173    0.151258
  C      0.773044   -0.459379    1.134395
  C      1.220520    0.298177    2.401795
  C      0.357461   -0.731676    3.152548
  O     -0.037575   -1.359807    1.913230
  H      0.741363    2.220101   -0.112852
  H     -0.539018    1.850019   -1.277672
  H     -0.919100    1.982961    0.446464
  H     -0.888096   -0.395770   -0.216848
  H      3.149259   -0.374681   -1.378709
  H      2.527834    0.937493   -0.273446
  H      2.068322   -2.138162    0.189617
  H      2.292837    0.263646    2.603361
  H      0.875831    1.332100    2.467050
  H      0.901449   -1.424512    3.805373
  H     -0.504882   -0.331990    3.698362

 Total Charge           Charge          ....    0
 Multiplicity           Mult            ....    1
 Number of Electrons    NEL             ....   68
 Basis Dimension        Dim             ....  345

ORBITAL ENERGIES
----------------

  NO   OCC          E(Eh)            E(eV)
   0   2.0000     -20.551701      -559.2402
   1   2.0000     -15.559197      -423.3873
   2   2.0000     -11.293980      -307.3248
   3   2.0000     -11.282870      -307.0225
   4   2.0000     -11.258430      -306.3575
   5   2.0000     -11.257829      -306.3411
   6   2.0000     -11.257661      -306.3365
   7   2.0000     -11.235018      -305.7204
   8   2.0000     -11.221633      -305.3562
   9   2.0000      -1.386351       -37.7245
  10   2.0000      -1.286177       -34.9987
  11   2.0000      -1.036467       -28.2037
  12   2.0000      -1.013635       -27.5824
  13   2.0000      -0.956932       -26.0394
  14   2.0000      -0.905240       -24.6328
  15   2.0000      -0.833750       -22.6875
  16   2.0000      -0.797937       -21.7130
  17   2.0000      -0.720240       -19.5987
  18   2.0000      -0.695674       -18.9303
  19   2.0000      -0.680554       -18.5188
  20   2.0000      -0.637896       -17.3580
  21   2.0000      -0.622433       -16.9373
  22   2.0000      -0.589382       -16.0379
  23   2.0000      -0.569387       -15.4938
  24   2.0000      -0.558566       -15.1994
  25   2.0000      -0.545254       -14.8371
  26   2.0000      -0.540601       -14.7105
  27   2.0000      -0.507817       -13.8184
  28   2.0000      -0.491278       -13.3683
  29   2.0000      -0.469781       -12.7834
  30   2.0000      -0.452188       -12.3047
  31   2.0000      -0.426496       -11.6055
  32   2.0000      -0.406661       -11.0658
  33   2.0000      -0.363006        -9.8779
  34   0.0000       0.131908         3.5894
  35   0.0000       0.154896         4.2149
  36   0.0000       0.163741         4.4556
  37   0.0000       0.175805         4.7839
  38   0.0000       0.185622         5.0510

MULLIKEN ATOMIC CHARGES
-----------------------
   0 C :   -0.423820
   1 C :   -0.000138
   2 N :   -0.226537
   3 C :   -0.154571
   4 C :   -0.160878
   5 C :    0.238223
   6 C :   -0.291157
   7 C :   -0.013181
   8 O :   -0.333716
   9 H :    0.118308
  10 H :    0.151875
  11 H :    0.137450
  12 H :    0.110548
  13 H :    0.131928
  14 H :    0.121828
  15 H :    0.135880
  16 H :    0.130364
  17 H :    0.130167
  18 H :    0.098397
  19 H :    0.099031
Sum of atomic charges:   -0.0000000

LOEWDIN ATOMIC CHARGES
----------------------
   0 C :   -0.297567
   1 C :   -0.237132
   2 N :    0.117631
   3 C :   -0.248294
   4 C :   -0.181482
   5 C :   -0.276772
   6 C :   -0.209083
   7 C :   -0.267764
   8 O :    0.162596
   9 H :    0.120790
  10 H :    0.132804
  11 H :    0.129549
  12 H :    0.157339
  13 H :    0.133441
  14 H :    0.124697
  15 H :    0.136685
  16 H :    0.135090
  17 H :    0.134367
  18 H :    0.116762
  19 H :    0.116343

  Mayer bond orders larger than 0.1
B(  0-C ,  1-C ) :   0.9242 B(  0-C ,  9-H ) :   0.9250 B(  0-C , 10-H ) :   0.9370
B(  0-C , 11-H ) :   0.9382 B(  1-C ,  2-N ) :   0.9296 B(  1-C ,  5-C ) :   0.9477
B(  1-C , 12-H ) :   0.9013 B(  2-N ,  3-C ) :   0.8749 B(  2-N ,  4-C ) :   0.9242
B(  3-C ,  4-C ) :   0.9235 B(  3-C , 13-H ) :   0.9303 B(  3-C , 14-H ) :   0.9055
B(  4-C ,  5-C ) :   0.9467 B(  4-C , 15-H ) :   0.8891 B(  5-C ,  6-C ) :   0.8999
B(  5-C ,  8-O ) :   0.9608 B(  6-C ,  7-C ) :   0.9881 B(  6-C , 16-H ) :   0.9197
B(  6-C , 17-H ) :   0.9214 B(  7-C ,  8-O ) :   0.9420 B(  7-C , 18-H ) :   0.9146
B(  7-C , 19-H ) :   0.9154

MP2 TOTAL ENERGY:     -402.390006502 Eh
FINAL SINGLE POINT ENERGY      -402.390006501969

DIPOLE MOMENT
-------------
                                X             Y             Z
Electronic contribution:     -0.32982      -5.22539      -0.73642
Nuclear contribution   :      0.83717       6.01176       1.48580
                        -----------------------------------------
Total Dipole Moment    :      0.50735       0.78638       0.74938
                        -----------------------------------------
Magnitude (a.u.)       :      1.19890
Magnitude (Debye)      :      3.04737

                             ****ORCA TERMINATED NORMALLY****
TOTAL RUN TIME: 0 days 0 hours 19 minutes 40 seconds 473 msec
