                         Program Version 3.0.3 - RELEASE   -
|  1> ! RI-MP2 RIJK def2-TZVP def2-TZVP/C def2-TZVP/JK TIGHTSCF
|  2> % maxcore 2000
|  3> % mp2 density relaxed end
|  4> *xyz 0 1
|  5>  O        0.0173399570    -0.0061910537     0.1061049389
|  6>  C        0.0114370393     1.1936444136    -0.0108264842
|  7>  N       -1.0897059229     2.0382961008    -0.0570115349
|  8>  C       -0.6152737387     3.4360836973     0.0148113031
|  9>  C        0.6264994848     3.3291699624    -0.8902818546
| 10>  C        1.2093886643     2.1815901457    -0.0441449841
| 11>  N        1.2119360380     2.8340509819     1.2818741092
| 12>  C        0.0434859489     3.5724132863     1.4147024030
| 13>  O       -0.3792927436     4.1137813833     2.4054043942
| 14>  H       -1.9520957766     1.7537659047     0.3848586367
| 15>  H       -1.3864157437     4.1663038974    -0.2143287245
| 16>  H        0.3742388940     3.0385435459    -1.9112473010
| 17>  H        1.2580186756     4.2188245050    -0.8773586139
| 18>  H        2.1682734827     1.7478917003    -0.3140185387
| 19>  H        1.6032921810     2.3746989291     2.0916640107
| 20> *
| 21>
| 22>                          ****END OF INPUT****

CARTESIAN COORDINATES (ANGSTROEM)
---------------------------------
  O      0.017340   -0.006191    0.106105
  C      0.011437    1.193644   -0.010826
  N     -1.089706    2.038296   -0.057012
  C     -0.615274    3.436084    0.014811
  C      0.626499    3.329170   -0.890282
  C      1.209389    2.181590   -0.044145
  N      1.211936    2.834051    1.281874
  C      0.043486    3.572413    1.414702
  O     -0.379293    4.113781    2.405404
  H     -1.952096    1.753766    0.384859
  H     -1.386416    4.166304   -0.214329
  H      0.374239    3.038544   -1.911247
  H      1.258019    4.218825   -0.877359
  H      2.168273    1.747892   -0.314019
  H      1.603292    2.374699    2.091664

 Total Charge           Charge          ....    0
 Multiplicity           Mult            ....    1
 Number of Electrons    NEL             ....   66
 Basis Dimension        Dim             ....  315

ORBITAL ENERGIES
----------------

  NO   OCC          E(Eh)            E(eV)
   0   2.0000     -20.546609      -559.1017
   1   2.0000     -20.546609      -559.1017
   2   2.0000     -15.603511      -424.5931
   3   2.0000     -15.603504      -424.5929
   4   2.0000     -11.368192      -309.3442
   5   2.0000     -11.368188      -309.3441
   6   2.0000     -11.309275      -307.7410
   7   2.0000     -11.309269      -307.7408
   8   2.0000     -11.267926      -306.6159
   9   2.0000      -1.415467       -38.5168
  10   2.0000      -1.401683       -38.1417
  11   2.0000      -1.309566       -35.6351
  12   2.0000      -1.230489       -33.4833
  13   2.0000      -1.062358       -28.9082
  14   2.0000      -1.004007       -27.3204
  15   2.0000      -0.870779       -23.6951
  16   2.0000      -0.838289       -22.8110
  17   2.0000      -0.794528       -21.6202
  18   2.0000      -0.723222       -19.6799
  19   2.0000      -0.715737       -19.4762
  20   2.0000      -0.671783       -18.2801
  21   2.0000      -0.659209       -17.9380
  22   2.0000      -0.611165       -16.6306
  23   2.0000      -0.608652       -16.5623
  24   2.0000      -0.594523       -16.1778
  25   2.0000      -0.589070       -16.0294
  26   2.0000      -0.564719       -15.3668
  27   2.0000      -0.555094       -15.1049
  28   2.0000      -0.532446       -14.4886
  29   2.0000      -0.468828       -12.7575
  30   2.0000      -0.456111       -12.4114
  31   2.0000      -0.411398       -11.1947
  32   2.0000      -0.393592       -10.7102
  33   0.0000       0.124892         3.3985
  34   0.0000       0.133301         3.6273
  35   0.0000       0.151228         4.1151
  36   0.0000       0.159582         4.3424
  37   0.0000       0.175584         4.7779

MULLIKEN ATOMIC CHARGES
-----------------------
   0 O :   -0.296621
   1 C :    0.138956
   2 N :   -0.317986
   3 C :    0.064618
   4 C :   -0.296228
   5 C :    0.064654
   6 N :   -0.317980
   7 C :    0.138973
   8 O :   -0.296632
   9 H :    0.250393
  10 H :    0.163030
  11 H :    0.145696
  12 H :    0.145697
  13 H :    0.163031
  14 H :    0.250397
Sum of atomic charges:   -0.0000000

LOEWDIN ATOMIC CHARGES
----------------------
   0 O :    0.113955
   1 C :   -0.417568
   2 N :    0.128694
   3 C :   -0.213636
   4 C :   -0.190603
   5 C :   -0.213634
   6 N :    0.128690
   7 C :   -0.417566
   8 O :    0.113953
   9 H :    0.188021
  10 H :    0.149251
  11 H :    0.146585
  12 H :    0.146585
  13 H :    0.149250
  14 H :    0.188022

  Mayer bond orders larger than 0.1
B(  0-O ,  1-C ) :   2.0305 B(  1-C ,  2-N ) :   1.1612 B(  1-C ,  5-C ) :   0.8793
B(  2-N ,  3-C ) :   0.8641 B(  2-N ,  9-H ) :   0.8563 B(  3-C ,  4-C ) :   0.9178
B(  3-C ,  7-C ) :   0.8793 B(  3-C , 10-H ) :   0.9086 B(  4-C ,  5-C ) :   0.9178
B(  4-C , 11-H ) :   0.9118 B(  4-C , 12-H ) :   0.9118 B(  5-C ,  6-N ) :   0.8641
B(  5-C , 13-H ) :   0.9086 B(  6-N ,  7-C ) :   1.1612 B(  6-N , 14-H ) :   0.8563
B(  7-C ,  8-O ) :   2.0304

MP2 TOTAL ENERGY:     -453.280997936 Eh
FINAL SINGLE POINT ENERGY      -453.280997936214

DIPOLE MOMENT
-------------
                                X             Y             Z
Electronic contribution:     -1.02329      -1.61623       2.71992
Nuclear contribution   :      1.33397       2.10703      -3.54570
                        -----------------------------------------
Total Dipole Moment    :      0.31068       0.49080      -0.82577
                        -----------------------------------------
Magnitude (a.u.)       :      1.00961
Magnitude (Debye)      :      2.56622

                             ****ORCA TERMINATED NORMALLY****
TOTAL RUN TIME: 0 days 0 hours 16 minutes 16 seconds 980 msec
