                         Program Version 3.0.3 - RELEASE   -
|  1> ! RI-MP2 RIJK def2-TZVP def2-TZVP/C def2-TZVP/JK TIGHTSCF
|  2> % maxcore 2000
|  3> % mp2 density relaxed end
|  4> *xyz 0 1
|  5>  C       -0.3307722169     1.5697956435    -0.0465186525
|  6>  C        0.0715430386     0.0874419987    -0.0005266874
|  7>  C       -1.1892911618    -0.8059234392     0.0397043220
|  8>  N        0.8089263431    -0.2241674613    -1.2305664759
|  9>  C        1.9417369699    -0.7763632721    -1.1899296059
| 10>  O        2.6671525890    -1.2068751774    -0.1298407170
| 11>  C        2.0247980982    -1.1812712636     1.1466373722
| 12>  C        0.8730222778    -0.1899530433     1.2710105258
| 13>  O        0.6022537327     0.2818470738     2.3495030677
| 14>  H        0.5538782674     2.2074921462    -0.1279790157
| 15>  H       -0.9611328640     1.7478975783    -0.9209713714
| 16>  H       -0.8723620216     1.8424724642     0.8613255034
| 17>  H       -1.7510404603    -0.6649866030    -0.8874081628
| 18>  H       -0.9249235974    -1.8654885621     0.1146815023
| 19>  H       -1.8195575789    -0.5392907126     0.8918810500
| 20>  H        2.4985398167    -0.9672706364    -2.1055513086
| 21>  H        1.6311585301    -2.1855822093     1.3628982173
| 22>  H        2.7822440273    -0.9457795643     1.8964761564
| 23> *
| 24>
| 25>                          ****END OF INPUT****

CARTESIAN COORDINATES (ANGSTROEM)
---------------------------------
  C     -0.330772    1.569796   -0.046519
  C      0.071543    0.087442   -0.000527
  C     -1.189291   -0.805923    0.039704
  N      0.808926   -0.224167   -1.230566
  C      1.941737   -0.776363   -1.189930
  O      2.667153   -1.206875   -0.129841
  C      2.024798   -1.181271    1.146637
  C      0.873022   -0.189953    1.271011
  O      0.602254    0.281847    2.349503
  H      0.553878    2.207492   -0.127979
  H     -0.961133    1.747898   -0.920971
  H     -0.872362    1.842472    0.861326
  H     -1.751040   -0.664987   -0.887408
  H     -0.924924   -1.865489    0.114682
  H     -1.819558   -0.539291    0.891881
  H      2.498540   -0.967271   -2.105551
  H      1.631159   -2.185582    1.362898
  H      2.782244   -0.945780    1.896476

 Total Charge           Charge          ....    0
 Multiplicity           Mult            ....    1
 Number of Electrons    NEL             ....   68
 Basis Dimension        Dim             ....  333

ORBITAL ENERGIES
----------------

  NO   OCC          E(Eh)            E(eV)
   0   2.0000     -20.615552      -560.9777
   1   2.0000     -20.563680      -559.5662
   2   2.0000     -15.559246      -423.3886
   3   2.0000     -11.347558      -308.7828
   4   2.0000     -11.344694      -308.7048
   5   2.0000     -11.313932      -307.8678
   6   2.0000     -11.288098      -307.1648
   7   2.0000     -11.232036      -305.6392
   8   2.0000     -11.220469      -305.3245
   9   2.0000      -1.448827       -39.4246
  10   2.0000      -1.406728       -38.2790
  11   2.0000      -1.238927       -33.7129
  12   2.0000      -1.082869       -29.4664
  13   2.0000      -1.013700       -27.5842
  14   2.0000      -0.946176       -25.7468
  15   2.0000      -0.870626       -23.6909
  16   2.0000      -0.854285       -23.2463
  17   2.0000      -0.738226       -20.0881
  18   2.0000      -0.722755       -19.6672
  19   2.0000      -0.703261       -19.1367
  20   2.0000      -0.670183       -18.2366
  21   2.0000      -0.622429       -16.9372
  22   2.0000      -0.614936       -16.7333
  23   2.0000      -0.599006       -16.2998
  24   2.0000      -0.581626       -15.8268
  25   2.0000      -0.569108       -15.4862
  26   2.0000      -0.550588       -14.9823
  27   2.0000      -0.534643       -14.5484
  28   2.0000      -0.528223       -14.3737
  29   2.0000      -0.518110       -14.0985
  30   2.0000      -0.486886       -13.2488
  31   2.0000      -0.467735       -12.7277
  32   2.0000      -0.405496       -11.0341
  33   2.0000      -0.392752       -10.6873
  34   0.0000       0.115285         3.1371
  35   0.0000       0.133481         3.6322
  36   0.0000       0.156651         4.2627
  37   0.0000       0.166433         4.5289
  38   0.0000       0.179633         4.8881

MULLIKEN ATOMIC CHARGES
-----------------------
   0 C :   -0.383941
   1 C :    0.196676
   2 C :   -0.409690
   3 N :   -0.291098
   4 C :    0.077669
   5 O :   -0.254072
   6 C :   -0.049701
   7 C :    0.114781
   8 O :   -0.269560
   9 H :    0.130175
  10 H :    0.141544
  11 H :    0.145786
  12 H :    0.149031
  13 H :    0.126278
  14 H :    0.146580
  15 H :    0.141719
  16 H :    0.133395
  17 H :    0.154427
Sum of atomic charges:   -0.0000000

LOEWDIN ATOMIC CHARGES
----------------------
   0 C :   -0.255620
   1 C :   -0.339644
   2 C :   -0.251023
   3 N :    0.122503
   4 C :   -0.355869
   5 O :    0.224404
   6 C :   -0.243494
   7 C :   -0.289711
   8 O :    0.174313
   9 H :    0.128794
  10 H :    0.131063
  11 H :    0.132490
  12 H :    0.134392
  13 H :    0.125459
  14 H :    0.133071
  15 H :    0.137143
  16 H :    0.145595
  17 H :    0.146135

  Mayer bond orders larger than 0.1
B(  0-C ,  1-C ) :   0.9056 B(  0-C ,  9-H ) :   0.9303 B(  0-C , 10-H ) :   0.9340
B(  0-C , 11-H ) :   0.9281 B(  1-C ,  2-C ) :   0.8885 B(  1-C ,  3-N ) :   0.8347
B(  1-C ,  7-C ) :   0.8647 B(  2-C , 12-H ) :   0.9306 B(  2-C , 13-H ) :   0.9240
B(  2-C , 14-H ) :   0.9327 B(  3-N ,  4-C ) :   1.8686 B(  4-C ,  5-O ) :   1.0586
B(  4-C , 15-H ) :   0.9233 B(  5-O ,  6-C ) :   0.8678 B(  6-C ,  7-C ) :   0.9262
B(  6-C , 16-H ) :   0.9073 B(  6-C , 17-H ) :   0.9242 B(  7-C ,  8-O ) :   2.0138

MP2 TOTAL ENERGY:     -438.389842374 Eh
FINAL SINGLE POINT ENERGY      -438.389842374352

DIPOLE MOMENT
-------------
                                X             Y             Z
Electronic contribution:      5.98926      -1.50187       1.10074
Nuclear contribution   :     -5.91696       1.02599      -1.22488
                        -----------------------------------------
Total Dipole Moment    :      0.07230      -0.47588      -0.12414
                        -----------------------------------------
Magnitude (a.u.)       :      0.49709
Magnitude (Debye)      :      1.26351

                             ****ORCA TERMINATED NORMALLY****
TOTAL RUN TIME: 0 days 0 hours 20 minutes 18 seconds 88 msec
