                         Program Version 3.0.3 - RELEASE   -
|  1> ! RI-MP2 RIJK def2-TZVP def2-TZVP/C def2-TZVP/JK TIGHTSCF
|  2> % maxcore 2000
|  3> % mp2 density relaxed end
|  4> *xyz 0 1
|  5>  C        0.0183967245     1.6160911265    -0.0277126715
|  6>  C        1.5535929987     1.5484255282    -0.0167212339
|  7>  O        1.9381805695     0.7910715054    -1.1763097035
|  8>  C        1.5420427027     0.0740758566    -0.0045701348
|  9>  C        2.4146694416    -1.0124252839     0.5414588246
| 10>  C        1.6581445146    -1.8605341847     1.5334798479
| 11>  C        0.3845592716    -1.6703740546     1.8786597254
| 12>  C       -0.4971276511    -0.5555750406     1.3670130047
| 13>  C        0.0033272708     0.0455566464     0.0424912344
| 14>  H       -0.4140277420     2.0830113869     0.8608568589
| 15>  H       -0.4045163333     2.0747225477    -0.9246172052
| 16>  H        2.2762284760     2.2617271572     0.3648482094
| 17>  H        2.7647217096    -1.6433680625    -0.2885230414
| 18>  H        3.3233300131    -0.5971372471     0.9969734690
| 19>  H        2.2147822945    -2.6817198862     1.9781489127
| 20>  H       -0.0653534293    -2.3391368997     2.6089575975
| 21>  H       -1.5262082870    -0.9162836340     1.2541977894
| 22>  H       -0.5498242181     0.2232309762     2.1420454648
| 23>  H       -0.4529627363    -0.4611620378    -0.8124886785
| 24> *
| 25>
| 26>                          ****END OF INPUT****

CARTESIAN COORDINATES (ANGSTROEM)
---------------------------------
  C      0.018397    1.616091   -0.027713
  C      1.553593    1.548426   -0.016721
  O      1.938181    0.791072   -1.176310
  C      1.542043    0.074076   -0.004570
  C      2.414669   -1.012425    0.541459
  C      1.658145   -1.860534    1.533480
  C      0.384559   -1.670374    1.878660
  C     -0.497128   -0.555575    1.367013
  C      0.003327    0.045557    0.042491
  H     -0.414028    2.083011    0.860857
  H     -0.404516    2.074723   -0.924617
  H      2.276228    2.261727    0.364848
  H      2.764722   -1.643368   -0.288523
  H      3.323330   -0.597137    0.996973
  H      2.214782   -2.681720    1.978149
  H     -0.065353   -2.339137    2.608958
  H     -1.526208   -0.916284    1.254198
  H     -0.549824    0.223231    2.142045
  H     -0.452963   -0.461162   -0.812489

 Total Charge           Charge          ....    0
 Multiplicity           Mult            ....    1
 Number of Electrons    NEL             ....   66
 Basis Dimension        Dim             ....  339

ORBITAL ENERGIES
----------------

  NO   OCC          E(Eh)            E(eV)
   0   2.0000     -20.559904      -559.4634
   1   2.0000     -11.282903      -307.0234
   2   2.0000     -11.280972      -306.9708
   3   2.0000     -11.235627      -305.7370
   4   2.0000     -11.234609      -305.7092
   5   2.0000     -11.232769      -305.6592
   6   2.0000     -11.231863      -305.6345
   7   2.0000     -11.230144      -305.5878
   8   2.0000     -11.229966      -305.5829
   9   2.0000      -1.412490       -38.4358
  10   2.0000      -1.125363       -30.6227
  11   2.0000      -1.064190       -28.9581
  12   2.0000      -1.003195       -27.2983
  13   2.0000      -0.941603       -25.6223
  14   2.0000      -0.852518       -23.1982
  15   2.0000      -0.845907       -23.0183
  16   2.0000      -0.764729       -20.8093
  17   2.0000      -0.702127       -19.1059
  18   2.0000      -0.680713       -18.5231
  19   2.0000      -0.659804       -17.9542
  20   2.0000      -0.621108       -16.9012
  21   2.0000      -0.608983       -16.5713
  22   2.0000      -0.576478       -15.6868
  23   2.0000      -0.558648       -15.2016
  24   2.0000      -0.550352       -14.9758
  25   2.0000      -0.542172       -14.7533
  26   2.0000      -0.524124       -14.2621
  27   2.0000      -0.500846       -13.6287
  28   2.0000      -0.465168       -12.6579
  29   2.0000      -0.449071       -12.2199
  30   2.0000      -0.422953       -11.5091
  31   2.0000      -0.386757       -10.5242
  32   2.0000      -0.352468        -9.5911
  33   0.0000       0.138271         3.7625
  34   0.0000       0.154263         4.1977
  35   0.0000       0.161955         4.4070
  36   0.0000       0.166837         4.5399
  37   0.0000       0.176303         4.7975

MULLIKEN ATOMIC CHARGES
-----------------------
   0 C :   -0.203270
   1 C :   -0.094869
   2 O :   -0.325356
   3 C :    0.112865
   4 C :   -0.111567
   5 C :   -0.221077
   6 C :   -0.154867
   7 C :   -0.250180
   8 C :    0.029386
   9 H :    0.116407
  10 H :    0.116560
  11 H :    0.130618
  12 H :    0.131297
  13 H :    0.129291
  14 H :    0.122882
  15 H :    0.120354
  16 H :    0.130937
  17 H :    0.112768
  18 H :    0.107820
Sum of atomic charges:   -0.0000000

LOEWDIN ATOMIC CHARGES
----------------------
   0 C :   -0.197612
   1 C :   -0.220006
   2 O :    0.189799
   3 C :   -0.259380
   4 C :   -0.212999
   5 C :   -0.166360
   6 C :   -0.170034
   7 C :   -0.227452
   8 C :   -0.166711
   9 H :    0.133787
  10 H :    0.131671
  11 H :    0.128157
  12 H :    0.157210
  13 H :    0.153693
  14 H :    0.143280
  15 H :    0.143065
  16 H :    0.145126
  17 H :    0.148180
  18 H :    0.146584

  Mayer bond orders larger than 0.1
B(  0-C ,  1-C ) :   0.9235 B(  0-C ,  8-C ) :   0.9590 B(  0-C ,  9-H ) :   0.9090
B(  0-C , 10-H ) :   0.9052 B(  1-C ,  2-O ) :   0.9160 B(  1-C ,  3-C ) :   0.9014
B(  1-C , 11-H ) :   0.9217 B(  2-O ,  3-C ) :   0.8792 B(  3-C ,  4-C ) :   0.9191
B(  3-C ,  8-C ) :   0.8882 B(  4-C ,  5-C ) :   0.9339 B(  4-C , 12-H ) :   0.9035
B(  4-C , 13-H ) :   0.9103 B(  5-C ,  6-C ) :   1.7999 B(  5-C , 14-H ) :   0.9309
B(  6-C ,  7-C ) :   0.9289 B(  6-C , 15-H ) :   0.9300 B(  7-C ,  8-C ) :   0.9180
B(  7-C , 16-H ) :   0.9363 B(  7-C , 17-H ) :   0.8921 B(  8-C , 18-H ) :   0.9057

MP2 TOTAL ENERGY:     -385.182503746 Eh
FINAL SINGLE POINT ENERGY      -385.182503746321

DIPOLE MOMENT
-------------
                                X             Y             Z
Electronic contribution:      2.47043       0.96586      -2.84739
Nuclear contribution   :     -2.72741      -1.00318       3.56122
                        -----------------------------------------
Total Dipole Moment    :     -0.25698      -0.03733       0.71383
                        -----------------------------------------
Magnitude (a.u.)       :      0.75959
Magnitude (Debye)      :      1.93073

                             ****ORCA TERMINATED NORMALLY****
TOTAL RUN TIME: 0 days 0 hours 19 minutes 37 seconds 921 msec
