                         Program Version 3.0.3 - RELEASE   -
|  1> ! RI-MP2 RIJK def2-TZVP def2-TZVP/C def2-TZVP/JK TIGHTSCF
|  2> % maxcore 2000
|  3> % mp2 density relaxed end
|  4> *xyz 0 1
|  5>  C       -0.0496243008     1.6087172901    -0.0305030945
|  6>  C        0.0247785181     0.0872571261     0.0225619927
|  7>  O       -1.3349947555    -0.3569577503     0.1164720691
|  8>  C        0.7565156106    -0.5390847495    -1.1943875702
|  9>  C        1.4539886128    -1.8215551157    -0.6488218282
| 10>  C        1.5810174916    -1.5030201964     0.8382704127
| 11>  C        0.8267144566    -0.4652885998     1.1892526810
| 12>  C        0.6713477058    -3.0408244923    -0.8546881027
| 13>  C        0.0014689325    -4.0296473662    -1.0010850591
| 14>  H        0.9512164704     2.0485183873    -0.0541335775
| 15>  H       -0.5967865009     1.9288959383    -0.9223006408
| 16>  H       -0.5809343497     1.9896718047     0.8464257053
| 17>  H       -1.3214343857    -1.3196077441     0.1769719203
| 18>  H        0.0638134157    -0.7405359432    -2.0130204108
| 19>  H        1.5279595481     0.1479019321    -1.5544838403
| 20>  H        2.4367666371    -1.9571036776    -1.1162852131
| 21>  H        2.1802500566    -2.1165804564     1.5009072058
| 22>  H        0.7084091791    -0.0795294109     2.1959459060
| 23>  H       -0.5777923222    -4.9087320759    -1.1406629558
| 24> *
| 25>
| 26>                          ****END OF INPUT****

CARTESIAN COORDINATES (ANGSTROEM)
---------------------------------
  C     -0.049624    1.608717   -0.030503
  C      0.024779    0.087257    0.022562
  O     -1.334995   -0.356958    0.116472
  C      0.756516   -0.539085   -1.194388
  C      1.453989   -1.821555   -0.648822
  C      1.581017   -1.503020    0.838270
  C      0.826714   -0.465289    1.189253
  C      0.671348   -3.040824   -0.854688
  C      0.001469   -4.029647   -1.001085
  H      0.951216    2.048518   -0.054134
  H     -0.596787    1.928896   -0.922301
  H     -0.580934    1.989672    0.846426
  H     -1.321434   -1.319608    0.176972
  H      0.063813   -0.740536   -2.013020
  H      1.527960    0.147902   -1.554484
  H      2.436767   -1.957104   -1.116285
  H      2.180250   -2.116580    1.500907
  H      0.708409   -0.079529    2.195946
  H     -0.577792   -4.908732   -1.140663

 Total Charge           Charge          ....    0
 Multiplicity           Mult            ....    1
 Number of Electrons    NEL             ....   66
 Basis Dimension        Dim             ....  339

ORBITAL ENERGIES
----------------

  NO   OCC          E(Eh)            E(eV)
   0   2.0000     -20.548525      -559.1538
   1   2.0000     -11.291590      -307.2598
   2   2.0000     -11.267977      -306.6172
   3   2.0000     -11.242679      -305.9289
   4   2.0000     -11.239936      -305.8542
   5   2.0000     -11.231862      -305.6345
   6   2.0000     -11.231800      -305.6328
   7   2.0000     -11.227404      -305.5132
   8   2.0000     -11.214630      -305.1656
   9   2.0000      -1.357607       -36.9424
  10   2.0000      -1.150163       -31.2975
  11   2.0000      -1.048502       -28.5312
  12   2.0000      -1.004769       -27.3412
  13   2.0000      -0.977524       -26.5998
  14   2.0000      -0.903756       -24.5925
  15   2.0000      -0.801113       -21.7994
  16   2.0000      -0.750522       -20.4227
  17   2.0000      -0.722669       -19.6648
  18   2.0000      -0.703524       -19.1439
  19   2.0000      -0.663327       -18.0500
  20   2.0000      -0.641307       -17.4508
  21   2.0000      -0.597362       -16.2550
  22   2.0000      -0.585644       -15.9362
  23   2.0000      -0.551201       -14.9989
  24   2.0000      -0.541594       -14.7375
  25   2.0000      -0.532753       -14.4969
  26   2.0000      -0.516611       -14.0577
  27   2.0000      -0.508150       -13.8275
  28   2.0000      -0.480696       -13.0804
  29   2.0000      -0.433667       -11.8007
  30   2.0000      -0.395661       -10.7665
  31   2.0000      -0.388767       -10.5789
  32   2.0000      -0.369447       -10.0532
  33   0.0000       0.131541         3.5794
  34   0.0000       0.140051         3.8110
  35   0.0000       0.156212         4.2508
  36   0.0000       0.159699         4.3456
  37   0.0000       0.171062         4.6548

MULLIKEN ATOMIC CHARGES
-----------------------
   0 C :   -0.408968
   1 C :    0.268526
   2 O :   -0.455400
   3 C :   -0.306238
   4 C :   -0.032274
   5 C :   -0.132419
   6 C :   -0.241033
   7 C :   -0.103121
   8 C :   -0.175578
   9 H :    0.126982
  10 H :    0.137867
  11 H :    0.134942
  12 H :    0.319309
  13 H :    0.149237
  14 H :    0.124716
  15 H :    0.133262
  16 H :    0.138739
  17 H :    0.129988
  18 H :    0.191461
Sum of atomic charges:    0.0000000

LOEWDIN ATOMIC CHARGES
----------------------
   0 C :   -0.267536
   1 C :   -0.376413
   2 O :    0.006067
   3 C :   -0.165011
   4 C :   -0.216311
   5 C :   -0.110919
   6 C :   -0.116219
   7 C :   -0.091264
   8 C :   -0.102250
   9 H :    0.127196
  10 H :    0.130778
  11 H :    0.129884
  12 H :    0.177859
  13 H :    0.145802
  14 H :    0.146294
  15 H :    0.169680
  16 H :    0.141562
  17 H :    0.143235
  18 H :    0.127567

  Mayer bond orders larger than 0.1
B(  0-C ,  1-C ) :   0.8874 B(  0-C ,  9-H ) :   0.9382 B(  0-C , 10-H ) :   0.9384
B(  0-C , 11-H ) :   0.9379 B(  1-C ,  2-O ) :   0.9414 B(  1-C ,  3-C ) :   0.9177
B(  1-C ,  6-C ) :   0.9327 B(  2-O , 12-H ) :   0.8355 B(  3-C ,  4-C ) :   0.8668
B(  3-C , 13-H ) :   0.9337 B(  3-C , 14-H ) :   0.9153 B(  4-C ,  5-C ) :   0.8948
B(  4-C ,  7-C ) :   1.1112 B(  4-C , 15-H ) :   0.9268 B(  5-C ,  6-C ) :   1.7670
B(  5-C , 16-H ) :   0.9225 B(  6-C , 17-H ) :   0.9243 B(  7-C ,  8-C ) :   2.5680
B(  8-C , 18-H ) :   0.9019

MP2 TOTAL ENERGY:     -385.187865834 Eh
FINAL SINGLE POINT ENERGY      -385.187865833514

DIPOLE MOMENT
-------------
                                X             Y             Z
Electronic contribution:     -0.30242      -5.25977       0.38941
Nuclear contribution   :      0.88172       5.08902      -0.38081
                        -----------------------------------------
Total Dipole Moment    :      0.57930      -0.17076       0.00861
                        -----------------------------------------
Magnitude (a.u.)       :      0.60401
Magnitude (Debye)      :      1.53526

                             ****ORCA TERMINATED NORMALLY****
TOTAL RUN TIME: 0 days 0 hours 21 minutes 25 seconds 337 msec
