                         Program Version 3.0.3 - RELEASE   -
|  1> ! RI-MP2 RIJK def2-TZVP def2-TZVP/C def2-TZVP/JK TIGHTSCF
|  2> % maxcore 2000
|  3> % mp2 density relaxed end
|  4> *xyz 0 1
|  5>  C       -0.0840474202     1.5313184034     0.2296871221
|  6>  C        0.0912135939     0.0593332955    -0.0679584209
|  7>  C        0.6398418565    -0.5803726801    -1.2864737382
|  8>  N        1.3494196930    -0.7026743524     0.0664334517
|  9>  C        2.4642815749     0.1539525865    -0.4956639947
| 10>  C        1.8785256867     0.0860663903    -1.9233718434
| 11>  O        2.5567998170    -0.8001600293    -2.7940548174
| 12>  C        1.6853019156     1.3450015825    -2.7492478904
| 13>  O        1.6832828381     2.4655149227    -2.3085240719
| 14>  H        0.6442397819     2.1720302165    -0.2646536136
| 15>  H       -1.0790723821     1.8480384406    -0.1002967522
| 16>  H       -0.0273883083     1.6962405878     1.3112808249
| 17>  H       -0.7116962041    -0.5419557517     0.3595902840
| 18>  H        0.1613153193    -1.4313123783    -1.7663436096
| 19>  H        2.5551329251     1.1449081608    -0.0474209091
| 20>  H        3.4192108103    -0.3701359212    -0.4210919536
| 21>  H        2.6327611913    -1.6546833019    -2.3544481249
| 22>  H        1.5425559510     1.1390147083    -3.8317829327
| 23> *
| 24>
| 25>                          ****END OF INPUT****

CARTESIAN COORDINATES (ANGSTROEM)
---------------------------------
  C     -0.084047    1.531318    0.229687
  C      0.091214    0.059333   -0.067958
  C      0.639842   -0.580373   -1.286474
  N      1.349420   -0.702674    0.066433
  C      2.464282    0.153953   -0.495664
  C      1.878526    0.086066   -1.923372
  O      2.556800   -0.800160   -2.794055
  C      1.685302    1.345002   -2.749248
  O      1.683283    2.465515   -2.308524
  H      0.644240    2.172030   -0.264654
  H     -1.079072    1.848038   -0.100297
  H     -0.027388    1.696241    1.311281
  H     -0.711696   -0.541956    0.359590
  H      0.161315   -1.431312   -1.766344
  H      2.555133    1.144908   -0.047421
  H      3.419211   -0.370136   -0.421092
  H      2.632761   -1.654683   -2.354448
  H      1.542556    1.139015   -3.831783

 Total Charge           Charge          ....    0
 Multiplicity           Mult            ....    1
 Number of Electrons    NEL             ....   68
 Basis Dimension        Dim             ....  333

ORBITAL ENERGIES
----------------

  NO   OCC          E(Eh)            E(eV)
   0   2.0000     -20.584962      -560.1453
   1   2.0000     -20.570361      -559.7480
   2   2.0000     -15.575024      -423.8179
   3   2.0000     -11.340489      -308.5904
   4   2.0000     -11.317271      -307.9586
   5   2.0000     -11.279150      -306.9213
   6   2.0000     -11.278391      -306.9006
   7   2.0000     -11.267384      -306.6011
   8   2.0000     -11.223796      -305.4150
   9   2.0000      -1.414200       -38.4823
  10   2.0000      -1.394211       -37.9384
  11   2.0000      -1.295122       -35.2421
  12   2.0000      -1.038220       -28.2514
  13   2.0000      -0.990991       -26.9662
  14   2.0000      -0.954600       -25.9760
  15   2.0000      -0.864782       -23.5319
  16   2.0000      -0.791046       -21.5255
  17   2.0000      -0.757466       -20.6117
  18   2.0000      -0.721925       -19.6446
  19   2.0000      -0.686239       -18.6735
  20   2.0000      -0.672775       -18.3071
  21   2.0000      -0.644993       -17.5511
  22   2.0000      -0.624381       -16.9903
  23   2.0000      -0.601093       -16.3566
  24   2.0000      -0.580618       -15.7994
  25   2.0000      -0.562076       -15.2949
  26   2.0000      -0.551726       -15.0132
  27   2.0000      -0.539704       -14.6861
  28   2.0000      -0.517541       -14.0830
  29   2.0000      -0.477983       -13.0066
  30   2.0000      -0.465168       -12.6579
  31   2.0000      -0.440615       -11.9897
  32   2.0000      -0.426806       -11.6140
  33   2.0000      -0.375194       -10.2096
  34   0.0000       0.111744         3.0407
  35   0.0000       0.136697         3.7197
  36   0.0000       0.152002         4.1362
  37   0.0000       0.173709         4.7269
  38   0.0000       0.178676         4.8620

MULLIKEN ATOMIC CHARGES
-----------------------
   0 C :   -0.399091
   1 C :   -0.019095
   2 C :   -0.166750
   3 N :   -0.233745
   4 C :   -0.215555
   5 C :    0.241605
   6 O :   -0.452925
   7 C :    0.112033
   8 O :   -0.272551
   9 H :    0.164054
  10 H :    0.136468
  11 H :    0.139169
  12 H :    0.116476
  13 H :    0.139217
  14 H :    0.140842
  15 H :    0.136518
  16 H :    0.330555
  17 H :    0.102776
Sum of atomic charges:   -0.0000000

LOEWDIN ATOMIC CHARGES
----------------------
   0 C :   -0.294440
   1 C :   -0.268330
   2 C :   -0.169939
   3 N :    0.109762
   4 C :   -0.202974
   5 C :   -0.359615
   6 O :    0.025892
   7 C :   -0.243953
   8 O :    0.143561
   9 H :    0.129645
  10 H :    0.133891
  11 H :    0.130551
  12 H :    0.156268
  13 H :    0.136676
  14 H :    0.132504
  15 H :    0.133544
  16 H :    0.184881
  17 H :    0.122075

  Mayer bond orders larger than 0.1
B(  0-C ,  1-C ) :   0.8832 B(  0-C ,  9-H ) :   0.9276 B(  0-C , 10-H ) :   0.9277
B(  0-C , 11-H ) :   0.9312 B(  1-C ,  2-C ) :   0.9052 B(  1-C ,  3-N ) :   0.9120
B(  1-C , 12-H ) :   0.9221 B(  2-C ,  3-N ) :   0.8396 B(  2-C ,  5-C ) :   0.9239
B(  2-C , 13-H ) :   0.8970 B(  3-N ,  4-C ) :   0.9039 B(  4-C ,  5-C ) :   0.9671
B(  4-C , 14-H ) :   0.9172 B(  4-C , 15-H ) :   0.9161 B(  5-C ,  6-O ) :   0.9638
B(  5-C ,  7-C ) :   0.8586 B(  6-O , 16-H ) :   0.8322 B(  7-C ,  8-O ) :   1.9599
B(  7-C , 17-H ) :   0.9320

MP2 TOTAL ENERGY:     -438.315572685 Eh
FINAL SINGLE POINT ENERGY      -438.315572684779

DIPOLE MOMENT
-------------
                                X             Y             Z
Electronic contribution:      2.75423      -0.82473      -4.10174
Nuclear contribution   :     -3.10267       0.30727       4.15035
                        -----------------------------------------
Total Dipole Moment    :     -0.34844      -0.51746       0.04861
                        -----------------------------------------
Magnitude (a.u.)       :      0.62574
Magnitude (Debye)      :      1.59049

                             ****ORCA TERMINATED NORMALLY****
TOTAL RUN TIME: 0 days 0 hours 18 minutes 44 seconds 989 msec
