                         Program Version 3.0.3 - RELEASE   -
|  1> ! RI-MP2 RIJK def2-TZVP def2-TZVP/C def2-TZVP/JK TIGHTSCF
|  2> % maxcore 2000
|  3> % mp2 density relaxed end
|  4> *xyz 0 1
|  5>  O        0.0892140073     1.3767789604     0.0109278501
|  6>  C       -0.0205302031    -0.0067156095    -0.0173912316
|  7>  C       -1.3446623860    -0.7002577356     0.0752115538
|  8>  C       -2.5959485983     0.1686796388     0.1006143616
|  9>  C       -3.0492093060     0.5116722510    -1.3129945122
| 10>  O       -1.9554116902     0.9812266127    -2.1349686641
| 11>  C       -0.9592563919     0.0637589521    -2.3968296674
| 12>  O       -0.4249367591     0.0542756529    -3.4689406924
| 13>  C       -0.5529800598    -0.7678861461    -1.2373240029
| 14>  H       -0.5068749296     1.7635491496    -0.6433669430
| 15>  H        0.8314501561    -0.4557124842     0.4809315197
| 16>  H       -1.3789836296    -1.6201939476     0.6490808054
| 17>  H       -3.4093239298    -0.3499566602     0.6164259512
| 18>  H       -2.3937069742     1.0890687043     0.6608317170
| 19>  H       -3.4967822067    -0.3619030431    -1.8019818913
| 20>  H       -3.7817682397     1.3213315473    -1.3259711608
| 21>  H       -0.0400833994    -1.6805571530    -1.5128741633
| 22> *
| 23>
| 24>                          ****END OF INPUT****

CARTESIAN COORDINATES (ANGSTROEM)
---------------------------------
  O      0.089214    1.376779    0.010928
  C     -0.020530   -0.006716   -0.017391
  C     -1.344662   -0.700258    0.075212
  C     -2.595949    0.168680    0.100614
  C     -3.049209    0.511672   -1.312995
  O     -1.955412    0.981227   -2.134969
  C     -0.959256    0.063759   -2.396830
  O     -0.424937    0.054276   -3.468941
  C     -0.552980   -0.767886   -1.237324
  H     -0.506875    1.763549   -0.643367
  H      0.831450   -0.455712    0.480932
  H     -1.378984   -1.620194    0.649081
  H     -3.409324   -0.349957    0.616426
  H     -2.393707    1.089069    0.660832
  H     -3.496782   -0.361903   -1.801982
  H     -3.781768    1.321332   -1.325971
  H     -0.040083   -1.680557   -1.512874

 Total Charge           Charge          ....    0
 Multiplicity           Mult            ....    1
 Number of Electrons    NEL             ....   68
 Basis Dimension        Dim             ....  327

ORBITAL ENERGIES
----------------

  NO   OCC          E(Eh)            E(eV)
   0   2.0000     -20.602868      -560.6325
   1   2.0000     -20.578810      -559.9779
   2   2.0000     -20.547918      -559.1373
   3   2.0000     -11.386410      -309.8400
   4   2.0000     -11.314190      -307.8748
   5   2.0000     -11.309685      -307.7522
   6   2.0000     -11.263247      -306.4885
   7   2.0000     -11.260723      -306.4199
   8   2.0000     -11.254651      -306.2546
   9   2.0000      -1.457431       -39.6587
  10   2.0000      -1.392679       -37.8967
  11   2.0000      -1.367248       -37.2047
  12   2.0000      -1.168744       -31.8031
  13   2.0000      -1.056969       -28.7616
  14   2.0000      -0.917737       -24.9729
  15   2.0000      -0.914432       -24.8829
  16   2.0000      -0.824732       -22.4421
  17   2.0000      -0.757027       -20.5997
  18   2.0000      -0.734660       -19.9911
  19   2.0000      -0.718513       -19.5517
  20   2.0000      -0.679564       -18.4919
  21   2.0000      -0.646189       -17.5837
  22   2.0000      -0.636533       -17.3209
  23   2.0000      -0.624043       -16.9811
  24   2.0000      -0.611504       -16.6399
  25   2.0000      -0.578700       -15.7472
  26   2.0000      -0.570961       -15.5366
  27   2.0000      -0.551507       -15.0073
  28   2.0000      -0.536197       -14.5907
  29   2.0000      -0.502527       -13.6745
  30   2.0000      -0.468632       -12.7521
  31   2.0000      -0.460033       -12.5181
  32   2.0000      -0.428859       -11.6699
  33   2.0000      -0.401724       -10.9315
  34   0.0000       0.123196         3.3523
  35   0.0000       0.133984         3.6459
  36   0.0000       0.155781         4.2390
  37   0.0000       0.169020         4.5993
  38   0.0000       0.174776         4.7559

MULLIKEN ATOMIC CHARGES
-----------------------
   0 O :   -0.439811
   1 C :    0.006961
   2 C :   -0.042129
   3 C :   -0.307111
   4 C :   -0.071303
   5 O :   -0.279684
   6 C :    0.246989
   7 O :   -0.254505
   8 C :   -0.184300
   9 H :    0.331153
  10 H :    0.136528
  11 H :    0.143192
  12 H :    0.135238
  13 H :    0.157814
  14 H :    0.129469
  15 H :    0.140139
  16 H :    0.151359
Sum of atomic charges:   -0.0000000

LOEWDIN ATOMIC CHARGES
----------------------
   0 O :    0.024761
   1 C :   -0.275377
   2 C :   -0.181830
   3 C :   -0.250226
   4 C :   -0.274162
   5 O :    0.215375
   6 C :   -0.464834
   7 O :    0.161977
   8 C :   -0.161513
   9 H :    0.180630
  10 H :    0.147417
  11 H :    0.152348
  12 H :    0.150021
  13 H :    0.147991
  14 H :    0.131434
  15 H :    0.134481
  16 H :    0.161507

  Mayer bond orders larger than 0.1
B(  0-O ,  1-C ) :   1.0292 B(  0-O ,  9-H ) :   0.8132 B(  1-C ,  2-C ) :   0.8740
B(  1-C ,  8-C ) :   0.8436 B(  1-C , 10-H ) :   0.9458 B(  2-C ,  3-C ) :   0.8675
B(  2-C ,  8-C ) :   0.7950 B(  2-C , 11-H ) :   0.9093 B(  3-C ,  4-C ) :   0.9527
B(  3-C , 12-H ) :   0.9231 B(  3-C , 13-H ) :   0.9288 B(  4-C ,  5-O ) :   0.8376
B(  4-C , 14-H ) :   0.9375 B(  4-C , 15-H ) :   0.9337 B(  5-O ,  6-C ) :   0.9989
B(  6-C ,  7-O ) :   2.0558 B(  6-C ,  8-C ) :   0.9748 B(  8-C , 16-H ) :   0.9089

MP2 TOTAL ENERGY:     -458.247620764 Eh
FINAL SINGLE POINT ENERGY      -458.247620763604

DIPOLE MOMENT
-------------
                                X             Y             Z
Electronic contribution:      3.25189       1.22685      -4.83204
Nuclear contribution   :     -4.29987      -1.97996       6.05091
                        -----------------------------------------
Total Dipole Moment    :     -1.04798      -0.75311       1.21887
                        -----------------------------------------
Magnitude (a.u.)       :      1.77513
Magnitude (Debye)      :      4.51202

                             ****ORCA TERMINATED NORMALLY****
TOTAL RUN TIME: 0 days 0 hours 17 minutes 57 seconds 610 msec
