                         Program Version 3.0.3 - RELEASE   -
|  1> ! RI-MP2 RIJK def2-TZVP def2-TZVP/C def2-TZVP/JK TIGHTSCF
|  2> % maxcore 2000
|  3> % mp2 density relaxed end
|  4> *xyz 0 1
|  5>  O       -0.0412030861     1.4045962439    -0.2114267586
|  6>  C       -0.0103116766     0.0073997109     0.0570757499
|  7>  C       -1.4489728019    -0.4816700194     0.0447581334
|  8>  N       -2.0428942893    -0.2159488605    -1.2547674542
|  9>  C       -3.3829153415    -0.5367997025    -1.4277259174
| 10>  C       -4.2101628112    -1.3169226588    -0.6725840627
| 11>  O       -5.4261394594    -1.4121971549    -1.2606354741
| 12>  N       -5.4244043645    -0.6716192550    -2.4244463778
| 13>  C       -4.2217388915    -0.1628554277    -2.5216546820
| 14>  H        0.8580231256     1.7077329818    -0.3643579777
| 15>  H        0.5634944920    -0.5302550583    -0.7113310033
| 16>  H        0.4398282176    -0.2042405883     1.0379859686
| 17>  H       -1.4599397412    -1.5623377868     0.2333207930
| 18>  H       -2.0064278117     0.0023442047     0.8650627538
| 19>  H       -1.8054961119     0.7163659063    -1.5690608791
| 20>  H       -4.0911092693    -1.8549309942     0.2526020921
| 21>  H       -3.9747435091     0.4611748089    -3.3693896939
| 22> *
| 23>
| 24>                          ****END OF INPUT****

CARTESIAN COORDINATES (ANGSTROEM)
---------------------------------
  O     -0.041203    1.404596   -0.211427
  C     -0.010312    0.007400    0.057076
  C     -1.448973   -0.481670    0.044758
  N     -2.042894   -0.215949   -1.254767
  C     -3.382915   -0.536800   -1.427726
  C     -4.210163   -1.316923   -0.672584
  O     -5.426139   -1.412197   -1.260635
  N     -5.424404   -0.671619   -2.424446
  C     -4.221739   -0.162855   -2.521655
  H      0.858023    1.707733   -0.364358
  H      0.563494   -0.530255   -0.711331
  H      0.439828   -0.204241    1.037986
  H     -1.459940   -1.562338    0.233321
  H     -2.006428    0.002344    0.865063
  H     -1.805496    0.716366   -1.569061
  H     -4.091109   -1.854931    0.252602
  H     -3.974744    0.461175   -3.369390

 Total Charge           Charge          ....    0
 Multiplicity           Mult            ....    1
 Number of Electrons    NEL             ....   68
 Basis Dimension        Dim             ....  327

ORBITAL ENERGIES
----------------

  NO   OCC          E(Eh)            E(eV)
   0   2.0000     -20.632676      -561.4437
   1   2.0000     -20.575868      -559.8978
   2   2.0000     -15.621058      -425.0706
   3   2.0000     -15.570623      -423.6982
   4   2.0000     -11.294172      -307.3300
   5   2.0000     -11.289802      -307.2111
   6   2.0000     -11.274115      -306.7843
   7   2.0000     -11.272387      -306.7372
   8   2.0000     -11.270246      -306.6790
   9   2.0000      -1.484348       -40.3911
  10   2.0000      -1.380907       -37.5764
  11   2.0000      -1.245263       -33.8853
  12   2.0000      -1.151885       -31.3444
  13   2.0000      -1.057906       -28.7871
  14   2.0000      -0.993924       -27.0460
  15   2.0000      -0.859890       -23.3988
  16   2.0000      -0.820572       -22.3289
  17   2.0000      -0.795995       -21.6601
  18   2.0000      -0.746836       -20.3224
  19   2.0000      -0.719264       -19.5722
  20   2.0000      -0.671039       -18.2599
  21   2.0000      -0.661347       -17.9962
  22   2.0000      -0.648016       -17.6334
  23   2.0000      -0.613825       -16.7030
  24   2.0000      -0.597224       -16.2513
  25   2.0000      -0.576495       -15.6872
  26   2.0000      -0.566051       -15.4030
  27   2.0000      -0.541424       -14.7329
  28   2.0000      -0.519208       -14.1284
  29   2.0000      -0.476372       -12.9628
  30   2.0000      -0.468511       -12.7488
  31   2.0000      -0.462927       -12.5969
  32   2.0000      -0.400593       -10.9007
  33   2.0000      -0.317622        -8.6429
  34   0.0000       0.119172         3.2428
  35   0.0000       0.128671         3.5013
  36   0.0000       0.143674         3.9096
  37   0.0000       0.160130         4.3574
  38   0.0000       0.179349         4.8803

MULLIKEN ATOMIC CHARGES
-----------------------
   0 O :   -0.488022
   1 C :   -0.066822
   2 C :   -0.109840
   3 N :   -0.346965
   4 C :    0.144704
   5 C :   -0.091283
   6 O :   -0.110533
   7 N :   -0.108972
   8 C :   -0.146277
   9 H :    0.324782
  10 H :    0.111963
  11 H :    0.107168
  12 H :    0.118730
  13 H :    0.115171
  14 H :    0.242436
  15 H :    0.158129
  16 H :    0.145630
Sum of atomic charges:   -0.0000000

LOEWDIN ATOMIC CHARGES
----------------------
   0 O :   -0.054459
   1 C :   -0.348400
   2 C :   -0.296876
   3 N :    0.059469
   4 C :   -0.280198
   5 C :   -0.268181
   6 O :    0.263093
   7 N :    0.022998
   8 C :   -0.249370
   9 H :    0.176129
  10 H :    0.120848
  11 H :    0.120293
  12 H :    0.138746
  13 H :    0.128468
  14 H :    0.189961
  15 H :    0.135542
  16 H :    0.141938

  Mayer bond orders larger than 0.1
B(  0-O ,  1-C ) :   0.9798 B(  0-O ,  9-H ) :   0.8449 B(  1-C ,  2-C ) :   0.9500
B(  1-C , 10-H ) :   0.9315 B(  1-C , 11-H ) :   0.9281 B(  2-C ,  3-N ) :   0.9317
B(  2-C , 12-H ) :   0.9168 B(  2-C , 13-H ) :   0.9172 B(  3-N ,  4-C ) :   1.0466
B(  3-N , 14-H ) :   0.8588 B(  4-C ,  5-C ) :   1.4780 B(  4-C ,  8-C ) :   1.1845
B(  5-C ,  6-O ) :   1.0759 B(  5-C ,  7-N ) :   0.1108 B(  5-C , 15-H ) :   0.9228
B(  6-O ,  7-N ) :   0.9096 B(  7-N ,  8-C ) :   1.5823 B(  8-C , 16-H ) :   0.9285

MP2 TOTAL ENERGY:     -454.378925749 Eh
FINAL SINGLE POINT ENERGY      -454.378925749266

DIPOLE MOMENT
-------------
                                X             Y             Z
Electronic contribution:     -8.47387      -1.13001      -3.72092
Nuclear contribution   :     10.49339       1.38531       4.39154
                        -----------------------------------------
Total Dipole Moment    :      2.01952       0.25530       0.67062
                        -----------------------------------------
Magnitude (a.u.)       :      2.14321
Magnitude (Debye)      :      5.44761

                             ****ORCA TERMINATED NORMALLY****
TOTAL RUN TIME: 0 days 0 hours 15 minutes 2 seconds 871 msec
