                         Program Version 3.0.3 - RELEASE   -
|  1> ! RI-MP2 RIJK def2-TZVP def2-TZVP/C def2-TZVP/JK TIGHTSCF
|  2> % maxcore 2000
|  3> % mp2 density relaxed end
|  4> *xyz 0 1
|  5>  C       -0.0144284028     1.5762475001     0.0091749399
|  6>  C        0.0385712141     0.0547460489    -0.0041435501
|  7>  O       -1.3058345660    -0.4242741617    -0.0060297086
|  8>  C        0.7556948679    -0.4871304434    -1.2479441129
|  9>  O        0.6827365472    -1.9102504212    -1.2628959730
| 10>  C        1.4129090621    -2.4795291466    -0.1797058083
| 11>  C        0.8332833924    -2.0423963803     1.1680773854
| 12>  C        0.7509421837    -0.5092099647     1.2524507427
| 13>  O        2.0513365806     0.0781852473     1.2978038722
| 14>  H        0.9876541456     2.0004223683     0.0927565654
| 15>  H       -0.4930655604     1.9452451966    -0.9027014219
| 16>  H       -0.6086654809     1.9169636884     0.8627327120
| 17>  H       -1.2817099423    -1.2872345612    -0.4393488213
| 18>  H        0.2470727756    -0.1434681661    -2.1532636578
| 19>  H        1.8013329708    -0.1516028194    -1.2680356787
| 20>  H        1.3536537455    -3.5639732569    -0.3062905571
| 21>  H        2.4691709505    -2.1795867239    -0.2498749009
| 22>  H       -0.1703272527    -2.4616980591     1.2961282012
| 23>  H        1.4495849986    -2.4325600519     1.9883693333
| 24>  H        0.1620781519    -0.2145559356     2.1330635105
| 25>  H        2.4933753585    -0.2325598574     2.0937713080
| 26> *
| 27>
| 28>                          ****END OF INPUT****

CARTESIAN COORDINATES (ANGSTROEM)
---------------------------------
  C     -0.014428    1.576248    0.009175
  C      0.038571    0.054746   -0.004144
  O     -1.305835   -0.424274   -0.006030
  C      0.755695   -0.487130   -1.247944
  O      0.682737   -1.910250   -1.262896
  C      1.412909   -2.479529   -0.179706
  C      0.833283   -2.042396    1.168077
  C      0.750942   -0.509210    1.252451
  O      2.051337    0.078185    1.297804
  H      0.987654    2.000422    0.092757
  H     -0.493066    1.945245   -0.902701
  H     -0.608665    1.916964    0.862733
  H     -1.281710   -1.287235   -0.439349
  H      0.247073   -0.143468   -2.153264
  H      1.801333   -0.151603   -1.268036
  H      1.353654   -3.563973   -0.306291
  H      2.469171   -2.179587   -0.249875
  H     -0.170327   -2.461698    1.296128
  H      1.449585   -2.432560    1.988369
  H      0.162078   -0.214556    2.133064
  H      2.493375   -0.232560    2.093771

 Total Charge           Charge          ....    0
 Multiplicity           Mult            ....    1
 Number of Electrons    NEL             ....   72
 Basis Dimension        Dim             ....  351

ORBITAL ENERGIES
----------------

  NO   OCC          E(Eh)            E(eV)
   0   2.0000     -20.563973      -559.5742
   1   2.0000     -20.561450      -559.5055
   2   2.0000     -20.548276      -559.1470
   3   2.0000     -11.283890      -307.0503
   4   2.0000     -11.282711      -307.0182
   5   2.0000     -11.278848      -306.9131
   6   2.0000     -11.271891      -306.7237
   7   2.0000     -11.230811      -305.6059
   8   2.0000     -11.208283      -304.9929
   9   2.0000      -1.391530       -37.8655
  10   2.0000      -1.367878       -37.2218
  11   2.0000      -1.350253       -36.7422
  12   2.0000      -1.061579       -28.8870
  13   2.0000      -1.041431       -28.3388
  14   2.0000      -0.942811       -25.6552
  15   2.0000      -0.887775       -24.1576
  16   2.0000      -0.839438       -22.8423
  17   2.0000      -0.759562       -20.6687
  18   2.0000      -0.717155       -19.5148
  19   2.0000      -0.680331       -18.5127
  20   2.0000      -0.675524       -18.3819
  21   2.0000      -0.652759       -17.7625
  22   2.0000      -0.636851       -17.3296
  23   2.0000      -0.603790       -16.4300
  24   2.0000      -0.590795       -16.0763
  25   2.0000      -0.567482       -15.4420
  26   2.0000      -0.547404       -14.8956
  27   2.0000      -0.536734       -14.6053
  28   2.0000      -0.533448       -14.5159
  29   2.0000      -0.517683       -14.0869
  30   2.0000      -0.511102       -13.9078
  31   2.0000      -0.490580       -13.3494
  32   2.0000      -0.472654       -12.8616
  33   2.0000      -0.461937       -12.5700
  34   2.0000      -0.428777       -11.6676
  35   2.0000      -0.401207       -10.9174
  36   0.0000       0.124863         3.3977
  37   0.0000       0.159502         4.3403
  38   0.0000       0.163982         4.4622
  39   0.0000       0.172842         4.7033
  40   0.0000       0.191412         5.2086

MULLIKEN ATOMIC CHARGES
-----------------------
   0 C :   -0.405734
   1 C :    0.197939
   2 O :   -0.480151
   3 C :   -0.114139
   4 O :   -0.336383
   5 C :   -0.035650
   6 C :   -0.346998
   7 C :    0.109498
   8 O :   -0.475700
   9 H :    0.149325
  10 H :    0.131440
  11 H :    0.131862
  12 H :    0.325638
  13 H :    0.135387
  14 H :    0.120566
  15 H :    0.133093
  16 H :    0.095777
  17 H :    0.131230
  18 H :    0.120871
  19 H :    0.096911
  20 H :    0.315216
Sum of atomic charges:   -0.0000000

LOEWDIN ATOMIC CHARGES
----------------------
   0 C :   -0.265589
   1 C :   -0.397195
   2 O :    0.013692
   3 C :   -0.279619
   4 O :    0.140469
   5 C :   -0.313068
   6 C :   -0.264280
   7 C :   -0.308257
   8 O :   -0.015160
   9 H :    0.132739
  10 H :    0.128374
  11 H :    0.131602
  12 H :    0.175474
  13 H :    0.135685
  14 H :    0.133860
  15 H :    0.129379
  16 H :    0.124527
  17 H :    0.144567
  18 H :    0.138679
  19 H :    0.139363
  20 H :    0.174757

  Mayer bond orders larger than 0.1
B(  0-C ,  1-C ) :   0.8835 B(  0-C ,  9-H ) :   0.9375 B(  0-C , 10-H ) :   0.9383
B(  0-C , 11-H ) :   0.9356 B(  1-C ,  2-O ) :   0.9333 B(  1-C ,  3-C ) :   0.9483
B(  1-C ,  7-C ) :   0.8711 B(  2-O , 12-H ) :   0.8219 B(  3-C ,  4-O ) :   0.8796
B(  3-C , 13-H ) :   0.9319 B(  3-C , 14-H ) :   0.9237 B(  4-O ,  5-C ) :   0.9165
B(  5-C ,  6-C ) :   0.9437 B(  5-C , 15-H ) :   0.9318 B(  5-C , 16-H ) :   0.9318
B(  6-C ,  7-C ) :   0.9103 B(  6-C , 17-H ) :   0.9272 B(  6-C , 18-H ) :   0.9258
B(  7-C ,  8-O ) :   0.9821 B(  7-C , 19-H ) :   0.9264 B(  8-O , 20-H ) :   0.8434

MP2 TOTAL ENERGY:     -460.653281398 Eh
FINAL SINGLE POINT ENERGY      -460.653281398091

DIPOLE MOMENT
-------------
                                X             Y             Z
Electronic contribution:     -0.71191      -1.64692      -0.99113
Nuclear contribution   :      1.35240       1.24959       1.61727
                        -----------------------------------------
Total Dipole Moment    :      0.64049      -0.39733       0.62614
                        -----------------------------------------
Magnitude (a.u.)       :      0.97987
Magnitude (Debye)      :      2.49064

                             ****ORCA TERMINATED NORMALLY****
TOTAL RUN TIME: 0 days 0 hours 18 minutes 48 seconds 888 msec
