                         Program Version 3.0.3 - RELEASE   -
|  1> ! RI-MP2 RIJK def2-TZVP def2-TZVP/C def2-TZVP/JK TIGHTSCF
|  2> % maxcore 2000
|  3> % mp2 density relaxed end
|  4> *xyz 0 1
|  5>  O       -0.5265011117     0.5722286631     0.7587368842
|  6>  C       -0.0866680078     1.1741891164    -0.1849352178
|  7>  C        1.3484524228     1.6674720796    -0.2827169846
|  8>  N        1.4121504896     2.8259067467    -1.1618663922
|  9>  C        1.4142369042     4.1405772925    -0.5396403114
| 10>  C        2.6584396403     3.6136030396    -1.1930130047
| 11>  C        3.7968444238     3.2502142993    -0.3947312792
| 12>  C        4.7684475630     2.9319474011     0.2388768961
| 13>  H       -0.7031902623     1.4025558375    -1.0823638390
| 14>  H        1.7454450879     1.8275503483     0.7293211357
| 15>  H        1.9368022022     0.8574477899    -0.7368520835
| 16>  H        0.8305120572     4.9079353601    -1.0400790257
| 17>  H        1.4223413498     4.1944880586     0.5472193555
| 18>  H        2.9034150081     3.9787919788    -2.1878059117
| 19>  H        5.6242248730     2.6600234487     0.8061824184
| 20> *
| 21>
| 22>                          ****END OF INPUT****

CARTESIAN COORDINATES (ANGSTROEM)
---------------------------------
  O     -0.526501    0.572229    0.758737
  C     -0.086668    1.174189   -0.184935
  C      1.348452    1.667472   -0.282717
  N      1.412150    2.825907   -1.161866
  C      1.414237    4.140577   -0.539640
  C      2.658440    3.613603   -1.193013
  C      3.796844    3.250214   -0.394731
  C      4.768448    2.931947    0.238877
  H     -0.703190    1.402556   -1.082364
  H      1.745445    1.827550    0.729321
  H      1.936802    0.857448   -0.736852
  H      0.830512    4.907935   -1.040079
  H      1.422341    4.194488    0.547219
  H      2.903415    3.978792   -2.187806
  H      5.624225    2.660023    0.806182

 Total Charge           Charge          ....    0
 Multiplicity           Mult            ....    1
 Number of Electrons    NEL             ....   58
 Basis Dimension        Dim             ....  290

ORBITAL ENERGIES
----------------

  NO   OCC          E(Eh)            E(eV)
   0   2.0000     -20.559822      -559.4612
   1   2.0000     -15.590977      -424.2521
   2   2.0000     -11.333195      -308.3919
   3   2.0000     -11.302201      -307.5485
   4   2.0000     -11.281678      -306.9901
   5   2.0000     -11.275336      -306.8175
   6   2.0000     -11.250847      -306.1511
   7   2.0000     -11.241615      -305.8999
   8   2.0000      -1.399467       -38.0814
   9   2.0000      -1.304536       -35.4982
  10   2.0000      -1.066274       -29.0148
  11   2.0000      -1.033875       -28.1332
  12   2.0000      -0.899693       -24.4819
  13   2.0000      -0.873589       -23.7716
  14   2.0000      -0.803290       -21.8586
  15   2.0000      -0.744970       -20.2717
  16   2.0000      -0.705341       -19.1933
  17   2.0000      -0.693072       -18.8594
  18   2.0000      -0.650927       -17.7126
  19   2.0000      -0.634826       -17.2745
  20   2.0000      -0.608319       -16.5532
  21   2.0000      -0.576807       -15.6957
  22   2.0000      -0.527391       -14.3510
  23   2.0000      -0.522185       -14.2094
  24   2.0000      -0.493690       -13.4340
  25   2.0000      -0.439129       -11.9493
  26   2.0000      -0.422597       -11.4995
  27   2.0000      -0.406299       -11.0560
  28   2.0000      -0.372981       -10.1493
  29   0.0000       0.125750         3.4218
  30   0.0000       0.145092         3.9482
  31   0.0000       0.149051         4.0559
  32   0.0000       0.153046         4.1646
  33   0.0000       0.163186         4.4405

MULLIKEN ATOMIC CHARGES
-----------------------
   0 O :   -0.260646
   1 C :    0.083793
   2 C :   -0.085526
   3 N :   -0.216662
   4 C :   -0.159673
   5 C :   -0.196083
   6 C :   -0.025462
   7 C :   -0.122147
   8 H :    0.088220
   9 H :    0.128368
  10 H :    0.143645
  11 H :    0.139883
  12 H :    0.141738
  13 H :    0.143783
  14 H :    0.196769
Sum of atomic charges:    0.0000000

LOEWDIN ATOMIC CHARGES
----------------------
   0 O :    0.135385
   1 C :   -0.288691
   2 C :   -0.286927
   3 N :    0.120731
   4 C :   -0.218055
   5 C :   -0.237150
   6 C :   -0.102525
   7 C :   -0.082132
   8 H :    0.113260
   9 H :    0.140195
  10 H :    0.154222
  11 H :    0.128975
  12 H :    0.132902
  13 H :    0.160400
  14 H :    0.129410

  Mayer bond orders larger than 0.1
B(  0-O ,  1-C ) :   2.0091 B(  1-C ,  2-C ) :   0.8736 B(  1-C ,  8-H ) :   0.9386
B(  2-C ,  3-N ) :   0.8661 B(  2-C ,  9-H ) :   0.8972 B(  2-C , 10-H ) :   0.9016
B(  3-N ,  4-C ) :   0.8804 B(  3-N ,  5-C ) :   0.9125 B(  4-C ,  5-C ) :   0.9044
B(  4-C , 11-H ) :   0.9212 B(  4-C , 12-H ) :   0.9210 B(  5-C ,  6-C ) :   1.1510
B(  5-C ,  7-C ) :  -0.1102 B(  5-C , 13-H ) :   0.9286 B(  6-C ,  7-C ) :   2.5640
B(  7-C , 14-H ) :   0.8992

MP2 TOTAL ENERGY:     -361.961996929 Eh
FINAL SINGLE POINT ENERGY      -361.961996929315

DIPOLE MOMENT
-------------
                                X             Y             Z
Electronic contribution:     -0.64435      -1.65862       0.33048
Nuclear contribution   :      1.30813       2.31351      -0.63796
                        -----------------------------------------
Total Dipole Moment    :      0.66379       0.65489      -0.30748
                        -----------------------------------------
Magnitude (a.u.)       :      0.98185
Magnitude (Debye)      :      2.49567

                             ****ORCA TERMINATED NORMALLY****
TOTAL RUN TIME: 0 days 0 hours 10 minutes 7 seconds 299 msec
