                         Program Version 3.0.3 - RELEASE   -
|  1> ! RI-MP2 RIJK def2-TZVP def2-TZVP/C def2-TZVP/JK TIGHTSCF
|  2> % maxcore 2000
|  3> % mp2 density relaxed end
|  4> *xyz 0 1
|  5>  C       -0.2726142513     1.5158208004    -0.0398111134
|  6>  C        0.1252357158     0.0334432974     0.0785897617
|  7>  C        0.7804464743    -0.5134666666    -1.1685059974
|  8>  C        2.0577011908    -0.9025517041    -1.1684119071
|  9>  C        2.7867452896    -1.3643687808    -2.3982650495
| 10>  O        2.0801453940    -1.0982883651    -3.5932630225
| 11>  C        0.7163503907    -1.4501136676    -3.4844032823
| 12>  C       -0.0292452611    -0.5867721873    -2.4563073543
| 13>  C       -1.4498863094    -1.1397263662    -2.2564430255
| 14>  H        0.6029889147     2.1371974687    -0.2526296581
| 15>  H       -0.9979223509     1.6785282809    -0.8433128315
| 16>  H       -0.7245690714     1.8716092918     0.8912730509
| 17>  H        0.8151817490    -0.0868036294     0.9211116998
| 18>  H       -0.7687125177    -0.5531631994     0.3266195474
| 19>  H        2.6390631791    -0.8802484437    -0.2485967096
| 20>  H        3.7474998877    -0.8427954891    -2.4887725341
| 21>  H        3.0200829745    -2.4436801792    -2.3201416476
| 22>  H        0.2838862330    -1.3221817970    -4.4816491995
| 23>  H        0.6147919448    -2.5145107515    -3.2075927211
| 24>  H       -0.1169131975     0.4279312164    -2.8711868003
| 25>  H       -1.4262013872    -2.1286435144    -1.7852895865
| 26>  H       -2.0619056294    -0.4848116923    -1.6311008161
| 27>  H       -1.9586660820    -1.2409193118    -3.2212532132
| 28> *
| 29>
| 30>                          ****END OF INPUT****

CARTESIAN COORDINATES (ANGSTROEM)
---------------------------------
  C     -0.272614    1.515821   -0.039811
  C      0.125236    0.033443    0.078590
  C      0.780446   -0.513467   -1.168506
  C      2.057701   -0.902552   -1.168412
  C      2.786745   -1.364369   -2.398265
  O      2.080145   -1.098288   -3.593263
  C      0.716350   -1.450114   -3.484403
  C     -0.029245   -0.586772   -2.456307
  C     -1.449886   -1.139726   -2.256443
  H      0.602989    2.137197   -0.252630
  H     -0.997922    1.678528   -0.843313
  H     -0.724569    1.871609    0.891273
  H      0.815182   -0.086804    0.921112
  H     -0.768713   -0.553163    0.326620
  H      2.639063   -0.880248   -0.248597
  H      3.747500   -0.842795   -2.488773
  H      3.020083   -2.443680   -2.320142
  H      0.283886   -1.322182   -4.481649
  H      0.614792   -2.514511   -3.207593
  H     -0.116913    0.427931   -2.871187
  H     -1.426201   -2.128644   -1.785290
  H     -2.061906   -0.484812   -1.631101
  H     -1.958666   -1.240919   -3.221253

 Total Charge           Charge          ....    0
 Multiplicity           Mult            ....    1
 Number of Electrons    NEL             ....   70
 Basis Dimension        Dim             ....  363

ORBITAL ENERGIES
----------------

  NO   OCC          E(Eh)            E(eV)
   0   2.0000     -20.548868      -559.1631
   1   2.0000     -11.273133      -306.7575
   2   2.0000     -11.268849      -306.6410
   3   2.0000     -11.231248      -305.6178
   4   2.0000     -11.230407      -305.5949
   5   2.0000     -11.225638      -305.4652
   6   2.0000     -11.219994      -305.3115
   7   2.0000     -11.217835      -305.2528
   8   2.0000     -11.216508      -305.2167
   9   2.0000      -1.373389       -37.3718
  10   2.0000      -1.112677       -30.2775
  11   2.0000      -1.044142       -28.4126
  12   2.0000      -1.011832       -27.5334
  13   2.0000      -0.941569       -25.6214
  14   2.0000      -0.886441       -24.1213
  15   2.0000      -0.830885       -22.6095
  16   2.0000      -0.819982       -22.3128
  17   2.0000      -0.708342       -19.2750
  18   2.0000      -0.668047       -18.1785
  19   2.0000      -0.656210       -17.8564
  20   2.0000      -0.625751       -17.0276
  21   2.0000      -0.612165       -16.6579
  22   2.0000      -0.592551       -16.1241
  23   2.0000      -0.588253       -16.0072
  24   2.0000      -0.559618       -15.2280
  25   2.0000      -0.535793       -14.5797
  26   2.0000      -0.530511       -14.4359
  27   2.0000      -0.521032       -14.1780
  28   2.0000      -0.507352       -13.8058
  29   2.0000      -0.497840       -13.5469
  30   2.0000      -0.494457       -13.4548
  31   2.0000      -0.471802       -12.8384
  32   2.0000      -0.445165       -12.1135
  33   2.0000      -0.403835       -10.9889
  34   2.0000      -0.338725        -9.2172
  35   0.0000       0.133008         3.6193
  36   0.0000       0.148431         4.0390
  37   0.0000       0.158387         4.3099
  38   0.0000       0.162671         4.4265
  39   0.0000       0.181608         4.9418

MULLIKEN ATOMIC CHARGES
-----------------------
   0 C :   -0.400191
   1 C :   -0.238525
   2 C :   -0.005245
   3 C :   -0.218348
   4 C :   -0.002933
   5 O :   -0.312930
   6 C :   -0.081498
   7 C :    0.013910
   8 C :   -0.453199
   9 H :    0.132419
  10 H :    0.125647
  11 H :    0.132714
  12 H :    0.114800
  13 H :    0.124290
  14 H :    0.117139
  15 H :    0.126931
  16 H :    0.096789
  17 H :    0.125227
  18 H :    0.091858
  19 H :    0.098210
  20 H :    0.136119
  21 H :    0.140090
  22 H :    0.136726
Sum of atomic charges:    0.0000000

LOEWDIN ATOMIC CHARGES
----------------------
   0 C :   -0.309552
   1 C :   -0.251946
   2 C :   -0.153592
   3 C :   -0.153766
   4 C :   -0.311114
   5 O :    0.160517
   6 C :   -0.291378
   7 C :   -0.245511
   8 C :   -0.287010
   9 H :    0.123354
  10 H :    0.119257
  11 H :    0.120895
  12 H :    0.141516
  13 H :    0.140806
  14 H :    0.144968
  15 H :    0.135885
  16 H :    0.125501
  17 H :    0.130875
  18 H :    0.125490
  19 H :    0.159100
  20 H :    0.126145
  21 H :    0.123266
  22 H :    0.126294

  Mayer bond orders larger than 0.1
B(  0-C ,  1-C ) :   0.9118 B(  0-C ,  9-H ) :   0.9377 B(  0-C , 10-H ) :   0.9363
B(  0-C , 11-H ) :   0.9370 B(  1-C ,  2-C ) :   0.8951 B(  1-C , 12-H ) :   0.9381
B(  1-C , 13-H ) :   0.9346 B(  2-C ,  3-C ) :   1.7651 B(  2-C ,  7-C ) :   0.9188
B(  3-C ,  4-C ) :   0.9313 B(  3-C , 14-H ) :   0.9115 B(  4-C ,  5-O ) :   0.9449
B(  4-C , 15-H ) :   0.9233 B(  4-C , 16-H ) :   0.9331 B(  5-O ,  6-C ) :   0.9346
B(  6-C ,  7-C ) :   0.9305 B(  6-C , 17-H ) :   0.9282 B(  6-C , 18-H ) :   0.9395
B(  7-C ,  8-C ) :   0.8824 B(  7-C , 19-H ) :   0.9025 B(  8-C , 20-H ) :   0.9315
B(  8-C , 21-H ) :   0.9350 B(  8-C , 22-H ) :   0.9367

MP2 TOTAL ENERGY:     -387.623504706 Eh
FINAL SINGLE POINT ENERGY      -387.623504706387

DIPOLE MOMENT
-------------
                                X             Y             Z
Electronic contribution:      5.95345      -2.09070      -3.93702
Nuclear contribution   :     -6.28077       2.01325       4.39974
                        -----------------------------------------
Total Dipole Moment    :     -0.32732      -0.07744       0.46272
                        -----------------------------------------
Magnitude (a.u.)       :      0.57205
Magnitude (Debye)      :      1.45404

                             ****ORCA TERMINATED NORMALLY****
TOTAL RUN TIME: 0 days 0 hours 21 minutes 57 seconds 994 msec
