                         Program Version 3.0.3 - RELEASE   -
|  1> ! RI-MP2 RIJK def2-TZVP def2-TZVP/C def2-TZVP/JK TIGHTSCF
|  2> % maxcore 2000
|  3> % mp2 density relaxed end
|  4> *xyz 0 1
|  5>  C       -0.0319705763     1.4817944062     0.0373475762
|  6>  C       -0.0092805228    -0.0147809385     0.0009531669
|  7>  N       -0.0487469140    -0.5652792683    -1.1659465101
|  8>  O       -0.0284527018    -1.9605130184    -1.2252126750
|  9>  C        0.0300784906    -2.6872854476    -0.1037811392
| 10>  C        0.0734765592    -2.1785450165     1.1420093137
| 11>  C        0.0563397803    -0.7429147730     1.3042277913
| 12>  O        0.0911518200    -0.1352061350     2.3630034456
| 13>  H        0.8605460969     1.8515485743     0.5512837447
| 14>  H       -0.0807963777     1.8915508682    -0.9717782086
| 15>  H       -0.8899025018     1.8232099743     0.6245473841
| 16>  H        0.0376273237    -3.7459003407    -0.3423802715
| 17>  H        0.1202235538    -2.8264174650     2.0076014819
| 18> *
| 19>
| 20>                          ****END OF INPUT****

CARTESIAN COORDINATES (ANGSTROEM)
---------------------------------
  C     -0.031971    1.481794    0.037348
  C     -0.009281   -0.014781    0.000953
  N     -0.048747   -0.565279   -1.165947
  O     -0.028453   -1.960513   -1.225213
  C      0.030078   -2.687285   -0.103781
  C      0.073477   -2.178545    1.142009
  C      0.056340   -0.742915    1.304228
  O      0.091152   -0.135206    2.363003
  H      0.860546    1.851549    0.551284
  H     -0.080796    1.891551   -0.971778
  H     -0.889903    1.823210    0.624547
  H      0.037627   -3.745900   -0.342380
  H      0.120224   -2.826417    2.007601

 Total Charge           Charge          ....    0
 Multiplicity           Mult            ....    1
 Number of Electrons    NEL             ....   58
 Basis Dimension        Dim             ....  278

ORBITAL ENERGIES
----------------

  NO   OCC          E(Eh)            E(eV)
   0   2.0000     -20.665538      -562.3379
   1   2.0000     -20.551023      -559.2218
   2   2.0000     -15.665416      -426.2776
   3   2.0000     -11.351848      -308.8995
   4   2.0000     -11.351157      -308.8807
   5   2.0000     -11.312964      -307.8414
   6   2.0000     -11.254441      -306.2489
   7   2.0000     -11.240623      -305.8729
   8   2.0000      -1.504204       -40.9315
   9   2.0000      -1.392976       -37.9048
  10   2.0000      -1.220872       -33.2216
  11   2.0000      -1.107996       -30.1501
  12   2.0000      -1.007112       -27.4049
  13   2.0000      -0.904733       -24.6190
  14   2.0000      -0.880502       -23.9597
  15   2.0000      -0.755652       -20.5623
  16   2.0000      -0.736681       -20.0461
  17   2.0000      -0.679025       -18.4772
  18   2.0000      -0.669956       -18.2304
  19   2.0000      -0.633361       -17.2346
  20   2.0000      -0.613265       -16.6878
  21   2.0000      -0.596026       -16.2187
  22   2.0000      -0.564335       -15.3563
  23   2.0000      -0.551981       -15.0202
  24   2.0000      -0.547287       -14.8924
  25   2.0000      -0.519214       -14.1285
  26   2.0000      -0.445810       -12.1311
  27   2.0000      -0.427215       -11.6251
  28   2.0000      -0.379103       -10.3159
  29   0.0000       0.068542         1.8651
  30   0.0000       0.114376         3.1123
  31   0.0000       0.144656         3.9363
  32   0.0000       0.151669         4.1271
  33   0.0000       0.188656         5.1336

MULLIKEN ATOMIC CHARGES
-----------------------
   0 C :   -0.367732
   1 C :    0.060504
   2 N :   -0.076810
   3 O :   -0.111808
   4 C :    0.068676
   5 C :   -0.239899
   6 C :    0.211639
   7 O :   -0.325730
   8 H :    0.152994
   9 H :    0.157409
  10 H :    0.153001
  11 H :    0.162638
  12 H :    0.155116
Sum of atomic charges:   -0.0000000

LOEWDIN ATOMIC CHARGES
----------------------
   0 C :   -0.255988
   1 C :   -0.234041
   2 N :    0.094003
   3 O :    0.255543
   4 C :   -0.228674
   5 C :   -0.145341
   6 C :   -0.344233
   7 O :    0.125920
   8 H :    0.143829
   9 H :    0.135741
  10 H :    0.143823
  11 H :    0.148574
  12 H :    0.160845

  Mayer bond orders larger than 0.1
B(  0-C ,  1-C ) :   0.9042 B(  0-C ,  8-H ) :   0.9135 B(  0-C ,  9-H ) :   0.9413
B(  0-C , 10-H ) :   0.9135 B(  1-C ,  2-N ) :   1.7040 B(  1-C ,  6-C ) :   0.9083
B(  2-N ,  3-O ) :   0.8198 B(  3-O ,  4-C ) :   1.1112 B(  4-C ,  5-C ) :   1.5556
B(  4-C , 11-H ) :   0.9224 B(  5-C ,  6-C ) :   1.1402 B(  5-C , 12-H ) :   0.9073
B(  6-C ,  7-O ) :   1.8896

MP2 TOTAL ENERGY:     -397.931270592 Eh
FINAL SINGLE POINT ENERGY      -397.931270591722

DIPOLE MOMENT
-------------
                                X             Y             Z
Electronic contribution:      0.03012      -3.62057      -0.66669
Nuclear contribution   :     -0.03088       2.94441       0.38794
                        -----------------------------------------
Total Dipole Moment    :     -0.00076      -0.67616      -0.27875
                        -----------------------------------------
Magnitude (a.u.)       :      0.73137
Magnitude (Debye)      :      1.85899

                             ****ORCA TERMINATED NORMALLY****
TOTAL RUN TIME: 0 days 0 hours 10 minutes 23 seconds 188 msec
