                         Program Version 3.0.3 - RELEASE   -
|  1> ! RI-MP2 RIJK def2-TZVP def2-TZVP/C def2-TZVP/JK TIGHTSCF
|  2> % maxcore 2000
|  3> % mp2 density relaxed end
|  4> *xyz 0 1
|  5>  C       -0.0530541000     1.3937806840    -0.0629388071
|  6>  N       -0.0234410623    -0.0445609667     0.0100363091
|  7>  N        0.0620588722    -0.7892748828    -1.1326763433
|  8>  C        0.0639595871    -2.0461836657    -0.7068486336
|  9>  N        0.0431257061    -3.1112968044    -1.6127677351
| 10>  C        0.0240445098    -2.1456646456     0.7078996133
| 11>  C        0.0204951234    -3.3843254273     1.5457272105
| 12>  C       -0.0233145257    -0.8225496084     1.1217683904
| 13>  N       -0.1389855931    -0.2481850528     2.3980012397
| 14>  H        0.9531467967     1.8260269978    -0.1413437431
| 15>  H       -0.6242053232     1.6856563679    -0.9461354597
| 16>  H       -0.5400441030     1.7821406172     0.8345135457
| 17>  H        0.2857289135    -2.7981123199    -2.5448943508
| 18>  H        0.6451308555    -3.8770050717    -1.3371554876
| 19>  H        0.8379901447    -4.0659163463     1.2762847469
| 20>  H        0.1523926766    -3.1481263710     2.6078109812
| 21>  H       -0.9121684620    -3.9547445286     1.4521398879
| 22>  H       -0.3283071837    -0.9531158247     3.0990748171
| 23>  H        0.6878436175     0.2689989689     2.6788536683
| 24> *
| 25>
| 26>                          ****END OF INPUT****

CARTESIAN COORDINATES (ANGSTROEM)
---------------------------------
  C     -0.053054    1.393781   -0.062939
  N     -0.023441   -0.044561    0.010036
  N      0.062059   -0.789275   -1.132676
  C      0.063960   -2.046184   -0.706849
  N      0.043126   -3.111297   -1.612768
  C      0.024045   -2.145665    0.707900
  C      0.020495   -3.384325    1.545727
  C     -0.023315   -0.822550    1.121768
  N     -0.138986   -0.248185    2.398001
  H      0.953147    1.826027   -0.141344
  H     -0.624205    1.685656   -0.946135
  H     -0.540044    1.782141    0.834514
  H      0.285729   -2.798112   -2.544894
  H      0.645131   -3.877005   -1.337155
  H      0.837990   -4.065916    1.276285
  H      0.152393   -3.148126    2.607811
  H     -0.912168   -3.954745    1.452140
  H     -0.328307   -0.953116    3.099075
  H      0.687844    0.268999    2.678854

 Total Charge           Charge          ....    0
 Multiplicity           Mult            ....    1
 Number of Electrons    NEL             ....   68
 Basis Dimension        Dim             ....  339

ORBITAL ENERGIES
----------------

  NO   OCC          E(Eh)            E(eV)
   0   2.0000     -15.608695      -424.7342
   1   2.0000     -15.576223      -423.8506
   2   2.0000     -15.552470      -423.2042
   3   2.0000     -15.546491      -423.0415
   4   2.0000     -11.299519      -307.4755
   5   2.0000     -11.275025      -306.8090
   6   2.0000     -11.256744      -306.3116
   7   2.0000     -11.226530      -305.4894
   8   2.0000     -11.203330      -304.8581
   9   2.0000      -1.358139       -36.9568
  10   2.0000      -1.222129       -33.2558
  11   2.0000      -1.195911       -32.5424
  12   2.0000      -1.082392       -29.4534
  13   2.0000      -1.042360       -28.3641
  14   2.0000      -0.960587       -26.1389
  15   2.0000      -0.893307       -24.3081
  16   2.0000      -0.777168       -21.1478
  17   2.0000      -0.768845       -20.9213
  18   2.0000      -0.700612       -19.0646
  19   2.0000      -0.674116       -18.3436
  20   2.0000      -0.660480       -17.9726
  21   2.0000      -0.636708       -17.3257
  22   2.0000      -0.608623       -16.5615
  23   2.0000      -0.592309       -16.1176
  24   2.0000      -0.573528       -15.6065
  25   2.0000      -0.562260       -15.2999
  26   2.0000      -0.537417       -14.6239
  27   2.0000      -0.530564       -14.4374
  28   2.0000      -0.527068       -14.3422
  29   2.0000      -0.479676       -13.0527
  30   2.0000      -0.448581       -12.2065
  31   2.0000      -0.429820       -11.6960
  32   2.0000      -0.307981        -8.3806
  33   2.0000      -0.301523        -8.2048
  34   0.0000       0.118022         3.2115
  35   0.0000       0.141947         3.8626
  36   0.0000       0.161625         4.3980
  37   0.0000       0.175902         4.7865
  38   0.0000       0.186079         5.0635

MULLIKEN ATOMIC CHARGES
-----------------------
   0 C :   -0.351704
   1 N :    0.094647
   2 N :   -0.289203
   3 C :    0.154542
   4 N :   -0.524512
   5 C :   -0.093327
   6 C :   -0.412787
   7 C :    0.139013
   8 N :   -0.568758
   9 H :    0.136967
  10 H :    0.159678
  11 H :    0.165463
  12 H :    0.245999
  13 H :    0.242503
  14 H :    0.131497
  15 H :    0.105231
  16 H :    0.157489
  17 H :    0.249047
  18 H :    0.258215
Sum of atomic charges:    0.0000000

LOEWDIN ATOMIC CHARGES
----------------------
   0 C :   -0.288832
   1 N :    0.177027
   2 N :    0.034051
   3 C :   -0.366760
   4 N :   -0.091401
   5 C :   -0.204003
   6 C :   -0.281732
   7 C :   -0.309431
   8 N :   -0.096787
   9 H :    0.116893
  10 H :    0.129040
  11 H :    0.128772
  12 H :    0.169164
  13 H :    0.164707
  14 H :    0.127127
  15 H :    0.123150
  16 H :    0.131705
  17 H :    0.168898
  18 H :    0.168412

  Mayer bond orders larger than 0.1
B(  0-C ,  1-N ) :   0.8720 B(  0-C ,  9-H ) :   0.9257 B(  0-C , 10-H ) :   0.9312
B(  0-C , 11-H ) :   0.9266 B(  1-N ,  2-N ) :   0.9541 B(  1-N ,  7-C ) :   1.2470
B(  2-N ,  3-C ) :   1.5696 B(  3-C ,  4-N ) :   1.0268 B(  3-C ,  5-C ) :   1.2746
B(  4-N , 12-H ) :   0.8765 B(  4-N , 13-H ) :   0.8734 B(  5-C ,  6-C ) :   0.8633
B(  5-C ,  7-C ) :   1.4123 B(  6-C , 14-H ) :   0.9371 B(  6-C , 15-H ) :   0.9397
B(  6-C , 16-H ) :   0.9405 B(  7-C ,  8-N ) :   0.9691 B(  8-N , 17-H ) :   0.8865
B(  8-N , 18-H ) :   0.8671

MP2 TOTAL ENERGY:     -414.707435374 Eh
FINAL SINGLE POINT ENERGY      -414.707435374449

DIPOLE MOMENT
-------------
                                X             Y             Z
Electronic contribution:     -0.29625       0.88333      -3.08563
Nuclear contribution   :      1.02966      -0.79554       4.04101
                        -----------------------------------------
Total Dipole Moment    :      0.73342       0.08780       0.95538
                        -----------------------------------------
Magnitude (a.u.)       :      1.20763
Magnitude (Debye)      :      3.06954

                             ****ORCA TERMINATED NORMALLY****
TOTAL RUN TIME: 0 days 0 hours 19 minutes 39 seconds 398 msec
