                         Program Version 3.0.3 - RELEASE   -
|  1> ! RI-MP2 RIJK def2-TZVP def2-TZVP/C def2-TZVP/JK TIGHTSCF
|  2> % maxcore 2000
|  3> % mp2 density relaxed end
|  4> *xyz 0 1
|  5>  N       -0.0665866089    -1.1454854770    -0.1150430300
|  6>  C       -0.0317938339     0.0082241046    -0.0425830537
|  7>  C        0.0127478364     1.4616258298     0.0496268476
|  8>  C       -0.3722000774     2.0507116180     1.4394775357
|  9>  C        0.7678861556     1.5257991246     2.3400085091
| 10>  C        2.0132140771     1.5475736159     1.3953488246
| 11>  C        1.4414961286     2.0824110066     0.0636677150
| 12>  C        1.0958317367     3.5780632148     0.2321128974
| 13>  C       -0.1501130250     3.5562901096     1.1772676337
| 14>  H       -0.6041718209     1.8770199828    -0.7540745548
| 15>  H       -1.3733659399     1.7992223309     1.7916970864
| 16>  H        0.8952369422     2.1533658092     3.2260776108
| 17>  H        0.5562000727     0.5105617746     2.6848802697
| 18>  H        2.8181060520     2.1870017849     1.7674479940
| 19>  H        2.4248020846     0.5432378636     1.2674497102
| 20>  H        2.0557647476     1.8591535660    -0.8095273330
| 21>  H        1.9364899438     4.1362917883     0.6525926466
| 22>  H        0.8525903301     4.0352418018    -0.7315824572
| 23>  H       -1.0226228561     4.0025047402     0.6909512347
| 24>  H        0.0160388347     4.1026984809     2.1094484430
| 25> *
| 26>
| 27>                          ****END OF INPUT****

CARTESIAN COORDINATES (ANGSTROEM)
---------------------------------
  N     -0.066587   -1.145485   -0.115043
  C     -0.031794    0.008224   -0.042583
  C      0.012748    1.461626    0.049627
  C     -0.372200    2.050712    1.439478
  C      0.767886    1.525799    2.340009
  C      2.013214    1.547574    1.395349
  C      1.441496    2.082411    0.063668
  C      1.095832    3.578063    0.232113
  C     -0.150113    3.556290    1.177268
  H     -0.604172    1.877020   -0.754075
  H     -1.373366    1.799222    1.791697
  H      0.895237    2.153366    3.226078
  H      0.556200    0.510562    2.684880
  H      2.818106    2.187002    1.767448
  H      2.424802    0.543238    1.267450
  H      2.055765    1.859154   -0.809527
  H      1.936490    4.136292    0.652593
  H      0.852590    4.035242   -0.731582
  H     -1.022623    4.002505    0.690951
  H      0.016039    4.102698    2.109448

 Total Charge           Charge          ....    0
 Multiplicity           Mult            ....    1
 Number of Electrons    NEL             ....   66
 Basis Dimension        Dim             ....  345

ORBITAL ENERGIES
----------------

  NO   OCC          E(Eh)            E(eV)
   0   2.0000     -15.562538      -423.4782
   1   2.0000     -11.274193      -306.7864
   2   2.0000     -11.266084      -306.5657
   3   2.0000     -11.249901      -306.1254
   4   2.0000     -11.249880      -306.1248
   5   2.0000     -11.236235      -305.7535
   6   2.0000     -11.235704      -305.7391
   7   2.0000     -11.230728      -305.6037
   8   2.0000     -11.230195      -305.5891
   9   2.0000      -1.218221       -33.1495
  10   2.0000      -1.182476       -32.1768
  11   2.0000      -1.017371       -27.6841
  12   2.0000      -1.002559       -27.2810
  13   2.0000      -0.997251       -27.1366
  14   2.0000      -0.842267       -22.9192
  15   2.0000      -0.815227       -22.1835
  16   2.0000      -0.753478       -20.5032
  17   2.0000      -0.710723       -19.3398
  18   2.0000      -0.691966       -18.8294
  19   2.0000      -0.657100       -17.8806
  20   2.0000      -0.588535       -16.0148
  21   2.0000      -0.569490       -15.4966
  22   2.0000      -0.559823       -15.2336
  23   2.0000      -0.538173       -14.6444
  24   2.0000      -0.522344       -14.2137
  25   2.0000      -0.516360       -14.0509
  26   2.0000      -0.514647       -14.0042
  27   2.0000      -0.496331       -13.5059
  28   2.0000      -0.488758       -13.2998
  29   2.0000      -0.467145       -12.7117
  30   2.0000      -0.447471       -12.1763
  31   2.0000      -0.441362       -12.0101
  32   2.0000      -0.426808       -11.6140
  33   0.0000       0.118125         3.2144
  34   0.0000       0.152184         4.1411
  35   0.0000       0.155134         4.2214
  36   0.0000       0.162017         4.4087
  37   0.0000       0.175623         4.7790

MULLIKEN ATOMIC CHARGES
-----------------------
   0 N :   -0.044179
   1 C :   -0.242680
   2 C :   -0.014003
   3 C :   -0.005821
   4 C :   -0.290853
   5 C :   -0.290847
   6 C :   -0.005823
   7 C :   -0.272948
   8 C :   -0.272944
   9 H :    0.140602
  10 H :    0.134424
  11 H :    0.121015
  12 H :    0.143711
  13 H :    0.121013
  14 H :    0.143711
  15 H :    0.134423
  16 H :    0.123683
  17 H :    0.126918
  18 H :    0.126919
  19 H :    0.123681
Sum of atomic charges:   -0.0000000

LOEWDIN ATOMIC CHARGES
----------------------
   0 N :    0.057697
   1 C :   -0.167238
   2 C :   -0.189882
   3 C :   -0.197764
   4 C :   -0.219157
   5 C :   -0.219156
   6 C :   -0.197765
   7 C :   -0.220867
   8 C :   -0.220865
   9 H :    0.177216
  10 H :    0.148551
  11 H :    0.135620
  12 H :    0.141861
  13 H :    0.135620
  14 H :    0.141861
  15 H :    0.148551
  16 H :    0.136564
  17 H :    0.136294
  18 H :    0.136293
  19 H :    0.136565

  Mayer bond orders larger than 0.1
B(  0-N ,  1-C ) :   2.8887 B(  1-C ,  2-C ) :   0.9269 B(  2-C ,  3-C ) :   0.8737
B(  2-C ,  6-C ) :   0.8737 B(  2-C ,  9-H ) :   0.9003 B(  3-C ,  4-C ) :   0.9175
B(  3-C ,  8-C ) :   0.9060 B(  3-C , 10-H ) :   0.9199 B(  4-C ,  5-C ) :   0.9567
B(  4-C , 11-H ) :   0.9279 B(  4-C , 12-H ) :   0.9228 B(  5-C ,  6-C ) :   0.9175
B(  5-C , 13-H ) :   0.9279 B(  5-C , 14-H ) :   0.9228 B(  6-C ,  7-C ) :   0.9060
B(  6-C , 15-H ) :   0.9199 B(  7-C ,  8-C ) :   0.9522 B(  7-C , 16-H ) :   0.9293
B(  7-C , 17-H ) :   0.9266 B(  8-C , 18-H ) :   0.9266 B(  8-C , 19-H ) :   0.9293

MP2 TOTAL ENERGY:     -365.405413194 Eh
FINAL SINGLE POINT ENERGY      -365.405413193622

DIPOLE MOMENT
-------------
                                X             Y             Z
Electronic contribution:     -2.31118      -6.75667      -3.20246
Nuclear contribution   :      2.48163       8.36773       3.46429
                        -----------------------------------------
Total Dipole Moment    :      0.17045       1.61106       0.26183
                        -----------------------------------------
Magnitude (a.u.)       :      1.64108
Magnitude (Debye)      :      4.17129

                             ****ORCA TERMINATED NORMALLY****
TOTAL RUN TIME: 0 days 0 hours 19 minutes 12 seconds 241 msec
