                         Program Version 3.0.3 - RELEASE   -
|  1> ! RI-MP2 RIJK def2-TZVP def2-TZVP/C def2-TZVP/JK TIGHTSCF
|  2> % maxcore 2000
|  3> % mp2 density relaxed end
|  4> *xyz 0 1
|  5>  C        0.1323808357     1.2225819407     0.2666663310
|  6>  O       -0.3135330213    -0.0167224801    -0.2345069004
|  7>  C        0.5168664959    -0.5406777988    -1.2351833187
|  8>  C        1.8779457657    -1.1805407244    -0.8347861992
|  9>  C        1.5636910138    -2.3366102832    -1.8273422120
| 10>  C        1.9413386930    -3.7566075449    -1.4298172694
| 11>  C        1.4843073663    -4.8023315963    -2.4396893021
| 12>  O        1.8955979686    -6.0770460336    -1.9677879006
| 13>  C        0.0661976044    -1.9065435875    -1.7829446037
| 14>  H        1.1239428260     1.1450350198     0.7377778222
| 15>  H        0.1885185015     1.9859996854    -0.5259462192
| 16>  H       -0.5889041798     1.5493099516     1.0197119640
| 17>  H        0.6541133897     0.1974751113    -2.0421243808
| 18>  H        2.7954285497    -0.6065922909    -0.9849248063
| 19>  H        1.8342124648    -1.5299449738     0.2021450163
| 20>  H        1.9872700103    -2.1031324021    -2.8116980803
| 21>  H        3.0296829032    -3.8383771416    -1.3152439585
| 22>  H        1.5039798701    -3.9994581196    -0.4533173471
| 23>  H        0.3893068478    -4.7556094335    -2.5560184854
| 24>  H        1.9248980956    -4.5819189547    -3.4265545059
| 25>  H        1.5861321346    -6.7420164304    -2.5894763557
| 26>  H       -0.4775196504    -2.4504925000    -1.0038045979
| 27>  H       -0.5172832654    -1.9227531331    -2.7060768102
| 28> *
| 29>
| 30>                          ****END OF INPUT****

CARTESIAN COORDINATES (ANGSTROEM)
---------------------------------
  C      0.132381    1.222582    0.266666
  O     -0.313533   -0.016722   -0.234507
  C      0.516866   -0.540678   -1.235183
  C      1.877946   -1.180541   -0.834786
  C      1.563691   -2.336610   -1.827342
  C      1.941339   -3.756608   -1.429817
  C      1.484307   -4.802332   -2.439689
  O      1.895598   -6.077046   -1.967788
  C      0.066198   -1.906544   -1.782945
  H      1.123943    1.145035    0.737778
  H      0.188519    1.986000   -0.525946
  H     -0.588904    1.549310    1.019712
  H      0.654113    0.197475   -2.042124
  H      2.795429   -0.606592   -0.984925
  H      1.834212   -1.529945    0.202145
  H      1.987270   -2.103132   -2.811698
  H      3.029683   -3.838377   -1.315244
  H      1.503980   -3.999458   -0.453317
  H      0.389307   -4.755609   -2.556018
  H      1.924898   -4.581919   -3.426555
  H      1.586132   -6.742016   -2.589476
  H     -0.477520   -2.450493   -1.003805
  H     -0.517283   -1.922753   -2.706077

 Total Charge           Charge          ....    0
 Multiplicity           Mult            ....    1
 Number of Electrons    NEL             ....   72
 Basis Dimension        Dim             ....  363

ORBITAL ENERGIES
----------------

  NO   OCC          E(Eh)            E(eV)
   0   2.0000     -20.552713      -559.2678
   1   2.0000     -20.552289      -559.2562
   2   2.0000     -11.275574      -306.8240
   3   2.0000     -11.272584      -306.7426
   4   2.0000     -11.268540      -306.6326
   5   2.0000     -11.229096      -305.5592
   6   2.0000     -11.217690      -305.2489
   7   2.0000     -11.216351      -305.2124
   8   2.0000     -11.215021      -305.1762
   9   2.0000      -1.375139       -37.4194
  10   2.0000      -1.356448       -36.9108
  11   2.0000      -1.131672       -30.7944
  12   2.0000      -1.021451       -27.7951
  13   2.0000      -0.938202       -25.5298
  14   2.0000      -0.899152       -24.4672
  15   2.0000      -0.869383       -23.6571
  16   2.0000      -0.800293       -21.7771
  17   2.0000      -0.756547       -20.5867
  18   2.0000      -0.694858       -18.9081
  19   2.0000      -0.670021       -18.2322
  20   2.0000      -0.653821       -17.7914
  21   2.0000      -0.645278       -17.5589
  22   2.0000      -0.628979       -17.1154
  23   2.0000      -0.610025       -16.5996
  24   2.0000      -0.576666       -15.6919
  25   2.0000      -0.550873       -14.9900
  26   2.0000      -0.540084       -14.6964
  27   2.0000      -0.529239       -14.4013
  28   2.0000      -0.514532       -14.0011
  29   2.0000      -0.492024       -13.3887
  30   2.0000      -0.469883       -12.7862
  31   2.0000      -0.461673       -12.5628
  32   2.0000      -0.445963       -12.1353
  33   2.0000      -0.439868       -11.9694
  34   2.0000      -0.431555       -11.7432
  35   2.0000      -0.401281       -10.9194
  36   0.0000       0.133912         3.6439
  37   0.0000       0.142078         3.8661
  38   0.0000       0.155944         4.2434
  39   0.0000       0.160445         4.3659
  40   0.0000       0.172346         4.6898

MULLIKEN ATOMIC CHARGES
-----------------------
   0 C :   -0.218563
   1 O :   -0.293444
   2 C :    0.033176
   3 C :   -0.214600
   4 C :   -0.097126
   5 C :   -0.193781
   6 C :   -0.070190
   7 O :   -0.463915
   8 C :   -0.201398
   9 H :    0.115238
  10 H :    0.109309
  11 H :    0.141180
  12 H :    0.065202
  13 H :    0.123095
  14 H :    0.107430
  15 H :    0.095930
  16 H :    0.115753
  17 H :    0.110069
  18 H :    0.099886
  19 H :    0.089170
  20 H :    0.314297
  21 H :    0.110535
  22 H :    0.122748
Sum of atomic charges:    0.0000000

LOEWDIN ATOMIC CHARGES
----------------------
   0 C :   -0.356275
   1 O :    0.155743
   2 C :   -0.318065
   3 C :   -0.206950
   4 C :   -0.231665
   5 C :   -0.257599
   6 C :   -0.349478
   7 O :   -0.052524
   8 C :   -0.200840
   9 H :    0.102484
  10 H :    0.101181
  11 H :    0.113294
  12 H :    0.131415
  13 H :    0.122730
  14 H :    0.142344
  15 H :    0.149489
  16 H :    0.143214
  17 H :    0.142084
  18 H :    0.115557
  19 H :    0.113677
  20 H :    0.171181
  21 H :    0.144885
  22 H :    0.124115

  Mayer bond orders larger than 0.1
B(  0-C ,  1-O ) :   0.9080 B(  0-C ,  9-H ) :   0.9346 B(  0-C , 10-H ) :   0.9344
B(  0-C , 11-H ) :   0.9415 B(  1-O ,  2-C ) :   1.0649 B(  2-C ,  3-C ) :   0.9374
B(  2-C ,  8-C ) :   0.9237 B(  2-C , 12-H ) :   0.9507 B(  3-C ,  4-C ) :   0.9478
B(  3-C , 13-H ) :   0.9241 B(  3-C , 14-H ) :   0.9017 B(  4-C ,  5-C ) :   0.8828
B(  4-C ,  8-C ) :   0.9160 B(  4-C , 15-H ) :   0.9206 B(  5-C ,  6-C ) :   0.9324
B(  5-C , 16-H ) :   0.9315 B(  5-C , 17-H ) :   0.9200 B(  6-C ,  7-O ) :   1.0185
B(  6-C , 18-H ) :   0.9339 B(  6-C , 19-H ) :   0.9306 B(  7-O , 20-H ) :   0.8494
B(  8-C , 21-H ) :   0.9060 B(  8-C , 22-H ) :   0.9232

MP2 TOTAL ENERGY:     -424.697819520 Eh
FINAL SINGLE POINT ENERGY      -424.697819520431

DIPOLE MOMENT
-------------
                                X             Y             Z
Electronic contribution:     -1.07625      -2.49831      -0.00493
Nuclear contribution   :      1.16121       2.79760      -0.62884
                        -----------------------------------------
Total Dipole Moment    :      0.08496       0.29929      -0.63377
                        -----------------------------------------
Magnitude (a.u.)       :      0.70601
Magnitude (Debye)      :      1.79454

                             ****ORCA TERMINATED NORMALLY****
TOTAL RUN TIME: 0 days 0 hours 16 minutes 20 seconds 261 msec
