                         Program Version 3.0.3 - RELEASE   -
|  1> ! RI-MP2 RIJK def2-TZVP def2-TZVP/C def2-TZVP/JK TIGHTSCF
|  2> % maxcore 2000
|  3> % mp2 density relaxed end
|  4> *xyz 0 1
|  5>  C        0.0207742507     1.3641032559     0.0662631885
|  6>  O       -0.0520270541    -0.0326508314    -0.1370258035
|  7>  C       -1.3368197231    -0.5704191560    -0.0542549851
|  8>  C       -2.0400349237    -0.6268190273     1.3317715320
|  9>  N       -2.3055649786    -2.1002510306     1.1809371906
| 10>  C       -2.8418949442    -2.3347259934    -0.1966777012
| 11>  C       -3.4896890148    -1.1860070100    -0.9644248237
| 12>  C       -2.3478155830    -0.1501860646    -1.1356277173
| 13>  C       -1.3960875990    -2.1178856052    -0.0181366854
| 14>  H        1.0799470884     1.6306925870     0.0603052036
| 15>  H       -0.4884281876     1.9269394379    -0.7283364398
| 16>  H       -0.4116407146     1.6600970204     1.0334411322
| 17>  H       -1.3347503531    -0.4949008384     2.1558176349
| 18>  H       -2.9268416979    -0.0049458023     1.5007610230
| 19>  H       -3.2439775870    -3.3372014952    -0.2976080482
| 20>  H       -3.8667732129    -1.5389780146    -1.9285167563
| 21>  H       -4.3473027656    -0.7737991892    -0.4216448191
| 22>  H       -2.6966255760     0.8798583931    -1.0126769002
| 23>  H       -1.8773895490    -0.2377950974    -2.1212377607
| 24>  H       -0.5774733048    -2.8159610986    -0.1436824243
| 25> *
| 26>
| 27>                          ****END OF INPUT****

CARTESIAN COORDINATES (ANGSTROEM)
---------------------------------
  C      0.020774    1.364103    0.066263
  O     -0.052027   -0.032651   -0.137026
  C     -1.336820   -0.570419   -0.054255
  C     -2.040035   -0.626819    1.331772
  N     -2.305565   -2.100251    1.180937
  C     -2.841895   -2.334726   -0.196678
  C     -3.489689   -1.186007   -0.964425
  C     -2.347816   -0.150186   -1.135628
  C     -1.396088   -2.117886   -0.018137
  H      1.079947    1.630693    0.060305
  H     -0.488428    1.926939   -0.728336
  H     -0.411641    1.660097    1.033441
  H     -1.334750   -0.494901    2.155818
  H     -2.926842   -0.004946    1.500761
  H     -3.243978   -3.337201   -0.297608
  H     -3.866773   -1.538978   -1.928517
  H     -4.347303   -0.773799   -0.421645
  H     -2.696626    0.879858   -1.012677
  H     -1.877390   -0.237795   -2.121238
  H     -0.577473   -2.815961   -0.143682

 Total Charge           Charge          ....    0
 Multiplicity           Mult            ....    1
 Number of Electrons    NEL             ....   68
 Basis Dimension        Dim             ....  345

ORBITAL ENERGIES
----------------

  NO   OCC          E(Eh)            E(eV)
   0   2.0000     -20.562877      -559.5443
   1   2.0000     -15.556936      -423.3257
   2   2.0000     -11.290814      -307.2387
   3   2.0000     -11.276527      -306.8499
   4   2.0000     -11.257883      -306.3426
   5   2.0000     -11.251582      -306.1711
   6   2.0000     -11.249925      -306.1260
   7   2.0000     -11.232217      -305.6442
   8   2.0000     -11.227615      -305.5189
   9   2.0000      -1.388327       -37.7783
  10   2.0000      -1.291742       -35.1501
  11   2.0000      -1.061963       -28.8975
  12   2.0000      -1.008408       -27.4402
  13   2.0000      -0.950321       -25.8595
  14   2.0000      -0.896929       -24.4067
  15   2.0000      -0.846739       -23.0410
  16   2.0000      -0.776900       -21.1405
  17   2.0000      -0.734678       -19.9916
  18   2.0000      -0.708229       -19.2719
  19   2.0000      -0.657636       -17.8952
  20   2.0000      -0.645552       -17.5664
  21   2.0000      -0.619933       -16.8692
  22   2.0000      -0.604478       -16.4487
  23   2.0000      -0.587890       -15.9973
  24   2.0000      -0.562261       -15.2999
  25   2.0000      -0.545780       -14.8514
  26   2.0000      -0.522849       -14.2274
  27   2.0000      -0.503935       -13.7128
  28   2.0000      -0.500201       -13.6112
  29   2.0000      -0.463002       -12.5989
  30   2.0000      -0.444195       -12.0872
  31   2.0000      -0.423962       -11.5366
  32   2.0000      -0.414166       -11.2700
  33   2.0000      -0.354341        -9.6421
  34   0.0000       0.132681         3.6104
  35   0.0000       0.157419         4.2836
  36   0.0000       0.170427         4.6375
  37   0.0000       0.177094         4.8190
  38   0.0000       0.190516         5.1842

MULLIKEN ATOMIC CHARGES
-----------------------
   0 C :   -0.224614
   1 O :   -0.299459
   2 C :    0.305135
   3 C :   -0.207796
   4 N :   -0.221710
   5 C :   -0.093037
   6 C :   -0.202915
   7 C :   -0.284550
   8 C :   -0.142324
   9 H :    0.146532
  10 H :    0.120494
  11 H :    0.116183
  12 H :    0.122844
  13 H :    0.107425
  14 H :    0.128092
  15 H :    0.128510
  16 H :    0.119476
  17 H :    0.123399
  18 H :    0.115922
  19 H :    0.142395
Sum of atomic charges:    0.0000000

LOEWDIN ATOMIC CHARGES
----------------------
   0 C :   -0.344543
   1 O :    0.188865
   2 C :   -0.341982
   3 C :   -0.213496
   4 N :    0.115849
   5 C :   -0.227055
   6 C :   -0.230475
   7 C :   -0.212823
   8 C :   -0.150657
   9 H :    0.115310
  10 H :    0.103535
  11 H :    0.104811
  12 H :    0.136655
  13 H :    0.120537
  14 H :    0.144461
  15 H :    0.141574
  16 H :    0.138446
  17 H :    0.134598
  18 H :    0.141428
  19 H :    0.134960

  Mayer bond orders larger than 0.1
B(  0-C ,  1-O ) :   0.8958 B(  0-C ,  9-H ) :   0.9417 B(  0-C , 10-H ) :   0.9345
B(  0-C , 11-H ) :   0.9311 B(  1-O ,  2-C ) :   1.0144 B(  2-C ,  3-C ) :   0.9563
B(  2-C ,  7-C ) :   0.8986 B(  2-C ,  8-C ) :   0.8954 B(  3-C ,  4-N ) :   0.9635
B(  3-C , 12-H ) :   0.9055 B(  3-C , 13-H ) :   0.9153 B(  4-N ,  5-C ) :   0.9177
B(  4-N ,  8-C ) :   0.8669 B(  5-C ,  6-C ) :   0.9127 B(  5-C ,  8-C ) :   0.9213
B(  5-C , 14-H ) :   0.9412 B(  6-C ,  7-C ) :   0.9624 B(  6-C , 15-H ) :   0.9151
B(  6-C , 16-H ) :   0.9197 B(  7-C , 17-H ) :   0.9198 B(  7-C , 18-H ) :   0.9158
B(  8-C , 19-H ) :   0.8933

MP2 TOTAL ENERGY:     -402.409896799 Eh
FINAL SINGLE POINT ENERGY      -402.409896799263

DIPOLE MOMENT
-------------
                                X             Y             Z
Electronic contribution:      1.40663      -4.63282       1.32952
Nuclear contribution   :     -1.63901       5.38415      -1.84457
                        -----------------------------------------
Total Dipole Moment    :     -0.23239       0.75133      -0.51505
                        -----------------------------------------
Magnitude (a.u.)       :      0.94009
Magnitude (Debye)      :      2.38952

                             ****ORCA TERMINATED NORMALLY****
TOTAL RUN TIME: 0 days 0 hours 20 minutes 31 seconds 441 msec
