                         Program Version 3.0.3 - RELEASE   -
|  1> ! RI-MP2 RIJK def2-TZVP def2-TZVP/C def2-TZVP/JK TIGHTSCF
|  2> % maxcore 2000
|  3> % mp2 density relaxed end
|  4> *xyz 0 1
|  5>  O        0.1373287088    -0.0093711952     0.6536616649
|  6>  C        0.1627337431     1.0706719668     0.1255967514
|  7>  O       -0.9365904150     1.4677065187    -0.6017118202
|  8>  C       -1.3178276553     2.8456294509    -0.7776640518
|  9>  C       -1.1356368430     3.3324236790    -2.2214208339
| 10>  C        0.3147729458     3.6610310161    -2.6171847079
| 11>  N        1.2503379512     2.6255930808    -2.1516597247
| 12>  C        1.7112672530     2.7624198405    -0.8364287627
| 13>  C        1.3107680174     2.0043247335     0.1954517865
| 14>  H       -2.3812688907     2.8747946947    -0.5213326271
| 15>  H       -0.7799717830     3.4836230753    -0.0711036811
| 16>  H       -1.5336367650     2.5547900175    -2.8850241223
| 17>  H       -1.7644035668     4.2186698447    -2.3711418000
| 18>  H        0.3907142660     3.7643690174    -3.7052389201
| 19>  H        0.6283207413     4.6151632950    -2.1798495122
| 20>  H        0.8345489071     1.7111055271    -2.2893089209
| 21>  H        2.4800460911     3.5227888394    -0.7031382247
| 22>  H        1.8490380941     2.0145821376     1.1359456668
| 23> *
| 24>
| 25>                          ****END OF INPUT****

CARTESIAN COORDINATES (ANGSTROEM)
---------------------------------
  O      0.137329   -0.009371    0.653662
  C      0.162734    1.070672    0.125597
  O     -0.936590    1.467707   -0.601712
  C     -1.317828    2.845629   -0.777664
  C     -1.135637    3.332424   -2.221421
  C      0.314773    3.661031   -2.617185
  N      1.250338    2.625593   -2.151660
  C      1.711267    2.762420   -0.836429
  C      1.310768    2.004325    0.195452
  H     -2.381269    2.874795   -0.521333
  H     -0.779972    3.483623   -0.071104
  H     -1.533637    2.554790   -2.885024
  H     -1.764404    4.218670   -2.371142
  H      0.390714    3.764369   -3.705239
  H      0.628321    4.615163   -2.179850
  H      0.834549    1.711106   -2.289309
  H      2.480046    3.522789   -0.703138
  H      1.849038    2.014582    1.135946

 Total Charge           Charge          ....    0
 Multiplicity           Mult            ....    1
 Number of Electrons    NEL             ....   68
 Basis Dimension        Dim             ....  333

ORBITAL ENERGIES
----------------

  NO   OCC          E(Eh)            E(eV)
   0   2.0000     -20.590341      -560.2917
   1   2.0000     -20.535403      -558.7967
   2   2.0000     -15.576490      -423.8578
   3   2.0000     -11.379195      -309.6436
   4   2.0000     -11.301396      -307.5266
   5   2.0000     -11.298952      -307.4601
   6   2.0000     -11.278672      -306.9083
   7   2.0000     -11.245737      -306.0121
   8   2.0000     -11.240730      -305.8758
   9   2.0000      -1.442784       -39.2602
  10   2.0000      -1.353096       -36.8196
  11   2.0000      -1.253147       -34.0999
  12   2.0000      -1.085382       -29.5347
  13   2.0000      -1.031623       -28.0719
  14   2.0000      -0.952806       -25.9272
  15   2.0000      -0.856700       -23.3120
  16   2.0000      -0.842259       -22.9190
  17   2.0000      -0.774129       -21.0651
  18   2.0000      -0.708001       -19.2657
  19   2.0000      -0.695756       -18.9325
  20   2.0000      -0.658268       -17.9124
  21   2.0000      -0.645828       -17.5739
  22   2.0000      -0.638533       -17.3754
  23   2.0000      -0.622006       -16.9256
  24   2.0000      -0.611565       -16.6415
  25   2.0000      -0.560104       -15.2412
  26   2.0000      -0.550810       -14.9883
  27   2.0000      -0.543606       -14.7923
  28   2.0000      -0.514483       -13.9998
  29   2.0000      -0.495881       -13.4936
  30   2.0000      -0.471507       -12.8304
  31   2.0000      -0.447599       -12.1798
  32   2.0000      -0.425768       -11.5857
  33   2.0000      -0.355369        -9.6701
  34   0.0000       0.097499         2.6531
  35   0.0000       0.129335         3.5194
  36   0.0000       0.145929         3.9709
  37   0.0000       0.164644         4.4802
  38   0.0000       0.173650         4.7253

MULLIKEN ATOMIC CHARGES
-----------------------
   0 O :   -0.278309
   1 C :    0.273176
   2 O :   -0.253168
   3 C :   -0.059159
   4 C :   -0.263319
   5 C :   -0.151515
   6 N :   -0.283859
   7 C :   -0.066450
   8 C :   -0.225979
   9 H :    0.142504
  10 H :    0.134718
  11 H :    0.134801
  12 H :    0.124652
  13 H :    0.138068
  14 H :    0.125040
  15 H :    0.226263
  16 H :    0.133231
  17 H :    0.149305
Sum of atomic charges:   -0.0000000

LOEWDIN ATOMIC CHARGES
----------------------
   0 O :    0.145128
   1 C :   -0.474969
   2 O :    0.230117
   3 C :   -0.284970
   4 C :   -0.280160
   5 C :   -0.288960
   6 N :    0.047072
   7 C :   -0.224164
   8 C :   -0.180069
   9 H :    0.133927
  10 H :    0.133160
  11 H :    0.144624
  12 H :    0.145646
  13 H :    0.132937
  14 H :    0.136536
  15 H :    0.185109
  16 H :    0.141975
  17 H :    0.157060

  Mayer bond orders larger than 0.1
B(  0-O ,  1-C ) :   2.0114 B(  1-C ,  2-O ) :   1.0779 B(  1-C ,  8-C ) :   0.9615
B(  2-O ,  3-C ) :   0.8477 B(  3-C ,  4-C ) :   0.9189 B(  3-C ,  9-H ) :   0.9308
B(  3-C , 10-H ) :   0.9340 B(  4-C ,  5-C ) :   0.9468 B(  4-C , 11-H ) :   0.9240
B(  4-C , 12-H ) :   0.9220 B(  5-C ,  6-N ) :   0.8923 B(  5-C , 13-H ) :   0.9362
B(  5-C , 14-H ) :   0.9381 B(  6-N ,  7-C ) :   1.0950 B(  6-N , 15-H ) :   0.8825
B(  7-C ,  8-C ) :   1.6492 B(  7-C , 16-H ) :   0.9336 B(  8-C , 17-H ) :   0.9179

MP2 TOTAL ENERGY:     -438.377534502 Eh
FINAL SINGLE POINT ENERGY      -438.377534502379

DIPOLE MOMENT
-------------
                                X             Y             Z
Electronic contribution:      1.24503      -6.74062       4.33961
Nuclear contribution   :     -1.39889       8.51988      -4.98192
                        -----------------------------------------
Total Dipole Moment    :     -0.15387       1.77926      -0.64231
                        -----------------------------------------
Magnitude (a.u.)       :      1.89790
Magnitude (Debye)      :      4.82407

                             ****ORCA TERMINATED NORMALLY****
TOTAL RUN TIME: 0 days 0 hours 17 minutes 30 seconds 83 msec
