                         Program Version 3.0.3 - RELEASE   -
|  1> ! RI-MP2 RIJK def2-TZVP def2-TZVP/C def2-TZVP/JK TIGHTSCF
|  2> % maxcore 2000
|  3> % mp2 density relaxed end
|  4> *xyz 0 1
|  5>  C       -0.0503044608     1.5789966444     0.1187143770
|  6>  C       -0.0261527297     0.0629343031     0.0870042208
|  7>  C       -1.2603290971    -0.5667184891    -0.5278510574
|  8>  O       -1.3902097562    -0.0772260262    -1.8579066557
|  9>  C        1.2405105724    -0.7041114655    -0.2104315804
| 10>  O        2.3998492599     0.0008534339     0.2330011231
| 11>  C        1.9340321270    -0.0877267666     1.6043967294
| 12>  C        0.6366202789    -0.7817078257     1.1804973556
| 13>  C       -0.0049079151    -1.8636382630     2.0056038190
| 14>  H        0.9530175427     1.9846500715     0.2606227100
| 15>  H       -0.4357558718     1.9576310499    -0.8309589968
| 16>  H       -0.6963883621     1.9514349601     0.9225625647
| 17>  H       -1.1710457800    -1.6635981811    -0.5308450615
| 18>  H       -2.1480874171    -0.3120080623     0.0737382498
| 19>  H       -2.2431441812    -0.3621490378    -2.1984343927
| 20>  H        1.3584054427    -1.4162485082    -1.0204544834
| 21>  H        2.5894109013    -0.7468322701     2.1868065383
| 22>  H        1.8689780258     0.8913309416     2.0931860018
| 23>  H       -0.4816877915    -1.4417031285     2.8992811457
| 24>  H       -0.7733908444    -2.4135580800     1.4573270597
| 25>  H        0.7419904665    -2.5908931104     2.3440381630
| 26> *
| 27>
| 28>                          ****END OF INPUT****

CARTESIAN COORDINATES (ANGSTROEM)
---------------------------------
  C     -0.050304    1.578997    0.118714
  C     -0.026153    0.062934    0.087004
  C     -1.260329   -0.566718   -0.527851
  O     -1.390210   -0.077226   -1.857907
  C      1.240511   -0.704111   -0.210432
  O      2.399849    0.000853    0.233001
  C      1.934032   -0.087727    1.604397
  C      0.636620   -0.781708    1.180497
  C     -0.004908   -1.863638    2.005604
  H      0.953018    1.984650    0.260623
  H     -0.435756    1.957631   -0.830959
  H     -0.696388    1.951435    0.922563
  H     -1.171046   -1.663598   -0.530845
  H     -2.148087   -0.312008    0.073738
  H     -2.243144   -0.362149   -2.198434
  H      1.358405   -1.416249   -1.020454
  H      2.589411   -0.746832    2.186807
  H      1.868978    0.891331    2.093186
  H     -0.481688   -1.441703    2.899281
  H     -0.773391   -2.413558    1.457327
  H      0.741990   -2.590893    2.344038

 Total Charge           Charge          ....    0
 Multiplicity           Mult            ....    1
 Number of Electrons    NEL             ....   70
 Basis Dimension        Dim             ....  351

ORBITAL ENERGIES
----------------

  NO   OCC          E(Eh)            E(eV)
   0   2.0000     -20.558847      -559.4347
   1   2.0000     -20.549005      -559.1669
   2   2.0000     -11.283631      -307.0432
   3   2.0000     -11.279873      -306.9409
   4   2.0000     -11.278846      -306.9130
   5   2.0000     -11.241692      -305.9020
   6   2.0000     -11.238495      -305.8150
   7   2.0000     -11.229370      -305.5667
   8   2.0000     -11.204211      -304.8821
   9   2.0000      -1.388253       -37.7763
  10   2.0000      -1.363096       -37.0917
  11   2.0000      -1.136759       -30.9328
  12   2.0000      -1.009119       -27.4595
  13   2.0000      -0.943832       -25.6830
  14   2.0000      -0.935765       -25.4635
  15   2.0000      -0.911867       -24.8132
  16   2.0000      -0.757477       -20.6120
  17   2.0000      -0.731041       -19.8926
  18   2.0000      -0.698548       -19.0085
  19   2.0000      -0.669794       -18.2260
  20   2.0000      -0.653280       -17.7766
  21   2.0000      -0.634942       -17.2776
  22   2.0000      -0.598099       -16.2751
  23   2.0000      -0.578755       -15.7487
  24   2.0000      -0.566748       -15.4220
  25   2.0000      -0.559189       -15.2163
  26   2.0000      -0.556168       -15.1341
  27   2.0000      -0.537263       -14.6197
  28   2.0000      -0.527074       -14.3424
  29   2.0000      -0.488718       -13.2987
  30   2.0000      -0.478331       -13.0161
  31   2.0000      -0.459829       -12.5126
  32   2.0000      -0.448525       -12.2050
  33   2.0000      -0.382929       -10.4200
  34   2.0000      -0.365117        -9.9353
  35   0.0000       0.124438         3.3861
  36   0.0000       0.144646         3.9360
  37   0.0000       0.167182         4.5493
  38   0.0000       0.180871         4.9217
  39   0.0000       0.185618         5.0509

MULLIKEN ATOMIC CHARGES
-----------------------
   0 C :   -0.443964
   1 C :    0.144496
   2 C :   -0.154067
   3 O :   -0.458593
   4 C :    0.046615
   5 O :   -0.342759
   6 C :   -0.020710
   7 C :   -0.098420
   8 C :   -0.386056
   9 H :    0.156435
  10 H :    0.157179
  11 H :    0.121426
  12 H :    0.103583
  13 H :    0.111530
  14 H :    0.314106
  15 H :    0.132753
  16 H :    0.104767
  17 H :    0.110028
  18 H :    0.139377
  19 H :    0.126499
  20 H :    0.135773
Sum of atomic charges:   -0.0000000

LOEWDIN ATOMIC CHARGES
----------------------
   0 C :   -0.264370
   1 C :   -0.228656
   2 C :   -0.300705
   3 O :   -0.040658
   4 C :   -0.196725
   5 O :    0.148620
   6 C :   -0.218669
   7 C :   -0.202456
   8 C :   -0.276229
   9 H :    0.134195
  10 H :    0.134574
  11 H :    0.124539
  12 H :    0.123278
  13 H :    0.123007
  14 H :    0.172010
  15 H :    0.135886
  16 H :    0.126013
  17 H :    0.119546
  18 H :    0.130511
  19 H :    0.126775
  20 H :    0.129514

  Mayer bond orders larger than 0.1
B(  0-C ,  1-C ) :   0.8880 B(  0-C ,  9-H ) :   0.9307 B(  0-C , 10-H ) :   0.9351
B(  0-C , 11-H ) :   0.9361 B(  1-C ,  2-C ) :   0.8952 B(  1-C ,  3-O ) :  -0.1037
B(  1-C ,  4-C ) :   0.8363 B(  1-C ,  7-C ) :   0.8233 B(  2-C ,  3-O ) :   1.0692
B(  2-C , 12-H ) :   0.9207 B(  2-C , 13-H ) :   0.9317 B(  3-O , 14-H ) :   0.8473
B(  4-C ,  5-O ) :   0.9474 B(  4-C ,  7-C ) :   0.9003 B(  4-C , 15-H ) :   0.9215
B(  5-O ,  6-C ) :   0.9186 B(  6-C ,  7-C ) :   0.9836 B(  6-C , 16-H ) :   0.9088
B(  6-C , 17-H ) :   0.9160 B(  7-C ,  8-C ) :   0.8701 B(  8-C , 18-H ) :   0.9378
B(  8-C , 19-H ) :   0.9384 B(  8-C , 20-H ) :   0.9357

MP2 TOTAL ENERGY:     -423.474509024 Eh
FINAL SINGLE POINT ENERGY      -423.474509023863

DIPOLE MOMENT
-------------
                                X             Y             Z
Electronic contribution:      3.36837       0.28974      -3.70054
Nuclear contribution   :     -4.39157      -0.93025       4.26528
                        -----------------------------------------
Total Dipole Moment    :     -1.02320      -0.64051       0.56473
                        -----------------------------------------
Magnitude (a.u.)       :      1.33271
Magnitude (Debye)      :      3.38748

                             ****ORCA TERMINATED NORMALLY****
TOTAL RUN TIME: 0 days 0 hours 18 minutes 20 seconds 462 msec
