                         Program Version 3.0.3 - RELEASE   -
|  1> ! RI-MP2 RIJK def2-TZVP def2-TZVP/C def2-TZVP/JK TIGHTSCF
|  2> % maxcore 2000
|  3> % mp2 density relaxed end
|  4> *xyz 0 1
|  5>  C        0.0281904595     1.4215453769    -0.1819824000
|  6>  C        1.5204773956     1.4796894679     0.1921062047
|  7>  C        1.2948179902     0.0383536678     0.7158115343
|  8>  O       -0.0479623355     0.0218848681     0.1631908325
|  9>  C        2.1448040696    -1.0610186638     0.1770424273
| 10>  C        2.2727611033    -1.4772603641    -1.2985479115
| 11>  C        2.4382676818    -2.9625207281    -0.8314782978
| 12>  C        2.3077810392    -2.4921597435     0.6235125732
| 13>  N        3.3079717378    -1.4835399524     0.9533157088
| 14>  H       -0.6283077459     2.0323622277     0.4515705778
| 15>  H       -0.2287669679     1.5992597760    -1.2323913334
| 16>  H        2.1943054559     1.5335933254    -0.6655576404
| 17>  H        1.8180212837     2.2222407969     0.9330408415
| 18>  H        1.2773501641    -0.0301084645     1.8112877858
| 19>  H        1.3458221453    -1.3217531343    -1.8533335409
| 20>  H        3.1041258933    -1.0284005424    -1.8531734922
| 21>  H        1.6081799004    -3.5927863115    -1.1578842862
| 22>  H        3.3791206191    -3.4645572535    -1.0816978511
| 23>  H        1.8379750826    -3.0261252304     1.4419049627
| 24>  H        4.1511040079    -1.5626524982     0.3867191050
| 25> *
| 26>
| 27>                          ****END OF INPUT****

CARTESIAN COORDINATES (ANGSTROEM)
---------------------------------
  C      0.028190    1.421545   -0.181982
  C      1.520477    1.479689    0.192106
  C      1.294818    0.038354    0.715812
  O     -0.047962    0.021885    0.163191
  C      2.144804   -1.061019    0.177042
  C      2.272761   -1.477260   -1.298548
  C      2.438268   -2.962521   -0.831478
  C      2.307781   -2.492160    0.623513
  N      3.307972   -1.483540    0.953316
  H     -0.628308    2.032362    0.451571
  H     -0.228767    1.599260   -1.232391
  H      2.194305    1.533593   -0.665558
  H      1.818021    2.222241    0.933041
  H      1.277350   -0.030108    1.811288
  H      1.345822   -1.321753   -1.853334
  H      3.104126   -1.028401   -1.853173
  H      1.608180   -3.592786   -1.157884
  H      3.379121   -3.464557   -1.081698
  H      1.837975   -3.026125    1.441905
  H      4.151104   -1.562652    0.386719

 Total Charge           Charge          ....    0
 Multiplicity           Mult            ....    1
 Number of Electrons    NEL             ....   68
 Basis Dimension        Dim             ....  345

ORBITAL ENERGIES
----------------

  NO   OCC          E(Eh)            E(eV)
   0   2.0000     -20.544287      -559.0385
   1   2.0000     -15.558712      -423.3741
   2   2.0000     -11.282307      -307.0072
   3   2.0000     -11.277227      -306.8689
   4   2.0000     -11.260036      -306.4011
   5   2.0000     -11.257380      -306.3289
   6   2.0000     -11.231616      -305.6278
   7   2.0000     -11.229358      -305.5664
   8   2.0000     -11.229339      -305.5659
   9   2.0000      -1.374670       -37.4067
  10   2.0000      -1.284742       -34.9596
  11   2.0000      -1.043281       -28.3891
  12   2.0000      -1.015465       -27.6322
  13   2.0000      -0.964917       -26.2567
  14   2.0000      -0.888340       -24.1730
  15   2.0000      -0.847371       -23.0581
  16   2.0000      -0.782332       -21.2883
  17   2.0000      -0.725272       -19.7356
  18   2.0000      -0.693905       -18.8821
  19   2.0000      -0.678973       -18.4758
  20   2.0000      -0.648898       -17.6574
  21   2.0000      -0.620945       -16.8968
  22   2.0000      -0.605323       -16.4717
  23   2.0000      -0.589670       -16.0457
  24   2.0000      -0.542486       -14.7618
  25   2.0000      -0.534666       -14.5490
  26   2.0000      -0.497232       -13.5304
  27   2.0000      -0.489560       -13.3216
  28   2.0000      -0.470062       -12.7910
  29   2.0000      -0.466452       -12.6928
  30   2.0000      -0.448532       -12.2052
  31   2.0000      -0.426318       -11.6007
  32   2.0000      -0.407243       -11.0816
  33   2.0000      -0.378316       -10.2945
  34   0.0000       0.136763         3.7215
  35   0.0000       0.151194         4.1142
  36   0.0000       0.163529         4.4498
  37   0.0000       0.172968         4.7067
  38   0.0000       0.180610         4.9147

MULLIKEN ATOMIC CHARGES
-----------------------
   0 C :   -0.020359
   1 C :   -0.304326
   2 C :    0.167812
   3 O :   -0.348494
   4 C :    0.092900
   5 C :   -0.252557
   6 C :   -0.200277
   7 C :   -0.139148
   8 N :   -0.367556
   9 H :    0.095180
  10 H :    0.100602
  11 H :    0.121127
  12 H :    0.133609
  13 H :    0.094735
  14 H :    0.129489
  15 H :    0.114494
  16 H :    0.119594
  17 H :    0.117469
  18 H :    0.132540
  19 H :    0.213166
Sum of atomic charges:    0.0000000

LOEWDIN ATOMIC CHARGES
----------------------
   0 C :   -0.278592
   1 C :   -0.220109
   2 C :   -0.248133
   3 O :    0.132224
   4 C :   -0.260784
   5 C :   -0.201766
   6 C :   -0.225087
   7 C :   -0.215300
   8 N :    0.049924
   9 H :    0.116009
  10 H :    0.114463
  11 H :    0.134200
  12 H :    0.129711
  13 H :    0.146096
  14 H :    0.141915
  15 H :    0.124558
  16 H :    0.137014
  17 H :    0.125208
  18 H :    0.132668
  19 H :    0.165780

  Mayer bond orders larger than 0.1
B(  0-C ,  1-C ) :   0.9903 B(  0-C ,  3-O ) :   0.9365 B(  0-C ,  9-H ) :   0.9188
B(  0-C , 10-H ) :   0.9182 B(  1-C ,  2-C ) :   0.8773 B(  1-C , 11-H ) :   0.9273
B(  1-C , 12-H ) :   0.9265 B(  2-C ,  3-O ) :   0.9418 B(  2-C ,  4-C ) :   0.9500
B(  2-C , 13-H ) :   0.8993 B(  4-C ,  5-C ) :   0.9179 B(  4-C ,  7-C ) :   0.8341
B(  4-C ,  8-N ) :   0.8768 B(  5-C ,  6-C ) :   0.9574 B(  5-C , 14-H ) :   0.9136
B(  5-C , 15-H ) :   0.9195 B(  6-C ,  7-C ) :   0.9235 B(  6-C , 16-H ) :   0.9132
B(  6-C , 17-H ) :   0.9262 B(  7-C ,  8-N ) :   0.9771 B(  7-C , 18-H ) :   0.9066
B(  8-N , 19-H ) :   0.8620

MP2 TOTAL ENERGY:     -402.392720089 Eh
FINAL SINGLE POINT ENERGY      -402.392720088627

DIPOLE MOMENT
-------------
                                X             Y             Z
Electronic contribution:     -0.96827      -0.76435       2.58654
Nuclear contribution   :      1.31714       1.01821      -3.12269
                        -----------------------------------------
Total Dipole Moment    :      0.34887       0.25386      -0.53615
                        -----------------------------------------
Magnitude (a.u.)       :      0.68819
Magnitude (Debye)      :      1.74925

                             ****ORCA TERMINATED NORMALLY****
TOTAL RUN TIME: 0 days 0 hours 16 minutes 49 seconds 571 msec
