                         Program Version 3.0.3 - RELEASE   -
|  1> ! RI-MP2 RIJK def2-TZVP def2-TZVP/C def2-TZVP/JK TIGHTSCF
|  2> % maxcore 2000
|  3> % mp2 density relaxed end
|  4> *xyz 0 1
|  5>  C        0.0565724034     1.2164093006    -0.2923113276
|  6>  O       -0.1781143804     0.1154949788     0.5655853432
|  7>  C       -1.3956007513    -0.5140695350     0.3304211666
|  8>  C       -1.4897769979    -1.5518581676    -0.7668818367
|  9>  C       -1.4469760179    -1.9688604866     0.6862481463
| 10>  C       -0.2501775100    -2.6826025237     1.3226642258
| 11>  O       -0.8774954851    -3.5714647941     2.2830845542
| 12>  C       -2.2079145324    -3.3549031230     2.1591383040
| 13>  N       -2.6347167871    -2.5051707758     1.3179695706
| 14>  H        1.0346694318     1.6256914749    -0.0295898106
| 15>  H        0.0624272849     0.9120631996    -1.3484092010
| 16>  H       -0.7053710599     1.9984146156    -0.1601105415
| 17>  H       -2.2800441653     0.0871852914     0.5411809005
| 18>  H       -2.4310226888    -1.6660197708    -1.2922767582
| 19>  H       -0.5950490592    -1.7337061523    -1.3545288329
| 20>  H        0.3288787870    -3.2910753337     0.6218339770
| 21>  H        0.4200688473    -2.0032617826     1.8544752914
| 22>  H       -2.8250031993    -3.9525540458     2.8198957586
| 23> *
| 24>
| 25>                          ****END OF INPUT****

CARTESIAN COORDINATES (ANGSTROEM)
---------------------------------
  C      0.056572    1.216409   -0.292311
  O     -0.178114    0.115495    0.565585
  C     -1.395601   -0.514070    0.330421
  C     -1.489777   -1.551858   -0.766882
  C     -1.446976   -1.968860    0.686248
  C     -0.250178   -2.682603    1.322664
  O     -0.877495   -3.571465    2.283085
  C     -2.207915   -3.354903    2.159138
  N     -2.634717   -2.505171    1.317970
  H      1.034669    1.625691   -0.029590
  H      0.062427    0.912063   -1.348409
  H     -0.705371    1.998415   -0.160111
  H     -2.280044    0.087185    0.541181
  H     -2.431023   -1.666020   -1.292277
  H     -0.595049   -1.733706   -1.354529
  H      0.328879   -3.291075    0.621834
  H      0.420069   -2.003262    1.854475
  H     -2.825003   -3.952554    2.819896

 Total Charge           Charge          ....    0
 Multiplicity           Mult            ....    1
 Number of Electrons    NEL             ....   68
 Basis Dimension        Dim             ....  333

ORBITAL ENERGIES
----------------

  NO   OCC          E(Eh)            E(eV)
   0   2.0000     -20.594232      -560.3975
   1   2.0000     -20.568789      -559.7052
   2   2.0000     -15.550713      -423.1564
   3   2.0000     -11.331539      -308.3469
   4   2.0000     -11.290080      -307.2187
   5   2.0000     -11.284502      -307.0669
   6   2.0000     -11.277341      -306.8720
   7   2.0000     -11.270958      -306.6984
   8   2.0000     -11.229438      -305.5685
   9   2.0000      -1.437002       -39.1028
  10   2.0000      -1.391775       -37.8721
  11   2.0000      -1.226068       -33.3630
  12   2.0000      -1.124125       -30.5890
  13   2.0000      -0.980110       -26.6701
  14   2.0000      -0.939959       -25.5776
  15   2.0000      -0.828187       -22.5361
  16   2.0000      -0.807592       -21.9757
  17   2.0000      -0.785802       -21.3828
  18   2.0000      -0.713667       -19.4199
  19   2.0000      -0.687485       -18.7074
  20   2.0000      -0.671247       -18.2655
  21   2.0000      -0.648044       -17.6342
  22   2.0000      -0.632053       -17.1990
  23   2.0000      -0.610198       -16.6043
  24   2.0000      -0.584838       -15.9143
  25   2.0000      -0.568911       -15.4809
  26   2.0000      -0.528582       -14.3834
  27   2.0000      -0.522525       -14.2186
  28   2.0000      -0.511488       -13.9183
  29   2.0000      -0.488496       -13.2927
  30   2.0000      -0.462658       -12.5896
  31   2.0000      -0.444385       -12.0923
  32   2.0000      -0.403023       -10.9668
  33   2.0000      -0.352101        -9.5811
  34   0.0000       0.144265         3.9257
  35   0.0000       0.160583         4.3697
  36   0.0000       0.162674         4.4266
  37   0.0000       0.175677         4.7804
  38   0.0000       0.185273         5.0415

MULLIKEN ATOMIC CHARGES
-----------------------
   0 C :   -0.213707
   1 O :   -0.313222
   2 C :    0.028100
   3 C :   -0.329947
   4 C :    0.168591
   5 C :   -0.062523
   6 O :   -0.272238
   7 C :    0.106670
   8 N :   -0.285849
   9 H :    0.142046
  10 H :    0.117756
  11 H :    0.117628
  12 H :    0.111933
  13 H :    0.136436
  14 H :    0.143375
  15 H :    0.115371
  16 H :    0.139899
  17 H :    0.149680
Sum of atomic charges:    0.0000000

LOEWDIN ATOMIC CHARGES
----------------------
   0 C :   -0.343021
   1 O :    0.169808
   2 C :   -0.280402
   3 C :   -0.189070
   4 C :   -0.276097
   5 C :   -0.207352
   6 O :    0.213266
   7 C :   -0.339075
   8 N :    0.110274
   9 H :    0.113690
  10 H :    0.103961
  11 H :    0.104898
  12 H :    0.140145
  13 H :    0.140328
  14 H :    0.140211
  15 H :    0.129318
  16 H :    0.134868
  17 H :    0.134250

  Mayer bond orders larger than 0.1
B(  0-C ,  1-O ) :   0.8958 B(  0-C ,  9-H ) :   0.9391 B(  0-C , 10-H ) :   0.9359
B(  0-C , 11-H ) :   0.9373 B(  1-O ,  2-C ) :   0.9849 B(  2-C ,  3-C ) :   0.9236
B(  2-C ,  4-C ) :   0.8317 B(  2-C , 12-H ) :   0.9193 B(  3-C ,  4-C ) :   0.8373
B(  3-C , 13-H ) :   0.9096 B(  3-C , 14-H ) :   0.9163 B(  4-C ,  5-C ) :   0.9417
B(  4-C ,  8-N ) :   0.9723 B(  5-C ,  6-O ) :   0.8712 B(  5-C , 15-H ) :   0.9191
B(  5-C , 16-H ) :   0.9182 B(  6-O ,  7-C ) :   1.0792 B(  7-C ,  8-N ) :   1.7897
B(  7-C , 17-H ) :   0.9227

MP2 TOTAL ENERGY:     -438.339658998 Eh
FINAL SINGLE POINT ENERGY      -438.339658997925

DIPOLE MOMENT
-------------
                                X             Y             Z
Electronic contribution:     -2.47091      -5.72249       5.03126
Nuclear contribution   :      2.86237       6.06767      -5.53649
                        -----------------------------------------
Total Dipole Moment    :      0.39146       0.34518      -0.50523
                        -----------------------------------------
Magnitude (a.u.)       :      0.72640
Magnitude (Debye)      :      1.84636

                             ****ORCA TERMINATED NORMALLY****
TOTAL RUN TIME: 0 days 0 hours 25 minutes 25 seconds 792 msec
