                         Program Version 3.0.3 - RELEASE   -
|  1> ! RI-MP2 RIJK def2-TZVP def2-TZVP/C def2-TZVP/JK TIGHTSCF
|  2> % maxcore 2000
|  3> % mp2 density relaxed end
|  4> *xyz 0 1
|  5>  C        0.1248181688     1.5755247857     0.0042382669
|  6>  C        0.0233900966     0.0491351411     0.0650006994
|  7>  C       -1.4162236170    -0.4660266225    -0.0657730404
|  8>  C       -1.5127067276    -1.9844029739    -0.0039313614
|  9>  C       -1.2379662770    -2.7391990002     1.3275960843
| 10>  C       -2.3447427837    -3.7543266197     0.9372401518
| 11>  C       -2.8880415404    -2.7104339687    -0.0880478679
| 12>  C       -4.0810277546    -1.9198639422     0.4415939161
| 13>  O       -3.1370199204    -3.1732606771    -1.4044454601
| 14>  H        1.1621201908     1.9124102718     0.0979636889
| 15>  H       -0.2659953300     1.9604052354    -0.9443798485
| 16>  H       -0.4509361848     2.0432527267     0.8108946736
| 17>  H        0.6369954989    -0.3918766575    -0.7316468830
| 18>  H        0.4519152450    -0.3090916329     1.0100551122
| 19>  H       -2.0295988955    -0.0184164184     0.7282228213
| 20>  H       -1.8402240363    -0.1152260226    -1.0168306885
| 21>  H       -0.8912870146    -2.4219239100    -0.7942981308
| 22>  H       -0.2314480419    -3.1303659039     1.4878909524
| 23>  H       -1.5177128558    -2.1394031922     2.2000135369
| 24>  H       -1.9367468556    -4.6190409419     0.4080022795
| 25>  H       -3.0255859090    -4.0986775913     1.7210750128
| 26>  H       -3.8966155195    -1.5299571828     1.4471930790
| 27>  H       -4.3182642160    -1.0797047560    -0.2177798412
| 28>  H       -4.9644907314    -2.5685790319     0.5029120483
| 29>  H       -4.0151635689    -3.5690948348    -1.4253389016
| 30> *
| 31>
| 32>                          ****END OF INPUT****

CARTESIAN COORDINATES (ANGSTROEM)
---------------------------------
  C      0.124818    1.575525    0.004238
  C      0.023390    0.049135    0.065001
  C     -1.416224   -0.466027   -0.065773
  C     -1.512707   -1.984403   -0.003931
  C     -1.237966   -2.739199    1.327596
  C     -2.344743   -3.754327    0.937240
  C     -2.888042   -2.710434   -0.088048
  C     -4.081028   -1.919864    0.441594
  O     -3.137020   -3.173261   -1.404445
  H      1.162120    1.912410    0.097964
  H     -0.265995    1.960405   -0.944380
  H     -0.450936    2.043253    0.810895
  H      0.636995   -0.391877   -0.731647
  H      0.451915   -0.309092    1.010055
  H     -2.029599   -0.018416    0.728223
  H     -1.840224   -0.115226   -1.016831
  H     -0.891287   -2.421924   -0.794298
  H     -0.231448   -3.130366    1.487891
  H     -1.517713   -2.139403    2.200014
  H     -1.936747   -4.619041    0.408002
  H     -3.025586   -4.098678    1.721075
  H     -3.896616   -1.529957    1.447193
  H     -4.318264   -1.079705   -0.217780
  H     -4.964491   -2.568579    0.502912
  H     -4.015164   -3.569095   -1.425339

 Total Charge           Charge          ....    0
 Multiplicity           Mult            ....    1
 Number of Electrons    NEL             ....   72
 Basis Dimension        Dim             ....  375

ORBITAL ENERGIES
----------------

  NO   OCC          E(Eh)            E(eV)
   0   2.0000     -20.549153      -559.1709
   1   2.0000     -11.278926      -306.9152
   2   2.0000     -11.217932      -305.2555
   3   2.0000     -11.217104      -305.2329
   4   2.0000     -11.216426      -305.2145
   5   2.0000     -11.215295      -305.1837
   6   2.0000     -11.213949      -305.1471
   7   2.0000     -11.212145      -305.0980
   8   2.0000     -11.209274      -305.0198
   9   2.0000      -1.358138       -36.9568
  10   2.0000      -1.128382       -30.7048
  11   2.0000      -1.052022       -28.6270
  12   2.0000      -0.976906       -26.5830
  13   2.0000      -0.953613       -25.9491
  14   2.0000      -0.857877       -23.3440
  15   2.0000      -0.851186       -23.1620
  16   2.0000      -0.793947       -21.6044
  17   2.0000      -0.722892       -19.6709
  18   2.0000      -0.683233       -18.5917
  19   2.0000      -0.637156       -17.3379
  20   2.0000      -0.624478       -16.9929
  21   2.0000      -0.619857       -16.8672
  22   2.0000      -0.594489       -16.1769
  23   2.0000      -0.570963       -15.5367
  24   2.0000      -0.552713       -15.0401
  25   2.0000      -0.547668       -14.9028
  26   2.0000      -0.530547       -14.4369
  27   2.0000      -0.517594       -14.0845
  28   2.0000      -0.499039       -13.5795
  29   2.0000      -0.495035       -13.4706
  30   2.0000      -0.478438       -13.0190
  31   2.0000      -0.470501       -12.8030
  32   2.0000      -0.454387       -12.3645
  33   2.0000      -0.439911       -11.9706
  34   2.0000      -0.419225       -11.4077
  35   2.0000      -0.400497       -10.8981
  36   0.0000       0.131430         3.5764
  37   0.0000       0.142151         3.8681
  38   0.0000       0.159496         4.3401
  39   0.0000       0.163711         4.4548
  40   0.0000       0.182705         4.9717

MULLIKEN ATOMIC CHARGES
-----------------------
   0 C :   -0.384322
   1 C :   -0.184547
   2 C :   -0.284376
   3 C :   -0.023292
   4 C :   -0.294180
   5 C :   -0.225242
   6 C :    0.253313
   7 C :   -0.484167
   8 O :   -0.462304
   9 H :    0.132348
  10 H :    0.122144
  11 H :    0.120108
  12 H :    0.107992
  13 H :    0.110139
  14 H :    0.102208
  15 H :    0.118950
  16 H :    0.098174
  17 H :    0.122293
  18 H :    0.112636
  19 H :    0.111753
  20 H :    0.110926
  21 H :    0.134176
  22 H :    0.147223
  23 H :    0.129392
  24 H :    0.308655
Sum of atomic charges:    0.0000000

LOEWDIN ATOMIC CHARGES
----------------------
   0 C :   -0.322373
   1 C :   -0.291779
   2 C :   -0.253984
   3 C :   -0.198532
   4 C :   -0.222190
   5 C :   -0.210156
   6 C :   -0.367110
   7 C :   -0.281984
   8 O :    0.002611
   9 H :    0.119794
  10 H :    0.120159
  11 H :    0.119392
  12 H :    0.135327
  13 H :    0.135391
  14 H :    0.137850
  15 H :    0.142677
  16 H :    0.161508
  17 H :    0.124038
  18 H :    0.132640
  19 H :    0.138031
  20 H :    0.123269
  21 H :    0.130379
  22 H :    0.128401
  23 H :    0.123707
  24 H :    0.172930

  Mayer bond orders larger than 0.1
B(  0-C ,  1-C ) :   0.9197 B(  0-C ,  9-H ) :   0.9438 B(  0-C , 10-H ) :   0.9399
B(  0-C , 11-H ) :   0.9399 B(  1-C ,  2-C ) :   0.9302 B(  1-C , 12-H ) :   0.9345
B(  1-C , 13-H ) :   0.9343 B(  2-C ,  3-C ) :   0.9210 B(  2-C , 14-H ) :   0.9215
B(  2-C , 15-H ) :   0.9339 B(  3-C ,  4-C ) :   0.9250 B(  3-C ,  6-C ) :   0.8827
B(  3-C , 16-H ) :   0.9101 B(  4-C ,  5-C ) :   0.9433 B(  4-C , 17-H ) :   0.9261
B(  4-C , 18-H ) :   0.9224 B(  5-C ,  6-C ) :   0.9067 B(  5-C , 19-H ) :   0.9154
B(  5-C , 20-H ) :   0.9226 B(  6-C ,  7-C ) :   0.9115 B(  6-C ,  8-O ) :   1.0271
B(  7-C , 21-H ) :   0.9305 B(  7-C , 22-H ) :   0.9431 B(  7-C , 23-H ) :   0.9242
B(  8-O , 24-H ) :   0.8431

MP2 TOTAL ENERGY:     -388.821162410 Eh
FINAL SINGLE POINT ENERGY      -388.821162409504

DIPOLE MOMENT
-------------
                                X             Y             Z
Electronic contribution:     -2.71652      -6.27837      -2.85768
Nuclear contribution   :      2.35145       6.26001       3.26064
                        -----------------------------------------
Total Dipole Moment    :     -0.36507      -0.01836       0.40296
                        -----------------------------------------
Magnitude (a.u.)       :      0.54405
Magnitude (Debye)      :      1.38286

                             ****ORCA TERMINATED NORMALLY****
TOTAL RUN TIME: 0 days 0 hours 20 minutes 37 seconds 766 msec
