                         Program Version 3.0.3 - RELEASE   -
|  1> ! RI-MP2 RIJK def2-TZVP def2-TZVP/C def2-TZVP/JK TIGHTSCF
|  2> % maxcore 2000
|  3> % mp2 density relaxed end
|  4> *xyz 0 1
|  5>  C        0.0300166633     1.4518973051     0.0924825866
|  6>  N        0.0479163335     0.0070615457    -0.0134714325
|  7>  C        0.3796033552    -0.6426270399    -1.1682112203
|  8>  O        0.6844256965    -0.0568467780    -2.1964869195
|  9>  C        0.3420064429    -2.1364771633    -1.0819091891
| 10>  C       -0.0784579347    -2.8842928803    -2.3332243762
| 11>  C        1.3562302196    -2.8961892463    -1.9161419696
| 12>  H        0.3174651833     1.8495531890    -0.8814664658
| 13>  H       -0.9686860000     1.8229624309     0.3498452234
| 14>  H        0.7400551924     1.8076814632     0.8478776157
| 15>  H       -0.1915104636    -0.5411295324     0.7952762390
| 16>  H        0.0605191921    -2.5688320266    -0.1267573524
| 17>  H       -0.6712254503    -3.7821945323    -2.2014875205
| 18>  H       -0.3429685857    -2.2649303498    -3.1819478393
| 19>  H        2.0434473614    -2.2840294857    -2.4879283837
| 20>  H        1.7727702242    -3.8024484791    -1.4917570156
| 21> *
| 22>
| 23>                          ****END OF INPUT****

CARTESIAN COORDINATES (ANGSTROEM)
---------------------------------
  C      0.030017    1.451897    0.092483
  N      0.047916    0.007062   -0.013471
  C      0.379603   -0.642627   -1.168211
  O      0.684426   -0.056847   -2.196487
  C      0.342006   -2.136477   -1.081909
  C     -0.078458   -2.884293   -2.333224
  C      1.356230   -2.896189   -1.916142
  H      0.317465    1.849553   -0.881466
  H     -0.968686    1.822962    0.349845
  H      0.740055    1.807681    0.847878
  H     -0.191510   -0.541130    0.795276
  H      0.060519   -2.568832   -0.126757
  H     -0.671225   -3.782195   -2.201488
  H     -0.342969   -2.264930   -3.181948
  H      2.043447   -2.284029   -2.487928
  H      1.772770   -3.802448   -1.491757

 Total Charge           Charge          ....    0
 Multiplicity           Mult            ....    1
 Number of Electrons    NEL             ....   54
 Basis Dimension        Dim             ....  271

ORBITAL ENERGIES
----------------

  NO   OCC          E(Eh)            E(eV)
   0   2.0000     -20.504808      -557.9642
   1   2.0000     -15.581011      -423.9809
   2   2.0000     -11.343483      -308.6719
   3   2.0000     -11.255449      -306.2763
   4   2.0000     -11.243059      -305.9392
   5   2.0000     -11.234216      -305.6986
   6   2.0000     -11.233519      -305.6796
   7   2.0000      -1.372703       -37.3531
   8   2.0000      -1.224528       -33.3211
   9   2.0000      -1.147858       -31.2348
  10   2.0000      -0.966159       -26.2905
  11   2.0000      -0.858652       -23.3651
  12   2.0000      -0.826830       -22.4992
  13   2.0000      -0.776446       -21.1282
  14   2.0000      -0.714992       -19.4559
  15   2.0000      -0.663693       -18.0600
  16   2.0000      -0.626535       -17.0489
  17   2.0000      -0.619363       -16.8537
  18   2.0000      -0.606648       -16.5077
  19   2.0000      -0.548098       -14.9145
  20   2.0000      -0.545350       -14.8397
  21   2.0000      -0.541675       -14.7397
  22   2.0000      -0.514297       -13.9947
  23   2.0000      -0.441868       -12.0238
  24   2.0000      -0.419089       -11.4040
  25   2.0000      -0.416360       -11.3297
  26   2.0000      -0.388535       -10.5726
  27   0.0000       0.129810         3.5323
  28   0.0000       0.160420         4.3653
  29   0.0000       0.170029         4.6267
  30   0.0000       0.172771         4.7013
  31   0.0000       0.195845         5.3292

MULLIKEN ATOMIC CHARGES
-----------------------
   0 C :   -0.280680
   1 N :   -0.320047
   2 C :    0.253263
   3 O :   -0.403754
   4 C :   -0.085192
   5 C :   -0.265028
   6 C :   -0.265058
   7 H :    0.178582
   8 H :    0.132189
   9 H :    0.132161
  10 H :    0.234500
  11 H :    0.114637
  12 H :    0.132901
  13 H :    0.154276
  14 H :    0.154301
  15 H :    0.132948
Sum of atomic charges:    0.0000000

LOEWDIN ATOMIC CHARGES
----------------------
   0 C :   -0.314865
   1 N :    0.082084
   2 C :   -0.447077
   3 O :    0.067930
   4 C :   -0.203087
   5 C :   -0.211766
   6 C :   -0.211781
   7 H :    0.135267
   8 H :    0.114312
   9 H :    0.114307
  10 H :    0.182037
  11 H :    0.143779
  12 H :    0.131392
  13 H :    0.143027
  14 H :    0.143073
  15 H :    0.131367

  Mayer bond orders larger than 0.1
B(  0-C ,  1-N ) :   0.8478 B(  0-C ,  7-H ) :   0.9262 B(  0-C ,  8-H ) :   0.9356
B(  0-C ,  9-H ) :   0.9356 B(  1-N ,  2-C ) :   1.1716 B(  1-N , 10-H ) :   0.8778
B(  2-C ,  3-O ) :   1.8912 B(  2-C ,  4-C ) :   0.9348 B(  4-C ,  5-C ) :   0.8570
B(  4-C ,  6-C ) :   0.8571 B(  4-C , 11-H ) :   0.9131 B(  5-C ,  6-C ) :   0.9254
B(  5-C , 12-H ) :   0.9286 B(  5-C , 13-H ) :   0.9235 B(  6-C , 14-H ) :   0.9235
B(  6-C , 15-H ) :   0.9285

MP2 TOTAL ENERGY:     -325.246810084 Eh
FINAL SINGLE POINT ENERGY      -325.246810084075

DIPOLE MOMENT
-------------
                                X             Y             Z
Electronic contribution:      0.33890       0.56824      -1.14685
Nuclear contribution   :     -0.71123      -0.96225       2.41491
                        -----------------------------------------
Total Dipole Moment    :     -0.37233      -0.39401       1.26805
                        -----------------------------------------
Magnitude (a.u.)       :      1.37907
Magnitude (Debye)      :      3.50532

                             ****ORCA TERMINATED NORMALLY****
TOTAL RUN TIME: 0 days 0 hours 7 minutes 49 seconds 783 msec
