                         Program Version 3.0.3 - RELEASE   -
|  1> ! RI-MP2 RIJK def2-TZVP def2-TZVP/C def2-TZVP/JK TIGHTSCF
|  2> % maxcore 2000
|  3> % mp2 density relaxed end
|  4> *xyz 0 1
|  5>  C       -0.0352477305     1.5029741263    -0.0217131295
|  6>  C        1.2845650246     0.7659811008    -0.0269185692
|  7>  C       -0.0163160952     0.0030119491     0.0130489767
|  8>  C       -0.4518990255    -0.8199865669     1.2390032753
|  9>  C       -0.6946746887    -2.2172030419     0.6622817276
| 10>  C       -1.6588216077    -2.3201760331    -0.5067149976
| 11>  O       -1.8966040921    -1.0342128186    -1.0792216128
| 12>  C       -0.4401984361    -0.8330392956    -1.1685604876
| 13>  C       -0.1876973857    -2.3056705525    -0.7670861764
| 14>  H       -0.3236131421     2.0254631950     0.8844263321
| 15>  H       -0.3534271937     1.9938696815    -0.9356927484
| 16>  H        1.8639951512     0.7588784473    -0.9449965839
| 17>  H        1.8852513992     0.7854178456     0.8766586491
| 18>  H        0.3237588718    -0.8436722270     2.0112167772
| 19>  H       -1.3604902182    -0.4095771831     1.6917132280
| 20>  H       -0.6097825767    -3.0922813874     1.2972691511
| 21>  H       -2.4235052276    -3.0792910488    -0.6231270132
| 22>  H       -0.1454285214    -0.4758687690    -2.1569561348
| 23>  H        0.5030773145    -3.0222159819    -1.1881320538
| 24> *
| 25>
| 26>                          ****END OF INPUT****

CARTESIAN COORDINATES (ANGSTROEM)
---------------------------------
  C     -0.035248    1.502974   -0.021713
  C      1.284565    0.765981   -0.026919
  C     -0.016316    0.003012    0.013049
  C     -0.451899   -0.819987    1.239003
  C     -0.694675   -2.217203    0.662282
  C     -1.658822   -2.320176   -0.506715
  O     -1.896604   -1.034213   -1.079222
  C     -0.440198   -0.833039   -1.168560
  C     -0.187697   -2.305671   -0.767086
  H     -0.323613    2.025463    0.884426
  H     -0.353427    1.993870   -0.935693
  H      1.863995    0.758878   -0.944997
  H      1.885251    0.785418    0.876659
  H      0.323759   -0.843672    2.011217
  H     -1.360490   -0.409577    1.691713
  H     -0.609783   -3.092281    1.297269
  H     -2.423505   -3.079291   -0.623127
  H     -0.145429   -0.475869   -2.156956
  H      0.503077   -3.022216   -1.188132

 Total Charge           Charge          ....    0
 Multiplicity           Mult            ....    1
 Number of Electrons    NEL             ....   66
 Basis Dimension        Dim             ....  339

ORBITAL ENERGIES
----------------

  NO   OCC          E(Eh)            E(eV)
   0   2.0000     -20.545546      -559.0727
   1   2.0000     -11.286747      -307.1280
   2   2.0000     -11.284176      -307.0580
   3   2.0000     -11.235543      -305.7347
   4   2.0000     -11.235070      -305.7218
   5   2.0000     -11.231103      -305.6139
   6   2.0000     -11.226068      -305.4769
   7   2.0000     -11.225321      -305.4565
   8   2.0000     -11.223511      -305.4073
   9   2.0000      -1.388203       -37.7749
  10   2.0000      -1.159276       -31.5455
  11   2.0000      -1.119676       -30.4679
  12   2.0000      -0.973822       -26.4991
  13   2.0000      -0.949775       -25.8447
  14   2.0000      -0.824902       -22.4467
  15   2.0000      -0.786391       -21.3988
  16   2.0000      -0.776673       -21.1344
  17   2.0000      -0.728295       -19.8179
  18   2.0000      -0.714542       -19.4437
  19   2.0000      -0.655299       -17.8316
  20   2.0000      -0.630603       -17.1596
  21   2.0000      -0.619579       -16.8596
  22   2.0000      -0.581698       -15.8288
  23   2.0000      -0.560098       -15.2410
  24   2.0000      -0.532014       -14.4768
  25   2.0000      -0.527149       -14.3444
  26   2.0000      -0.511334       -13.9141
  27   2.0000      -0.487928       -13.2772
  28   2.0000      -0.452935       -12.3250
  29   2.0000      -0.424337       -11.5468
  30   2.0000      -0.406947       -11.0736
  31   2.0000      -0.392669       -10.6851
  32   2.0000      -0.365024        -9.9328
  33   0.0000       0.144131         3.9220
  34   0.0000       0.161341         4.3903
  35   0.0000       0.164602         4.4790
  36   0.0000       0.173429         4.7192
  37   0.0000       0.189988         5.1698

MULLIKEN ATOMIC CHARGES
-----------------------
   0 C :   -0.291728
   1 C :   -0.303141
   2 C :    0.004635
   3 C :   -0.171437
   4 C :   -0.137498
   5 C :   -0.005794
   6 O :   -0.333554
   7 C :    0.174172
   8 C :   -0.211231
   9 H :    0.130292
  10 H :    0.131653
  11 H :    0.125288
  12 H :    0.127445
  13 H :    0.115611
  14 H :    0.113539
  15 H :    0.128489
  16 H :    0.129212
  17 H :    0.130185
  18 H :    0.143861
Sum of atomic charges:    0.0000000

LOEWDIN ATOMIC CHARGES
----------------------
   0 C :   -0.201222
   1 C :   -0.203329
   2 C :   -0.223103
   3 C :   -0.177867
   4 C :   -0.176394
   5 C :   -0.234529
   6 O :    0.164032
   7 C :   -0.178358
   8 C :   -0.147009
   9 H :    0.135482
  10 H :    0.136020
  11 H :    0.132865
  12 H :    0.132958
  13 H :    0.141008
  14 H :    0.144404
  15 H :    0.148247
  16 H :    0.130733
  17 H :    0.141654
  18 H :    0.134409

  Mayer bond orders larger than 0.1
B(  0-C ,  1-C ) :   0.9315 B(  0-C ,  2-C ) :   0.8458 B(  0-C ,  9-H ) :   0.9242
B(  0-C , 10-H ) :   0.9221 B(  1-C ,  2-C ) :   0.8471 B(  1-C , 11-H ) :   0.9224
B(  1-C , 12-H ) :   0.9173 B(  2-C ,  3-C ) :   0.9533 B(  2-C ,  7-C ) :   0.9418
B(  3-C ,  4-C ) :   0.9317 B(  3-C , 13-H ) :   0.9177 B(  3-C , 14-H ) :   0.9080
B(  4-C ,  5-C ) :   0.8778 B(  4-C ,  8-C ) :   0.8717 B(  4-C , 15-H ) :   0.9236
B(  5-C ,  6-O ) :   0.9787 B(  5-C ,  8-C ) :   0.9480 B(  5-C , 16-H ) :   0.9277
B(  6-O ,  7-C ) :   0.9074 B(  7-C ,  8-C ) :   0.9258 B(  7-C , 17-H ) :   0.8954
B(  8-C , 18-H ) :   0.9067

MP2 TOTAL ENERGY:     -385.159776605 Eh
FINAL SINGLE POINT ENERGY      -385.159776604854

DIPOLE MOMENT
-------------
                                X             Y             Z
Electronic contribution:     -3.18824      -2.71162      -2.40553
Nuclear contribution   :      3.78761       2.39498       2.63007
                        -----------------------------------------
Total Dipole Moment    :      0.59936      -0.31663       0.22454
                        -----------------------------------------
Magnitude (a.u.)       :      0.71408
Magnitude (Debye)      :      1.81505

                             ****ORCA TERMINATED NORMALLY****
TOTAL RUN TIME: 0 days 0 hours 18 minutes 21 seconds 406 msec
