                         Program Version 3.0.3 - RELEASE   -
|  1> ! RI-MP2 RIJK def2-TZVP def2-TZVP/C def2-TZVP/JK TIGHTSCF
|  2> % maxcore 2000
|  3> % mp2 density relaxed end
|  4> *xyz 0 1
|  5>  C        0.0461631407     1.5253019102     0.1016844990
|  6>  C        0.0500457523     0.0072812202     0.0085598156
|  7>  C        0.7015553839    -0.5212008737    -1.2758979585
|  8>  C        0.8444898519    -2.0539804635    -1.2596737768
|  9>  C        1.6088358277    -2.5758241047    -2.4776210841
| 10>  C        1.5067032257    -2.4874863177     0.0666067236
| 11>  O        2.8654402774    -2.0699156212     0.1434965768
| 12>  C        0.7246960175    -1.9000467556     1.2412853921
| 13>  O        0.7431640752    -0.4810584241     1.1626435357
| 14>  H        1.0696484493     1.9126673217     0.0738399125
| 15>  H       -0.5099345297     1.9593216123    -0.7346109604
| 16>  H       -0.4178363654     1.8508139350     1.0364640105
| 17>  H       -0.9896448438    -0.3637486592     0.0544204220
| 18>  H        0.1117807138    -0.2042820543    -2.1440314603
| 19>  H        1.6935011979    -0.0629293487    -1.3845158717
| 20>  H       -0.1659059753    -2.4899289124    -1.2633342449
| 21>  H        2.6443724222    -2.2254803863    -2.4537204989
| 22>  H        1.6275155169    -3.6710396443    -2.4924595700
| 23>  H        1.1476267736    -2.2348259673    -3.4105366296
| 24>  H        1.5156936578    -3.5822748127     0.1346389970
| 25>  H        2.8455892907    -1.1586888623     0.4616158056
| 26>  H       -0.3113146271    -2.2761202694     1.2500988745
| 27>  H        1.2019891968    -2.1626123719     2.1898244101
| 28> *
| 29>
| 30>                          ****END OF INPUT****

CARTESIAN COORDINATES (ANGSTROEM)
---------------------------------
  C      0.046163    1.525302    0.101684
  C      0.050046    0.007281    0.008560
  C      0.701555   -0.521201   -1.275898
  C      0.844490   -2.053980   -1.259674
  C      1.608836   -2.575824   -2.477621
  C      1.506703   -2.487486    0.066607
  O      2.865440   -2.069916    0.143497
  C      0.724696   -1.900047    1.241285
  O      0.743164   -0.481058    1.162644
  H      1.069648    1.912667    0.073840
  H     -0.509935    1.959322   -0.734611
  H     -0.417836    1.850814    1.036464
  H     -0.989645   -0.363749    0.054420
  H      0.111781   -0.204282   -2.144031
  H      1.693501   -0.062929   -1.384516
  H     -0.165906   -2.489929   -1.263334
  H      2.644372   -2.225480   -2.453720
  H      1.627516   -3.671040   -2.492460
  H      1.147627   -2.234826   -3.410537
  H      1.515694   -3.582275    0.134639
  H      2.845589   -1.158689    0.461616
  H     -0.311315   -2.276120    1.250099
  H      1.201989   -2.162612    2.189824

 Total Charge           Charge          ....    0
 Multiplicity           Mult            ....    1
 Number of Electrons    NEL             ....   72
 Basis Dimension        Dim             ....  363

ORBITAL ENERGIES
----------------

  NO   OCC          E(Eh)            E(eV)
   0   2.0000     -20.559279      -559.4464
   1   2.0000     -20.547682      -559.1308
   2   2.0000     -11.283051      -307.0274
   3   2.0000     -11.275703      -306.8275
   4   2.0000     -11.275029      -306.8091
   5   2.0000     -11.229608      -305.5732
   6   2.0000     -11.222914      -305.3910
   7   2.0000     -11.216894      -305.2272
   8   2.0000     -11.209762      -305.0331
   9   2.0000      -1.386475       -37.7279
  10   2.0000      -1.349389       -36.7188
  11   2.0000      -1.089320       -29.6419
  12   2.0000      -1.049446       -28.5569
  13   2.0000      -0.963871       -26.2283
  14   2.0000      -0.932356       -25.3707
  15   2.0000      -0.858280       -23.3550
  16   2.0000      -0.811052       -22.0698
  17   2.0000      -0.767748       -20.8915
  18   2.0000      -0.699450       -19.0330
  19   2.0000      -0.662684       -18.0326
  20   2.0000      -0.652616       -17.7586
  21   2.0000      -0.622474       -16.9384
  22   2.0000      -0.619247       -16.8506
  23   2.0000      -0.604955       -16.4617
  24   2.0000      -0.556099       -15.1322
  25   2.0000      -0.549900       -14.9635
  26   2.0000      -0.541265       -14.7286
  27   2.0000      -0.531375       -14.4594
  28   2.0000      -0.527165       -14.3449
  29   2.0000      -0.520282       -14.1576
  30   2.0000      -0.499802       -13.6003
  31   2.0000      -0.480718       -13.0810
  32   2.0000      -0.471668       -12.8347
  33   2.0000      -0.455557       -12.3963
  34   2.0000      -0.431760       -11.7488
  35   2.0000      -0.402581       -10.9548
  36   0.0000       0.132888         3.6161
  37   0.0000       0.145707         3.9649
  38   0.0000       0.157966         4.2985
  39   0.0000       0.171612         4.6698
  40   0.0000       0.182310         4.9609

MULLIKEN ATOMIC CHARGES
-----------------------
   0 C :   -0.366348
   1 C :    0.075293
   2 C :   -0.345784
   3 C :    0.016435
   4 C :   -0.403150
   5 C :    0.059604
   6 O :   -0.485772
   7 C :   -0.100554
   8 O :   -0.321075
   9 H :    0.125361
  10 H :    0.125139
  11 H :    0.141075
  12 H :    0.073794
  13 H :    0.125070
  14 H :    0.124548
  15 H :    0.086147
  16 H :    0.146331
  17 H :    0.125993
  18 H :    0.127199
  19 H :    0.106469
  20 H :    0.323483
  21 H :    0.102588
  22 H :    0.138154
Sum of atomic charges:   -0.0000000

LOEWDIN ATOMIC CHARGES
----------------------
   0 C :   -0.290572
   1 C :   -0.342564
   2 C :   -0.229771
   3 C :   -0.270521
   4 C :   -0.292456
   5 C :   -0.331334
   6 O :   -0.015624
   7 C :   -0.305472
   8 O :    0.164441
   9 H :    0.125957
  10 H :    0.127269
  11 H :    0.127071
  12 H :    0.136829
  13 H :    0.144030
  14 H :    0.144091
  15 H :    0.154353
  16 H :    0.129053
  17 H :    0.123569
  18 H :    0.122030
  19 H :    0.145977
  20 H :    0.175315
  21 H :    0.124965
  22 H :    0.133364

  Mayer bond orders larger than 0.1
B(  0-C ,  1-C ) :   0.9191 B(  0-C ,  9-H ) :   0.9340 B(  0-C , 10-H ) :   0.9348
B(  0-C , 11-H ) :   0.9396 B(  1-C ,  2-C ) :   0.9336 B(  1-C ,  8-O ) :   0.9277
B(  1-C , 12-H ) :   0.9330 B(  2-C ,  3-C ) :   0.8837 B(  2-C , 13-H ) :   0.9201
B(  2-C , 14-H ) :   0.9256 B(  3-C ,  4-C ) :   0.9064 B(  3-C ,  5-C ) :   0.8800
B(  3-C , 15-H ) :   0.9202 B(  4-C , 16-H ) :   0.9339 B(  4-C , 17-H ) :   0.9375
B(  4-C , 18-H ) :   0.9389 B(  5-C ,  6-O ) :   0.9324 B(  5-C ,  7-C ) :   0.9479
B(  5-C , 19-H ) :   0.9293 B(  6-O , 20-H ) :   0.8272 B(  7-C ,  8-O ) :   0.9006
B(  7-C , 21-H ) :   0.9345 B(  7-C , 22-H ) :   0.9333

MP2 TOTAL ENERGY:     -424.750776803 Eh
FINAL SINGLE POINT ENERGY      -424.750776803345

DIPOLE MOMENT
-------------
                                X             Y             Z
Electronic contribution:      2.09072      -1.40097       4.73574
Nuclear contribution   :     -2.85702       1.51193      -4.98806
                        -----------------------------------------
Total Dipole Moment    :     -0.76630       0.11096      -0.25232
                        -----------------------------------------
Magnitude (a.u.)       :      0.81437
Magnitude (Debye)      :      2.06997

                             ****ORCA TERMINATED NORMALLY****
TOTAL RUN TIME: 0 days 0 hours 20 minutes 18 seconds 743 msec
