                         Program Version 3.0.3 - RELEASE   -
|  1> ! RI-MP2 RIJK def2-TZVP def2-TZVP/C def2-TZVP/JK TIGHTSCF
|  2> % maxcore 2000
|  3> % mp2 density relaxed end
|  4> *xyz 0 1
|  5>  C        0.0795334198     1.4899538101     0.0251779685
|  6>  C       -0.0597716553     0.0064078584    -0.0060551264
|  7>  C       -1.1965636152    -0.7014033727    -0.1771779359
|  8>  N       -1.2164178152    -2.0779627737    -0.1902130103
|  9>  C       -0.1025902767    -2.7177749684    -0.0323152943
| 10>  C       -0.0633907685    -4.2147409867    -0.0376011211
| 11>  C        1.1901642795    -2.0288176873     0.1614880037
| 12>  O        2.2593626241    -2.5550474790     0.3137427457
| 13>  O        1.1193714186    -0.6429660230     0.1613008316
| 14>  H        0.7584507164     1.8299089056    -0.7643464449
| 15>  H       -0.8916824753     1.9680582223    -0.1132039962
| 16>  H        0.5035313846     1.8170696265     0.9807221003
| 17>  H       -2.1452133625    -0.1972793136    -0.3119238061
| 18>  H       -1.0690716811    -4.6083728062    -0.1873836111
| 19>  H        0.6010262248    -4.5798895912    -0.8282594407
| 20>  H        0.3479067220    -4.5926359911     0.9047123971
| 21> *
| 22>
| 23>                          ****END OF INPUT****

CARTESIAN COORDINATES (ANGSTROEM)
---------------------------------
  C      0.079533    1.489954    0.025178
  C     -0.059772    0.006408   -0.006055
  C     -1.196564   -0.701403   -0.177178
  N     -1.216418   -2.077963   -0.190213
  C     -0.102590   -2.717775   -0.032315
  C     -0.063391   -4.214741   -0.037601
  C      1.190164   -2.028818    0.161488
  O      2.259363   -2.555047    0.313743
  O      1.119371   -0.642966    0.161301
  H      0.758451    1.829909   -0.764346
  H     -0.891682    1.968058   -0.113204
  H      0.503531    1.817070    0.980722
  H     -2.145213   -0.197279   -0.311924
  H     -1.069072   -4.608373   -0.187384
  H      0.601026   -4.579890   -0.828259
  H      0.347907   -4.592636    0.904712

 Total Charge           Charge          ....    0
 Multiplicity           Mult            ....    1
 Number of Electrons    NEL             ....   66
 Basis Dimension        Dim             ....  321

ORBITAL ENERGIES
----------------

  NO   OCC          E(Eh)            E(eV)
   0   2.0000     -20.641850      -561.6933
   1   2.0000     -20.557575      -559.4000
   2   2.0000     -15.602200      -424.5574
   3   2.0000     -11.400453      -310.2221
   4   2.0000     -11.333182      -308.3916
   5   2.0000     -11.307722      -307.6988
   6   2.0000     -11.267387      -306.6012
   7   2.0000     -11.252405      -306.1935
   8   2.0000     -11.234043      -305.6938
   9   2.0000      -1.491658       -40.5901
  10   2.0000      -1.392359       -37.8880
  11   2.0000      -1.274458       -34.6798
  12   2.0000      -1.095417       -29.8078
  13   2.0000      -1.029320       -28.0092
  14   2.0000      -0.947066       -25.7710
  15   2.0000      -0.914725       -24.8909
  16   2.0000      -0.866590       -23.5811
  17   2.0000      -0.761734       -20.7278
  18   2.0000      -0.707543       -19.2532
  19   2.0000      -0.681748       -18.5513
  20   2.0000      -0.669610       -18.2210
  21   2.0000      -0.610975       -16.6255
  22   2.0000      -0.600245       -16.3335
  23   2.0000      -0.594410       -16.1747
  24   2.0000      -0.582617       -15.8538
  25   2.0000      -0.579603       -15.7718
  26   2.0000      -0.567800       -15.4506
  27   2.0000      -0.550157       -14.9705
  28   2.0000      -0.517927       -14.0935
  29   2.0000      -0.505038       -13.7428
  30   2.0000      -0.495225       -13.4757
  31   2.0000      -0.426670       -11.6103
  32   2.0000      -0.333660        -9.0794
  33   0.0000       0.061181         1.6648
  34   0.0000       0.132772         3.6129
  35   0.0000       0.148733         4.0472
  36   0.0000       0.149389         4.0651
  37   0.0000       0.173662         4.7256

MULLIKEN ATOMIC CHARGES
-----------------------
   0 C :   -0.404844
   1 C :    0.231146
   2 C :   -0.128632
   3 N :   -0.223464
   4 C :    0.063777
   5 C :   -0.375882
   6 C :    0.243467
   7 O :   -0.283680
   8 O :   -0.173360
   9 H :    0.156044
  10 H :    0.147240
  11 H :    0.156041
  12 H :    0.140880
  13 H :    0.152438
  14 H :    0.149415
  15 H :    0.149413
Sum of atomic charges:   -0.0000000

LOEWDIN ATOMIC CHARGES
----------------------
   0 C :   -0.259325
   1 C :   -0.267545
   2 C :   -0.231455
   3 N :    0.173474
   4 C :   -0.228213
   5 C :   -0.259608
   6 C :   -0.419147
   7 O :    0.146144
   8 O :    0.362307
   9 H :    0.140013
  10 H :    0.138637
  11 H :    0.140013
  12 H :    0.147591
  13 H :    0.134925
  14 H :    0.141093
  15 H :    0.141094

  Mayer bond orders larger than 0.1
B(  0-C ,  1-C ) :   0.9003 B(  0-C ,  9-H ) :   0.9201 B(  0-C , 10-H ) :   0.9471
B(  0-C , 11-H ) :   0.9200 B(  1-C ,  2-C ) :   1.5521 B(  1-C ,  8-O ) :   1.0134
B(  2-C ,  3-N ) :   1.1551 B(  2-C , 12-H ) :   0.9410 B(  3-N ,  4-C ) :   1.6300
B(  4-C ,  5-C ) :   0.9101 B(  4-C ,  6-C ) :   1.0083 B(  5-C , 13-H ) :   0.9442
B(  5-C , 14-H ) :   0.9158 B(  5-C , 15-H ) :   0.9158 B(  6-C ,  7-O ) :   2.0095
B(  6-C ,  8-O ) :   1.0372

MP2 TOTAL ENERGY:     -437.212323138 Eh
FINAL SINGLE POINT ENERGY      -437.212323137560

DIPOLE MOMENT
-------------
                                X             Y             Z
Electronic contribution:      2.72837      -1.13369       0.39000
Nuclear contribution   :     -3.49036       1.95099      -0.49525
                        -----------------------------------------
Total Dipole Moment    :     -0.76199       0.81730      -0.10525
                        -----------------------------------------
Magnitude (a.u.)       :      1.12236
Magnitude (Debye)      :      2.85280

                             ****ORCA TERMINATED NORMALLY****
TOTAL RUN TIME: 0 days 0 hours 16 minutes 4 seconds 542 msec
