                         Program Version 3.0.3 - RELEASE   -
|  1> ! RI-MP2 RIJK def2-TZVP def2-TZVP/C def2-TZVP/JK TIGHTSCF
|  2> % maxcore 2000
|  3> % mp2 density relaxed end
|  4> *xyz 0 1
|  5>  C       -0.2119922004     1.3161384091    -0.0930875376
|  6>  O       -0.0014812835    -0.0749001971    -0.0294927468
|  7>  C        0.6229506742    -0.4797810440     1.1688653919
|  8>  C        0.8592032022    -1.9750094859     1.0993941339
|  9>  N        2.0439969785    -2.4288543543     0.3215809289
| 10>  C        2.5082682411    -3.3396993811     1.4005131642
| 11>  C        1.4766131221    -2.6748791084     2.3252721254
| 12>  O        1.2620702062    -2.6623969118     3.4993384594
| 13>  H        0.7357889768     1.8749102033    -0.0465522730
| 14>  H       -0.7012849203     1.5291813412    -1.0465471401
| 15>  H       -0.8587255548     1.6694437200     0.7257631269
| 16>  H        1.5848484462     0.0391222085     1.3055906204
| 17>  H       -0.0133808990    -0.2551323123     2.0420171736
| 18>  H       -0.0848579029    -2.4652010995     0.8145193238
| 19>  H        1.8166662871    -2.8901441918    -0.5504522268
| 20>  H        2.2962236047    -4.4090032307     1.2558592910
| 21>  H        3.5614374719    -3.2261822052     1.6797872251
| 22> *
| 23>
| 24>                          ****END OF INPUT****

CARTESIAN COORDINATES (ANGSTROEM)
---------------------------------
  C     -0.211992    1.316138   -0.093088
  O     -0.001481   -0.074900   -0.029493
  C      0.622951   -0.479781    1.168865
  C      0.859203   -1.975009    1.099394
  N      2.043997   -2.428854    0.321581
  C      2.508268   -3.339699    1.400513
  C      1.476613   -2.674879    2.325272
  O      1.262070   -2.662397    3.499338
  H      0.735789    1.874910   -0.046552
  H     -0.701285    1.529181   -1.046547
  H     -0.858726    1.669444    0.725763
  H      1.584848    0.039122    1.305591
  H     -0.013381   -0.255132    2.042017
  H     -0.084858   -2.465201    0.814519
  H      1.816666   -2.890144   -0.550452
  H      2.296224   -4.409003    1.255859
  H      3.561437   -3.226182    1.679787

 Total Charge           Charge          ....    0
 Multiplicity           Mult            ....    1
 Number of Electrons    NEL             ....   62
 Basis Dimension        Dim             ....  302

ORBITAL ENERGIES
----------------

  NO   OCC          E(Eh)            E(eV)
   0   2.0000     -20.564667      -559.5930
   1   2.0000     -20.562618      -559.5373
   2   2.0000     -15.561706      -423.4556
   3   2.0000     -11.341051      -308.6057
   4   2.0000     -11.283463      -307.0386
   5   2.0000     -11.274967      -306.8075
   6   2.0000     -11.274332      -306.7902
   7   2.0000     -11.273147      -306.7579
   8   2.0000      -1.408578       -38.3294
   9   2.0000      -1.383662       -37.6514
  10   2.0000      -1.249759       -34.0077
  11   2.0000      -1.021487       -27.7961
  12   2.0000      -0.948421       -25.8078
  13   2.0000      -0.923485       -25.1293
  14   2.0000      -0.855551       -23.2807
  15   2.0000      -0.740126       -20.1399
  16   2.0000      -0.702721       -19.1220
  17   2.0000      -0.677258       -18.4291
  18   2.0000      -0.667426       -18.1616
  19   2.0000      -0.655287       -17.8313
  20   2.0000      -0.628163       -17.0932
  21   2.0000      -0.606213       -16.4959
  22   2.0000      -0.582299       -15.8452
  23   2.0000      -0.554186       -15.0802
  24   2.0000      -0.536939       -14.6108
  25   2.0000      -0.519408       -14.1338
  26   2.0000      -0.517150       -14.0724
  27   2.0000      -0.487867       -13.2755
  28   2.0000      -0.431442       -11.7401
  29   2.0000      -0.407511       -11.0889
  30   2.0000      -0.398679       -10.8486
  31   0.0000       0.115857         3.1526
  32   0.0000       0.147675         4.0184
  33   0.0000       0.147972         4.0265
  34   0.0000       0.167275         4.5518
  35   0.0000       0.181787         4.9467

MULLIKEN ATOMIC CHARGES
-----------------------
   0 C :   -0.218109
   1 O :   -0.305265
   2 C :   -0.058714
   3 C :    0.032558
   4 N :   -0.352348
   5 C :   -0.127035
   6 C :    0.111512
   7 O :   -0.245980
   8 H :    0.116159
   9 H :    0.139317
  10 H :    0.112223
  11 H :    0.092982
  12 H :    0.108158
  13 H :    0.119991
  14 H :    0.214849
  15 H :    0.128745
  16 H :    0.130961
Sum of atomic charges:   -0.0000000

LOEWDIN ATOMIC CHARGES
----------------------
   0 C :   -0.358936
   1 O :    0.133683
   2 C :   -0.308409
   3 C :   -0.249463
   4 N :   -0.000238
   5 C :   -0.245268
   6 C :   -0.296256
   7 O :    0.172822
   8 H :    0.102827
   9 H :    0.113733
  10 H :    0.101840
  11 H :    0.126388
  12 H :    0.127986
  13 H :    0.154445
  14 H :    0.160606
  15 H :    0.132347
  16 H :    0.131892

  Mayer bond orders larger than 0.1
B(  0-C ,  1-O ) :   0.9174 B(  0-C ,  8-H ) :   0.9374 B(  0-C ,  9-H ) :   0.9392
B(  0-C , 10-H ) :   0.9364 B(  1-O ,  2-C ) :   0.9450 B(  2-C ,  3-C ) :   0.9215
B(  2-C , 11-H ) :   0.9177 B(  2-C , 12-H ) :   0.9209 B(  3-C ,  4-N ) :   1.0048
B(  3-C ,  6-C ) :   0.8256 B(  3-C , 13-H ) :   0.8872 B(  4-N ,  5-C ) :   0.9640
B(  4-N , 14-H ) :   0.8796 B(  5-C ,  6-C ) :   0.9135 B(  5-C , 15-H ) :   0.9019
B(  5-C , 16-H ) :   0.9050 B(  6-C ,  7-O ) :   2.0417

MP2 TOTAL ENERGY:     -400.317573275 Eh
FINAL SINGLE POINT ENERGY      -400.317573274782

DIPOLE MOMENT
-------------
                                X             Y             Z
Electronic contribution:      0.95783      -5.00829       3.62053
Nuclear contribution   :     -1.00954       4.97744      -4.24725
                        -----------------------------------------
Total Dipole Moment    :     -0.05170      -0.03085      -0.62671
                        -----------------------------------------
Magnitude (a.u.)       :      0.62960
Magnitude (Debye)      :      1.60031

                             ****ORCA TERMINATED NORMALLY****
TOTAL RUN TIME: 0 days 0 hours 10 minutes 18 seconds 922 msec
