                         Program Version 3.0.3 - RELEASE   -
|  1> ! RI-MP2 RIJK def2-TZVP def2-TZVP/C def2-TZVP/JK TIGHTSCF
|  2> % maxcore 2000
|  3> % mp2 density relaxed end
|  4> *xyz 0 1
|  5>  C        0.0163511384     1.4918056033     0.0524734738
|  6>  C        0.0118373875    -0.0017894382    -0.0037043933
|  7>  C        0.0564406004    -0.7681294870    -1.1004185295
|  8>  C       -0.0339548359    -2.2377611497    -0.7909627520
|  9>  O        0.8920214066    -3.0495760087    -1.4757841132
| 10>  C        0.2200216994    -2.2395860875     0.7266731011
| 11>  O        0.6740910758    -3.1847621828     1.3186071972
| 12>  C       -0.0538982193    -0.8362933251     1.2610495436
| 13>  H        0.8544370274     1.8594659936     0.6579404538
| 14>  H        0.0955282395     1.9300542280    -0.9458442244
| 15>  H       -0.8983602507     1.8744126877     0.5230048863
| 16>  H        0.1070219575    -0.3966291716    -2.1174418245
| 17>  H       -1.0639801204    -2.6049823400    -0.9681116519
| 18>  H        1.1597832160    -3.7320822311    -0.8440876826
| 19>  H        0.6746311815    -0.5536996289     2.0297331484
| 20>  H       -1.0432402735    -0.7998584920     1.7400541371
| 21> *
| 22>
| 23>                          ****END OF INPUT****

CARTESIAN COORDINATES (ANGSTROEM)
---------------------------------
  C      0.016351    1.491806    0.052473
  C      0.011837   -0.001789   -0.003704
  C      0.056441   -0.768129   -1.100419
  C     -0.033955   -2.237761   -0.790963
  O      0.892021   -3.049576   -1.475784
  C      0.220022   -2.239586    0.726673
  O      0.674091   -3.184762    1.318607
  C     -0.053898   -0.836293    1.261050
  H      0.854437    1.859466    0.657940
  H      0.095528    1.930054   -0.945844
  H     -0.898360    1.874413    0.523005
  H      0.107022   -0.396629   -2.117442
  H     -1.063980   -2.604982   -0.968112
  H      1.159783   -3.732082   -0.844088
  H      0.674631   -0.553700    2.029733
  H     -1.043240   -0.799858    1.740054

 Total Charge           Charge          ....    0
 Multiplicity           Mult            ....    1
 Number of Electrons    NEL             ....   60
 Basis Dimension        Dim             ....  296

ORBITAL ENERGIES
----------------

  NO   OCC          E(Eh)            E(eV)
   0   2.0000     -20.564513      -559.5889
   1   2.0000     -20.561031      -559.4941
   2   2.0000     -11.341709      -308.6236
   3   2.0000     -11.298100      -307.4369
   4   2.0000     -11.258857      -306.3691
   5   2.0000     -11.254298      -306.2450
   6   2.0000     -11.239658      -305.8467
   7   2.0000     -11.237504      -305.7880
   8   2.0000      -1.413168       -38.4543
   9   2.0000      -1.365017       -37.1440
  10   2.0000      -1.153804       -31.3966
  11   2.0000      -1.012618       -27.5547
  12   2.0000      -0.980243       -26.6738
  13   2.0000      -0.898479       -24.4489
  14   2.0000      -0.778046       -21.1717
  15   2.0000      -0.742025       -20.1915
  16   2.0000      -0.686223       -18.6731
  17   2.0000      -0.677647       -18.4397
  18   2.0000      -0.654781       -17.8175
  19   2.0000      -0.619536       -16.8584
  20   2.0000      -0.613381       -16.6910
  21   2.0000      -0.577074       -15.7030
  22   2.0000      -0.576474       -15.6866
  23   2.0000      -0.555801       -15.1241
  24   2.0000      -0.544111       -14.8060
  25   2.0000      -0.525194       -14.2912
  26   2.0000      -0.507141       -13.8000
  27   2.0000      -0.459263       -12.4972
  28   2.0000      -0.412081       -11.2133
  29   2.0000      -0.364122        -9.9083
  30   0.0000       0.121438         3.3045
  31   0.0000       0.132034         3.5928
  32   0.0000       0.138570         3.7707
  33   0.0000       0.157662         4.2902
  34   0.0000       0.176246         4.7959

MULLIKEN ATOMIC CHARGES
-----------------------
   0 C :   -0.417818
   1 C :    0.012400
   2 C :   -0.230048
   3 C :    0.192135
   4 O :   -0.483478
   5 C :    0.088958
   6 O :   -0.279759
   7 C :   -0.165580
   8 H :    0.144610
   9 H :    0.142567
  10 H :    0.141949
  11 H :    0.142813
  12 H :    0.099244
  13 H :    0.329990
  14 H :    0.140741
  15 H :    0.141276
Sum of atomic charges:    0.0000000

LOEWDIN ATOMIC CHARGES
----------------------
   0 C :   -0.269669
   1 C :   -0.180730
   2 C :   -0.110899
   3 C :   -0.311170
   4 O :   -0.012197
   5 C :   -0.279069
   6 O :    0.154902
   7 C :   -0.181018
   8 H :    0.134314
   9 H :    0.133018
  10 H :    0.133294
  11 H :    0.144112
  12 H :    0.149647
  13 H :    0.184170
  14 H :    0.152921
  15 H :    0.158375

  Mayer bond orders larger than 0.1
B(  0-C ,  1-C ) :   0.8854 B(  0-C ,  8-H ) :   0.9302 B(  0-C ,  9-H ) :   0.9469
B(  0-C , 10-H ) :   0.9268 B(  1-C ,  2-C ) :   1.6912 B(  1-C ,  7-C ) :   0.9059
B(  2-C ,  3-C ) :   0.8965 B(  2-C , 11-H ) :   0.9162 B(  3-C ,  4-O ) :   0.9895
B(  3-C ,  5-C ) :   0.9049 B(  3-C ,  7-C ) :  -0.1112 B(  3-C , 12-H ) :   0.9029
B(  4-O , 13-H ) :   0.8208 B(  5-C ,  6-O ) :   2.0289 B(  5-C ,  7-C ) :   0.9302
B(  7-C , 14-H ) :   0.9005 B(  7-C , 15-H ) :   0.8785

MP2 TOTAL ENERGY:     -383.129952477 Eh
FINAL SINGLE POINT ENERGY      -383.129952476968

DIPOLE MOMENT
-------------
                                X             Y             Z
Electronic contribution:      1.35994      -7.21266       0.12089
Nuclear contribution   :     -1.93499       8.20736       0.11504
                        -----------------------------------------
Total Dipole Moment    :     -0.57504       0.99470       0.23592
                        -----------------------------------------
Magnitude (a.u.)       :      1.17293
Magnitude (Debye)      :      2.98135

                             ****ORCA TERMINATED NORMALLY****
TOTAL RUN TIME: 0 days 0 hours 11 minutes 14 seconds 934 msec
