                         Program Version 3.0.3 - RELEASE   -
|  1> ! RI-MP2 RIJK def2-TZVP def2-TZVP/C def2-TZVP/JK TIGHTSCF
|  2> % maxcore 2000
|  3> % mp2 density relaxed end
|  4> *xyz 0 1
|  5>  C        0.0163880601     1.5621568998     0.0968828976
|  6>  O        1.3962105987     1.8943883692    -0.1398695287
|  7>  C        2.2248101733     0.7382350240     0.0274238131
|  8>  C        1.3211772709    -0.2841570579     0.7051669613
|  9>  O        1.6851829777    -1.6309272813     0.5310468017
| 10>  C        0.7337433713    -2.4716795345     1.1817427752
| 11>  C       -0.7064173626    -2.2504429293     0.6909538998
| 12>  C       -1.1253546714    -0.7653886906     0.7612597179
| 13>  C       -0.0333250240     0.0403662857     0.0670928079
| 14>  H       -0.3011860413     1.9600667085     1.0735147152
| 15>  H       -0.5921691328     2.0397164436    -0.6779195681
| 16>  H        2.5674729328     0.3557259907    -0.9450742055
| 17>  H        3.1009499089     1.0163034994     0.6214440630
| 18>  H        1.2631408041    -0.0555101831     1.7858913498
| 19>  H        1.0554507220    -3.4985870801     0.9888919685
| 20>  H        0.7828146688    -2.3012739323     2.2710552400
| 21>  H       -0.7815493585    -2.5950282637    -0.3475138958
| 22>  H       -1.3809056663    -2.8755465935     1.2867945331
| 23>  H       -2.1076146706    -0.6232674232     0.2977955572
| 24>  H       -1.2155222825    -0.4468210249     1.8088807307
| 25>  H        0.0303386916    -0.2851582265    -0.9807924137
| 26> *
| 27>
| 28>                          ****END OF INPUT****

CARTESIAN COORDINATES (ANGSTROEM)
---------------------------------
  C      0.016388    1.562157    0.096883
  O      1.396211    1.894388   -0.139870
  C      2.224810    0.738235    0.027424
  C      1.321177   -0.284157    0.705167
  O      1.685183   -1.630927    0.531047
  C      0.733743   -2.471680    1.181743
  C     -0.706417   -2.250443    0.690954
  C     -1.125355   -0.765389    0.761260
  C     -0.033325    0.040366    0.067093
  H     -0.301186    1.960067    1.073515
  H     -0.592169    2.039716   -0.677920
  H      2.567473    0.355726   -0.945074
  H      3.100950    1.016303    0.621444
  H      1.263141   -0.055510    1.785891
  H      1.055451   -3.498587    0.988892
  H      0.782815   -2.301274    2.271055
  H     -0.781549   -2.595028   -0.347514
  H     -1.380906   -2.875547    1.286795
  H     -2.107615   -0.623267    0.297796
  H     -1.215522   -0.446821    1.808881
  H      0.030339   -0.285158   -0.980792

 Total Charge           Charge          ....    0
 Multiplicity           Mult            ....    1
 Number of Electrons    NEL             ....   70
 Basis Dimension        Dim             ....  351

ORBITAL ENERGIES
----------------

  NO   OCC          E(Eh)            E(eV)
   0   2.0000     -20.559642      -559.4563
   1   2.0000     -20.547654      -559.1301
   2   2.0000     -11.279492      -306.9306
   3   2.0000     -11.276890      -306.8598
   4   2.0000     -11.273884      -306.7780
   5   2.0000     -11.269062      -306.6468
   6   2.0000     -11.233081      -305.6677
   7   2.0000     -11.230815      -305.6060
   8   2.0000     -11.226964      -305.5012
   9   2.0000      -1.386685       -37.7336
  10   2.0000      -1.362532       -37.0764
  11   2.0000      -1.094585       -29.7852
  12   2.0000      -1.045678       -28.4544
  13   2.0000      -0.983666       -26.7669
  14   2.0000      -0.906923       -24.6786
  15   2.0000      -0.836926       -22.7739
  16   2.0000      -0.810998       -22.0684
  17   2.0000      -0.784429       -21.3454
  18   2.0000      -0.683139       -18.5892
  19   2.0000      -0.674385       -18.3510
  20   2.0000      -0.644002       -17.5242
  21   2.0000      -0.632572       -17.2132
  22   2.0000      -0.621410       -16.9094
  23   2.0000      -0.595149       -16.1948
  24   2.0000      -0.578441       -15.7402
  25   2.0000      -0.567469       -15.4416
  26   2.0000      -0.545964       -14.8564
  27   2.0000      -0.541695       -14.7403
  28   2.0000      -0.494096       -13.4450
  29   2.0000      -0.485438       -13.2094
  30   2.0000      -0.480417       -13.0728
  31   2.0000      -0.466998       -12.7077
  32   2.0000      -0.445993       -12.1361
  33   2.0000      -0.412139       -11.2149
  34   2.0000      -0.403325       -10.9750
  35   0.0000       0.136684         3.7193
  36   0.0000       0.147054         4.0016
  37   0.0000       0.157197         4.2775
  38   0.0000       0.170536         4.6405
  39   0.0000       0.190489         5.1835

MULLIKEN ATOMIC CHARGES
-----------------------
   0 C :   -0.011339
   1 O :   -0.317488
   2 C :    0.011568
   3 C :   -0.011486
   4 O :   -0.300202
   5 C :   -0.079552
   6 C :   -0.204135
   7 C :   -0.224761
   8 C :   -0.116703
   9 H :    0.084793
  10 H :    0.106055
  11 H :    0.092076
  12 H :    0.107676
  13 H :    0.072461
  14 H :    0.133059
  15 H :    0.092917
  16 H :    0.110517
  17 H :    0.126532
  18 H :    0.126942
  19 H :    0.110637
  20 H :    0.090431
Sum of atomic charges:    0.0000000

LOEWDIN ATOMIC CHARGES
----------------------
   0 C :   -0.273232
   1 O :    0.131742
   2 C :   -0.271790
   3 C :   -0.314931
   4 O :    0.178528
   5 C :   -0.307298
   6 C :   -0.264330
   7 C :   -0.242578
   8 C :   -0.246557
   9 H :    0.121554
  10 H :    0.124760
  11 H :    0.125228
  12 H :    0.124583
  13 H :    0.142030
  14 H :    0.130549
  15 H :    0.121146
  16 H :    0.140062
  17 H :    0.140069
  18 H :    0.137446
  19 H :    0.139862
  20 H :    0.163158

  Mayer bond orders larger than 0.1
B(  0-C ,  1-O ) :   0.9551 B(  0-C ,  8-C ) :   0.9667 B(  0-C ,  9-H ) :   0.9147
B(  0-C , 10-H ) :   0.9150 B(  1-O ,  2-C ) :   0.9599 B(  2-C ,  3-C ) :   0.9426
B(  2-C , 11-H ) :   0.9213 B(  2-C , 12-H ) :   0.9137 B(  3-C ,  4-O ) :   0.9839
B(  3-C ,  8-C ) :   0.8901 B(  3-C , 13-H ) :   0.9373 B(  4-O ,  5-C ) :   0.9271
B(  5-C ,  6-C ) :   0.9390 B(  5-C , 14-H ) :   0.9289 B(  5-C , 15-H ) :   0.9367
B(  6-C ,  7-C ) :   0.9220 B(  6-C , 16-H ) :   0.9226 B(  6-C , 17-H ) :   0.9247
B(  7-C ,  8-C ) :   0.9153 B(  7-C , 18-H ) :   0.9338 B(  7-C , 19-H ) :   0.9249
B(  8-C , 20-H ) :   0.9162

MP2 TOTAL ENERGY:     -423.533358665 Eh
FINAL SINGLE POINT ENERGY      -423.533358665185

DIPOLE MOMENT
-------------
                                X             Y             Z
Electronic contribution:      4.04719       2.39396      -1.45111
Nuclear contribution   :     -4.81097      -2.94680       1.82135
                        -----------------------------------------
Total Dipole Moment    :     -0.76378      -0.55283       0.37024
                        -----------------------------------------
Magnitude (a.u.)       :      1.01295
Magnitude (Debye)      :      2.57470

                             ****ORCA TERMINATED NORMALLY****
TOTAL RUN TIME: 0 days 0 hours 19 minutes 11 seconds 644 msec
