                         Program Version 3.0.3 - RELEASE   -
|  1> ! RI-MP2 RIJK def2-TZVP def2-TZVP/C def2-TZVP/JK TIGHTSCF
|  2> % maxcore 2000
|  3> % mp2 density relaxed end
|  4> *xyz 0 1
|  5>  C        0.0302299346     1.4045651174     0.0458801737
|  6>  N        0.0495335406    -0.0440340426     0.0329068362
|  7>  N       -0.1829148169    -0.7468603593    -1.0659950887
|  8>  C       -0.0928328460    -2.0174449493    -0.6670484380
|  9>  C        0.2035120707    -2.0090050215     0.7006061746
| 10>  O        0.4164023123    -3.0932757716     1.4922337742
| 11>  C        0.0138999869    -3.0298232139     2.8034570903
| 12>  O        0.2562706177    -3.9102620431     3.5641419818
| 13>  N        0.2976521726    -0.7541072216     1.1326640418
| 14>  H        0.9804472707     1.7845743273     0.4272361650
| 15>  H       -0.1228429991     1.7340360548    -0.9804589017
| 16>  H       -0.7829740163     1.7659159815     0.6805621692
| 17>  H       -0.2320778755    -2.8432055493    -1.3438257223
| 18>  H       -0.5375452324    -2.1040629489     3.0261561840
| 19> *
| 20>
| 21>                          ****END OF INPUT****

CARTESIAN COORDINATES (ANGSTROEM)
---------------------------------
  C      0.030230    1.404565    0.045880
  N      0.049534   -0.044034    0.032907
  N     -0.182915   -0.746860   -1.065995
  C     -0.092833   -2.017445   -0.667048
  C      0.203512   -2.009005    0.700606
  O      0.416402   -3.093276    1.492234
  C      0.013900   -3.029823    2.803457
  O      0.256271   -3.910262    3.564142
  N      0.297652   -0.754107    1.132664
  H      0.980447    1.784574    0.427236
  H     -0.122843    1.734036   -0.980459
  H     -0.782974    1.765916    0.680562
  H     -0.232078   -2.843206   -1.343826
  H     -0.537545   -2.104063    3.026156

 Total Charge           Charge          ....    0
 Multiplicity           Mult            ....    1
 Number of Electrons    NEL             ....   66
 Basis Dimension        Dim             ....  309

ORBITAL ENERGIES
----------------

  NO   OCC          E(Eh)            E(eV)
   0   2.0000     -20.639316      -561.6243
   1   2.0000     -20.570022      -559.7388
   2   2.0000     -15.699811      -427.2136
   3   2.0000     -15.636580      -425.4930
   4   2.0000     -15.626837      -425.2279
   5   2.0000     -11.399651      -310.2003
   6   2.0000     -11.348319      -308.8035
   7   2.0000     -11.293187      -307.3032
   8   2.0000     -11.278122      -306.8933
   9   2.0000      -1.499280       -40.7975
  10   2.0000      -1.464410       -39.8486
  11   2.0000      -1.399815       -38.0909
  12   2.0000      -1.210947       -32.9516
  13   2.0000      -1.153787       -31.3961
  14   2.0000      -0.988570       -26.9003
  15   2.0000      -0.905577       -24.6420
  16   2.0000      -0.866143       -23.5690
  17   2.0000      -0.813610       -22.1394
  18   2.0000      -0.774592       -21.0777
  19   2.0000      -0.712017       -19.3750
  20   2.0000      -0.707272       -19.2459
  21   2.0000      -0.679193       -18.4818
  22   2.0000      -0.653189       -17.7742
  23   2.0000      -0.633032       -17.2257
  24   2.0000      -0.606293       -16.4981
  25   2.0000      -0.587682       -15.9916
  26   2.0000      -0.580870       -15.8063
  27   2.0000      -0.540969       -14.7205
  28   2.0000      -0.510829       -13.9004
  29   2.0000      -0.493175       -13.4200
  30   2.0000      -0.472981       -12.8705
  31   2.0000      -0.418113       -11.3774
  32   2.0000      -0.369491       -10.0544
  33   0.0000       0.111904         3.0451
  34   0.0000       0.137367         3.7380
  35   0.0000       0.143243         3.8979
  36   0.0000       0.172723         4.7000
  37   0.0000       0.183229         4.9859

MULLIKEN ATOMIC CHARGES
-----------------------
   0 C :   -0.317041
   1 N :    0.228361
   2 N :   -0.239509
   3 C :   -0.127380
   4 C :    0.226964
   5 O :   -0.218914
   6 C :    0.197174
   7 O :   -0.243538
   8 N :   -0.275230
   9 H :    0.161633
  10 H :    0.176219
  11 H :    0.156169
  12 H :    0.159033
  13 H :    0.116058
Sum of atomic charges:    0.0000000

LOEWDIN ATOMIC CHARGES
----------------------
   0 C :   -0.268679
   1 N :    0.107999
   2 N :    0.048340
   3 C :   -0.246880
   4 C :   -0.395759
   5 O :    0.301138
   6 C :   -0.399503
   7 O :    0.146483
   8 N :    0.056304
   9 H :    0.129315
  10 H :    0.135199
  11 H :    0.127523
  12 H :    0.143228
  13 H :    0.115291

  Mayer bond orders larger than 0.1
B(  0-C ,  1-N ) :   0.8595 B(  0-C ,  9-H ) :   0.9275 B(  0-C , 10-H ) :   0.9239
B(  0-C , 11-H ) :   0.9273 B(  1-N ,  2-N ) :   1.1272 B(  1-N ,  8-N ) :   1.0704
B(  2-N ,  3-C ) :   1.4125 B(  3-C ,  4-C ) :   1.3687 B(  3-C , 12-H ) :   0.9240
B(  4-C ,  5-O ) :   1.0064 B(  4-C ,  8-N ) :   1.3733 B(  5-O ,  6-C ) :   0.9719
B(  6-C ,  7-O ) :   2.0522 B(  6-C , 13-H ) :   0.9171

MP2 TOTAL ENERGY:     -469.271795423 Eh
FINAL SINGLE POINT ENERGY      -469.271795422514

DIPOLE MOMENT
-------------
                                X             Y             Z
Electronic contribution:      0.77552      -6.26097       2.03531
Nuclear contribution   :     -1.17121       7.70405      -2.65227
                        -----------------------------------------
Total Dipole Moment    :     -0.39568       1.44308      -0.61696
                        -----------------------------------------
Magnitude (a.u.)       :      1.61854
Magnitude (Debye)      :      4.11401

                             ****ORCA TERMINATED NORMALLY****
TOTAL RUN TIME: 0 days 0 hours 13 minutes 35 seconds 228 msec
