                         Program Version 3.0.3 - RELEASE   -
|  1> ! RI-MP2 RIJK def2-TZVP def2-TZVP/C def2-TZVP/JK TIGHTSCF
|  2> % maxcore 2000
|  3> % mp2 density relaxed end
|  4> *xyz 0 1
|  5>  O       -0.8218671218     0.9209238391     0.5896754786
|  6>  C        0.1919632578     0.8490395192    -0.0522552756
|  7>  C        1.3291876213     1.8536755358     0.0704887797
|  8>  C        1.4638570123     2.4599357117     1.4629455475
|  9>  C        2.7495979878     3.2297057060     1.5369521558
| 10>  C        3.7654561143     2.9437158798     0.7187372772
| 11>  C        3.7200389050     1.7954216732    -0.2140703519
| 12>  O        4.6804703260     1.3578200797    -0.7876646054
| 13>  O        2.5114000623     1.1697437521    -0.3605589827
| 14>  H        0.3775700860     0.0490380739    -0.7993592890
| 15>  H        1.1191073114     2.6624801351    -0.6497135122
| 16>  H        0.5977477039     3.0981733961     1.6582588991
| 17>  H        1.4422279486     1.6748087829     2.2310225249
| 18>  H        2.8441554647     4.0112958490     2.2857038813
| 19>  H        4.7142302004     3.4652621864     0.7493004026
| 20> *
| 21>
| 22>                          ****END OF INPUT****

CARTESIAN COORDINATES (ANGSTROEM)
---------------------------------
  O     -0.821867    0.920924    0.589675
  C      0.191963    0.849040   -0.052255
  C      1.329188    1.853676    0.070489
  C      1.463857    2.459936    1.462946
  C      2.749598    3.229706    1.536952
  C      3.765456    2.943716    0.718737
  C      3.720039    1.795422   -0.214070
  O      4.680470    1.357820   -0.787665
  O      2.511400    1.169744   -0.360559
  H      0.377570    0.049038   -0.799359
  H      1.119107    2.662480   -0.649714
  H      0.597748    3.098173    1.658259
  H      1.442228    1.674809    2.231023
  H      2.844155    4.011296    2.285704
  H      4.714230    3.465262    0.749300

 Total Charge           Charge          ....    0
 Multiplicity           Mult            ....    1
 Number of Electrons    NEL             ....   66
 Basis Dimension        Dim             ....  315

ORBITAL ENERGIES
----------------

  NO   OCC          E(Eh)            E(eV)
   0   2.0000     -20.616132      -560.9935
   1   2.0000     -20.582209      -560.0704
   2   2.0000     -20.549651      -559.1844
   3   2.0000     -11.392847      -310.0151
   4   2.0000     -11.354136      -308.9617
   5   2.0000     -11.332255      -308.3663
   6   2.0000     -11.288861      -307.1855
   7   2.0000     -11.270567      -306.6877
   8   2.0000     -11.263831      -306.5044
   9   2.0000      -1.469882       -39.9975
  10   2.0000      -1.421895       -38.6917
  11   2.0000      -1.375021       -37.4162
  12   2.0000      -1.136452       -30.9244
  13   2.0000      -1.067077       -29.0366
  14   2.0000      -0.952765       -25.9261
  15   2.0000      -0.876667       -23.8553
  16   2.0000      -0.821368       -22.3506
  17   2.0000      -0.765900       -20.8412
  18   2.0000      -0.729021       -19.8377
  19   2.0000      -0.711369       -19.3573
  20   2.0000      -0.681281       -18.5386
  21   2.0000      -0.663812       -18.0633
  22   2.0000      -0.637273       -17.3411
  23   2.0000      -0.629174       -17.1207
  24   2.0000      -0.614979       -16.7344
  25   2.0000      -0.584417       -15.9028
  26   2.0000      -0.560871       -15.2621
  27   2.0000      -0.539962       -14.6931
  28   2.0000      -0.524901       -14.2833
  29   2.0000      -0.474391       -12.9088
  30   2.0000      -0.464145       -12.6300
  31   2.0000      -0.437915       -11.9163
  32   2.0000      -0.403967       -10.9925
  33   0.0000       0.077702         2.1144
  34   0.0000       0.104489         2.8433
  35   0.0000       0.133978         3.6457
  36   0.0000       0.146762         3.9936
  37   0.0000       0.166711         4.5364

MULLIKEN ATOMIC CHARGES
-----------------------
   0 O :   -0.255940
   1 C :    0.070378
   2 C :    0.101004
   3 C :   -0.189981
   4 C :   -0.133650
   5 C :   -0.208986
   6 C :    0.281874
   7 O :   -0.275311
   8 O :   -0.228886
   9 H :    0.119521
  10 H :    0.117661
  11 H :    0.155513
  12 H :    0.143110
  13 H :    0.148569
  14 H :    0.155126
Sum of atomic charges:   -0.0000000

LOEWDIN ATOMIC CHARGES
----------------------
   0 O :    0.151423
   1 C :   -0.260295
   2 C :   -0.288206
   3 C :   -0.221433
   4 C :   -0.121241
   5 C :   -0.137008
   6 C :   -0.456483
   7 O :    0.152167
   8 O :    0.269760
   9 H :    0.122679
  10 H :    0.160818
  11 H :    0.159868
  12 H :    0.160005
  13 H :    0.149414
  14 H :    0.158532

  Mayer bond orders larger than 0.1
B(  0-O ,  1-C ) :   1.9963 B(  1-C ,  2-C ) :   0.8491 B(  1-C ,  9-H ) :   0.9442
B(  2-C ,  3-C ) :   0.9350 B(  2-C ,  8-O ) :   0.8637 B(  2-C , 10-H ) :   0.9038
B(  3-C ,  4-C ) :   0.9250 B(  3-C , 11-H ) :   0.9219 B(  3-C , 12-H ) :   0.8886
B(  4-C ,  5-C ) :   1.6895 B(  4-C , 13-H ) :   0.9220 B(  5-C ,  6-C ) :   1.0021
B(  5-C , 14-H ) :   0.9213 B(  6-C ,  7-O ) :   2.0099 B(  6-C ,  8-O ) :   1.0912

MP2 TOTAL ENERGY:     -457.063088206 Eh
FINAL SINGLE POINT ENERGY      -457.063088206101

DIPOLE MOMENT
-------------
                                X             Y             Z
Electronic contribution:      1.33558      -2.76879      -2.73006
Nuclear contribution   :     -1.72809       3.83105       3.37866
                        -----------------------------------------
Total Dipole Moment    :     -0.39252       1.06226       0.64860
                        -----------------------------------------
Magnitude (a.u.)       :      1.30505
Magnitude (Debye)      :      3.31717

                             ****ORCA TERMINATED NORMALLY****
TOTAL RUN TIME: 0 days 0 hours 20 minutes 26 seconds 141 msec
