                         Program Version 3.0.3 - RELEASE   -
|  1> ! RI-MP2 RIJK def2-TZVP def2-TZVP/C def2-TZVP/JK TIGHTSCF
|  2> % maxcore 2000
|  3> % mp2 density relaxed end
|  4> *xyz 0 1
|  5>  O        0.0542369813     1.4897224629     0.2766947813
|  6>  C        0.0224213912     0.0893660339     0.0500442700
|  7>  C        0.7105915759    -0.6682444918     1.1708018625
|  8>  C       -0.1300251068    -1.3633041408     1.9396986837
|  9>  C       -1.5212424473    -1.2298857527     1.4471432324
| 10>  O       -2.5205789784    -1.6793994966     1.9425783711
| 11>  C       -1.4434643493    -0.4246091202     0.1113309694
| 12>  C       -2.4832304378     0.5735583315    -0.0361913694
| 13>  C       -3.3730718860     1.3704515408    -0.1567979281
| 14>  H        0.9666945390     1.7867539692     0.1973434511
| 15>  H        0.4728906245    -0.1487325305    -0.9242414437
| 16>  H        1.7830621546    -0.5899307540     1.3212222975
| 17>  H        0.1108023250    -1.9448113209     2.8205621627
| 18>  H       -1.5676325454    -1.1828972494    -0.6744175999
| 19>  H       -4.1523792904     2.0845685387    -0.2558800404
| 20> *
| 21>
| 22>                          ****END OF INPUT****

CARTESIAN COORDINATES (ANGSTROEM)
---------------------------------
  O      0.054237    1.489722    0.276695
  C      0.022421    0.089366    0.050044
  C      0.710592   -0.668244    1.170802
  C     -0.130025   -1.363304    1.939699
  C     -1.521242   -1.229886    1.447143
  O     -2.520579   -1.679399    1.942578
  C     -1.443464   -0.424609    0.111331
  C     -2.483230    0.573558   -0.036191
  C     -3.373072    1.370452   -0.156798
  H      0.966695    1.786754    0.197343
  H      0.472891   -0.148733   -0.924241
  H      1.783062   -0.589931    1.321222
  H      0.110802   -1.944811    2.820562
  H     -1.567633   -1.182897   -0.674418
  H     -4.152379    2.084569   -0.255880

 Total Charge           Charge          ....    0
 Multiplicity           Mult            ....    1
 Number of Electrons    NEL             ....   64
 Basis Dimension        Dim             ....  315

ORBITAL ENERGIES
----------------

  NO   OCC          E(Eh)            E(eV)
   0   2.0000     -20.579294      -559.9911
   1   2.0000     -20.551821      -559.2435
   2   2.0000     -11.342285      -308.6393
   3   2.0000     -11.320946      -308.0586
   4   2.0000     -11.276992      -306.8625
   5   2.0000     -11.276414      -306.8468
   6   2.0000     -11.257670      -306.3368
   7   2.0000     -11.231951      -305.6369
   8   2.0000     -11.219716      -305.3040
   9   2.0000      -1.397575       -38.0300
  10   2.0000      -1.387489       -37.7555
  11   2.0000      -1.157133       -31.4872
  12   2.0000      -1.060428       -28.8557
  13   2.0000      -0.983314       -26.7573
  14   2.0000      -0.936334       -25.4789
  15   2.0000      -0.821094       -22.3431
  16   2.0000      -0.772654       -21.0250
  17   2.0000      -0.731320       -19.9002
  18   2.0000      -0.712764       -19.3953
  19   2.0000      -0.693917       -18.8824
  20   2.0000      -0.641959       -17.4686
  21   2.0000      -0.626548       -17.0492
  22   2.0000      -0.616440       -16.7742
  23   2.0000      -0.597571       -16.2607
  24   2.0000      -0.588373       -16.0104
  25   2.0000      -0.537622       -14.6294
  26   2.0000      -0.523420       -14.2430
  27   2.0000      -0.472943       -12.8694
  28   2.0000      -0.435168       -11.8415
  29   2.0000      -0.403048       -10.9675
  30   2.0000      -0.384669       -10.4674
  31   2.0000      -0.375187       -10.2094
  32   0.0000       0.078217         2.1284
  33   0.0000       0.114155         3.1063
  34   0.0000       0.144641         3.9359
  35   0.0000       0.165734         4.5099
  36   0.0000       0.171149         4.6572

MULLIKEN ATOMIC CHARGES
-----------------------
   0 O :   -0.429600
   1 C :    0.088245
   2 C :   -0.134011
   3 C :   -0.194353
   4 C :    0.172809
   5 O :   -0.252251
   6 C :   -0.122171
   7 C :   -0.001691
   8 C :   -0.177706
   9 H :    0.314297
  10 H :    0.102328
  11 H :    0.151797
  12 H :    0.152977
  13 H :    0.138726
  14 H :    0.190604
Sum of atomic charges:   -0.0000000

LOEWDIN ATOMIC CHARGES
----------------------
   0 O :    0.007837
   1 C :   -0.288442
   2 C :   -0.096198
   3 C :   -0.107369
   4 C :   -0.279102
   5 O :    0.175076
   6 C :   -0.171923
   7 C :   -0.080665
   8 C :   -0.081308
   9 H :    0.177766
  10 H :    0.138056
  11 H :    0.141576
  12 H :    0.149361
  13 H :    0.188299
  14 H :    0.127037

  Mayer bond orders larger than 0.1
B(  0-O ,  1-C ) :   1.0521 B(  0-O ,  6-C ) :  -0.1420 B(  0-O ,  9-H ) :   0.8423
B(  1-C ,  2-C ) :   0.9073 B(  1-C ,  6-C ) :   0.9138 B(  1-C , 10-H ) :   0.9492
B(  2-C ,  3-C ) :   1.6806 B(  2-C , 11-H ) :   0.9023 B(  3-C ,  4-C ) :   0.9967
B(  3-C , 12-H ) :   0.9119 B(  4-C ,  5-O ) :   2.0297 B(  4-C ,  6-C ) :   0.8202
B(  6-C ,  7-C ) :   1.1541 B(  6-C , 13-H ) :   0.8726 B(  7-C ,  8-C ) :   2.6022
B(  8-C , 14-H ) :   0.8908

MP2 TOTAL ENERGY:     -419.890692557 Eh
FINAL SINGLE POINT ENERGY      -419.890692557184

DIPOLE MOMENT
-------------
                                X             Y             Z
Electronic contribution:     -2.52945      -0.99767       1.40486
Nuclear contribution   :      4.23796       1.06199      -1.91634
                        -----------------------------------------
Total Dipole Moment    :      1.70850       0.06432      -0.51148
                        -----------------------------------------
Magnitude (a.u.)       :      1.78458
Magnitude (Debye)      :      4.53605

                             ****ORCA TERMINATED NORMALLY****
TOTAL RUN TIME: 0 days 0 hours 15 minutes 1 seconds 295 msec
