                         Program Version 3.0.3 - RELEASE   -
|  1> ! RI-MP2 RIJK def2-TZVP def2-TZVP/C def2-TZVP/JK TIGHTSCF
|  2> % maxcore 2000
|  3> % mp2 density relaxed end
|  4> *xyz 0 1
|  5>  C       -0.0204093251     1.5438082106     0.0611140525
|  6>  C        1.2855198901     0.7656225526     0.0068371231
|  7>  C       -0.0325615113     0.0565991339    -0.0142288253
|  8>  C       -0.5394312961    -0.9911814166     0.9768788360
|  9>  O       -1.9636941717    -0.9260918850     0.7796867971
| 10>  C       -1.9751922789    -1.3781563901    -0.5857468596
| 11>  C       -1.4654745363    -2.8301299085    -0.4482500207
| 12>  C       -0.1562890660    -2.1183564142    -0.0783768598
| 13>  C       -0.5169465256    -0.9344417614    -1.0546096688
| 14>  H       -0.2961541662     2.0124041100     1.0003676556
| 15>  H       -0.3111386845     2.1078051135    -0.8195268817
| 16>  H        1.8676744627     0.8072165805    -0.9084530619
| 17>  H        1.8854990697     0.7181665789     0.9105429799
| 18>  H       -0.2844844309    -1.0133216993     2.0354002282
| 19>  H       -2.8997701728    -1.0937931261    -1.0846548264
| 20>  H       -1.9732543808    -3.4633743669     0.2832412261
| 21>  H       -1.3732907995    -3.3397382494    -1.4115130226
| 22>  H        0.8261101812    -2.5811050450    -0.0199033326
| 23>  H       -0.2744524880    -0.9122136276    -2.1153784990
| 24> *
| 25>
| 26>                          ****END OF INPUT****

CARTESIAN COORDINATES (ANGSTROEM)
---------------------------------
  C     -0.020409    1.543808    0.061114
  C      1.285520    0.765623    0.006837
  C     -0.032562    0.056599   -0.014229
  C     -0.539431   -0.991181    0.976879
  O     -1.963694   -0.926092    0.779687
  C     -1.975192   -1.378156   -0.585747
  C     -1.465475   -2.830130   -0.448250
  C     -0.156289   -2.118356   -0.078377
  C     -0.516947   -0.934442   -1.054610
  H     -0.296154    2.012404    1.000368
  H     -0.311139    2.107805   -0.819527
  H      1.867674    0.807217   -0.908453
  H      1.885499    0.718167    0.910543
  H     -0.284484   -1.013322    2.035400
  H     -2.899770   -1.093793   -1.084655
  H     -1.973254   -3.463374    0.283241
  H     -1.373291   -3.339738   -1.411513
  H      0.826110   -2.581105   -0.019903
  H     -0.274452   -0.912214   -2.115378

 Total Charge           Charge          ....    0
 Multiplicity           Mult            ....    1
 Number of Electrons    NEL             ....   66
 Basis Dimension        Dim             ....  339

ORBITAL ENERGIES
----------------

  NO   OCC          E(Eh)            E(eV)
   0   2.0000     -20.547710      -559.1316
   1   2.0000     -11.283500      -307.0396
   2   2.0000     -11.283347      -307.0355
   3   2.0000     -11.238318      -305.8102
   4   2.0000     -11.237751      -305.7948
   5   2.0000     -11.234912      -305.7175
   6   2.0000     -11.226692      -305.4938
   7   2.0000     -11.222687      -305.3848
   8   2.0000     -11.221326      -305.3478
   9   2.0000      -1.391049       -37.8524
  10   2.0000      -1.162462       -31.6322
  11   2.0000      -1.107736       -30.1430
  12   2.0000      -0.991034       -26.9674
  13   2.0000      -0.912896       -24.8412
  14   2.0000      -0.824873       -22.4459
  15   2.0000      -0.798270       -21.7220
  16   2.0000      -0.766038       -20.8450
  17   2.0000      -0.733948       -19.9717
  18   2.0000      -0.707264       -19.2456
  19   2.0000      -0.657112       -17.8809
  20   2.0000      -0.651724       -17.7343
  21   2.0000      -0.617202       -16.7949
  22   2.0000      -0.572240       -15.5714
  23   2.0000      -0.539507       -14.6807
  24   2.0000      -0.518256       -14.1025
  25   2.0000      -0.514983       -14.0134
  26   2.0000      -0.497860       -13.5475
  27   2.0000      -0.478056       -13.0086
  28   2.0000      -0.466898       -12.7049
  29   2.0000      -0.427059       -11.6209
  30   2.0000      -0.407188       -11.0801
  31   2.0000      -0.394149       -10.7253
  32   2.0000      -0.383046       -10.4232
  33   0.0000       0.144354         3.9281
  34   0.0000       0.158192         4.3046
  35   0.0000       0.163713         4.4548
  36   0.0000       0.174571         4.7503
  37   0.0000       0.190730         5.1900

MULLIKEN ATOMIC CHARGES
-----------------------
   0 C :   -0.263434
   1 C :   -0.303433
   2 C :   -0.053693
   3 C :    0.097240
   4 O :   -0.321216
   5 C :    0.027323
   6 C :   -0.220835
   7 C :   -0.156923
   8 C :   -0.065660
   9 H :    0.128305
  10 H :    0.126574
  11 H :    0.125072
  12 H :    0.127639
  13 H :    0.131605
  14 H :    0.128274
  15 H :    0.119525
  16 H :    0.112307
  17 H :    0.130448
  18 H :    0.130882
Sum of atomic charges:   -0.0000000

LOEWDIN ATOMIC CHARGES
----------------------
   0 C :   -0.202435
   1 C :   -0.198358
   2 C :   -0.213734
   3 C :   -0.194468
   4 O :    0.187969
   5 C :   -0.229615
   6 C :   -0.215676
   7 C :   -0.152420
   8 C :   -0.119972
   9 H :    0.136603
  10 H :    0.134853
  11 H :    0.133232
  12 H :    0.133554
  13 H :    0.131996
  14 H :    0.127540
  15 H :    0.127651
  16 H :    0.141287
  17 H :    0.134638
  18 H :    0.137354

  Mayer bond orders larger than 0.1
B(  0-C ,  1-C ) :   0.9518 B(  0-C ,  2-C ) :   0.8384 B(  0-C ,  9-H ) :   0.9181
B(  0-C , 10-H ) :   0.9203 B(  1-C ,  2-C ) :   0.8596 B(  1-C , 11-H ) :   0.9155
B(  1-C , 12-H ) :   0.9204 B(  2-C ,  3-C ) :   0.8945 B(  2-C ,  8-C ) :   0.8601
B(  3-C ,  4-O ) :   0.9169 B(  3-C ,  7-C ) :   0.9086 B(  3-C , 13-H ) :   0.8918
B(  4-O ,  5-C ) :   0.9287 B(  5-C ,  6-C ) :   0.9362 B(  5-C ,  8-C ) :   0.8659
B(  5-C , 14-H ) :   0.9105 B(  6-C ,  7-C ) :   0.9678 B(  6-C , 15-H ) :   0.9160
B(  6-C , 16-H ) :   0.9226 B(  7-C ,  8-C ) :   0.8705 B(  7-C , 17-H ) :   0.9127
B(  8-C , 18-H ) :   0.8966

MP2 TOTAL ENERGY:     -385.147898452 Eh
FINAL SINGLE POINT ENERGY      -385.147898452159

DIPOLE MOMENT
-------------
                                X             Y             Z
Electronic contribution:     -2.61803      -0.90867       1.31564
Nuclear contribution   :      3.10923       0.74763      -1.73117
                        -----------------------------------------
Total Dipole Moment    :      0.49120      -0.16105      -0.41554
                        -----------------------------------------
Magnitude (a.u.)       :      0.66324
Magnitude (Debye)      :      1.68582

                             ****ORCA TERMINATED NORMALLY****
TOTAL RUN TIME: 0 days 0 hours 18 minutes 16 seconds 266 msec
