                         Program Version 3.0.3 - RELEASE   -
|  1> ! RI-MP2 RIJK def2-TZVP def2-TZVP/C def2-TZVP/JK TIGHTSCF
|  2> % maxcore 2000
|  3> % mp2 density relaxed end
|  4> *xyz 0 1
|  5>  O        0.7459238780     0.0705833053    -0.4463757023
|  6>  C       -0.1519441971    -0.0848374915     0.6444550008
|  7>  C       -1.5531388017    -0.4931356528     0.2165282256
|  8>  C       -1.7720291409    -1.9637901803    -0.1067091927
|  9>  C       -0.9684771545    -2.4405482575    -1.2976445488
| 10>  C        0.2746650292    -3.2269658298    -1.1592413362
| 11>  O       -0.9540832927    -3.8480355134    -1.5272018679
| 12>  C       -2.6909749024     0.3195333323     0.7254818865
| 13>  N       -2.2704307140     0.4323838303    -0.6791308156
| 14>  H        0.8474786019    -0.7864413070    -0.8727951870
| 15>  H        0.2372174558    -0.8014745118     1.3849255153
| 16>  H       -0.1853803863     0.8962115363     1.1295602219
| 17>  H       -1.5320468653    -2.5859664256     0.7639275959
| 18>  H       -2.8325050988    -2.1169513481    -0.3337396620
| 19>  H       -1.0962561818    -1.8444079752    -2.2020760428
| 20>  H        1.0348891335    -3.1983046865    -1.9399304161
| 21>  H        0.6435065755    -3.4771219612    -0.1643930555
| 22>  H       -3.6617693385    -0.1448642885     0.8773040726
| 23>  H       -2.4721889307     1.1368002729     1.4080954470
| 24>  H       -1.7096493792     1.2693540423    -0.8225331285
| 25> *
| 26>
| 27>                          ****END OF INPUT****

CARTESIAN COORDINATES (ANGSTROEM)
---------------------------------
  O      0.745924    0.070583   -0.446376
  C     -0.151944   -0.084837    0.644455
  C     -1.553139   -0.493136    0.216528
  C     -1.772029   -1.963790   -0.106709
  C     -0.968477   -2.440548   -1.297645
  C      0.274665   -3.226966   -1.159241
  O     -0.954083   -3.848036   -1.527202
  C     -2.690975    0.319533    0.725482
  N     -2.270431    0.432384   -0.679131
  H      0.847479   -0.786441   -0.872795
  H      0.237217   -0.801475    1.384926
  H     -0.185380    0.896212    1.129560
  H     -1.532047   -2.585966    0.763928
  H     -2.832505   -2.116951   -0.333740
  H     -1.096256   -1.844408   -2.202076
  H      1.034889   -3.198305   -1.939930
  H      0.643507   -3.477122   -0.164393
  H     -3.661769   -0.144864    0.877304
  H     -2.472189    1.136800    1.408095
  H     -1.709649    1.269354   -0.822533

 Total Charge           Charge          ....    0
 Multiplicity           Mult            ....    1
 Number of Electrons    NEL             ....   70
 Basis Dimension        Dim             ....  345

ORBITAL ENERGIES
----------------

  NO   OCC          E(Eh)            E(eV)
   0   2.0000     -20.575626      -559.8913
   1   2.0000     -20.565047      -559.6034
   2   2.0000     -15.562967      -423.4899
   3   2.0000     -11.295965      -307.3788
   4   2.0000     -11.292714      -307.2904
   5   2.0000     -11.290737      -307.2366
   6   2.0000     -11.274071      -306.7831
   7   2.0000     -11.264174      -306.5138
   8   2.0000     -11.238936      -305.8270
   9   2.0000      -1.420409       -38.6513
  10   2.0000      -1.371382       -37.3172
  11   2.0000      -1.271329       -34.5946
  12   2.0000      -1.044645       -28.4262
  13   2.0000      -0.965164       -26.2634
  14   2.0000      -0.920231       -25.0407
  15   2.0000      -0.891539       -24.2600
  16   2.0000      -0.836708       -22.7680
  17   2.0000      -0.780878       -21.2488
  18   2.0000      -0.718354       -19.5474
  19   2.0000      -0.698996       -19.0206
  20   2.0000      -0.679933       -18.5019
  21   2.0000      -0.657608       -17.8944
  22   2.0000      -0.645219       -17.5573
  23   2.0000      -0.593187       -16.1415
  24   2.0000      -0.579448       -15.7676
  25   2.0000      -0.572582       -15.5808
  26   2.0000      -0.556656       -15.1474
  27   2.0000      -0.536878       -14.6092
  28   2.0000      -0.505891       -13.7660
  29   2.0000      -0.494942       -13.4681
  30   2.0000      -0.467559       -12.7229
  31   2.0000      -0.460382       -12.5276
  32   2.0000      -0.449513       -12.2319
  33   2.0000      -0.433963       -11.8087
  34   2.0000      -0.395175       -10.7533
  35   0.0000       0.127115         3.4590
  36   0.0000       0.145833         3.9683
  37   0.0000       0.153728         4.1831
  38   0.0000       0.172188         4.6855
  39   0.0000       0.183445         4.9918

MULLIKEN ATOMIC CHARGES
-----------------------
   0 O :   -0.462163
   1 C :   -0.035729
   2 C :    0.053975
   3 C :   -0.177921
   4 C :   -0.062624
   5 C :   -0.100574
   6 O :   -0.319352
   7 C :   -0.200977
   8 N :   -0.377590
   9 H :    0.314658
  10 H :    0.110475
  11 H :    0.110439
  12 H :    0.131751
  13 H :    0.133219
  14 H :    0.154626
  15 H :    0.130428
  16 H :    0.122693
  17 H :    0.120739
  18 H :    0.127660
  19 H :    0.226266
Sum of atomic charges:    0.0000000

LOEWDIN ATOMIC CHARGES
----------------------
   0 O :   -0.039501
   1 C :   -0.310566
   2 C :   -0.320051
   3 C :   -0.209583
   4 C :   -0.298985
   5 C :   -0.289081
   6 O :    0.157159
   7 C :   -0.242332
   8 N :    0.011193
   9 H :    0.168141
  10 H :    0.125413
  11 H :    0.134852
  12 H :    0.149662
  13 H :    0.157991
  14 H :    0.144642
  15 H :    0.119922
  16 H :    0.120409
  17 H :    0.126819
  18 H :    0.122811
  19 H :    0.171085

  Mayer bond orders larger than 0.1
B(  0-O ,  1-C ) :   0.9245 B(  0-O ,  9-H ) :   0.8461 B(  1-C ,  2-C ) :   0.9531
B(  1-C , 10-H ) :   0.9376 B(  1-C , 11-H ) :   0.9173 B(  2-C ,  3-C ) :   0.8954
B(  2-C ,  7-C ) :   0.9364 B(  2-C ,  8-N ) :   0.8422 B(  3-C ,  4-C ) :   0.8850
B(  3-C , 12-H ) :   0.9409 B(  3-C , 13-H ) :   0.9132 B(  4-C ,  5-C ) :   0.9698
B(  4-C ,  6-O ) :   0.8776 B(  4-C , 14-H ) :   0.9229 B(  5-C ,  6-O ) :   0.9162
B(  5-C , 15-H ) :   0.9198 B(  5-C , 16-H ) :   0.9091 B(  7-C ,  8-N ) :   0.9614
B(  7-C , 17-H ) :   0.9084 B(  7-C , 18-H ) :   0.9127 B(  8-N , 19-H ) :   0.8696

MP2 TOTAL ENERGY:     -439.510669863 Eh
FINAL SINGLE POINT ENERGY      -439.510669863032

DIPOLE MOMENT
-------------
                                X             Y             Z
Electronic contribution:      0.07199      -1.68760      -2.72417
Nuclear contribution   :      0.21209       1.91271       3.54054
                        -----------------------------------------
Total Dipole Moment    :      0.28408       0.22511       0.81637
                        -----------------------------------------
Magnitude (a.u.)       :      0.89322
Magnitude (Debye)      :      2.27038

                             ****ORCA TERMINATED NORMALLY****
TOTAL RUN TIME: 0 days 0 hours 15 minutes 57 seconds 880 msec
