                         Program Version 3.0.3 - RELEASE   -
|  1> ! RI-MP2 RIJK def2-TZVP def2-TZVP/C def2-TZVP/JK TIGHTSCF
|  2> % maxcore 2000
|  3> % mp2 density relaxed end
|  4> *xyz 0 1
|  5>  C       -0.7145513003     0.9644171370    -0.2045087067
|  6>  C        0.5909659194     0.2483009118     0.1492291381
|  7>  N        1.2268132716    -0.4014882541    -0.9914225153
|  8>  C        0.8431341931    -1.6522850749    -1.3765475457
|  9>  O        0.0322840778    -2.3205791178    -0.7614723059
| 10>  N        1.4818848593    -2.1339885921    -2.5439956048
| 11>  C        2.5206323109    -1.3959827623    -3.2510519705
| 12>  C        1.1141083822    -3.3847546966    -3.0285543745
| 13>  O        1.6034008545    -3.8923647829    -4.0108699669
| 14>  H       -0.5516340117     1.7440054510    -0.9563353203
| 15>  H       -1.4427522558     0.2497697317    -0.5964889110
| 16>  H       -1.1412309327     1.4374508009     0.6856192352
| 17>  H        1.3149857665     0.9501786910     0.5755594255
| 18>  H        0.4011573754    -0.5293152758     0.8918384156
| 19>  H        1.7714548713     0.1678159633    -1.6157466720
| 20>  H        3.3537376703    -1.1532592458    -2.5842944381
| 21>  H        2.8767228767    -2.0436572146    -4.0523188701
| 22>  H        2.1288421574    -0.4741166744    -3.6969480032
| 23>  H        0.3329961142    -3.8424449055    -2.4093731994
| 24> *
| 25>
| 26>                          ****END OF INPUT****

CARTESIAN COORDINATES (ANGSTROEM)
---------------------------------
  C     -0.714551    0.964417   -0.204509
  C      0.590966    0.248301    0.149229
  N      1.226813   -0.401488   -0.991423
  C      0.843134   -1.652285   -1.376548
  O      0.032284   -2.320579   -0.761472
  N      1.481885   -2.133989   -2.543996
  C      2.520632   -1.395983   -3.251052
  C      1.114108   -3.384755   -3.028554
  O      1.603401   -3.892365   -4.010870
  H     -0.551634    1.744005   -0.956335
  H     -1.442752    0.249770   -0.596489
  H     -1.141231    1.437451    0.685619
  H      1.314986    0.950179    0.575559
  H      0.401157   -0.529315    0.891838
  H      1.771455    0.167816   -1.615747
  H      3.353738   -1.153259   -2.584294
  H      2.876723   -2.043657   -4.052319
  H      2.128842   -0.474117   -3.696948
  H      0.332996   -3.842445   -2.409373

 Total Charge           Charge          ....    0
 Multiplicity           Mult            ....    1
 Number of Electrons    NEL             ....   70
 Basis Dimension        Dim             ....  339

ORBITAL ENERGIES
----------------

  NO   OCC          E(Eh)            E(eV)
   0   2.0000     -20.541851      -558.9722
   1   2.0000     -20.526838      -558.5636
   2   2.0000     -15.617548      -424.9751
   3   2.0000     -15.598874      -424.4670
   4   2.0000     -11.397652      -310.1459
   5   2.0000     -11.357146      -309.0436
   6   2.0000     -11.280867      -306.9680
   7   2.0000     -11.275845      -306.8313
   8   2.0000     -11.226678      -305.4934
   9   2.0000      -1.420431       -38.6519
  10   2.0000      -1.393786       -37.9268
  11   2.0000      -1.270668       -34.5766
  12   2.0000      -1.235032       -33.6069
  13   2.0000      -1.029956       -28.0265
  14   2.0000      -0.985275       -26.8107
  15   2.0000      -0.906424       -24.6650
  16   2.0000      -0.836380       -22.7591
  17   2.0000      -0.789460       -21.4823
  18   2.0000      -0.767954       -20.8971
  19   2.0000      -0.686970       -18.6934
  20   2.0000      -0.671206       -18.2644
  21   2.0000      -0.650734       -17.7074
  22   2.0000      -0.642727       -17.4895
  23   2.0000      -0.613427       -16.6922
  24   2.0000      -0.602216       -16.3871
  25   2.0000      -0.596764       -16.2388
  26   2.0000      -0.574774       -15.6404
  27   2.0000      -0.559688       -15.2299
  28   2.0000      -0.539405       -14.6780
  29   2.0000      -0.530929       -14.4473
  30   2.0000      -0.507773       -13.8172
  31   2.0000      -0.473430       -12.8827
  32   2.0000      -0.434286       -11.8175
  33   2.0000      -0.414027       -11.2662
  34   2.0000      -0.408642       -11.1197
  35   0.0000       0.111161         3.0248
  36   0.0000       0.141975         3.8633
  37   0.0000       0.152171         4.1408
  38   0.0000       0.171930         4.6785
  39   0.0000       0.176414         4.8005

MULLIKEN ATOMIC CHARGES
-----------------------
   0 C :   -0.389114
   1 C :   -0.111875
   2 N :   -0.350237
   3 C :    0.365608
   4 O :   -0.406562
   5 N :   -0.095038
   6 C :   -0.394834
   7 C :    0.156910
   8 O :   -0.338133
   9 H :    0.113335
  10 H :    0.154094
  11 H :    0.131363
  12 H :    0.128366
  13 H :    0.147450
  14 H :    0.243846
  15 H :    0.155753
  16 H :    0.193797
  17 H :    0.145254
  18 H :    0.150016
Sum of atomic charges:   -0.0000000

LOEWDIN ATOMIC CHARGES
----------------------
   0 C :   -0.318154
   1 C :   -0.299445
   2 N :    0.103657
   3 C :   -0.500833
   4 O :    0.067465
   5 N :    0.168071
   6 C :   -0.292251
   7 C :   -0.356117
   8 O :    0.083576
   9 H :    0.117331
  10 H :    0.129083
  11 H :    0.125404
  12 H :    0.131757
  13 H :    0.145621
  14 H :    0.184139
  15 H :    0.120099
  16 H :    0.140395
  17 H :    0.116732
  18 H :    0.133469

  Mayer bond orders larger than 0.1
B(  0-C ,  1-C ) :   0.9200 B(  0-C ,  9-H ) :   0.9336 B(  0-C , 10-H ) :   0.9373
B(  0-C , 11-H ) :   0.9338 B(  1-C ,  2-N ) :   0.8610 B(  1-C , 12-H ) :   0.9351
B(  1-C , 13-H ) :   0.9252 B(  2-N ,  3-C ) :   1.1703 B(  2-N , 14-H ) :   0.8701
B(  3-C ,  4-O ) :   1.8428 B(  3-C ,  5-N ) :   1.0323 B(  5-N ,  6-C ) :   0.8532
B(  5-N ,  7-C ) :   1.0389 B(  6-C , 15-H ) :   0.9289 B(  6-C , 16-H ) :   0.9144
B(  6-C , 17-H ) :   0.9287 B(  7-C ,  8-O ) :   1.9077 B(  7-C , 18-H ) :   0.9193

MP2 TOTAL ENERGY:     -455.672352688 Eh
FINAL SINGLE POINT ENERGY      -455.672352687500

DIPOLE MOMENT
-------------
                                X             Y             Z
Electronic contribution:      1.12772      -9.27673      -3.46406
Nuclear contribution   :     -0.56357      11.17851       3.82470
                        -----------------------------------------
Total Dipole Moment    :      0.56414       1.90178       0.36063
                        -----------------------------------------
Magnitude (a.u.)       :      2.01621
Magnitude (Debye)      :      5.12479

                             ****ORCA TERMINATED NORMALLY****
TOTAL RUN TIME: 0 days 0 hours 15 minutes 0 seconds 628 msec
