                         Program Version 3.0.3 - RELEASE   -
|  1> ! RI-MP2 RIJK def2-TZVP def2-TZVP/C def2-TZVP/JK TIGHTSCF
|  2> % maxcore 2000
|  3> % mp2 density relaxed end
|  4> *xyz 0 1
|  5>  O       -0.0304651199     1.3541255441    -0.1062418428
|  6>  C        0.0566782869    -0.0508792115    -0.0014008385
|  7>  C        0.1653615612    -0.5976545268     1.4597940264
|  8>  C       -1.3716011836    -0.4324264264     1.5531657490
|  9>  C       -1.3887809580    -0.6348834930     0.0026857166
| 10>  C       -1.3025206228    -2.1196331711    -0.2810803454
| 11>  O       -1.9112552706    -2.6850856994    -1.1555689289
| 12>  C       -0.3831083559    -2.8737312068     0.6970266288
| 13>  N        0.5204752433    -2.0158278706     1.4868717375
| 14>  H        0.8336541361     1.7232700740     0.1053106683
| 15>  H        0.7681825640    -0.4661925039    -0.7312825486
| 16>  H        0.7996728461    -0.0455190594     2.1601388762
| 17>  H       -1.9227109957    -1.1365397129     2.1799901847
| 18>  H       -1.6451708831     0.5902824036     1.8074244829
| 19>  H       -2.1373462202    -0.1447014750    -0.6189787307
| 20>  H       -1.0478137029    -3.4417453406     1.3642879054
| 21>  H        0.1824988195    -3.6198958069     0.1332643042
| 22>  H        1.4692648955    -2.1234138774     1.1457675348
| 23> *
| 24>
| 25>                          ****END OF INPUT****

CARTESIAN COORDINATES (ANGSTROEM)
---------------------------------
  O     -0.030465    1.354126   -0.106242
  C      0.056678   -0.050879   -0.001401
  C      0.165362   -0.597655    1.459794
  C     -1.371601   -0.432426    1.553166
  C     -1.388781   -0.634883    0.002686
  C     -1.302521   -2.119633   -0.281080
  O     -1.911255   -2.685086   -1.155569
  C     -0.383108   -2.873731    0.697027
  N      0.520475   -2.015828    1.486872
  H      0.833654    1.723270    0.105311
  H      0.768183   -0.466193   -0.731283
  H      0.799673   -0.045519    2.160139
  H     -1.922711   -1.136540    2.179990
  H     -1.645171    0.590282    1.807424
  H     -2.137346   -0.144701   -0.618979
  H     -1.047814   -3.441745    1.364288
  H      0.182499   -3.619896    0.133264
  H      1.469265   -2.123414    1.145768

 Total Charge           Charge          ....    0
 Multiplicity           Mult            ....    1
 Number of Electrons    NEL             ....   68
 Basis Dimension        Dim             ....  333

ORBITAL ENERGIES
----------------

  NO   OCC          E(Eh)            E(eV)
   0   2.0000     -20.576300      -559.9096
   1   2.0000     -20.546808      -559.1071
   2   2.0000     -15.564042      -423.5191
   3   2.0000     -11.331533      -308.3467
   4   2.0000     -11.299579      -307.4772
   5   2.0000     -11.274414      -306.7924
   6   2.0000     -11.269249      -306.6518
   7   2.0000     -11.246057      -306.0208
   8   2.0000     -11.240516      -305.8700
   9   2.0000      -1.392330       -37.8872
  10   2.0000      -1.383989       -37.6602
  11   2.0000      -1.243136       -33.8275
  12   2.0000      -1.113284       -30.2940
  13   2.0000      -0.999797       -27.2059
  14   2.0000      -0.915152       -24.9025
  15   2.0000      -0.878508       -23.9054
  16   2.0000      -0.816792       -22.2260
  17   2.0000      -0.723919       -19.6988
  18   2.0000      -0.710037       -19.3211
  19   2.0000      -0.696408       -18.9502
  20   2.0000      -0.681496       -18.5445
  21   2.0000      -0.635818       -17.3015
  22   2.0000      -0.613444       -16.6927
  23   2.0000      -0.609705       -16.5909
  24   2.0000      -0.583227       -15.8704
  25   2.0000      -0.567848       -15.4519
  26   2.0000      -0.546729       -14.8773
  27   2.0000      -0.530521       -14.4362
  28   2.0000      -0.519333       -14.1318
  29   2.0000      -0.476418       -12.9640
  30   2.0000      -0.469516       -12.7762
  31   2.0000      -0.448730       -12.2106
  32   2.0000      -0.409377       -11.1397
  33   2.0000      -0.370701       -10.0873
  34   0.0000       0.118495         3.2244
  35   0.0000       0.134285         3.6541
  36   0.0000       0.146855         3.9961
  37   0.0000       0.154152         4.1947
  38   0.0000       0.165881         4.5138

MULLIKEN ATOMIC CHARGES
-----------------------
   0 O :   -0.455198
   1 C :   -0.104115
   2 C :    0.041001
   3 C :   -0.293276
   4 C :    0.113225
   5 C :    0.044327
   6 O :   -0.266727
   7 C :   -0.178194
   8 N :   -0.357239
   9 H :    0.321110
  10 H :    0.106141
  11 H :    0.124467
  12 H :    0.134039
  13 H :    0.133961
  14 H :    0.139048
  15 H :    0.137871
  16 H :    0.151062
  17 H :    0.208497
Sum of atomic charges:    0.0000000

LOEWDIN ATOMIC CHARGES
----------------------
   0 O :   -0.003156
   1 C :   -0.289432
   2 C :   -0.271459
   3 C :   -0.183396
   4 C :   -0.165907
   5 C :   -0.312335
   6 O :    0.156697
   7 C :   -0.263429
   8 N :    0.002699
   9 H :    0.179053
  10 H :    0.123964
  11 H :    0.133508
  12 H :    0.133470
  13 H :    0.147081
  14 H :    0.151488
  15 H :    0.147236
  16 H :    0.143848
  17 H :    0.170071

  Mayer bond orders larger than 0.1
B(  0-O ,  1-C ) :   1.0609 B(  0-O ,  9-H ) :   0.8410 B(  1-C ,  2-C ) :   0.8643
B(  1-C ,  4-C ) :   0.8119 B(  1-C , 10-H ) :   0.9788 B(  2-C ,  3-C ) :   0.8940
B(  2-C ,  8-N ) :   0.9670 B(  2-C , 11-H ) :   0.9302 B(  3-C ,  4-C ) :   0.8954
B(  3-C , 12-H ) :   0.9120 B(  3-C , 13-H ) :   0.9067 B(  4-C ,  5-C ) :   0.8515
B(  4-C ,  7-C ) :  -0.1109 B(  4-C , 14-H ) :   0.9104 B(  5-C ,  6-O ) :   2.0163
B(  5-C ,  7-C ) :   0.9015 B(  7-C ,  8-N ) :   0.9730 B(  7-C , 15-H ) :   0.9019
B(  7-C , 16-H ) :   0.9211 B(  8-N , 17-H ) :   0.8841

MP2 TOTAL ENERGY:     -438.362113859 Eh
FINAL SINGLE POINT ENERGY      -438.362113859183

DIPOLE MOMENT
-------------
                                X             Y             Z
Electronic contribution:     -1.45092      -0.63560      -3.16541
Nuclear contribution   :      2.59151       1.09965       3.77162
                        -----------------------------------------
Total Dipole Moment    :      1.14059       0.46405       0.60621
                        -----------------------------------------
Magnitude (a.u.)       :      1.37251
Magnitude (Debye)      :      3.48865

                             ****ORCA TERMINATED NORMALLY****
TOTAL RUN TIME: 0 days 0 hours 17 minutes 55 seconds 168 msec
