                         Program Version 3.0.3 - RELEASE   -
|  1> ! RI-MP2 RIJK def2-TZVP def2-TZVP/C def2-TZVP/JK TIGHTSCF
|  2> % maxcore 2000
|  3> % mp2 density relaxed end
|  4> *xyz 0 1
|  5>  O        0.0611794242     0.0203583274     0.0024133948
|  6>  C       -0.0313076425     1.2102133854     0.0099388672
|  7>  C       -1.2898779446     2.0661541560     0.0322168748
|  8>  C       -0.7746160412     3.4962409521     0.0328060289
|  9>  O       -1.4073768990     4.5208449294     0.0471655450
| 10>  C        0.7148605001     3.3900446061     0.0110306136
| 11>  C        1.5675546230     4.3739523880    -0.7478329989
| 12>  C        1.5889656423     4.3659935782     0.7556487681
| 13>  O        1.0731623876     2.0198547084    -0.0013302073
| 14>  H       -1.9164180129     1.8589202416    -0.8402521624
| 15>  H       -1.8918988026     1.8493223983     0.9194827401
| 16>  H        2.4207423130     3.9557220530    -1.2690711375
| 17>  H        1.0416471993     5.1756945515    -1.2541223966
| 18>  H        1.0778088095     5.1622532905     1.2851669748
| 19>  H        2.4565891638     3.9424042542     1.2479247354
| 20> *
| 21>
| 22>                          ****END OF INPUT****

CARTESIAN COORDINATES (ANGSTROEM)
---------------------------------
  O      0.061179    0.020358    0.002413
  C     -0.031308    1.210213    0.009939
  C     -1.289878    2.066154    0.032217
  C     -0.774616    3.496241    0.032806
  O     -1.407377    4.520845    0.047166
  C      0.714861    3.390045    0.011031
  C      1.567555    4.373952   -0.747833
  C      1.588966    4.365994    0.755649
  O      1.073162    2.019855   -0.001330
  H     -1.916418    1.858920   -0.840252
  H     -1.891899    1.849322    0.919483
  H      2.420742    3.955722   -1.269071
  H      1.041647    5.175695   -1.254122
  H      1.077809    5.162253    1.285167
  H      2.456589    3.942404    1.247925

 Total Charge           Charge          ....    0
 Multiplicity           Mult            ....    1
 Number of Electrons    NEL             ....   66
 Basis Dimension        Dim             ....  315

ORBITAL ENERGIES
----------------

  NO   OCC          E(Eh)            E(eV)
   0   2.0000     -20.625600      -561.2511
   1   2.0000     -20.576315      -559.9100
   2   2.0000     -20.560783      -559.4873
   3   2.0000     -11.402843      -310.2871
   4   2.0000     -11.365895      -309.2817
   5   2.0000     -11.327028      -308.2241
   6   2.0000     -11.280431      -306.9561
   7   2.0000     -11.263349      -306.4913
   8   2.0000     -11.262668      -306.4728
   9   2.0000      -1.484247       -40.3884
  10   2.0000      -1.420823       -38.6626
  11   2.0000      -1.390371       -37.8339
  12   2.0000      -1.173501       -31.9326
  13   2.0000      -1.087455       -29.5912
  14   2.0000      -0.924236       -25.1497
  15   2.0000      -0.862603       -23.4726
  16   2.0000      -0.841909       -22.9095
  17   2.0000      -0.773557       -21.0496
  18   2.0000      -0.713317       -19.4103
  19   2.0000      -0.690334       -18.7850
  20   2.0000      -0.687654       -18.7120
  21   2.0000      -0.674112       -18.3435
  22   2.0000      -0.645783       -17.5727
  23   2.0000      -0.622426       -16.9371
  24   2.0000      -0.612396       -16.6641
  25   2.0000      -0.581342       -15.8191
  26   2.0000      -0.566888       -15.4258
  27   2.0000      -0.548115       -14.9150
  28   2.0000      -0.504731       -13.7344
  29   2.0000      -0.493679       -13.4337
  30   2.0000      -0.478939       -13.0326
  31   2.0000      -0.424753       -11.5581
  32   2.0000      -0.419745       -11.4218
  33   0.0000       0.095600         2.6014
  34   0.0000       0.127945         3.4816
  35   0.0000       0.154690         4.2093
  36   0.0000       0.156797         4.2667
  37   0.0000       0.169359         4.6085

MULLIKEN ATOMIC CHARGES
-----------------------
   0 O :   -0.265449
   1 C :    0.229904
   2 C :   -0.212665
   3 C :    0.117919
   4 O :   -0.276820
   5 C :    0.202693
   6 C :   -0.281907
   7 C :   -0.281919
   8 O :   -0.204839
   9 H :    0.173189
  10 H :    0.173190
  11 H :    0.158051
  12 H :    0.155299
  13 H :    0.155302
  14 H :    0.158051
Sum of atomic charges:   -0.0000000

LOEWDIN ATOMIC CHARGES
----------------------
   0 O :    0.153028
   1 C :   -0.447675
   2 C :   -0.181769
   3 C :   -0.293051
   4 O :    0.167940
   5 C :   -0.278227
   6 C :   -0.177874
   7 C :   -0.177879
   8 O :    0.306744
   9 H :    0.172587
  10 H :    0.172575
  11 H :    0.146327
  12 H :    0.145472
  13 H :    0.145475
  14 H :    0.146328

  Mayer bond orders larger than 0.1
B(  0-O ,  1-C ) :   2.0518 B(  1-C ,  2-C ) :   0.9173 B(  1-C ,  8-O ) :   1.0735
B(  2-C ,  3-C ) :   0.9269 B(  2-C ,  9-H ) :   0.8856 B(  2-C , 10-H ) :   0.8856
B(  3-C ,  4-O ) :   1.9934 B(  3-C ,  5-C ) :   0.9101 B(  5-C ,  6-C ) :   0.8244
B(  5-C ,  7-C ) :   0.8244 B(  5-C ,  8-O ) :   0.9223 B(  6-C ,  7-C ) :   0.9383
B(  6-C , 11-H ) :   0.9230 B(  6-C , 12-H ) :   0.9121 B(  7-C , 13-H ) :   0.9121
B(  7-C , 14-H ) :   0.9230

MP2 TOTAL ENERGY:     -457.066223364 Eh
FINAL SINGLE POINT ENERGY      -457.066223363949

DIPOLE MOMENT
-------------
                                X             Y             Z
Electronic contribution:     -1.95006      -3.98724       0.00716
Nuclear contribution   :      2.07981       4.75326      -0.00513
                        -----------------------------------------
Total Dipole Moment    :      0.12975       0.76601       0.00204
                        -----------------------------------------
Magnitude (a.u.)       :      0.77693
Magnitude (Debye)      :      1.97480

                             ****ORCA TERMINATED NORMALLY****
TOTAL RUN TIME: 0 days 0 hours 14 minutes 46 seconds 245 msec
