                         Program Version 3.0.3 - RELEASE   -
|  1> ! RI-MP2 RIJK def2-TZVP def2-TZVP/C def2-TZVP/JK TIGHTSCF
|  2> % maxcore 2000
|  3> % mp2 density relaxed end
|  4> *xyz 0 1
|  5>  C        0.1456385293     1.5913123898     0.1631398010
|  6>  C        0.0732998790     0.0763323233     0.0515089908
|  7>  C        1.0645898637    -0.6463489109    -0.9048102928
|  8>  C        1.2652294867    -1.7554311764     0.1746281125
|  9>  C        0.4029918656    -2.9922739988    -0.0834907278
| 10>  C        2.7353093289    -2.1470623764     0.4207394879
| 11>  C        2.9137198472    -2.9869241888     1.6051687700
| 12>  N        3.0313602940    -3.6459164368     2.5475316486
| 13>  C        0.6333207256    -0.7842511982     1.2194878995
| 14>  H        1.1662276894     1.9209689753     0.3896168024
| 15>  H       -0.1608459650     2.0746960625    -0.7712785659
| 16>  H       -0.5081930256     1.9626944586     0.9600271180
| 17>  H       -0.9541340890    -0.2243045583    -0.1777780588
| 18>  H        0.6909097326    -0.9692766402    -1.8805169708
| 19>  H        1.9738633341    -0.0549903554    -1.0603853846
| 20>  H        0.7554090603    -3.5404653003    -0.9650429155
| 21>  H        0.4258888165    -3.6749435986     0.7721152546
| 22>  H       -0.6399753991    -2.7134036804    -0.2616351788
| 23>  H        3.1346934256    -2.6839242620    -0.4489878663
| 24>  H        3.3474234383    -1.2468714050     0.5458593153
| 25>  H        1.3970605727    -0.2421329920     1.7872984380
| 26>  H       -0.0798968706    -1.2149928511     1.9265521327
| 27> *
| 28>
| 29>                          ****END OF INPUT****

CARTESIAN COORDINATES (ANGSTROEM)
---------------------------------
  C      0.145639    1.591312    0.163140
  C      0.073300    0.076332    0.051509
  C      1.064590   -0.646349   -0.904810
  C      1.265229   -1.755431    0.174628
  C      0.402992   -2.992274   -0.083491
  C      2.735309   -2.147062    0.420739
  C      2.913720   -2.986924    1.605169
  N      3.031360   -3.645916    2.547532
  C      0.633321   -0.784251    1.219488
  H      1.166228    1.920969    0.389617
  H     -0.160846    2.074696   -0.771279
  H     -0.508193    1.962694    0.960027
  H     -0.954134   -0.224305   -0.177778
  H      0.690910   -0.969277   -1.880517
  H      1.973863   -0.054990   -1.060385
  H      0.755409   -3.540465   -0.965043
  H      0.425889   -3.674944    0.772115
  H     -0.639975   -2.713404   -0.261635
  H      3.134693   -2.683924   -0.448988
  H      3.347423   -1.246871    0.545859
  H      1.397061   -0.242133    1.787298
  H     -0.079897   -1.214993    1.926552

 Total Charge           Charge          ....    0
 Multiplicity           Mult            ....    1
 Number of Electrons    NEL             ....   68
 Basis Dimension        Dim             ....  357

ORBITAL ENERGIES
----------------

  NO   OCC          E(Eh)            E(eV)
   0   2.0000     -15.564039      -423.5190
   1   2.0000     -11.276412      -306.8468
   2   2.0000     -11.268918      -306.6428
   3   2.0000     -11.258528      -306.3601
   4   2.0000     -11.237393      -305.7850
   5   2.0000     -11.231798      -305.6328
   6   2.0000     -11.228255      -305.5363
   7   2.0000     -11.225449      -305.4600
   8   2.0000     -11.221455      -305.3513
   9   2.0000      -1.215223       -33.0679
  10   2.0000      -1.162950       -31.6455
  11   2.0000      -1.057008       -28.7626
  12   2.0000      -0.986086       -26.8328
  13   2.0000      -0.947153       -25.7734
  14   2.0000      -0.914218       -24.8771
  15   2.0000      -0.812373       -22.1058
  16   2.0000      -0.737687       -20.0735
  17   2.0000      -0.690981       -18.8026
  18   2.0000      -0.661251       -17.9936
  19   2.0000      -0.644189       -17.5293
  20   2.0000      -0.629918       -17.1409
  21   2.0000      -0.592672       -16.1274
  22   2.0000      -0.570139       -15.5143
  23   2.0000      -0.559414       -15.2224
  24   2.0000      -0.552524       -15.0349
  25   2.0000      -0.542003       -14.7487
  26   2.0000      -0.538312       -14.6482
  27   2.0000      -0.517879       -14.0922
  28   2.0000      -0.472867       -12.8674
  29   2.0000      -0.462072       -12.5736
  30   2.0000      -0.459490       -12.5034
  31   2.0000      -0.449389       -12.2285
  32   2.0000      -0.439935       -11.9712
  33   2.0000      -0.425223       -11.5709
  34   0.0000       0.116581         3.1723
  35   0.0000       0.138874         3.7789
  36   0.0000       0.145531         3.9601
  37   0.0000       0.169765         4.6195
  38   0.0000       0.171487         4.6664

MULLIKEN ATOMIC CHARGES
-----------------------
   0 C :   -0.432580
   1 C :    0.007070
   2 C :   -0.300819
   3 C :    0.193347
   4 C :   -0.462562
   5 C :   -0.159044
   6 C :   -0.186873
   7 N :   -0.057212
   8 C :   -0.318037
   9 H :    0.118795
  10 H :    0.133473
  11 H :    0.135231
  12 H :    0.104989
  13 H :    0.124037
  14 H :    0.111365
  15 H :    0.130792
  16 H :    0.159392
  17 H :    0.139108
  18 H :    0.156804
  19 H :    0.153967
  20 H :    0.116771
  21 H :    0.131988
Sum of atomic charges:   -0.0000000

LOEWDIN ATOMIC CHARGES
----------------------
   0 C :   -0.302536
   1 C :   -0.253002
   2 C :   -0.176667
   3 C :   -0.267357
   4 C :   -0.261716
   5 C :   -0.213876
   6 C :   -0.190306
   7 N :    0.054034
   8 C :   -0.173665
   9 H :    0.121821
  10 H :    0.124791
  11 H :    0.125621
  12 H :    0.148250
  13 H :    0.129328
  14 H :    0.137701
  15 H :    0.127586
  16 H :    0.134268
  17 H :    0.130518
  18 H :    0.166968
  19 H :    0.165256
  20 H :    0.140742
  21 H :    0.132242

  Mayer bond orders larger than 0.1
B(  0-C ,  1-C ) :   0.8669 B(  0-C ,  9-H ) :   0.9405 B(  0-C , 10-H ) :   0.9415
B(  0-C , 11-H ) :   0.9411 B(  1-C ,  2-C ) :   0.9491 B(  1-C ,  8-C ) :   0.9497
B(  1-C , 12-H ) :   0.9272 B(  2-C ,  3-C ) :   0.9037 B(  2-C , 13-H ) :   0.9267
B(  2-C , 14-H ) :   0.9020 B(  3-C ,  4-C ) :   0.9121 B(  3-C ,  5-C ) :   0.8490
B(  3-C ,  8-C ) :   0.9082 B(  4-C , 15-H ) :   0.9346 B(  4-C , 16-H ) :   0.9351
B(  4-C , 17-H ) :   0.9309 B(  5-C ,  6-C ) :   0.9368 B(  5-C , 18-H ) :   0.9126
B(  5-C , 19-H ) :   0.9061 B(  6-C ,  7-N ) :   2.8748 B(  8-C , 20-H ) :   0.9035
B(  8-C , 21-H ) :   0.9305

MP2 TOTAL ENERGY:     -366.570522436 Eh
FINAL SINGLE POINT ENERGY      -366.570522435735

DIPOLE MOMENT
-------------
                                X             Y             Z
Electronic contribution:      5.89446      -6.66718       4.74948
Nuclear contribution   :     -6.33019       7.61869      -5.98422
                        -----------------------------------------
Total Dipole Moment    :     -0.43573       0.95151      -1.23475
                        -----------------------------------------
Magnitude (a.u.)       :      1.61859
Magnitude (Debye)      :      4.11412

                             ****ORCA TERMINATED NORMALLY****
TOTAL RUN TIME: 0 days 0 hours 19 minutes 57 seconds 224 msec
