                         Program Version 3.0.3 - RELEASE   -
|  1> ! RI-MP2 RIJK def2-TZVP def2-TZVP/C def2-TZVP/JK TIGHTSCF
|  2> % maxcore 2000
|  3> % mp2 density relaxed end
|  4> *xyz 0 1
|  5>  C        0.0757024065     1.3458890099     0.8755973298
|  6>  C        0.1262279315    -0.1215721681     0.5181058329
|  7>  C        0.9676694105    -0.5352964267    -0.6342435434
|  8>  N        1.4355696483    -0.7464237670     0.7830390722
|  9>  C        1.3997291430    -2.2314225206     0.5042410934
| 10>  C        0.1816101450    -2.9049956962    -0.1156612485
| 11>  C       -1.3214547446    -2.8199931905     0.1389213471
| 12>  C        1.0729102028    -2.0431421188    -0.9682811747
| 13>  C        1.7886266319    -2.5004274857    -2.2069192295
| 14>  H        1.0196798077     1.8374266403     0.6244794933
| 15>  H       -0.7345289838     1.8492414182     0.3373458817
| 16>  H       -0.0945438870     1.4735593062     1.9493908670
| 17>  H       -0.7658103220    -0.6734508367     0.7747010987
| 18>  H        1.4615033784     0.2046731692    -1.2594763952
| 19>  H        2.1763055145    -2.8190144971     0.9809959413
| 20>  H        0.4835401907    -3.9433098094    -0.2641555845
| 21>  H       -1.7894485909    -1.9792543227    -0.3780260481
| 22>  H       -1.8028931996    -3.7302965535    -0.2328884617
| 23>  H       -1.5597997754    -2.7429508602     1.2052313275
| 24>  H        1.1716958671    -2.3545601993    -3.1027330980
| 25>  H        2.7228135185    -1.9460914669    -2.3556831461
| 26>  H        2.0363626771    -3.5648824245    -2.1459589851
| 27> *
| 28>
| 29>                          ****END OF INPUT****

CARTESIAN COORDINATES (ANGSTROEM)
---------------------------------
  C      0.075702    1.345889    0.875597
  C      0.126228   -0.121572    0.518106
  C      0.967669   -0.535296   -0.634244
  N      1.435570   -0.746424    0.783039
  C      1.399729   -2.231423    0.504241
  C      0.181610   -2.904996   -0.115661
  C     -1.321455   -2.819993    0.138921
  C      1.072910   -2.043142   -0.968281
  C      1.788627   -2.500427   -2.206919
  H      1.019680    1.837427    0.624479
  H     -0.734529    1.849241    0.337346
  H     -0.094544    1.473559    1.949391
  H     -0.765810   -0.673451    0.774701
  H      1.461503    0.204673   -1.259476
  H      2.176306   -2.819014    0.980996
  H      0.483540   -3.943310   -0.264156
  H     -1.789449   -1.979254   -0.378026
  H     -1.802893   -3.730297   -0.232888
  H     -1.559800   -2.742951    1.205231
  H      1.171696   -2.354560   -3.102733
  H      2.722814   -1.946091   -2.355683
  H      2.036363   -3.564882   -2.145959

 Total Charge           Charge          ....    0
 Multiplicity           Mult            ....    1
 Number of Electrons    NEL             ....   68
 Basis Dimension        Dim             ....  357

ORBITAL ENERGIES
----------------

  NO   OCC          E(Eh)            E(eV)
   0   2.0000     -15.551291      -423.1721
   1   2.0000     -11.258378      -306.3560
   2   2.0000     -11.256615      -306.3081
   3   2.0000     -11.255841      -306.2870
   4   2.0000     -11.241172      -305.8878
   5   2.0000     -11.240377      -305.8662
   6   2.0000     -11.221673      -305.3572
   7   2.0000     -11.221580      -305.3547
   8   2.0000     -11.215533      -305.1902
   9   2.0000      -1.294526       -35.2258
  10   2.0000      -1.123592       -30.5745
  11   2.0000      -1.000443       -27.2234
  12   2.0000      -0.988852       -26.9080
  13   2.0000      -0.941073       -25.6079
  14   2.0000      -0.878688       -23.9103
  15   2.0000      -0.818362       -22.2688
  16   2.0000      -0.757480       -20.6121
  17   2.0000      -0.723902       -19.6984
  18   2.0000      -0.650433       -17.6992
  19   2.0000      -0.638061       -17.3625
  20   2.0000      -0.591028       -16.0827
  21   2.0000      -0.585873       -15.9424
  22   2.0000      -0.573334       -15.6012
  23   2.0000      -0.560723       -15.2580
  24   2.0000      -0.556336       -15.1387
  25   2.0000      -0.552100       -15.0234
  26   2.0000      -0.532277       -14.4840
  27   2.0000      -0.518252       -14.1023
  28   2.0000      -0.502216       -13.6660
  29   2.0000      -0.450517       -12.2592
  30   2.0000      -0.440013       -11.9734
  31   2.0000      -0.437030       -11.8922
  32   2.0000      -0.363596        -9.8939
  33   2.0000      -0.329271        -8.9599
  34   0.0000       0.135931         3.6989
  35   0.0000       0.149666         4.0726
  36   0.0000       0.160552         4.3688
  37   0.0000       0.171918         4.6781
  38   0.0000       0.183654         4.9975

MULLIKEN ATOMIC CHARGES
-----------------------
   0 C :   -0.441962
   1 C :    0.096604
   2 C :   -0.156466
   3 N :   -0.267921
   4 C :   -0.057520
   5 C :   -0.146665
   6 C :   -0.403889
   7 C :    0.058466
   8 C :   -0.412088
   9 H :    0.140899
  10 H :    0.126992
  11 H :    0.135443
  12 H :    0.133918
  13 H :    0.124776
  14 H :    0.131951
  15 H :    0.110285
  16 H :    0.145253
  17 H :    0.138891
  18 H :    0.141777
  19 H :    0.135757
  20 H :    0.135444
  21 H :    0.130055
Sum of atomic charges:    0.0000000

LOEWDIN ATOMIC CHARGES
----------------------
   0 C :   -0.287150
   1 C :   -0.265752
   2 C :   -0.158272
   3 N :    0.138158
   4 C :   -0.173087
   5 C :   -0.195713
   6 C :   -0.309508
   7 C :   -0.209739
   8 C :   -0.273588
   9 H :    0.131547
  10 H :    0.125402
  11 H :    0.127468
  12 H :    0.146773
  13 H :    0.139014
  14 H :    0.134111
  15 H :    0.167222
  16 H :    0.125110
  17 H :    0.125437
  18 H :    0.124909
  19 H :    0.128830
  20 H :    0.129243
  21 H :    0.129587

  Mayer bond orders larger than 0.1
B(  0-C ,  1-C ) :   0.8735 B(  0-C ,  9-H ) :   0.9422 B(  0-C , 10-H ) :   0.9357
B(  0-C , 11-H ) :   0.9413 B(  1-C ,  2-C ) :   0.9248 B(  1-C ,  3-N ) :   0.8342
B(  1-C , 12-H ) :   0.8985 B(  2-C ,  3-N ) :   0.8771 B(  2-C ,  7-C ) :   0.9443
B(  2-C , 13-H ) :   0.8962 B(  3-N ,  4-C ) :   0.9441 B(  4-C ,  5-C ) :   0.8785
B(  4-C ,  7-C ) :   0.8492 B(  4-C , 14-H ) :   0.9247 B(  5-C ,  6-C ) :   0.8511
B(  5-C ,  7-C ) :   0.8848 B(  5-C , 15-H ) :   0.9266 B(  6-C , 16-H ) :   0.9452
B(  6-C , 17-H ) :   0.9343 B(  6-C , 18-H ) :   0.9360 B(  7-C ,  8-C ) :   0.8761
B(  8-C , 19-H ) :   0.9432 B(  8-C , 20-H ) :   0.9348 B(  8-C , 21-H ) :   0.9408

MP2 TOTAL ENERGY:     -366.461658990 Eh
FINAL SINGLE POINT ENERGY      -366.461658989556

DIPOLE MOMENT
-------------
                                X             Y             Z
Electronic contribution:      3.03390       0.03888       1.65897
Nuclear contribution   :     -3.46243      -0.33467      -2.07744
                        -----------------------------------------
Total Dipole Moment    :     -0.42854      -0.29579      -0.41846
                        -----------------------------------------
Magnitude (a.u.)       :      0.66802
Magnitude (Debye)      :      1.69796

                             ****ORCA TERMINATED NORMALLY****
TOTAL RUN TIME: 0 days 0 hours 21 minutes 12 seconds 820 msec
