                         Program Version 3.0.3 - RELEASE   -
|  1> ! RI-MP2 RIJK def2-TZVP def2-TZVP/C def2-TZVP/JK TIGHTSCF
|  2> % maxcore 2000
|  3> % mp2 density relaxed end
|  4> *xyz 0 1
|  5>  C       -0.0534123530    -3.8370068715    -0.1356183896
|  6>  C       -0.0310246908    -2.6305071192    -0.0873327714
|  7>  C       -0.0067292401    -1.2716636201    -0.0340489518
|  8>  C        0.0164407359    -0.0617497325     0.0150652729
|  9>  C        0.0502970807     1.3783235321     0.0804888364
| 10>  C       -0.1010115527     2.0750937331     1.4654535270
| 11>  O        1.0779028460     2.8665930390     1.2381314795
| 12>  C        1.4294688208     2.1024260428     0.0717541597
| 13>  H       -0.0725313468    -4.8977237713    -0.1773957274
| 14>  H       -0.6305723873     1.8102550883    -0.6587248502
| 15>  H       -0.9960656098     2.6901837547     1.6032157277
| 16>  H        0.0129335416     1.3916629341     2.3156810597
| 17>  H        2.2785618230     1.4321216137     0.2525326159
| 18>  H        1.6379807923     2.7372241568    -0.7954201385
| 19> *
| 20>
| 21>                          ****END OF INPUT****

CARTESIAN COORDINATES (ANGSTROEM)
---------------------------------
  C     -0.053412   -3.837007   -0.135618
  C     -0.031025   -2.630507   -0.087333
  C     -0.006729   -1.271664   -0.034049
  C      0.016441   -0.061750    0.015065
  C      0.050297    1.378324    0.080489
  C     -0.101012    2.075094    1.465454
  O      1.077903    2.866593    1.238131
  C      1.429469    2.102426    0.071754
  H     -0.072531   -4.897724   -0.177396
  H     -0.630572    1.810255   -0.658725
  H     -0.996066    2.690184    1.603216
  H      0.012934    1.391663    2.315681
  H      2.278562    1.432122    0.252533
  H      1.637981    2.737224   -0.795420

 Total Charge           Charge          ....    0
 Multiplicity           Mult            ....    1
 Number of Electrons    NEL             ....   56
 Basis Dimension        Dim             ....  284

ORBITAL ENERGIES
----------------

  NO   OCC          E(Eh)            E(eV)
   0   2.0000     -20.561831      -559.5159
   1   2.0000     -11.297110      -307.4100
   2   2.0000     -11.297104      -307.4098
   3   2.0000     -11.274702      -306.8002
   4   2.0000     -11.262212      -306.4604
   5   2.0000     -11.261205      -306.4330
   6   2.0000     -11.255593      -306.2802
   7   2.0000     -11.252185      -306.1875
   8   2.0000      -1.394479       -37.9457
   9   2.0000      -1.104714       -30.0608
  10   2.0000      -1.061081       -28.8735
  11   2.0000      -0.996171       -27.1072
  12   2.0000      -0.949119       -25.8268
  13   2.0000      -0.852472       -23.1969
  14   2.0000      -0.799971       -21.7683
  15   2.0000      -0.723153       -19.6780
  16   2.0000      -0.708606       -19.2822
  17   2.0000      -0.696046       -18.9404
  18   2.0000      -0.619325       -16.8527
  19   2.0000      -0.590843       -16.0777
  20   2.0000      -0.577486       -15.7142
  21   2.0000      -0.516867       -14.0647
  22   2.0000      -0.510673       -13.8961
  23   2.0000      -0.475389       -12.9360
  24   2.0000      -0.470663       -12.8074
  25   2.0000      -0.429361       -11.6835
  26   2.0000      -0.357192        -9.7197
  27   2.0000      -0.355834        -9.6827
  28   0.0000       0.104444         2.8421
  29   0.0000       0.107712         2.9310
  30   0.0000       0.139855         3.8056
  31   0.0000       0.156554         4.2600
  32   0.0000       0.168412         4.5827

MULLIKEN ATOMIC CHARGES
-----------------------
   0 C :   -0.148463
   1 C :   -0.007873
   2 C :    0.019399
   3 C :   -0.127849
   4 C :   -0.170263
   5 C :   -0.005503
   6 O :   -0.321972
   7 C :   -0.005504
   8 H :    0.194978
   9 H :    0.139190
  10 H :    0.108018
  11 H :    0.108913
  12 H :    0.108913
  13 H :    0.108018
Sum of atomic charges:    0.0000000

LOEWDIN ATOMIC CHARGES
----------------------
   0 C :   -0.045555
   1 C :   -0.098741
   2 C :   -0.054452
   3 C :   -0.012478
   4 C :   -0.223761
   5 C :   -0.233489
   6 O :    0.116915
   7 C :   -0.233489
   8 H :    0.130555
   9 H :    0.168550
  10 H :    0.119320
  11 H :    0.123653
  12 H :    0.123652
  13 H :    0.119320

  Mayer bond orders larger than 0.1
B(  0-C ,  1-C ) :   2.5426 B(  0-C ,  3-C ) :   0.1212 B(  0-C ,  8-H ) :   0.8875
B(  1-C ,  2-C ) :   1.3013 B(  2-C ,  3-C ) :   2.5579 B(  2-C ,  4-C ) :  -0.1089
B(  3-C ,  4-C ) :   0.9975 B(  4-C ,  5-C ) :   0.9384 B(  4-C ,  7-C ) :   0.9384
B(  4-C ,  9-H ) :   0.9127 B(  5-C ,  6-O ) :   0.9479 B(  5-C , 10-H ) :   0.9145
B(  5-C , 11-H ) :   0.9128 B(  6-O ,  7-C ) :   0.9479 B(  7-C , 12-H ) :   0.9128
B(  7-C , 13-H ) :   0.9145

MP2 TOTAL ENERGY:     -344.692891861 Eh
FINAL SINGLE POINT ENERGY      -344.692891860579

DIPOLE MOMENT
-------------
                                X             Y             Z
Electronic contribution:     -0.50768      -3.82812      -0.63252
Nuclear contribution   :      0.23870       3.60510       0.33276
                        -----------------------------------------
Total Dipole Moment    :     -0.26898      -0.22302      -0.29975
                        -----------------------------------------
Magnitude (a.u.)       :      0.46037
Magnitude (Debye)      :      1.17018

                             ****ORCA TERMINATED NORMALLY****
TOTAL RUN TIME: 0 days 0 hours 9 minutes 9 seconds 316 msec
