                         Program Version 3.0.3 - RELEASE   -
|  1> ! RI-MP2 RIJK def2-TZVP def2-TZVP/C def2-TZVP/JK TIGHTSCF
|  2> % maxcore 2000
|  3> % mp2 density relaxed end
|  4> *xyz 0 1
|  5>  C        0.0428056733     1.4793989919     0.0383139841
|  6>  C       -0.0257233577    -0.0130643906    -0.0158148402
|  7>  C       -0.1097401232    -0.7846338478    -1.1061448776
|  8>  C       -0.0579653234    -2.2310340726    -0.7505185690
|  9>  N        1.2290728889    -2.6122957316    -0.0918992033
| 10>  C        0.0447658136    -2.2876576521     0.7326432086
| 11>  C        0.0328274012    -0.8552844231     1.2522694881
| 12>  H        0.9928993949     1.8166966918     0.4721256263
| 13>  H       -0.0494071237     1.9236249896    -0.9565267981
| 14>  H       -0.7520584973     1.8916598237     0.6735420800
| 15>  H       -0.1591766242    -0.4210358688    -2.1261782278
| 16>  H       -0.5809313329    -2.9800239727    -1.3358173495
| 17>  H        1.3177100530    -3.6273839878    -0.1246348643
| 18>  H       -0.4173646309    -3.0787780782     1.3132301575
| 19>  H        0.9264034028    -0.6296590034     1.8473941163
| 20>  H       -0.8363231344    -0.6657736983     1.8974379788
| 21> *
| 22>
| 23>                          ****END OF INPUT****

CARTESIAN COORDINATES (ANGSTROEM)
---------------------------------
  C      0.042806    1.479399    0.038314
  C     -0.025723   -0.013064   -0.015815
  C     -0.109740   -0.784634   -1.106145
  C     -0.057965   -2.231034   -0.750519
  N      1.229073   -2.612296   -0.091899
  C      0.044766   -2.287658    0.732643
  C      0.032827   -0.855284    1.252269
  H      0.992899    1.816697    0.472126
  H     -0.049407    1.923625   -0.956527
  H     -0.752058    1.891660    0.673542
  H     -0.159177   -0.421036   -2.126178
  H     -0.580931   -2.980024   -1.335817
  H      1.317710   -3.627384   -0.124635
  H     -0.417365   -3.078778    1.313230
  H      0.926403   -0.629659    1.847394
  H     -0.836323   -0.665774    1.897438

 Total Charge           Charge          ....    0
 Multiplicity           Mult            ....    1
 Number of Electrons    NEL             ....   52
 Basis Dimension        Dim             ....  271

ORBITAL ENERGIES
----------------

  NO   OCC          E(Eh)            E(eV)
   0   2.0000     -15.552333      -423.2005
   1   2.0000     -11.254579      -306.2527
   2   2.0000     -11.253527      -306.2240
   3   2.0000     -11.231196      -305.6164
   4   2.0000     -11.225129      -305.4513
   5   2.0000     -11.220740      -305.3319
   6   2.0000     -11.212700      -305.1131
   7   2.0000      -1.262134       -34.3444
   8   2.0000      -1.092985       -29.7416
   9   2.0000      -0.968301       -26.3488
  10   2.0000      -0.958202       -26.0740
  11   2.0000      -0.852437       -23.1960
  12   2.0000      -0.776807       -21.1380
  13   2.0000      -0.722104       -19.6494
  14   2.0000      -0.696210       -18.9448
  15   2.0000      -0.619826       -16.8663
  16   2.0000      -0.586005       -15.9460
  17   2.0000      -0.579165       -15.7599
  18   2.0000      -0.549523       -14.9533
  19   2.0000      -0.527984       -14.3672
  20   2.0000      -0.516922       -14.0662
  21   2.0000      -0.493775       -13.4363
  22   2.0000      -0.471019       -12.8171
  23   2.0000      -0.458273       -12.4702
  24   2.0000      -0.377971       -10.2851
  25   2.0000      -0.328050        -8.9267
  26   0.0000       0.139035         3.7833
  27   0.0000       0.148687         4.0460
  28   0.0000       0.152139         4.1399
  29   0.0000       0.179743         4.8911
  30   0.0000       0.193980         5.2785

MULLIKEN ATOMIC CHARGES
-----------------------
   0 C :   -0.415969
   1 C :    0.017670
   2 C :   -0.228897
   3 C :    0.017049
   4 N :   -0.390610
   5 C :   -0.091075
   6 C :   -0.144548
   7 H :    0.142045
   8 H :    0.135076
   9 H :    0.133744
  10 H :    0.125596
  11 H :    0.129879
  12 H :    0.212071
  13 H :    0.130974
  14 H :    0.117802
  15 H :    0.109195
Sum of atomic charges:    0.0000000

LOEWDIN ATOMIC CHARGES
----------------------
   0 C :   -0.275087
   1 C :   -0.172004
   2 C :   -0.129857
   3 C :   -0.235635
   4 N :   -0.003347
   5 C :   -0.240780
   6 C :   -0.196279
   7 H :    0.132559
   8 H :    0.130299
   9 H :    0.129937
  10 H :    0.138723
  11 H :    0.133598
  12 H :    0.165555
  13 H :    0.132169
  14 H :    0.147883
  15 H :    0.142266

  Mayer bond orders larger than 0.1
B(  0-C ,  1-C ) :   0.8875 B(  0-C ,  7-H ) :   0.9307 B(  0-C ,  8-H ) :   0.9446
B(  0-C ,  9-H ) :   0.9306 B(  1-C ,  2-C ) :   1.7886 B(  1-C ,  6-C ) :   0.9680
B(  2-C ,  3-C ) :   0.9436 B(  2-C , 10-H ) :   0.9227 B(  3-C ,  4-N ) :   0.9074
B(  3-C ,  5-C ) :   0.9234 B(  3-C , 11-H ) :   0.9195 B(  4-N ,  5-C ) :   0.9694
B(  4-N , 12-H ) :   0.8703 B(  5-C ,  6-C ) :   0.9415 B(  5-C , 13-H ) :   0.9272
B(  6-C , 14-H ) :   0.8948 B(  6-C , 15-H ) :   0.9066

MP2 TOTAL ENERGY:     -288.103702401 Eh
FINAL SINGLE POINT ENERGY      -288.103702400626

DIPOLE MOMENT
-------------
                                X             Y             Z
Electronic contribution:      0.55251      -3.55558      -1.22131
Nuclear contribution   :     -1.06923       3.34237       1.36228
                        -----------------------------------------
Total Dipole Moment    :     -0.51671      -0.21321       0.14097
                        -----------------------------------------
Magnitude (a.u.)       :      0.57648
Magnitude (Debye)      :      1.46529

                             ****ORCA TERMINATED NORMALLY****
TOTAL RUN TIME: 0 days 0 hours 8 minutes 54 seconds 731 msec
