                         Program Version 3.0.3 - RELEASE   -
|  1> ! RI-MP2 RIJK def2-TZVP def2-TZVP/C def2-TZVP/JK TIGHTSCF
|  2> % maxcore 2000
|  3> % mp2 density relaxed end
|  4> *xyz 0 1
|  5>  C       -0.0161491083     1.3976541752    -0.0335187038
|  6>  C        0.0431120436    -0.1325261998     0.0979464384
|  7>  C        0.7438765427    -0.5383418870     1.3151302679
|  8>  C        1.3453256512    -0.8727818084     2.3103679688
|  9>  C        2.0169625741    -1.2428455675     3.4346115749
| 10>  C        2.6155401943    -1.5727504524     4.4301242743
| 11>  N       -1.3243624850    -0.6723643081     0.1054855082
| 12>  C       -1.8903807911    -0.9671123782    -1.2094169406
| 13>  C       -1.4682674735    -2.0664967615    -0.2986963622
| 14>  H        0.9903472487     1.8228210011    -0.0379136997
| 15>  H       -0.5167765478     1.6685377139    -0.9675711719
| 16>  H       -0.5783271561     1.8218284437     0.8012550202
| 17>  H        0.6150208149    -0.5331571443    -0.7620598075
| 18>  H        3.1386879501    -1.8594646289     5.3082183480
| 19>  H       -2.9401669177    -0.7199726247    -1.3358631083
| 20>  H       -1.2699359661    -0.7838224192    -2.0857610190
| 21>  H       -0.5676481317    -2.6161199263    -0.5670459642
| 22>  H       -2.2033062022    -2.6419542575     0.2555659666
| 23> *
| 24>
| 25>                          ****END OF INPUT****

CARTESIAN COORDINATES (ANGSTROEM)
---------------------------------
  C     -0.016149    1.397654   -0.033519
  C      0.043112   -0.132526    0.097946
  C      0.743877   -0.538342    1.315130
  C      1.345326   -0.872782    2.310368
  C      2.016963   -1.242846    3.434612
  C      2.615540   -1.572750    4.430124
  N     -1.324362   -0.672364    0.105486
  C     -1.890381   -0.967112   -1.209417
  C     -1.468267   -2.066497   -0.298696
  H      0.990347    1.822821   -0.037914
  H     -0.516777    1.668538   -0.967571
  H     -0.578327    1.821828    0.801255
  H      0.615021   -0.533157   -0.762060
  H      3.138688   -1.859465    5.308218
  H     -2.940167   -0.719973   -1.335863
  H     -1.269936   -0.783822   -2.085761
  H     -0.567648   -2.616120   -0.567046
  H     -2.203306   -2.641954    0.255566

 Total Charge           Charge          ....    0
 Multiplicity           Mult            ....    1
 Number of Electrons    NEL             ....   64
 Basis Dimension        Dim             ....  333

ORBITAL ENERGIES
----------------

  NO   OCC          E(Eh)            E(eV)
   0   2.0000     -15.570961      -423.7074
   1   2.0000     -11.295686      -307.3712
   2   2.0000     -11.262954      -306.4805
   3   2.0000     -11.260643      -306.4177
   4   2.0000     -11.256014      -306.2917
   5   2.0000     -11.250600      -306.1444
   6   2.0000     -11.245708      -306.0113
   7   2.0000     -11.245098      -305.9947
   8   2.0000     -11.226942      -305.5006
   9   2.0000      -1.286618       -35.0106
  10   2.0000      -1.100257       -29.9395
  11   2.0000      -1.063265       -28.9329
  12   2.0000      -0.998290       -27.1648
  13   2.0000      -0.917768       -24.9737
  14   2.0000      -0.858439       -23.3593
  15   2.0000      -0.844848       -22.9895
  16   2.0000      -0.806612       -21.9490
  17   2.0000      -0.712991       -19.4015
  18   2.0000      -0.698061       -18.9952
  19   2.0000      -0.674414       -18.3517
  20   2.0000      -0.639201       -17.3935
  21   2.0000      -0.581917       -15.8348
  22   2.0000      -0.551973       -15.0199
  23   2.0000      -0.535729       -14.5779
  24   2.0000      -0.526816       -14.3354
  25   2.0000      -0.491691       -13.3796
  26   2.0000      -0.478266       -13.0143
  27   2.0000      -0.470044       -12.7905
  28   2.0000      -0.465100       -12.6560
  29   2.0000      -0.390231       -10.6187
  30   2.0000      -0.353416        -9.6169
  31   2.0000      -0.349642        -9.5142
  32   0.0000       0.114055         3.1036
  33   0.0000       0.116106         3.1594
  34   0.0000       0.141284         3.8445
  35   0.0000       0.157338         4.2814
  36   0.0000       0.160732         4.3737

MULLIKEN ATOMIC CHARGES
-----------------------
   0 C :   -0.382173
   1 C :   -0.070516
   2 C :   -0.146384
   3 C :    0.089136
   4 C :    0.000354
   5 C :   -0.143661
   6 N :   -0.225617
   7 C :   -0.178560
   8 C :   -0.178918
   9 H :    0.137114
  10 H :    0.134334
  11 H :    0.142610
  12 H :    0.110912
  13 H :    0.193177
  14 H :    0.134858
  15 H :    0.121935
  16 H :    0.127752
  17 H :    0.133645
Sum of atomic charges:    0.0000000

LOEWDIN ATOMIC CHARGES
----------------------
   0 C :   -0.266808
   1 C :   -0.308354
   2 C :    0.008515
   3 C :   -0.053436
   4 C :   -0.098035
   5 C :   -0.048715
   6 N :    0.120223
   7 C :   -0.266428
   8 C :   -0.260938
   9 H :    0.128916
  10 H :    0.125464
  11 H :    0.132095
  12 H :    0.155854
  13 H :    0.129859
  14 H :    0.125860
  15 H :    0.122988
  16 H :    0.126146
  17 H :    0.126793

  Mayer bond orders larger than 0.1
B(  0-C ,  1-C ) :   0.8956 B(  0-C ,  9-H ) :   0.9349 B(  0-C , 10-H ) :   0.9324
B(  0-C , 11-H ) :   0.9344 B(  1-C ,  2-C ) :   1.0509 B(  1-C ,  3-C ) :  -0.1295
B(  1-C ,  6-N ) :   0.8314 B(  1-C , 12-H ) :   0.9507 B(  2-C ,  3-C ) :   2.5324
B(  2-C ,  5-C ) :   0.1204 B(  3-C ,  4-C ) :   1.2794 B(  4-C ,  5-C ) :   2.5375
B(  5-C , 13-H ) :   0.8889 B(  6-N ,  7-C ) :   0.8821 B(  6-N ,  8-C ) :   0.8899
B(  7-C ,  8-C ) :   0.9466 B(  7-C , 14-H ) :   0.9252 B(  7-C , 15-H ) :   0.9210
B(  8-C , 16-H ) :   0.9202 B(  8-C , 17-H ) :   0.9287

MP2 TOTAL ENERGY:     -364.040106951 Eh
FINAL SINGLE POINT ENERGY      -364.040106950528

DIPOLE MOMENT
-------------
                                X             Y             Z
Electronic contribution:      4.53496      -2.53569       7.52335
Nuclear contribution   :     -4.46694       2.44023      -8.13210
                        -----------------------------------------
Total Dipole Moment    :      0.06802      -0.09546      -0.60875
                        -----------------------------------------
Magnitude (a.u.)       :      0.61994
Magnitude (Debye)      :      1.57575

                             ****ORCA TERMINATED NORMALLY****
TOTAL RUN TIME: 0 days 0 hours 16 minutes 26 seconds 627 msec
