                         Program Version 3.0.3 - RELEASE   -
|  1> ! RI-MP2 RIJK def2-TZVP def2-TZVP/C def2-TZVP/JK TIGHTSCF
|  2> % maxcore 2000
|  3> % mp2 density relaxed end
|  4> *xyz 0 1
|  5>  C        0.1622056408     1.4756199776     0.0610310363
|  6>  C        0.0105556562    -0.0140028437     0.0197450863
|  7>  C       -0.0535490854    -0.7058705598    -1.1303403826
|  8>  O       -0.1895515220    -2.0455299198    -1.2324764869
|  9>  N       -0.2751364213    -2.8221961710    -0.0870839922
| 10>  C       -0.2208434649    -2.2268445871     1.0572156430
| 11>  C       -0.3205165031    -3.1394333556     2.2468358928
| 12>  C       -0.0732088764    -0.7675604745     1.2597524652
| 13>  N       -0.0186841017    -0.1706287840     2.3990940512
| 14>  H        1.0672382728     1.7522467085     0.6114454689
| 15>  H        0.2110760158     1.9022196636    -0.9442696948
| 16>  H       -0.6741521009     1.9297688109     0.6021488712
| 17>  H       -0.0026520613    -0.2607256602    -2.1179901714
| 18>  H       -0.4239745701    -4.1724015691     1.9139843889
| 19>  H        0.5728498475    -3.0536832814     2.8754541838
| 20>  H       -1.1850806839    -2.8744570824     2.8656519833
| 21>  H       -0.0907005619    -0.8349003820     3.1697936470
| 22> *
| 23>
| 24>                          ****END OF INPUT****

CARTESIAN COORDINATES (ANGSTROEM)
---------------------------------
  C      0.162206    1.475620    0.061031
  C      0.010556   -0.014003    0.019745
  C     -0.053549   -0.705871   -1.130340
  O     -0.189552   -2.045530   -1.232476
  N     -0.275136   -2.822196   -0.087084
  C     -0.220843   -2.226845    1.057216
  C     -0.320517   -3.139433    2.246836
  C     -0.073209   -0.767560    1.259752
  N     -0.018684   -0.170629    2.399094
  H      1.067238    1.752247    0.611445
  H      0.211076    1.902220   -0.944270
  H     -0.674152    1.929769    0.602149
  H     -0.002652   -0.260726   -2.117990
  H     -0.423975   -4.172402    1.913984
  H      0.572850   -3.053683    2.875454
  H     -1.185081   -2.874457    2.865652
  H     -0.090701   -0.834900    3.169794

 Total Charge           Charge          ....    0
 Multiplicity           Mult            ....    1
 Number of Electrons    NEL             ....   66
 Basis Dimension        Dim             ....  327

ORBITAL ENERGIES
----------------

  NO   OCC          E(Eh)            E(eV)
   0   2.0000     -20.643997      -561.7517
   1   2.0000     -15.652710      -425.9319
   2   2.0000     -15.553906      -423.2433
   3   2.0000     -11.319020      -308.0062
   4   2.0000     -11.307693      -307.6980
   5   2.0000     -11.305698      -307.6437
   6   2.0000     -11.247722      -306.0661
   7   2.0000     -11.247585      -306.0623
   8   2.0000     -11.227723      -305.5219
   9   2.0000      -1.485246       -40.4156
  10   2.0000      -1.238172       -33.6924
  11   2.0000      -1.195524       -32.5319
  12   2.0000      -1.093617       -29.7588
  13   2.0000      -1.010554       -27.4986
  14   2.0000      -0.954070       -25.9616
  15   2.0000      -0.883039       -24.0287
  16   2.0000      -0.840884       -22.8816
  17   2.0000      -0.752549       -20.4779
  18   2.0000      -0.714037       -19.4299
  19   2.0000      -0.664944       -18.0941
  20   2.0000      -0.656778       -17.8718
  21   2.0000      -0.618982       -16.8434
  22   2.0000      -0.597118       -16.2484
  23   2.0000      -0.582535       -15.8516
  24   2.0000      -0.575168       -15.6511
  25   2.0000      -0.566221       -15.4077
  26   2.0000      -0.547062       -14.8863
  27   2.0000      -0.517956       -14.0943
  28   2.0000      -0.503366       -13.6973
  29   2.0000      -0.486393       -13.2354
  30   2.0000      -0.427647       -11.6369
  31   2.0000      -0.423442       -11.5225
  32   2.0000      -0.334298        -9.0967
  33   0.0000       0.083227         2.2647
  34   0.0000       0.128019         3.4836
  35   0.0000       0.132937         3.6174
  36   0.0000       0.151959         4.1350
  37   0.0000       0.175940         4.7876

MULLIKEN ATOMIC CHARGES
-----------------------
   0 C :   -0.379812
   1 C :   -0.011321
   2 C :    0.033676
   3 O :   -0.128546
   4 N :   -0.071742
   5 C :    0.117885
   6 C :   -0.469310
   7 C :   -0.007837
   8 N :   -0.349979
   9 H :    0.150902
  10 H :    0.127705
  11 H :    0.150919
  12 H :    0.147052
  13 H :    0.167364
  14 H :    0.156827
  15 H :    0.156828
  16 H :    0.209389
Sum of atomic charges:   -0.0000000

LOEWDIN ATOMIC CHARGES
----------------------
   0 C :   -0.254262
   1 C :   -0.176701
   2 C :   -0.215497
   3 O :    0.238304
   4 N :    0.085204
   5 C :   -0.241959
   6 C :   -0.269514
   7 C :   -0.255730
   8 N :   -0.034448
   9 H :    0.139434
  10 H :    0.128293
  11 H :    0.139437
  12 H :    0.147473
  13 H :    0.140264
  14 H :    0.136636
  15 H :    0.136635
  16 H :    0.156433

  Mayer bond orders larger than 0.1
B(  0-C ,  1-C ) :   0.9166 B(  0-C ,  9-H ) :   0.9220 B(  0-C , 10-H ) :   0.9384
B(  0-C , 11-H ) :   0.9220 B(  1-C ,  2-C ) :   1.5939 B(  1-C ,  7-C ) :   1.0690
B(  1-C ,  8-N ) :  -0.1130 B(  2-C ,  3-O ) :   1.0705 B(  2-C , 12-H ) :   0.9315
B(  3-O ,  4-N ) :   0.8265 B(  4-N ,  5-C ) :   1.7398 B(  5-C ,  6-C ) :   0.8651
B(  5-C ,  7-C ) :   0.9341 B(  6-C , 13-H ) :   0.9317 B(  6-C , 14-H ) :   0.9277
B(  6-C , 15-H ) :   0.9277 B(  7-C ,  8-N ) :   1.9699 B(  8-N , 16-H ) :   0.8716

MP2 TOTAL ENERGY:     -417.274506958 Eh
FINAL SINGLE POINT ENERGY      -417.274506958381

DIPOLE MOMENT
-------------
                                X             Y             Z
Electronic contribution:     -0.32521      -3.43599      -4.50440
Nuclear contribution   :      0.32939       3.47874       4.53782
                        -----------------------------------------
Total Dipole Moment    :      0.00417       0.04274       0.03342
                        -----------------------------------------
Magnitude (a.u.)       :      0.05442
Magnitude (Debye)      :      0.13833

                             ****ORCA TERMINATED NORMALLY****
TOTAL RUN TIME: 0 days 0 hours 17 minutes 1 seconds 155 msec
