                         Program Version 3.0.3 - RELEASE   -
|  1> ! RI-MP2 RIJK def2-TZVP def2-TZVP/C def2-TZVP/JK TIGHTSCF
|  2> % maxcore 2000
|  3> % mp2 density relaxed end
|  4> *xyz 0 1
|  5>  C       -0.0312901200     1.4460038088    -0.0939224417
|  6>  C        1.3161499300     0.7905587886     0.0512843371
|  7>  C        0.0373918184    -0.0435995702     0.0977165936
|  8>  C        0.4326610360    -0.7598430850    -1.1996654594
|  9>  C       -0.4932837254    -0.7162109012    -2.4191595950
| 10>  O       -0.3439756058     0.4711629972    -3.1864929036
| 11>  C        0.9896285552     0.6234421617    -3.6450362932
| 12>  C        1.9288707831     1.0294524022    -2.5037402705
| 13>  C        1.7445410514     0.1239446027    -1.2685555792
| 14>  H       -0.3621753413     2.0029597540     0.7770515230
| 15>  H       -0.3542980039     1.8616066692    -1.0427557826
| 16>  H        1.9881932506     1.0491953961     0.8610404298
| 17>  H       -0.4248140922    -0.5306108822     0.9485271845
| 18>  H        0.6966208371    -1.8003390914    -0.9901989027
| 19>  H       -0.2978357210    -1.5867740511    -3.0689774625
| 20>  H       -1.5445413019    -0.7538020540    -2.1153063915
| 21>  H        1.3303029446    -0.3154677814    -4.1147518703
| 22>  H        0.9651583896     1.3937148603    -4.4218086482
| 23>  H        2.9649961969     1.0093259032    -2.8605409308
| 24>  H        1.7075413755     2.0667310187    -2.2315148367
| 25>  H        2.6226734430    -0.5094567361    -1.1252959801
| 26> *
| 27>
| 28>                          ****END OF INPUT****

CARTESIAN COORDINATES (ANGSTROEM)
---------------------------------
  C     -0.031290    1.446004   -0.093922
  C      1.316150    0.790559    0.051284
  C      0.037392   -0.043600    0.097717
  C      0.432661   -0.759843   -1.199665
  C     -0.493284   -0.716211   -2.419160
  O     -0.343976    0.471163   -3.186493
  C      0.989629    0.623442   -3.645036
  C      1.928871    1.029452   -2.503740
  C      1.744541    0.123945   -1.268556
  H     -0.362175    2.002960    0.777052
  H     -0.354298    1.861607   -1.042756
  H      1.988193    1.049195    0.861040
  H     -0.424814   -0.530611    0.948527
  H      0.696621   -1.800339   -0.990199
  H     -0.297836   -1.586774   -3.068977
  H     -1.544541   -0.753802   -2.115306
  H      1.330303   -0.315468   -4.114752
  H      0.965158    1.393715   -4.421809
  H      2.964996    1.009326   -2.860541
  H      1.707541    2.066731   -2.231515
  H      2.622673   -0.509457   -1.125296

 Total Charge           Charge          ....    0
 Multiplicity           Mult            ....    1
 Number of Electrons    NEL             ....   68
 Basis Dimension        Dim             ....  351

ORBITAL ENERGIES
----------------

  NO   OCC          E(Eh)            E(eV)
   0   2.0000     -20.546716      -559.1046
   1   2.0000     -11.268530      -306.6323
   2   2.0000     -11.266957      -306.5895
   3   2.0000     -11.230832      -305.6065
   4   2.0000     -11.228234      -305.5358
   5   2.0000     -11.226507      -305.4888
   6   2.0000     -11.225408      -305.4589
   7   2.0000     -11.218444      -305.2694
   8   2.0000     -11.215842      -305.1986
   9   2.0000      -1.368054       -37.2266
  10   2.0000      -1.185049       -32.2468
  11   2.0000      -1.036880       -28.2149
  12   2.0000      -1.008449       -27.4413
  13   2.0000      -0.899484       -24.4762
  14   2.0000      -0.881240       -23.9798
  15   2.0000      -0.799885       -21.7660
  16   2.0000      -0.778225       -21.1766
  17   2.0000      -0.710279       -19.3277
  18   2.0000      -0.690622       -18.7928
  19   2.0000      -0.664008       -18.0686
  20   2.0000      -0.629135       -17.1196
  21   2.0000      -0.628329       -17.0977
  22   2.0000      -0.597671       -16.2634
  23   2.0000      -0.568402       -15.4670
  24   2.0000      -0.539982       -14.6937
  25   2.0000      -0.536565       -14.6007
  26   2.0000      -0.523194       -14.2368
  27   2.0000      -0.501003       -13.6330
  28   2.0000      -0.467780       -12.7290
  29   2.0000      -0.454621       -12.3709
  30   2.0000      -0.434580       -11.8255
  31   2.0000      -0.407348       -11.0845
  32   2.0000      -0.398447       -10.8423
  33   2.0000      -0.365602        -9.9485
  34   0.0000       0.138786         3.7766
  35   0.0000       0.158972         4.3258
  36   0.0000       0.162742         4.4284
  37   0.0000       0.173322         4.7163
  38   0.0000       0.193030         5.2526

MULLIKEN ATOMIC CHARGES
-----------------------
   0 C :   -0.285310
   1 C :   -0.169950
   2 C :   -0.135639
   3 C :   -0.085292
   4 C :   -0.056785
   5 O :   -0.324976
   6 C :   -0.072057
   7 C :   -0.257945
   8 C :   -0.035417
   9 H :    0.126603
  10 H :    0.155427
  11 H :    0.124880
  12 H :    0.126828
  13 H :    0.104128
  14 H :    0.099121
  15 H :    0.119474
  16 H :    0.092024
  17 H :    0.124166
  18 H :    0.114813
  19 H :    0.126079
  20 H :    0.109828
Sum of atomic charges:   -0.0000000

LOEWDIN ATOMIC CHARGES
----------------------
   0 C :   -0.207409
   1 C :   -0.165939
   2 C :   -0.169251
   3 C :   -0.190169
   4 C :   -0.298158
   5 O :    0.148148
   6 C :   -0.318455
   7 C :   -0.250908
   8 C :   -0.170377
   9 H :    0.138486
  10 H :    0.135191
  11 H :    0.132764
  12 H :    0.133035
  13 H :    0.152486
  14 H :    0.119798
  15 H :    0.133657
  16 H :    0.118952
  17 H :    0.128397
  18 H :    0.137182
  19 H :    0.143921
  20 H :    0.148651

  Mayer bond orders larger than 0.1
B(  0-C ,  1-C ) :   0.8894 B(  0-C ,  2-C ) :   0.8775 B(  0-C ,  9-H ) :   0.9327
B(  0-C , 10-H ) :   0.9128 B(  1-C ,  2-C ) :   0.8312 B(  1-C ,  8-C ) :   0.9446
B(  1-C , 11-H ) :   0.9272 B(  2-C ,  3-C ) :   0.9397 B(  2-C , 12-H ) :   0.9270
B(  3-C ,  4-C ) :   0.9152 B(  3-C ,  8-C ) :   0.9911 B(  3-C , 13-H ) :   0.9193
B(  4-C ,  5-O ) :   0.9170 B(  4-C , 14-H ) :   0.9409 B(  4-C , 15-H ) :   0.9265
B(  5-O ,  6-C ) :   0.9263 B(  6-C ,  7-C ) :   0.9405 B(  6-C , 16-H ) :   0.9378
B(  6-C , 17-H ) :   0.9314 B(  7-C ,  8-C ) :   0.8798 B(  7-C , 18-H ) :   0.9252
B(  7-C , 19-H ) :   0.9246 B(  8-C , 20-H ) :   0.9257

MP2 TOTAL ENERGY:     -386.384594467 Eh
FINAL SINGLE POINT ENERGY      -386.384594467450

DIPOLE MOMENT
-------------
                                X             Y             Z
Electronic contribution:     -1.43827      -0.22480       0.06583
Nuclear contribution   :      1.90185      -0.10520       0.14122
                        -----------------------------------------
Total Dipole Moment    :      0.46358      -0.33001       0.20705
                        -----------------------------------------
Magnitude (a.u.)       :      0.60554
Magnitude (Debye)      :      1.53916

                             ****ORCA TERMINATED NORMALLY****
TOTAL RUN TIME: 0 days 0 hours 20 minutes 17 seconds 173 msec
