                         Program Version 3.0.3 - RELEASE   -
|  1> ! RI-MP2 RIJK def2-TZVP def2-TZVP/C def2-TZVP/JK TIGHTSCF
|  2> % maxcore 2000
|  3> % mp2 density relaxed end
|  4> *xyz 0 1
|  5>  C       -0.0559311441     1.5889904127     0.2200022357
|  6>  C       -0.0064880613     0.0710730294    -0.0310455467
|  7>  C        0.8406236996    -0.6210660531     1.0496406110
|  8>  C       -1.4356587711    -0.4971043965    -0.0103995682
|  9>  O       -2.0224362406    -0.2246103654     1.2533617863
| 10>  C        0.5624080589    -0.2268518591    -1.4390513746
| 11>  N        1.9262356250     0.2306547788    -1.6475196409
| 12>  C        2.9833252636    -0.6150876433    -1.7809267264
| 13>  O        2.9276617289    -1.8254005375    -1.7259598288
| 14>  H        0.9511711491     2.0180529569     0.2524592141
| 15>  H       -0.6219787614     2.1044796858    -0.5655439652
| 16>  H       -0.5418683036     1.8015193490     1.1744379830
| 17>  H        0.3852812669    -0.4830394363     2.0327981794
| 18>  H        0.9247388908    -1.6953701735     0.8557562266
| 19>  H        1.8535317487    -0.2096296049     1.0753065908
| 20>  H       -2.0254084013    -0.0390944440    -0.8222157691
| 21>  H       -1.3969525687    -1.5816381979    -0.2011221109
| 22>  H       -2.8987741979    -0.6188564984     1.2705491712
| 23>  H        0.5800959712    -1.3052988239    -1.6166651358
| 24>  H       -0.0846966386     0.2311224371    -2.1987041545
| 25>  H        2.1027650869     1.2189234304    -1.7266040872
| 26>  H        3.9284321689    -0.0619659664    -1.9533161702
| 27> *
| 28>
| 29>                          ****END OF INPUT****

CARTESIAN COORDINATES (ANGSTROEM)
---------------------------------
  C     -0.055931    1.588990    0.220002
  C     -0.006488    0.071073   -0.031046
  C      0.840624   -0.621066    1.049641
  C     -1.435659   -0.497104   -0.010400
  O     -2.022436   -0.224610    1.253362
  C      0.562408   -0.226852   -1.439051
  N      1.926236    0.230655   -1.647520
  C      2.983325   -0.615088   -1.780927
  O      2.927662   -1.825401   -1.725960
  H      0.951171    2.018053    0.252459
  H     -0.621979    2.104480   -0.565544
  H     -0.541868    1.801519    1.174438
  H      0.385281   -0.483039    2.032798
  H      0.924739   -1.695370    0.855756
  H      1.853532   -0.209630    1.075307
  H     -2.025408   -0.039094   -0.822216
  H     -1.396953   -1.581638   -0.201122
  H     -2.898774   -0.618856    1.270549
  H      0.580096   -1.305299   -1.616665
  H     -0.084697    0.231122   -2.198704
  H      2.102765    1.218923   -1.726604
  H      3.928432   -0.061966   -1.953316

 Total Charge           Charge          ....    0
 Multiplicity           Mult            ....    1
 Number of Electrons    NEL             ....   72
 Basis Dimension        Dim             ....  357

ORBITAL ENERGIES
----------------

  NO   OCC          E(Eh)            E(eV)
   0   2.0000     -20.560246      -559.4727
   1   2.0000     -20.520379      -558.3879
   2   2.0000     -15.588412      -424.1823
   3   2.0000     -11.347628      -308.7847
   4   2.0000     -11.279302      -306.9254
   5   2.0000     -11.264183      -306.5140
   6   2.0000     -11.239658      -305.8466
   7   2.0000     -11.214786      -305.1698
   8   2.0000     -11.204166      -304.8809
   9   2.0000      -1.381154       -37.5831
  10   2.0000      -1.365715       -37.1630
  11   2.0000      -1.236856       -33.6566
  12   2.0000      -1.097019       -29.8514
  13   2.0000      -0.949639       -25.8410
  14   2.0000      -0.931953       -25.3597
  15   2.0000      -0.920544       -25.0493
  16   2.0000      -0.809396       -22.0248
  17   2.0000      -0.757896       -20.6234
  18   2.0000      -0.727928       -19.8079
  19   2.0000      -0.703404       -19.1406
  20   2.0000      -0.651954       -17.7406
  21   2.0000      -0.647832       -17.6284
  22   2.0000      -0.621346       -16.9077
  23   2.0000      -0.598514       -16.2864
  24   2.0000      -0.588054       -16.0018
  25   2.0000      -0.574953       -15.6453
  26   2.0000      -0.558452       -15.1963
  27   2.0000      -0.542067       -14.7504
  28   2.0000      -0.525732       -14.3059
  29   2.0000      -0.518768       -14.1164
  30   2.0000      -0.481548       -13.1036
  31   2.0000      -0.472316       -12.8524
  32   2.0000      -0.461107       -12.5474
  33   2.0000      -0.445262       -12.1162
  34   2.0000      -0.429090       -11.6761
  35   2.0000      -0.390491       -10.6258
  36   0.0000       0.120394         3.2761
  37   0.0000       0.137607         3.7445
  38   0.0000       0.157813         4.2943
  39   0.0000       0.170936         4.6514
  40   0.0000       0.181626         4.9423

MULLIKEN ATOMIC CHARGES
-----------------------
   0 C :   -0.464843
   1 C :    0.114497
   2 C :   -0.422170
   3 C :   -0.071924
   4 O :   -0.470189
   5 C :   -0.148732
   6 N :   -0.339154
   7 C :    0.196443
   8 O :   -0.367959
   9 H :    0.120954
  10 H :    0.124038
  11 H :    0.162838
  12 H :    0.155857
  13 H :    0.136753
  14 H :    0.128778
  15 H :    0.097625
  16 H :    0.107553
  17 H :    0.317255
  18 H :    0.160941
  19 H :    0.137539
  20 H :    0.243126
  21 H :    0.080773
Sum of atomic charges:    0.0000000

LOEWDIN ATOMIC CHARGES
----------------------
   0 C :   -0.275037
   1 C :   -0.339922
   2 C :   -0.265448
   3 C :   -0.309657
   4 O :   -0.039125
   5 C :   -0.237759
   6 N :    0.090969
   7 C :   -0.441630
   8 O :    0.053861
   9 H :    0.119864
  10 H :    0.124125
  11 H :    0.134303
  12 H :    0.131105
  13 H :    0.130374
  14 H :    0.125761
  15 H :    0.119273
  16 H :    0.122738
  17 H :    0.174179
  18 H :    0.152300
  19 H :    0.136794
  20 H :    0.183663
  21 H :    0.109269

  Mayer bond orders larger than 0.1
B(  0-C ,  1-C ) :   0.8935 B(  0-C ,  9-H ) :   0.9384 B(  0-C , 10-H ) :   0.9327
B(  0-C , 11-H ) :   0.9322 B(  1-C ,  2-C ) :   0.9260 B(  1-C ,  3-C ) :   0.9223
B(  1-C ,  5-C ) :   0.9001 B(  2-C , 12-H ) :   0.9299 B(  2-C , 13-H ) :   0.9293
B(  2-C , 14-H ) :   0.9310 B(  3-C ,  4-O ) :   1.0268 B(  3-C , 15-H ) :   0.9216
B(  3-C , 16-H ) :   0.9238 B(  4-O , 17-H ) :   0.8464 B(  5-C ,  6-N ) :   0.8219
B(  5-C , 18-H ) :   0.9164 B(  5-C , 19-H ) :   0.9337 B(  6-N ,  7-C ) :   1.1617
B(  6-N , 20-H ) :   0.8726 B(  7-C ,  8-O ) :   1.8837 B(  7-C , 21-H ) :   0.9318

MP2 TOTAL ENERGY:     -440.800579736 Eh
FINAL SINGLE POINT ENERGY      -440.800579736130

DIPOLE MOMENT
-------------
                                X             Y             Z
Electronic contribution:      3.55905      -3.18644      -3.29013
Nuclear contribution   :     -4.41249       4.22830       3.02613
                        -----------------------------------------
Total Dipole Moment    :     -0.85344       1.04185      -0.26400
                        -----------------------------------------
Magnitude (a.u.)       :      1.37241
Magnitude (Debye)      :      3.48839

                             ****ORCA TERMINATED NORMALLY****
TOTAL RUN TIME: 0 days 0 hours 19 minutes 29 seconds 11 msec
