                         Program Version 3.0.3 - RELEASE   -
|  1> ! RI-MP2 RIJK def2-TZVP def2-TZVP/C def2-TZVP/JK TIGHTSCF
|  2> % maxcore 2000
|  3> % mp2 density relaxed end
|  4> *xyz 0 1
|  5>  C        0.0409686481     1.5065597193    -0.2397169201
|  6>  C       -0.0408438157    -0.0051562875     0.0371381971
|  7>  C        0.6662334598    -0.4358150472     1.3001585169
|  8>  C        0.0052219481    -0.9127632160     2.3534451357
|  9>  C        0.6481744361    -1.3563710559     3.6299835292
| 10>  N        2.0929417265    -1.2369812604     3.5988920924
| 11>  C        2.8782196571    -0.7782376329     2.5835075155
| 12>  O        4.0916026002    -0.7373625904     2.6789623388
| 13>  C        2.1677141204    -0.3118255142     1.3199834146
| 14>  H        1.0744629053     1.8418860304    -0.3686033854
| 15>  H       -0.5030709034     1.7592301370    -1.1547819122
| 16>  H       -0.3969892716     2.0781570522     0.5846241167
| 17>  H       -1.0928636046    -0.3049443858     0.0949429750
| 18>  H        0.3917729554    -0.5438292522    -0.8177796287
| 19>  H       -1.0772902767    -1.0050986256     2.3259280355
| 20>  H        0.2423768469    -0.7682261021     4.4690208097
| 21>  H        0.3660575195    -2.4010516281     3.8374581239
| 22>  H        2.6131977135    -1.5303334940     4.4130398677
| 23>  H        2.6113771887    -0.8699990086     0.4844748186
| 24>  H        2.4819567065     0.7267166819     1.1562129091
| 25> *
| 26>
| 27>                          ****END OF INPUT****

CARTESIAN COORDINATES (ANGSTROEM)
---------------------------------
  C      0.040969    1.506560   -0.239717
  C     -0.040844   -0.005156    0.037138
  C      0.666233   -0.435815    1.300159
  C      0.005222   -0.912763    2.353445
  C      0.648174   -1.356371    3.629984
  N      2.092942   -1.236981    3.598892
  C      2.878220   -0.778238    2.583508
  O      4.091603   -0.737363    2.678962
  C      2.167714   -0.311826    1.319983
  H      1.074463    1.841886   -0.368603
  H     -0.503071    1.759230   -1.154782
  H     -0.396989    2.078157    0.584624
  H     -1.092864   -0.304944    0.094943
  H      0.391773   -0.543829   -0.817780
  H     -1.077290   -1.005099    2.325928
  H      0.242377   -0.768226    4.469021
  H      0.366058   -2.401052    3.837458
  H      2.613198   -1.530333    4.413040
  H      2.611377   -0.869999    0.484475
  H      2.481957    0.726717    1.156213

 Total Charge           Charge          ....    0
 Multiplicity           Mult            ....    1
 Number of Electrons    NEL             ....   68
 Basis Dimension        Dim             ....  345

ORBITAL ENERGIES
----------------

  NO   OCC          E(Eh)            E(eV)
   0   2.0000     -20.505290      -557.9773
   1   2.0000     -15.581284      -423.9883
   2   2.0000     -11.345109      -308.7161
   3   2.0000     -11.282184      -307.0038
   4   2.0000     -11.248244      -306.0803
   5   2.0000     -11.242388      -305.9209
   6   2.0000     -11.237431      -305.7860
   7   2.0000     -11.235906      -305.7445
   8   2.0000     -11.224708      -305.4398
   9   2.0000      -1.373794       -37.3828
  10   2.0000      -1.235876       -33.6299
  11   2.0000      -1.116172       -30.3726
  12   2.0000      -1.024937       -27.8899
  13   2.0000      -1.012043       -27.5391
  14   2.0000      -0.918687       -24.9987
  15   2.0000      -0.859246       -23.3813
  16   2.0000      -0.795375       -21.6432
  17   2.0000      -0.724687       -19.7197
  18   2.0000      -0.684517       -18.6267
  19   2.0000      -0.654829       -17.8188
  20   2.0000      -0.647868       -17.6294
  21   2.0000      -0.619151       -16.8480
  22   2.0000      -0.606594       -16.5063
  23   2.0000      -0.594912       -16.1884
  24   2.0000      -0.578462       -15.7408
  25   2.0000      -0.560930       -15.2637
  26   2.0000      -0.536187       -14.5904
  27   2.0000      -0.529713       -14.4142
  28   2.0000      -0.508646       -13.8410
  29   2.0000      -0.490228       -13.3398
  30   2.0000      -0.488368       -13.2892
  31   2.0000      -0.411809       -11.2059
  32   2.0000      -0.390090       -10.6149
  33   2.0000      -0.353884        -9.6297
  34   0.0000       0.123699         3.3660
  35   0.0000       0.140987         3.8365
  36   0.0000       0.154356         4.2002
  37   0.0000       0.161912         4.4059
  38   0.0000       0.167772         4.5653

MULLIKEN ATOMIC CHARGES
-----------------------
   0 C :   -0.406159
   1 C :   -0.209546
   2 C :   -0.015381
   3 C :   -0.190982
   4 C :   -0.063843
   5 N :   -0.290312
   6 C :    0.164770
   7 O :   -0.354759
   8 C :   -0.167148
   9 H :    0.131536
  10 H :    0.135296
  11 H :    0.130471
  12 H :    0.118042
  13 H :    0.116968
  14 H :    0.126555
  15 H :    0.125568
  16 H :    0.125727
  17 H :    0.239478
  18 H :    0.140943
  19 H :    0.142776
Sum of atomic charges:   -0.0000000

LOEWDIN ATOMIC CHARGES
----------------------
   0 C :   -0.309554
   1 C :   -0.248825
   2 C :   -0.172218
   3 C :   -0.152793
   4 C :   -0.268421
   5 N :    0.122844
   6 C :   -0.451606
   7 O :    0.069136
   8 C :   -0.184101
   9 H :    0.120488
  10 H :    0.122399
  11 H :    0.122940
  12 H :    0.142430
  13 H :    0.143737
  14 H :    0.148792
  15 H :    0.138780
  16 H :    0.138957
  17 H :    0.191140
  18 H :    0.163432
  19 H :    0.162445

  Mayer bond orders larger than 0.1
B(  0-C ,  1-C ) :   0.9076 B(  0-C ,  9-H ) :   0.9401 B(  0-C , 10-H ) :   0.9360
B(  0-C , 11-H ) :   0.9363 B(  1-C ,  2-C ) :   0.9013 B(  1-C , 12-H ) :   0.9444
B(  1-C , 13-H ) :   0.9281 B(  2-C ,  3-C ) :   1.7625 B(  2-C ,  8-C ) :   0.8704
B(  3-C ,  4-C ) :   0.9509 B(  3-C , 14-H ) :   0.9201 B(  4-C ,  5-N ) :   0.9143
B(  4-C , 15-H ) :   0.9199 B(  4-C , 16-H ) :   0.9200 B(  5-N ,  6-C ) :   1.2028
B(  5-N , 17-H ) :   0.8601 B(  6-C ,  7-O ) :   2.0132 B(  6-C ,  8-C ) :   0.9253
B(  8-C , 18-H ) :   0.8986 B(  8-C , 19-H ) :   0.9064

MP2 TOTAL ENERGY:     -402.505091789 Eh
FINAL SINGLE POINT ENERGY      -402.505091789393

DIPOLE MOMENT
-------------
                                X             Y             Z
Electronic contribution:      6.79312      -3.91952       5.79091
Nuclear contribution   :     -8.33628       3.79403      -5.69994
                        -----------------------------------------
Total Dipole Moment    :     -1.54316      -0.12548       0.09097
                        -----------------------------------------
Magnitude (a.u.)       :      1.55093
Magnitude (Debye)      :      3.94214

                             ****ORCA TERMINATED NORMALLY****
TOTAL RUN TIME: 0 days 0 hours 17 minutes 59 seconds 756 msec
