                         Program Version 3.0.3 - RELEASE   -
|  1> ! RI-MP2 RIJK def2-TZVP def2-TZVP/C def2-TZVP/JK TIGHTSCF
|  2> % maxcore 2000
|  3> % mp2 density relaxed end
|  4> *xyz 0 1
|  5>  C       -0.0819067860     1.5894131735    -0.0988134352
|  6>  C        0.0573256438     0.0874042121     0.0376351994
|  7>  C        1.3415482619    -0.6919067951    -0.2116945881
|  8>  C        2.6219892258     0.0725801485    -0.0988962611
|  9>  C        2.8294536641     0.5134446254     1.1426702151
| 10>  C        1.7290912215     0.0715466457     2.0972120580
| 11>  O        1.1949046893     1.1171043796     2.9024301179
| 12>  C        0.7319660469    -0.6483763975     1.1787649219
| 13>  H        0.8507275865     2.1162362461     0.1199704233
| 14>  H       -0.3689981303     1.8552567382    -1.1222580129
| 15>  H       -0.8638307948     1.9740956499     0.5663067718
| 16>  H       -0.8244792381    -0.4430983735    -0.3159599780
| 17>  H        1.2998025072    -1.5773829875    -0.8366798071
| 18>  H        3.2666333421     0.2610158825    -0.9508573912
| 19>  H        3.6517603196     1.1357544344     1.4774278788
| 20>  H        2.1268311001    -0.6409171866     2.8313931825
| 21>  H        0.8186368853     1.7763872903     2.3111640067
| 22>  H        0.2107681252    -1.5064352361     1.5862588882
| 23> *
| 24>
| 25>                          ****END OF INPUT****

CARTESIAN COORDINATES (ANGSTROEM)
---------------------------------
  C     -0.081907    1.589413   -0.098813
  C      0.057326    0.087404    0.037635
  C      1.341548   -0.691907   -0.211695
  C      2.621989    0.072580   -0.098896
  C      2.829454    0.513445    1.142670
  C      1.729091    0.071547    2.097212
  O      1.194905    1.117104    2.902430
  C      0.731966   -0.648376    1.178765
  H      0.850728    2.116236    0.119970
  H     -0.368998    1.855257   -1.122258
  H     -0.863831    1.974096    0.566307
  H     -0.824479   -0.443098   -0.315960
  H      1.299803   -1.577383   -0.836680
  H      3.266633    0.261016   -0.950857
  H      3.651760    1.135754    1.477428
  H      2.126831   -0.640917    2.831393
  H      0.818637    1.776387    2.311164
  H      0.210768   -1.506435    1.586259

 Total Charge           Charge          ....    0
 Multiplicity           Mult            ....    1
 Number of Electrons    NEL             ....   60
 Basis Dimension        Dim             ....  308

ORBITAL ENERGIES
----------------

  NO   OCC          E(Eh)            E(eV)
   0   2.0000     -20.550451      -559.2062
   1   2.0000     -11.283587      -307.0420
   2   2.0000     -11.241982      -305.9099
   3   2.0000     -11.236052      -305.7485
   4   2.0000     -11.234426      -305.7043
   5   2.0000     -11.228827      -305.5519
   6   2.0000     -11.223883      -305.4174
   7   2.0000     -11.223465      -305.4060
   8   2.0000      -1.356573       -36.9142
   9   2.0000      -1.181549       -32.1516
  10   2.0000      -1.047649       -28.5080
  11   2.0000      -0.969035       -26.3688
  12   2.0000      -0.940724       -25.5984
  13   2.0000      -0.807877       -21.9834
  14   2.0000      -0.775649       -21.1065
  15   2.0000      -0.736281       -20.0352
  16   2.0000      -0.702078       -19.1045
  17   2.0000      -0.651126       -17.7181
  18   2.0000      -0.626215       -17.0402
  19   2.0000      -0.593483       -16.1495
  20   2.0000      -0.573675       -15.6105
  21   2.0000      -0.569128       -15.4868
  22   2.0000      -0.551654       -15.0113
  23   2.0000      -0.550524       -14.9805
  24   2.0000      -0.496099       -13.4995
  25   2.0000      -0.488556       -13.2943
  26   2.0000      -0.440131       -11.9766
  27   2.0000      -0.436530       -11.8786
  28   2.0000      -0.404879       -11.0173
  29   2.0000      -0.338976        -9.2240
  30   0.0000       0.132321         3.6006
  31   0.0000       0.139404         3.7934
  32   0.0000       0.158747         4.3197
  33   0.0000       0.176041         4.7903
  34   0.0000       0.183104         4.9825

MULLIKEN ATOMIC CHARGES
-----------------------
   0 C :   -0.445264
   1 C :   -0.123525
   2 C :   -0.044370
   3 C :   -0.177861
   4 C :   -0.229759
   5 C :    0.102968
   6 O :   -0.458902
   7 C :   -0.114220
   8 H :    0.144509
   9 H :    0.139511
  10 H :    0.146303
  11 H :    0.117298
  12 H :    0.133296
  13 H :    0.129033
  14 H :    0.127757
  15 H :    0.105167
  16 H :    0.316768
  17 H :    0.131291
Sum of atomic charges:   -0.0000000

LOEWDIN ATOMIC CHARGES
----------------------
   0 C :   -0.303761
   1 C :   -0.202603
   2 C :   -0.168450
   3 C :   -0.132850
   4 C :   -0.145227
   5 C :   -0.298087
   6 O :   -0.018978
   7 C :   -0.153749
   8 H :    0.125776
   9 H :    0.128535
  10 H :    0.125725
  11 H :    0.154206
  12 H :    0.144618
  13 H :    0.139462
  14 H :    0.138279
  15 H :    0.150426
  16 H :    0.171604
  17 H :    0.145074

  Mayer bond orders larger than 0.1
B(  0-C ,  1-C ) :   0.8964 B(  0-C ,  8-H ) :   0.9347 B(  0-C ,  9-H ) :   0.9326
B(  0-C , 10-H ) :   0.9396 B(  1-C ,  2-C ) :   0.8525 B(  1-C ,  7-C ) :   0.8925
B(  1-C , 11-H ) :   0.9322 B(  2-C ,  3-C ) :   0.9198 B(  2-C ,  7-C ) :   0.8412
B(  2-C , 12-H ) :   0.9169 B(  3-C ,  4-C ) :   1.7557 B(  3-C , 13-H ) :   0.9276
B(  4-C ,  5-C ) :   0.9582 B(  4-C , 14-H ) :   0.9368 B(  5-C ,  6-O ) :   0.9335
B(  5-C ,  7-C ) :   0.9188 B(  5-C , 15-H ) :   0.9240 B(  6-O , 16-H ) :   0.8431
B(  7-C , 17-H ) :   0.9276

MP2 TOTAL ENERGY:     -347.187945307 Eh
FINAL SINGLE POINT ENERGY      -347.187945306536

DIPOLE MOMENT
-------------
                                X             Y             Z
Electronic contribution:      2.27533      -1.76759       2.47323
Nuclear contribution   :     -2.40431       1.69255      -3.23529
                        -----------------------------------------
Total Dipole Moment    :     -0.12897      -0.07504      -0.76206
                        -----------------------------------------
Magnitude (a.u.)       :      0.77653
Magnitude (Debye)      :      1.97378

                             ****ORCA TERMINATED NORMALLY****
TOTAL RUN TIME: 0 days 0 hours 12 minutes 44 seconds 975 msec
