                         Program Version 3.0.3 - RELEASE   -
|  1> ! RI-MP2 RIJK def2-TZVP def2-TZVP/C def2-TZVP/JK TIGHTSCF
|  2> % maxcore 2000
|  3> % mp2 density relaxed end
|  4> *xyz 0 1
|  5>  O        0.0001696378     1.6605682389     0.2134458737
|  6>  C        0.1445369705     0.2700709095     0.4082099159
|  7>  C       -1.1230517010    -0.5069539415     0.0526900167
|  8>  C       -1.5727564882    -0.4780175128    -1.4547692822
|  9>  C       -1.8171639579    -2.0067273926    -1.3868973013
| 10>  O       -1.4580732825    -2.8204877682    -2.4699097098
| 11>  C       -0.9945668933    -2.0631183846    -0.0723913013
| 12>  C       -2.2738761956    -0.1137938574     0.9416308466
| 13>  O       -2.2578127018     0.8098423654     1.7228108116
| 14>  H       -0.6606212771     1.9441938408     0.8581433916
| 15>  H        0.9612988133    -0.0561430290    -0.2457698722
| 16>  H        0.4372816254     0.0302231187     1.4430232183
| 17>  H       -2.4104869406     0.1638713672    -1.7359959896
| 18>  H       -0.7160923493    -0.2239661446    -2.0870549351
| 19>  H       -2.8717047911    -2.2291756173    -1.1980870649
| 20>  H       -0.5374328973    -2.6414810034    -2.6899977152
| 21>  H        0.0481666501    -2.3407195839    -0.2615204547
| 22>  H       -1.3747934806    -2.6815868510     0.7447293097
| 23>  H       -3.1917729310    -0.7358370540     0.8347109522
| 24> *
| 25>
| 26>                          ****END OF INPUT****

CARTESIAN COORDINATES (ANGSTROEM)
---------------------------------
  O      0.000170    1.660568    0.213446
  C      0.144537    0.270071    0.408210
  C     -1.123052   -0.506954    0.052690
  C     -1.572756   -0.478018   -1.454769
  C     -1.817164   -2.006727   -1.386897
  O     -1.458073   -2.820488   -2.469910
  C     -0.994567   -2.063118   -0.072391
  C     -2.273876   -0.113794    0.941631
  O     -2.257813    0.809842    1.722811
  H     -0.660621    1.944194    0.858143
  H      0.961299   -0.056143   -0.245770
  H      0.437282    0.030223    1.443023
  H     -2.410487    0.163871   -1.735996
  H     -0.716092   -0.223966   -2.087055
  H     -2.871705   -2.229176   -1.198087
  H     -0.537433   -2.641481   -2.689998
  H      0.048167   -2.340720   -0.261520
  H     -1.374793   -2.681587    0.744729
  H     -3.191773   -0.735837    0.834711

 Total Charge           Charge          ....    0
 Multiplicity           Mult            ....    1
 Number of Electrons    NEL             ....   70
 Basis Dimension        Dim             ....  339

ORBITAL ENERGIES
----------------

  NO   OCC          E(Eh)            E(eV)
   0   2.0000     -20.573344      -559.8292
   1   2.0000     -20.572971      -559.8190
   2   2.0000     -20.551349      -559.2306
   3   2.0000     -11.347621      -308.7845
   4   2.0000     -11.301227      -307.5220
   5   2.0000     -11.284558      -307.0684
   6   2.0000     -11.262294      -306.4626
   7   2.0000     -11.251292      -306.1632
   8   2.0000     -11.248010      -306.0739
   9   2.0000      -1.413557       -38.4648
  10   2.0000      -1.382525       -37.6204
  11   2.0000      -1.359374       -36.9905
  12   2.0000      -1.160161       -31.5696
  13   2.0000      -0.986764       -26.8512
  14   2.0000      -0.933514       -25.4022
  15   2.0000      -0.902069       -24.5465
  16   2.0000      -0.841276       -22.8923
  17   2.0000      -0.770352       -20.9624
  18   2.0000      -0.706839       -19.2341
  19   2.0000      -0.684401       -18.6235
  20   2.0000      -0.683141       -18.5892
  21   2.0000      -0.670190       -18.2368
  22   2.0000      -0.631310       -17.1788
  23   2.0000      -0.613787       -16.7020
  24   2.0000      -0.595598       -16.2070
  25   2.0000      -0.587100       -15.9758
  26   2.0000      -0.575994       -15.6736
  27   2.0000      -0.555425       -15.1139
  28   2.0000      -0.538572       -14.6553
  29   2.0000      -0.514208       -13.9923
  30   2.0000      -0.488544       -13.2940
  31   2.0000      -0.468676       -12.7533
  32   2.0000      -0.439786       -11.9672
  33   2.0000      -0.431021       -11.7287
  34   2.0000      -0.424149       -11.5417
  35   0.0000       0.113952         3.1008
  36   0.0000       0.120151         3.2695
  37   0.0000       0.138354         3.7648
  38   0.0000       0.157305         4.2805
  39   0.0000       0.170993         4.6530

MULLIKEN ATOMIC CHARGES
-----------------------
   0 O :   -0.481972
   1 C :   -0.027503
   2 C :    0.120922
   3 C :   -0.252852
   4 C :    0.011989
   5 O :   -0.444795
   6 C :   -0.275988
   7 C :    0.038596
   8 O :   -0.302012
   9 H :    0.334494
  10 H :    0.101772
  11 H :    0.115979
  12 H :    0.138095
  13 H :    0.131614
  14 H :    0.110387
  15 H :    0.313262
  16 H :    0.125086
  17 H :    0.139568
  18 H :    0.103358
Sum of atomic charges:   -0.0000000

LOEWDIN ATOMIC CHARGES
----------------------
   0 O :   -0.036603
   1 C :   -0.315368
   2 C :   -0.263030
   3 C :   -0.172856
   4 C :   -0.336720
   5 O :   -0.008830
   6 C :   -0.179181
   7 C :   -0.248309
   8 O :    0.124405
   9 H :    0.176714
  10 H :    0.130444
  11 H :    0.126925
  12 H :    0.134709
  13 H :    0.146798
  14 H :    0.143947
  15 H :    0.175440
  16 H :    0.143717
  17 H :    0.133114
  18 H :    0.124685

  Mayer bond orders larger than 0.1
B(  0-O ,  1-C ) :   0.9490 B(  0-O ,  9-H ) :   0.8237 B(  1-C ,  2-C ) :   0.8856
B(  1-C , 10-H ) :   0.9194 B(  1-C , 11-H ) :   0.9382 B(  2-C ,  3-C ) :   0.8541
B(  2-C ,  6-C ) :   0.8586 B(  2-C ,  7-C ) :   0.8598 B(  3-C ,  4-C ) :   0.9111
B(  3-C , 12-H ) :   0.9293 B(  3-C , 13-H ) :   0.9124 B(  4-C ,  5-O ) :   0.9875
B(  4-C ,  6-C ) :   0.9093 B(  4-C , 14-H ) :   0.9392 B(  5-O , 15-H ) :   0.8383
B(  6-C , 16-H ) :   0.9110 B(  6-C , 17-H ) :   0.9265 B(  7-C ,  8-O ) :   1.9179
B(  7-C , 18-H ) :   0.9510

MP2 TOTAL ENERGY:     -459.424960270 Eh
FINAL SINGLE POINT ENERGY      -459.424960269828

DIPOLE MOMENT
-------------
                                X             Y             Z
Electronic contribution:     -1.80142       2.18918       1.72989
Nuclear contribution   :      1.96925      -2.92611      -1.82750
                        -----------------------------------------
Total Dipole Moment    :      0.16783      -0.73693      -0.09760
                        -----------------------------------------
Magnitude (a.u.)       :      0.76207
Magnitude (Debye)      :      1.93704

                             ****ORCA TERMINATED NORMALLY****
TOTAL RUN TIME: 0 days 0 hours 17 minutes 16 seconds 818 msec
