                         Program Version 3.0.3 - RELEASE   -
|  1> ! RI-MP2 RIJK def2-TZVP def2-TZVP/C def2-TZVP/JK TIGHTSCF
|  2> % maxcore 2000
|  3> % mp2 density relaxed end
|  4> *xyz 0 1
|  5>  C       -0.0177112979     1.4985747486     0.1821377175
|  6>  N        1.3167950013     1.9495578410    -0.2594279715
|  7>  C        2.3353042175     1.1503079492    -0.6817975655
|  8>  N        2.3249660832    -0.1414765972    -0.7744608054
|  9>  C        1.1121288156    -0.6393491792    -0.3796168933
| 10>  C        0.0050723832     0.0091972836     0.0630193669
| 11>  N       -0.9911466198    -0.9059226461     0.3497529563
| 12>  C       -0.4417717985    -2.0468673381     0.0687210536
| 13>  O        0.8391771858    -1.9755687558    -0.3819231836
| 14>  H       -0.2078639272     1.8308841789     1.2143451661
| 15>  H       -0.7988832261     1.9546045244    -0.4454412230
| 16>  H        1.4924637488     2.9406322717    -0.2479751190
| 17>  H        3.2364887817     1.6913935022    -0.9623894377
| 18>  H       -0.8702628976    -3.0328333633     0.1477944787
| 19> *
| 20>
| 21>                          ****END OF INPUT****

CARTESIAN COORDINATES (ANGSTROEM)
---------------------------------
  C     -0.017711    1.498575    0.182138
  N      1.316795    1.949558   -0.259428
  C      2.335304    1.150308   -0.681798
  N      2.324966   -0.141477   -0.774461
  C      1.112129   -0.639349   -0.379617
  C      0.005072    0.009197    0.063019
  N     -0.991147   -0.905923    0.349753
  C     -0.441772   -2.046867    0.068721
  O      0.839177   -1.975569   -0.381923
  H     -0.207864    1.830884    1.214345
  H     -0.798883    1.954605   -0.445441
  H      1.492464    2.940632   -0.247975
  H      3.236489    1.691394   -0.962389
  H     -0.870263   -3.032833    0.147794

 Total Charge           Charge          ....    0
 Multiplicity           Mult            ....    1
 Number of Electrons    NEL             ....   64
 Basis Dimension        Dim             ....  309

ORBITAL ENERGIES
----------------

  NO   OCC          E(Eh)            E(eV)
   0   2.0000     -20.631866      -561.4216
   1   2.0000     -15.608465      -424.7279
   2   2.0000     -15.566364      -423.5823
   3   2.0000     -15.551337      -423.1734
   4   2.0000     -11.339471      -308.5627
   5   2.0000     -11.327090      -308.2258
   6   2.0000     -11.313168      -307.8470
   7   2.0000     -11.292464      -307.2836
   8   2.0000     -11.248385      -306.0841
   9   2.0000      -1.482989       -40.3542
  10   2.0000      -1.310029       -35.6477
  11   2.0000      -1.234228       -33.5851
  12   2.0000      -1.198850       -32.6224
  13   2.0000      -1.053145       -28.6575
  14   2.0000      -0.943160       -25.6647
  15   2.0000      -0.878275       -23.8991
  16   2.0000      -0.836179       -22.7536
  17   2.0000      -0.754589       -20.5334
  18   2.0000      -0.744092       -20.2478
  19   2.0000      -0.717087       -19.5129
  20   2.0000      -0.673332       -18.3223
  21   2.0000      -0.653814       -17.7912
  22   2.0000      -0.628371       -17.0988
  23   2.0000      -0.593226       -16.1425
  24   2.0000      -0.582008       -15.8372
  25   2.0000      -0.558336       -15.1931
  26   2.0000      -0.532241       -14.4830
  27   2.0000      -0.484622       -13.1872
  28   2.0000      -0.448505       -12.2044
  29   2.0000      -0.429883       -11.6977
  30   2.0000      -0.418635       -11.3916
  31   2.0000      -0.286919        -7.8075
  32   0.0000       0.115530         3.1437
  33   0.0000       0.118265         3.2181
  34   0.0000       0.160399         4.3647
  35   0.0000       0.171175         4.6579
  36   0.0000       0.181637         4.9426

MULLIKEN ATOMIC CHARGES
-----------------------
   0 C :   -0.091310
   1 N :   -0.310461
   2 C :    0.096826
   3 N :   -0.305165
   4 C :    0.219436
   5 C :   -0.041952
   6 N :   -0.279122
   7 C :    0.096211
   8 O :   -0.190796
   9 H :    0.130174
  10 H :    0.130167
  11 H :    0.244502
  12 H :    0.145677
  13 H :    0.155812
Sum of atomic charges:    0.0000000

LOEWDIN ATOMIC CHARGES
----------------------
   0 C :   -0.221223
   1 N :    0.107749
   2 C :   -0.298851
   3 N :    0.095913
   4 C :   -0.323089
   5 C :   -0.249157
   6 N :    0.115678
   7 C :   -0.314416
   8 O :    0.358943
   9 H :    0.134308
  10 H :    0.134303
  11 H :    0.188537
  12 H :    0.139341
  13 H :    0.131964

  Mayer bond orders larger than 0.1
B(  0-C ,  1-N ) :   0.8716 B(  0-C ,  5-C ) :   0.9611 B(  0-C ,  9-H ) :   0.9232
B(  0-C , 10-H ) :   0.9232 B(  1-N ,  2-C ) :   1.1838 B(  1-N , 11-H ) :   0.8745
B(  2-C ,  3-N ) :   1.6442 B(  2-C , 12-H ) :   0.9223 B(  3-N ,  4-C ) :   1.1625
B(  4-C ,  5-C ) :   1.5050 B(  4-C ,  8-O ) :   1.0483 B(  5-C ,  6-N ) :   1.2226
B(  6-N ,  7-C ) :   1.6243 B(  7-C ,  8-O ) :   1.0815 B(  7-C , 13-H ) :   0.9298

MP2 TOTAL ENERGY:     -432.181964902 Eh
FINAL SINGLE POINT ENERGY      -432.181964902311

DIPOLE MOMENT
-------------
                                X             Y             Z
Electronic contribution:      0.72215      -4.17386      -0.56828
Nuclear contribution   :     -0.72551       5.55994       0.67274
                        -----------------------------------------
Total Dipole Moment    :     -0.00336       1.38608       0.10445
                        -----------------------------------------
Magnitude (a.u.)       :      1.39001
Magnitude (Debye)      :      3.53313

                             ****ORCA TERMINATED NORMALLY****
TOTAL RUN TIME: 0 days 0 hours 16 minutes 9 seconds 69 msec
