                         Program Version 3.0.3 - RELEASE   -
|  1> ! RI-MP2 RIJK def2-TZVP def2-TZVP/C def2-TZVP/JK TIGHTSCF
|  2> % maxcore 2000
|  3> % mp2 density relaxed end
|  4> *xyz 0 1
|  5>  O        0.0740533375     1.3613789363    -0.0048079981
|  6>  C       -0.0077562505    -0.0346084956     0.0068314232
|  7>  C        0.3963342520    -0.6792947080     1.3570880848
|  8>  N       -0.5524929444     0.0934134271     2.2393630510
|  9>  C       -1.5830810047    -0.7895889856     1.6218086620
| 10>  C       -0.5945689560    -1.9371052064     1.3305428809
| 11>  N       -1.1892148436    -2.1235492463    -0.0013709090
| 12>  C       -1.4363963234    -0.6530585447     0.0481503026
| 13>  H       -0.1950812499     1.6259892397     0.8905065925
| 14>  H        0.5591040683    -0.4133147672    -0.8491910257
| 15>  H        1.4459087651    -0.7121925958     1.6440167508
| 16>  H       -0.4250653215    -0.1958044868     3.2074864973
| 17>  H       -2.5694214137    -0.8812883757     2.0703085628
| 18>  H       -0.3972180347    -2.7998942233     1.9679380286
| 19>  H       -0.5391898773    -2.4051417170    -0.7361752582
| 20>  H       -2.2045927733    -0.2329496707    -0.5990877857
| 21> *
| 22>
| 23>                          ****END OF INPUT****

CARTESIAN COORDINATES (ANGSTROEM)
---------------------------------
  O      0.074053    1.361379   -0.004808
  C     -0.007756   -0.034608    0.006831
  C      0.396334   -0.679295    1.357088
  N     -0.552493    0.093413    2.239363
  C     -1.583081   -0.789589    1.621809
  C     -0.594569   -1.937105    1.330543
  N     -1.189215   -2.123549   -0.001371
  C     -1.436396   -0.653059    0.048150
  H     -0.195081    1.625989    0.890507
  H      0.559104   -0.413315   -0.849191
  H      1.445909   -0.712193    1.644017
  H     -0.425065   -0.195804    3.207486
  H     -2.569421   -0.881288    2.070309
  H     -0.397218   -2.799894    1.967938
  H     -0.539190   -2.405142   -0.736175
  H     -2.204593   -0.232950   -0.599088

 Total Charge           Charge          ....    0
 Multiplicity           Mult            ....    1
 Number of Electrons    NEL             ....   60
 Basis Dimension        Dim             ....  296

ORBITAL ENERGIES
----------------

  NO   OCC          E(Eh)            E(eV)
   0   2.0000     -20.544885      -559.0547
   1   2.0000     -15.562496      -423.4771
   2   2.0000     -15.556279      -423.3079
   3   2.0000     -11.281985      -306.9984
   4   2.0000     -11.273084      -306.7562
   5   2.0000     -11.272194      -306.7320
   6   2.0000     -11.270819      -306.6946
   7   2.0000     -11.265844      -306.5592
   8   2.0000      -1.366965       -37.1970
   9   2.0000      -1.301657       -35.4199
  10   2.0000      -1.191871       -32.4325
  11   2.0000      -0.986186       -26.8355
  12   2.0000      -0.939773       -25.5725
  13   2.0000      -0.929760       -25.3001
  14   2.0000      -0.792414       -21.5627
  15   2.0000      -0.746328       -20.3086
  16   2.0000      -0.725281       -19.7359
  17   2.0000      -0.684679       -18.6311
  18   2.0000      -0.658279       -17.9127
  19   2.0000      -0.648411       -17.6442
  20   2.0000      -0.578282       -15.7359
  21   2.0000      -0.560036       -15.2393
  22   2.0000      -0.528871       -14.3913
  23   2.0000      -0.511126       -13.9085
  24   2.0000      -0.503726       -13.7071
  25   2.0000      -0.483392       -13.1538
  26   2.0000      -0.462678       -12.5901
  27   2.0000      -0.441485       -12.0134
  28   2.0000      -0.399379       -10.8677
  29   2.0000      -0.363521        -9.8919
  30   0.0000       0.134381         3.6567
  31   0.0000       0.140917         3.8345
  32   0.0000       0.174720         4.7544
  33   0.0000       0.178332         4.8527
  34   0.0000       0.190280         5.1778

MULLIKEN ATOMIC CHARGES
-----------------------
   0 O :   -0.471298
   1 C :    0.024790
   2 C :    0.012302
   3 N :   -0.413919
   4 C :   -0.039088
   5 C :   -0.143349
   6 N :   -0.305701
   7 C :   -0.053378
   8 H :    0.336011
   9 H :    0.104791
  10 H :    0.138466
  11 H :    0.210652
  12 H :    0.136341
  13 H :    0.124726
  14 H :    0.202318
  15 H :    0.136335
Sum of atomic charges:   -0.0000000

LOEWDIN ATOMIC CHARGES
----------------------
   0 O :   -0.008163
   1 C :   -0.322621
   2 C :   -0.217891
   3 N :   -0.013998
   4 C :   -0.201165
   5 C :   -0.224458
   6 N :    0.027192
   7 C :   -0.205407
   8 H :    0.179311
   9 H :    0.139087
  10 H :    0.129255
  11 H :    0.169047
  12 H :    0.131966
  13 H :    0.128677
  14 H :    0.156412
  15 H :    0.132755

  Mayer bond orders larger than 0.1
B(  0-O ,  1-C ) :   1.0181 B(  0-O ,  8-H ) :   0.7984 B(  1-C ,  2-C ) :   0.9258
B(  1-C ,  7-C ) :   0.8772 B(  1-C ,  9-H ) :   0.9711 B(  2-C ,  3-N ) :   0.8832
B(  2-C ,  5-C ) :   0.8466 B(  2-C , 10-H ) :   0.9135 B(  3-N ,  4-C ) :   0.8846
B(  3-N , 11-H ) :   0.8709 B(  4-C ,  5-C ) :   0.9133 B(  4-C ,  7-C ) :   0.8449
B(  4-C , 12-H ) :   0.9011 B(  5-C ,  6-N ) :   0.9762 B(  5-C , 13-H ) :   0.9258
B(  6-N ,  7-C ) :   0.9614 B(  6-N , 14-H ) :   0.8743 B(  7-C , 15-H ) :   0.9142

MP2 TOTAL ENERGY:     -379.230791993 Eh
FINAL SINGLE POINT ENERGY      -379.230791993372

DIPOLE MOMENT
-------------
                                X             Y             Z
Electronic contribution:     -0.16842       0.78165      -0.35337
Nuclear contribution   :      0.38718      -1.47723       1.00316
                        -----------------------------------------
Total Dipole Moment    :      0.21875      -0.69558       0.64979
                        -----------------------------------------
Magnitude (a.u.)       :      0.97668
Magnitude (Debye)      :      2.48253

                             ****ORCA TERMINATED NORMALLY****
TOTAL RUN TIME: 0 days 0 hours 11 minutes 41 seconds 173 msec
