                         Program Version 3.0.3 - RELEASE   -
|  1> ! RI-MP2 RIJK def2-TZVP def2-TZVP/C def2-TZVP/JK TIGHTSCF
|  2> % maxcore 2000
|  3> % mp2 density relaxed end
|  4> *xyz 0 1
|  5>  C        0.1313779704     1.5686471542     0.0178646868
|  6>  C       -0.0180085512     0.0789785072     0.0787754545
|  7>  C       -1.3398954701    -0.7074352705    -0.0274996985
|  8>  C       -0.7659940586    -1.7607001963     0.9669628549
|  9>  C       -1.5061495889    -2.1040488920     2.2754169459
| 10>  O       -1.3615276638    -3.5180616720     2.0403879432
| 11>  C       -0.7678770822    -3.2878967433     0.7463364835
| 12>  C        0.5338017223    -0.9534069485     1.0263916170
| 13>  N        1.1054867174    -0.7700460876    -0.3068058940
| 14>  H        1.1508361899     1.8597628476     0.2834586876
| 15>  H       -0.0711614756     1.9402061143    -0.9938238689
| 16>  H       -0.5661503707     2.0642760344     0.7014393378
| 17>  H       -2.1988608211    -0.1775024123     0.3955168828
| 18>  H       -1.6064073926    -1.0581748846    -1.0316296718
| 19>  H       -1.0154562668    -1.7871833533     3.2050534785
| 20>  H       -2.5606969772    -1.7967435728     2.3069461146
| 21>  H       -1.4167752089    -3.6400036796    -0.0675645266
| 22>  H        0.2165724560    -3.7641945609     0.6507158721
| 23>  H        1.1899392215    -0.8559142351     1.8858097452
| 24>  H        0.8504208103    -1.5157312388    -0.9532866148
| 25> *
| 26>
| 27>                          ****END OF INPUT****

CARTESIAN COORDINATES (ANGSTROEM)
---------------------------------
  C      0.131378    1.568647    0.017865
  C     -0.018009    0.078979    0.078775
  C     -1.339895   -0.707435   -0.027500
  C     -0.765994   -1.760700    0.966963
  C     -1.506150   -2.104049    2.275417
  O     -1.361528   -3.518062    2.040388
  C     -0.767877   -3.287897    0.746336
  C      0.533802   -0.953407    1.026392
  N      1.105487   -0.770046   -0.306806
  H      1.150836    1.859763    0.283459
  H     -0.071161    1.940206   -0.993824
  H     -0.566150    2.064276    0.701439
  H     -2.198861   -0.177502    0.395517
  H     -1.606407   -1.058175   -1.031630
  H     -1.015456   -1.787183    3.205053
  H     -2.560697   -1.796744    2.306946
  H     -1.416775   -3.640004   -0.067565
  H      0.216572   -3.764195    0.650716
  H      1.189939   -0.855914    1.885810
  H      0.850421   -1.515731   -0.953287

 Total Charge           Charge          ....    0
 Multiplicity           Mult            ....    1
 Number of Electrons    NEL             ....   68
 Basis Dimension        Dim             ....  345

ORBITAL ENERGIES
----------------

  NO   OCC          E(Eh)            E(eV)
   0   2.0000     -20.549891      -559.1910
   1   2.0000     -15.560980      -423.4358
   2   2.0000     -11.281620      -306.9885
   3   2.0000     -11.279423      -306.9287
   4   2.0000     -11.271179      -306.7044
   5   2.0000     -11.260537      -306.4148
   6   2.0000     -11.249694      -306.1197
   7   2.0000     -11.238553      -305.8166
   8   2.0000     -11.223431      -305.4051
   9   2.0000      -1.380378       -37.5620
  10   2.0000      -1.289868       -35.0991
  11   2.0000      -1.064361       -28.9627
  12   2.0000      -1.001311       -27.2471
  13   2.0000      -0.938358       -25.5340
  14   2.0000      -0.929243       -25.2860
  15   2.0000      -0.877457       -23.8768
  16   2.0000      -0.771927       -21.0052
  17   2.0000      -0.729802       -19.8589
  18   2.0000      -0.696985       -18.9659
  19   2.0000      -0.675215       -18.3735
  20   2.0000      -0.638315       -17.3694
  21   2.0000      -0.619458       -16.8563
  22   2.0000      -0.593821       -16.1587
  23   2.0000      -0.581678       -15.8283
  24   2.0000      -0.569086       -15.4856
  25   2.0000      -0.556740       -15.1497
  26   2.0000      -0.538976       -14.6663
  27   2.0000      -0.500802       -13.6275
  28   2.0000      -0.483264       -13.1503
  29   2.0000      -0.451823       -12.2947
  30   2.0000      -0.437292       -11.8993
  31   2.0000      -0.433778       -11.8037
  32   2.0000      -0.406349       -11.0573
  33   2.0000      -0.383384       -10.4324
  34   0.0000       0.129783         3.5316
  35   0.0000       0.149424         4.0660
  36   0.0000       0.152662         4.1541
  37   0.0000       0.172955         4.7064
  38   0.0000       0.184523         5.0211

MULLIKEN ATOMIC CHARGES
-----------------------
   0 C :   -0.410722
   1 C :    0.118058
   2 C :   -0.234322
   3 C :    0.048138
   4 C :   -0.042079
   5 O :   -0.328180
   6 C :   -0.027068
   7 C :   -0.163409
   8 N :   -0.334231
   9 H :    0.146376
  10 H :    0.131422
  11 H :    0.126004
  12 H :    0.121541
  13 H :    0.119272
  14 H :    0.097268
  15 H :    0.091321
  16 H :    0.092713
  17 H :    0.102621
  18 H :    0.133850
  19 H :    0.211426
Sum of atomic charges:    0.0000000

LOEWDIN ATOMIC CHARGES
----------------------
   0 C :   -0.274452
   1 C :   -0.283465
   2 C :   -0.164557
   3 C :   -0.226079
   4 C :   -0.229935
   5 O :    0.112923
   6 C :   -0.239244
   7 C :   -0.187478
   8 N :    0.050945
   9 H :    0.135514
  10 H :    0.130296
  11 H :    0.127601
  12 H :    0.140647
  13 H :    0.130831
  14 H :    0.119977
  15 H :    0.118492
  16 H :    0.118112
  17 H :    0.120335
  18 H :    0.135723
  19 H :    0.163813

  Mayer bond orders larger than 0.1
B(  0-C ,  1-C ) :   0.8892 B(  0-C ,  9-H ) :   0.9406 B(  0-C , 10-H ) :   0.9342
B(  0-C , 11-H ) :   0.9419 B(  1-C ,  2-C ) :   0.9302 B(  1-C ,  7-C ) :   0.8628
B(  1-C ,  8-N ) :   0.9172 B(  2-C ,  3-C ) :   0.9151 B(  2-C , 12-H ) :   0.9131
B(  2-C , 13-H ) :   0.9050 B(  3-C ,  4-C ) :   0.9499 B(  3-C ,  6-C ) :   0.9598
B(  3-C ,  7-C ) :   0.8623 B(  4-C ,  5-O ) :   0.9671 B(  4-C , 14-H ) :   0.9069
B(  4-C , 15-H ) :   0.9051 B(  5-O ,  6-C ) :   0.9649 B(  6-C , 16-H ) :   0.9030
B(  6-C , 17-H ) :   0.9083 B(  7-C ,  8-N ) :   0.9603 B(  7-C , 18-H ) :   0.9223
B(  8-N , 19-H ) :   0.8634

MP2 TOTAL ENERGY:     -402.391299801 Eh
FINAL SINGLE POINT ENERGY      -402.391299800695

DIPOLE MOMENT
-------------
                                X             Y             Z
Electronic contribution:      0.55863      -4.58527       1.60868
Nuclear contribution   :     -0.94320       5.13015      -1.90132
                        -----------------------------------------
Total Dipole Moment    :     -0.38458       0.54488      -0.29263
                        -----------------------------------------
Magnitude (a.u.)       :      0.72830
Magnitude (Debye)      :      1.85120

                             ****ORCA TERMINATED NORMALLY****
TOTAL RUN TIME: 0 days 0 hours 17 minutes 37 seconds 944 msec
