                         Program Version 3.0.3 - RELEASE   -
|  1> ! RI-MP2 RIJK def2-TZVP def2-TZVP/C def2-TZVP/JK TIGHTSCF
|  2> % maxcore 2000
|  3> % mp2 density relaxed end
|  4> *xyz 0 1
|  5>  C        0.0512455644    -3.7533911719    -0.0187213715
|  6>  C        0.0274005202    -2.5455262263    -0.0116873061
|  7>  C        0.0002854457    -1.1882464678    -0.0037724452
|  8>  C       -0.0196739285     0.0237522384     0.0032382385
|  9>  C       -0.0108843008     1.4318576204     0.0109645518
| 10>  N       -1.1329941133     2.1762816541     0.0294180792
| 11>  N       -0.6679452163     3.4114049479     0.0303775863
| 12>  N        0.6514688287     3.5647615328     0.0144167349
| 13>  C        1.0967035945     2.3131834619     0.0017622489
| 14>  H        0.0721206697    -4.8149067062    -0.0249127145
| 15>  H       -1.2898385232     4.2046149695     0.0427290849
| 16>  H        2.1501075088     2.0872349272    -0.0129171072
| 17> *
| 18>
| 19>                          ****END OF INPUT****

CARTESIAN COORDINATES (ANGSTROEM)
---------------------------------
  C      0.051246   -3.753391   -0.018721
  C      0.027401   -2.545526   -0.011687
  C      0.000285   -1.188246   -0.003772
  C     -0.019674    0.023752    0.003238
  C     -0.010884    1.431858    0.010965
  N     -1.132994    2.176282    0.029418
  N     -0.667945    3.411405    0.030378
  N      0.651469    3.564762    0.014417
  C      1.096704    2.313183    0.001762
  H      0.072121   -4.814907   -0.024913
  H     -1.289839    4.204615    0.042729
  H      2.150108    2.087235   -0.012917

 Total Charge           Charge          ....    0
 Multiplicity           Mult            ....    1
 Number of Electrons    NEL             ....   60
 Basis Dimension        Dim             ....  297

ORBITAL ENERGIES
----------------

  NO   OCC          E(Eh)            E(eV)
   0   2.0000     -15.700061      -427.2204
   1   2.0000     -15.640215      -425.5919
   2   2.0000     -15.633139      -425.3993
   3   2.0000     -11.303178      -307.5751
   4   2.0000     -11.285358      -307.0902
   5   2.0000     -11.269024      -306.6457
   6   2.0000     -11.265824      -306.5586
   7   2.0000     -11.264838      -306.5318
   8   2.0000     -11.257554      -306.3336
   9   2.0000      -1.468024       -39.9470
  10   2.0000      -1.216460       -33.1016
  11   2.0000      -1.140899       -31.0454
  12   2.0000      -1.091186       -29.6927
  13   2.0000      -1.025720       -27.9112
  14   2.0000      -0.913655       -24.8618
  15   2.0000      -0.869798       -23.6684
  16   2.0000      -0.828924       -22.5562
  17   2.0000      -0.770942       -20.9784
  18   2.0000      -0.719869       -19.5886
  19   2.0000      -0.687721       -18.7138
  20   2.0000      -0.670228       -18.2378
  21   2.0000      -0.639648       -17.4057
  22   2.0000      -0.535432       -14.5698
  23   2.0000      -0.510236       -13.8842
  24   2.0000      -0.495966       -13.4959
  25   2.0000      -0.488157       -13.2834
  26   2.0000      -0.434015       -11.8102
  27   2.0000      -0.412721       -11.2307
  28   2.0000      -0.368283       -10.0215
  29   2.0000      -0.335606        -9.1323
  30   0.0000       0.076167         2.0726
  31   0.0000       0.103367         2.8127
  32   0.0000       0.128188         3.4882
  33   0.0000       0.131297         3.5728
  34   0.0000       0.148327         4.0362

MULLIKEN ATOMIC CHARGES
-----------------------
   0 C :   -0.133797
   1 C :   -0.005170
   2 C :    0.077662
   3 C :   -0.026166
   4 C :   -0.062207
   5 N :   -0.190444
   6 N :    0.000476
   7 N :   -0.162934
   8 C :   -0.123662
   9 H :    0.198133
  10 H :    0.273979
  11 H :    0.154131
Sum of atomic charges:    0.0000000

LOEWDIN ATOMIC CHARGES
----------------------
   0 C :   -0.034931
   1 C :   -0.094372
   2 C :   -0.030130
   3 C :    0.013338
   4 C :   -0.278272
   5 N :    0.066835
   6 N :    0.076703
   7 N :    0.036091
   8 C :   -0.224159
   9 H :    0.131655
  10 H :    0.193161
  11 H :    0.144081

  Mayer bond orders larger than 0.1
B(  0-C ,  1-C ) :   2.5324 B(  0-C ,  3-C ) :   0.1252 B(  0-C ,  9-H ) :   0.8823
B(  1-C ,  2-C ) :   1.2876 B(  1-C ,  4-C ) :   0.1019 B(  2-C ,  3-C ) :   2.5644
B(  2-C ,  4-C ) :  -0.1999 B(  3-C ,  4-C ) :   1.1061 B(  4-C ,  5-N ) :   1.4140
B(  4-C ,  8-C ) :   1.3197 B(  5-N ,  6-N ) :   1.1617 B(  6-N ,  7-N ) :   1.1448
B(  6-N , 10-H ) :   0.8724 B(  7-N ,  8-C ) :   1.4985 B(  8-C , 11-H ) :   0.9272

MP2 TOTAL ENERGY:     -393.768551263 Eh
FINAL SINGLE POINT ENERGY      -393.768551263107

DIPOLE MOMENT
-------------
                                X             Y             Z
Electronic contribution:     -0.86221       0.78248       0.01535
Nuclear contribution   :      0.90244      -0.61939      -0.01495
                        -----------------------------------------
Total Dipole Moment    :      0.04023       0.16310       0.00040
                        -----------------------------------------
Magnitude (a.u.)       :      0.16799
Magnitude (Debye)      :      0.42699

                             ****ORCA TERMINATED NORMALLY****
TOTAL RUN TIME: 0 days 0 hours 12 minutes 12 seconds 939 msec
