                         Program Version 3.0.3 - RELEASE   -
|  1> ! RI-MP2 RIJK def2-TZVP def2-TZVP/C def2-TZVP/JK TIGHTSCF
|  2> % maxcore 2000
|  3> % mp2 density relaxed end
|  4> *xyz 0 1
|  5>  C       -0.0535198912     1.5028096418     0.0247939867
|  6>  C       -0.0016924785     0.0150560203    -0.0403964628
|  7>  C       -0.0268614326    -0.8294110393    -1.0745868837
|  8>  C        0.0486684434    -2.2087045431    -0.4258718244
|  9>  O       -0.0251360263    -3.3572306143    -1.2105034886
| 10>  C       -0.8269965475    -2.1653160568     0.8705444170
| 11>  C        0.1871025920    -3.0842015034     1.5953561856
| 12>  C        1.0601066198    -2.0940235279     0.7883056775
| 13>  C        0.0890426594    -0.9199464350     1.1656658059
| 14>  H        0.8357040755     1.9129618894     0.5211416190
| 15>  H       -0.1193865249     1.9467147678    -0.9724614909
| 16>  H       -0.9180107743     1.8472428663     0.6071392927
| 17>  H       -0.1041682310    -0.6299019835    -2.1350906261
| 18>  H        0.7097716140    -3.3456438142    -1.8324819666
| 19>  H       -1.9191644203    -2.1897533111     0.9087784177
| 20>  H        0.2318082788    -2.9990277791     2.6844481123
| 21>  H        0.2097159006    -4.1265086960     1.2734368020
| 22>  H        2.1510617911    -2.0358383475     0.7290814189
| 23>  H        0.1179375620    -0.5101746643     2.1755856376
| 24> *
| 25>
| 26>                          ****END OF INPUT****

CARTESIAN COORDINATES (ANGSTROEM)
---------------------------------
  C     -0.053520    1.502810    0.024794
  C     -0.001692    0.015056   -0.040396
  C     -0.026861   -0.829411   -1.074587
  C      0.048668   -2.208705   -0.425872
  O     -0.025136   -3.357231   -1.210503
  C     -0.826997   -2.165316    0.870544
  C      0.187103   -3.084202    1.595356
  C      1.060107   -2.094024    0.788306
  C      0.089043   -0.919946    1.165666
  H      0.835704    1.912962    0.521142
  H     -0.119387    1.946715   -0.972461
  H     -0.918011    1.847243    0.607139
  H     -0.104168   -0.629902   -2.135091
  H      0.709772   -3.345644   -1.832482
  H     -1.919164   -2.189753    0.908778
  H      0.231808   -2.999028    2.684448
  H      0.209716   -4.126509    1.273437
  H      2.151062   -2.035838    0.729081
  H      0.117938   -0.510175    2.175586

 Total Charge           Charge          ....    0
 Multiplicity           Mult            ....    1
 Number of Electrons    NEL             ....   66
 Basis Dimension        Dim             ....  339

ORBITAL ENERGIES
----------------

  NO   OCC          E(Eh)            E(eV)
   0   2.0000     -20.560894      -559.4904
   1   2.0000     -11.290911      -307.2413
   2   2.0000     -11.238962      -305.8277
   3   2.0000     -11.238519      -305.8157
   4   2.0000     -11.236841      -305.7700
   5   2.0000     -11.231972      -305.6375
   6   2.0000     -11.226201      -305.4805
   7   2.0000     -11.219763      -305.3053
   8   2.0000     -11.212220      -305.1000
   9   2.0000      -1.374107       -37.3913
  10   2.0000      -1.219949       -33.1965
  11   2.0000      -1.070765       -29.1370
  12   2.0000      -0.967928       -26.3387
  13   2.0000      -0.895945       -24.3799
  14   2.0000      -0.860383       -23.4122
  15   2.0000      -0.852034       -23.1850
  16   2.0000      -0.736491       -20.0409
  17   2.0000      -0.721299       -19.6275
  18   2.0000      -0.680325       -18.5126
  19   2.0000      -0.664233       -18.0747
  20   2.0000      -0.617155       -16.7936
  21   2.0000      -0.590087       -16.0571
  22   2.0000      -0.576294       -15.6818
  23   2.0000      -0.572431       -15.5767
  24   2.0000      -0.542863       -14.7720
  25   2.0000      -0.518424       -14.1070
  26   2.0000      -0.495191       -13.4748
  27   2.0000      -0.493469       -13.4280
  28   2.0000      -0.442307       -12.0358
  29   2.0000      -0.439620       -11.9627
  30   2.0000      -0.432075       -11.7574
  31   2.0000      -0.408697       -11.1212
  32   2.0000      -0.317775        -8.6471
  33   0.0000       0.138137         3.7589
  34   0.0000       0.141635         3.8541
  35   0.0000       0.151400         4.1198
  36   0.0000       0.167134         4.5480
  37   0.0000       0.181713         4.9447

MULLIKEN ATOMIC CHARGES
-----------------------
   0 C :   -0.461726
   1 C :   -0.003205
   2 C :   -0.261245
   3 C :    0.239965
   4 O :   -0.466897
   5 C :   -0.080724
   6 C :   -0.237337
   7 C :   -0.112829
   8 C :   -0.102388
   9 H :    0.141757
  10 H :    0.141839
  11 H :    0.142876
  12 H :    0.131004
  13 H :    0.324300
  14 H :    0.119376
  15 H :    0.112584
  16 H :    0.124796
  17 H :    0.122779
  18 H :    0.125075
Sum of atomic charges:   -0.0000000

LOEWDIN ATOMIC CHARGES
----------------------
   0 C :   -0.276938
   1 C :   -0.157440
   2 C :   -0.111186
   3 C :   -0.295214
   4 O :    0.026443
   5 C :   -0.106453
   6 C :   -0.204455
   7 C :   -0.119952
   8 C :   -0.119117
   9 H :    0.132186
  10 H :    0.131519
  11 H :    0.132594
  12 H :    0.135204
  13 H :    0.183502
  14 H :    0.127553
  15 H :    0.126271
  16 H :    0.130550
  17 H :    0.123609
  18 H :    0.141324

  Mayer bond orders larger than 0.1
B(  0-C ,  1-C ) :   0.8483 B(  0-C ,  9-H ) :   0.9373 B(  0-C , 10-H ) :   0.9584
B(  0-C , 11-H ) :   0.9355 B(  1-C ,  2-C ) :   1.7141 B(  1-C ,  8-C ) :   0.9002
B(  2-C ,  3-C ) :   0.9382 B(  2-C , 12-H ) :   0.9249 B(  3-C ,  4-O ) :   1.0843
B(  3-C ,  5-C ) :   0.8977 B(  3-C ,  7-C ) :   0.8656 B(  4-O , 13-H ) :   0.8372
B(  5-C ,  6-C ) :   0.9346 B(  5-C ,  8-C ) :   0.8823 B(  5-C , 14-H ) :   0.8856
B(  6-C ,  7-C ) :   0.9248 B(  6-C , 15-H ) :   0.9319 B(  6-C , 16-H ) :   0.9161
B(  7-C ,  8-C ) :   0.8615 B(  7-C , 17-H ) :   0.8745 B(  8-C , 18-H ) :   0.9103

MP2 TOTAL ENERGY:     -385.164077279 Eh
FINAL SINGLE POINT ENERGY      -385.164077279344

DIPOLE MOMENT
-------------
                                X             Y             Z
Electronic contribution:     -0.19491      -3.93997      -2.22607
Nuclear contribution   :      0.61966       4.40194       2.19686
                        -----------------------------------------
Total Dipole Moment    :      0.42474       0.46197      -0.02920
                        -----------------------------------------
Magnitude (a.u.)       :      0.62823
Magnitude (Debye)      :      1.59684

                             ****ORCA TERMINATED NORMALLY****
TOTAL RUN TIME: 0 days 0 hours 19 minutes 1 seconds 610 msec
