                         Program Version 3.0.3 - RELEASE   -
|  1> ! RI-MP2 RIJK def2-TZVP def2-TZVP/C def2-TZVP/JK TIGHTSCF
|  2> % maxcore 2000
|  3> % mp2 density relaxed end
|  4> *xyz 0 1
|  5>  C        0.0420261855     1.4933047983    -0.1307096955
|  6>  C        0.0244738265    -0.0000913524     0.0324988579
|  7>  O        0.4390540894    -0.6419271452    -1.1966916939
|  8>  C        0.3698740431    -1.9792914689    -0.8858250326
|  9>  N        0.6388857729    -2.9510426230    -1.6427925100
| 10>  C       -0.0919725463    -1.9804599875     0.5359356111
| 11>  C        0.6498977386    -0.7804369233     1.2325712460
| 12>  C       -0.6240531248    -0.5062707197     2.0659308082
| 13>  C       -1.1523355621    -0.8233082617     0.6471288412
| 14>  H        1.0488826372     1.8361827885    -0.3863393398
| 15>  H       -0.6337726201     1.7957295623    -0.9360031633
| 16>  H       -0.2704800628     1.9928536579     0.7891631095
| 17>  H        0.9301673040    -2.6171453333    -2.5638491598
| 18>  H       -0.2353927747    -2.9284168984     1.0468435700
| 19>  H        1.6921807522    -0.7665023820     1.5539330407
| 20>  H       -0.8561312748    -1.2463110819     2.8345260000
| 21>  H       -0.7718043069     0.5069175169     2.4466042645
| 22>  H       -2.1840406369    -0.8587339165     0.2947816358
| 23> *
| 24>
| 25>                          ****END OF INPUT****

CARTESIAN COORDINATES (ANGSTROEM)
---------------------------------
  C      0.042026    1.493305   -0.130710
  C      0.024474   -0.000091    0.032499
  O      0.439054   -0.641927   -1.196692
  C      0.369874   -1.979291   -0.885825
  N      0.638886   -2.951043   -1.642793
  C     -0.091973   -1.980460    0.535936
  C      0.649898   -0.780437    1.232571
  C     -0.624053   -0.506271    2.065931
  C     -1.152336   -0.823308    0.647129
  H      1.048883    1.836183   -0.386339
  H     -0.633773    1.795730   -0.936003
  H     -0.270480    1.992854    0.789163
  H      0.930167   -2.617145   -2.563849
  H     -0.235393   -2.928417    1.046844
  H      1.692181   -0.766502    1.553933
  H     -0.856131   -1.246311    2.834526
  H     -0.771804    0.506918    2.446604
  H     -2.184041   -0.858734    0.294782

 Total Charge           Charge          ....    0
 Multiplicity           Mult            ....    1
 Number of Electrons    NEL             ....   66
 Basis Dimension        Dim             ....  333

ORBITAL ENERGIES
----------------

  NO   OCC          E(Eh)            E(eV)
   0   2.0000     -20.585622      -560.1633
   1   2.0000     -15.529729      -422.5854
   2   2.0000     -11.328715      -308.2700
   3   2.0000     -11.313440      -307.8544
   4   2.0000     -11.262301      -306.4628
   5   2.0000     -11.262230      -306.4609
   6   2.0000     -11.256841      -306.3142
   7   2.0000     -11.247306      -306.0548
   8   2.0000     -11.232820      -305.6606
   9   2.0000      -1.433011       -38.9942
  10   2.0000      -1.219995       -33.1978
  11   2.0000      -1.188337       -32.3363
  12   2.0000      -1.023530       -27.8517
  13   2.0000      -0.952051       -25.9066
  14   2.0000      -0.885041       -24.0832
  15   2.0000      -0.868715       -23.6389
  16   2.0000      -0.774745       -21.0819
  17   2.0000      -0.753368       -20.5002
  18   2.0000      -0.699443       -19.0328
  19   2.0000      -0.673864       -18.3368
  20   2.0000      -0.634980       -17.2787
  21   2.0000      -0.631727       -17.1902
  22   2.0000      -0.587013       -15.9734
  23   2.0000      -0.576439       -15.6857
  24   2.0000      -0.557436       -15.1686
  25   2.0000      -0.523786       -14.2529
  26   2.0000      -0.507561       -13.8114
  27   2.0000      -0.483338       -13.1523
  28   2.0000      -0.470920       -12.8144
  29   2.0000      -0.464640       -12.6435
  30   2.0000      -0.444361       -12.0917
  31   2.0000      -0.422003       -11.4833
  32   2.0000      -0.384303       -10.4574
  33   0.0000       0.137601         3.7443
  34   0.0000       0.154484         4.2037
  35   0.0000       0.158393         4.3101
  36   0.0000       0.166452         4.5294
  37   0.0000       0.184978         5.0335

MULLIKEN ATOMIC CHARGES
-----------------------
   0 C :   -0.430593
   1 C :    0.214992
   2 O :   -0.278006
   3 C :    0.072324
   4 N :   -0.359392
   5 C :   -0.067405
   6 C :   -0.118476
   7 C :   -0.234009
   8 C :   -0.118550
   9 H :    0.146910
  10 H :    0.146954
  11 H :    0.136433
  12 H :    0.224439
  13 H :    0.138250
  14 H :    0.140500
  15 H :    0.123516
  16 H :    0.121615
  17 H :    0.140497
Sum of atomic charges:    0.0000000

LOEWDIN ATOMIC CHARGES
----------------------
   0 C :   -0.261159
   1 C :   -0.266043
   2 O :    0.257205
   3 C :   -0.382056
   4 N :   -0.054847
   5 C :   -0.120799
   6 C :   -0.113771
   7 C :   -0.192934
   8 C :   -0.113772
   9 H :    0.135493
  10 H :    0.135512
  11 H :    0.133616
  12 H :    0.169404
  13 H :    0.151547
  14 H :    0.131568
  15 H :    0.133215
  16 H :    0.126255
  17 H :    0.131568

  Mayer bond orders larger than 0.1
B(  0-C ,  1-C ) :   0.8893 B(  0-C ,  9-H ) :   0.9365 B(  0-C , 10-H ) :   0.9365
B(  0-C , 11-H ) :   0.9376 B(  1-C ,  2-O ) :   0.8814 B(  1-C ,  6-C ) :   0.8597
B(  1-C ,  8-C ) :   0.8597 B(  2-O ,  3-C ) :   1.0896 B(  3-C ,  4-N ) :   2.1022
B(  3-C ,  5-C ) :   0.9460 B(  4-N , 12-H ) :   0.8548 B(  5-C ,  6-C ) :   0.8583
B(  5-C ,  8-C ) :   0.8583 B(  5-C , 13-H ) :   0.9283 B(  6-C ,  7-C ) :   0.9145
B(  6-C , 14-H ) :   0.8903 B(  7-C ,  8-C ) :   0.9145 B(  7-C , 15-H ) :   0.9227
B(  7-C , 16-H ) :   0.9304 B(  8-C , 17-H ) :   0.8903

MP2 TOTAL ENERGY:     -401.237043827 Eh
FINAL SINGLE POINT ENERGY      -401.237043827275

DIPOLE MOMENT
-------------
                                X             Y             Z
Electronic contribution:      1.27892      -4.31339      -3.62136
Nuclear contribution   :     -1.55471       5.31282       4.39712
                        -----------------------------------------
Total Dipole Moment    :     -0.27579       0.99943       0.77577
                        -----------------------------------------
Magnitude (a.u.)       :      1.29489
Magnitude (Debye)      :      3.29134

                             ****ORCA TERMINATED NORMALLY****
TOTAL RUN TIME: 0 days 0 hours 18 minutes 43 seconds 233 msec
