                         Program Version 3.0.3 - RELEASE   -
|  1> ! RI-MP2 RIJK def2-TZVP def2-TZVP/C def2-TZVP/JK TIGHTSCF
|  2> % maxcore 2000
|  3> % mp2 density relaxed end
|  4> *xyz 0 1
|  5>  C       -0.0436617205     1.5221861388    -0.0349228850
|  6>  C        0.0123684726     0.0163883668     0.0242459982
|  7>  C       -1.2543238276    -0.7705615505    -0.2879352567
|  8>  O       -1.1679070417    -2.0146408523     0.4298442492
|  9>  C       -0.2113217883    -1.9459746581     1.4244285808
| 10>  O       -0.1565523120    -2.7574704577     2.2991217578
| 11>  C        0.6717398836    -0.7780971419     1.1564343649
| 12>  C        1.2619734711    -0.7541097541    -0.2529775730
| 13>  O        1.3360420122    -1.8618494138    -1.0892752687
| 14>  H        0.9228814049     1.9619219586     0.2277596295
| 15>  H       -0.2984415668     1.8650538548    -1.0441741268
| 16>  H       -0.7935191740     1.9219942912     0.6568321627
| 17>  H       -2.1497566328    -0.2343176992     0.0461455412
| 18>  H       -1.3592149444    -1.0030799628    -1.3525713056
| 19>  H        1.2122933356    -0.3478131129     1.9889261877
| 20>  H        2.1746036132    -0.1736156990    -0.3416025561
| 21>  H        0.5895570350    -2.4491926380    -0.9175831402
| 22> *
| 23>
| 24>                          ****END OF INPUT****

CARTESIAN COORDINATES (ANGSTROEM)
---------------------------------
  C     -0.043662    1.522186   -0.034923
  C      0.012368    0.016388    0.024246
  C     -1.254324   -0.770562   -0.287935
  O     -1.167907   -2.014641    0.429844
  C     -0.211322   -1.945975    1.424429
  O     -0.156552   -2.757470    2.299122
  C      0.671740   -0.778097    1.156434
  C      1.261973   -0.754110   -0.252978
  O      1.336042   -1.861849   -1.089275
  H      0.922881    1.961922    0.227760
  H     -0.298442    1.865054   -1.044174
  H     -0.793519    1.921994    0.656832
  H     -2.149757   -0.234318    0.046146
  H     -1.359215   -1.003080   -1.352571
  H      1.212293   -0.347813    1.988926
  H      2.174604   -0.173616   -0.341603
  H      0.589557   -2.449193   -0.917583

 Total Charge           Charge          ....    0
 Multiplicity           Mult            ....    1
 Number of Electrons    NEL             ....   68
 Basis Dimension        Dim             ....  327

ORBITAL ENERGIES
----------------

  NO   OCC          E(Eh)            E(eV)
   0   2.0000     -20.610139      -560.8304
   1   2.0000     -20.582933      -560.0901
   2   2.0000     -20.549923      -559.1918
   3   2.0000     -11.388185      -309.8883
   4   2.0000     -11.319118      -308.0089
   5   2.0000     -11.314097      -307.8722
   6   2.0000     -11.274991      -306.8081
   7   2.0000     -11.263944      -306.5075
   8   2.0000     -11.250663      -306.1461
   9   2.0000      -1.466168       -39.8965
  10   2.0000      -1.395922       -37.9850
  11   2.0000      -1.374281       -37.3961
  12   2.0000      -1.183400       -32.2020
  13   2.0000      -1.024770       -27.8854
  14   2.0000      -0.969103       -26.3706
  15   2.0000      -0.907542       -24.6955
  16   2.0000      -0.815199       -22.1827
  17   2.0000      -0.790747       -21.5173
  18   2.0000      -0.724919       -19.7261
  19   2.0000      -0.704794       -19.1784
  20   2.0000      -0.664968       -18.0947
  21   2.0000      -0.654827       -17.8188
  22   2.0000      -0.634229       -17.2583
  23   2.0000      -0.613781       -16.7018
  24   2.0000      -0.603601       -16.4248
  25   2.0000      -0.587150       -15.9772
  26   2.0000      -0.579161       -15.7598
  27   2.0000      -0.569982       -15.5100
  28   2.0000      -0.553892       -15.0722
  29   2.0000      -0.514891       -14.0109
  30   2.0000      -0.478373       -13.0172
  31   2.0000      -0.462294       -12.5796
  32   2.0000      -0.425815       -11.5870
  33   2.0000      -0.407357       -11.0847
  34   0.0000       0.120221         3.2714
  35   0.0000       0.141505         3.8506
  36   0.0000       0.147483         4.0132
  37   0.0000       0.163579         4.4512
  38   0.0000       0.183195         4.9850

MULLIKEN ATOMIC CHARGES
-----------------------
   0 C :   -0.416092
   1 C :    0.060507
   2 C :   -0.076776
   3 O :   -0.264096
   4 C :    0.215757
   5 O :   -0.262935
   6 C :   -0.143799
   7 C :   -0.005280
   8 O :   -0.434351
   9 H :    0.138634
  10 H :    0.146923
  11 H :    0.141880
  12 H :    0.126623
  13 H :    0.146559
  14 H :    0.158234
  15 H :    0.135016
  16 H :    0.333197
Sum of atomic charges:   -0.0000000

LOEWDIN ATOMIC CHARGES
----------------------
   0 C :   -0.260028
   1 C :   -0.241061
   2 C :   -0.228782
   3 O :    0.231214
   4 C :   -0.453454
   5 O :    0.156805
   6 C :   -0.134308
   7 C :   -0.261736
   8 O :    0.023227
   9 H :    0.134007
  10 H :    0.134281
  11 H :    0.131125
  12 H :    0.136135
  13 H :    0.136330
  14 H :    0.158344
  15 H :    0.153484
  16 H :    0.184416

  Mayer bond orders larger than 0.1
B(  0-C ,  1-C ) :   0.8859 B(  0-C ,  9-H ) :   0.9328 B(  0-C , 10-H ) :   0.9335
B(  0-C , 11-H ) :   0.9355 B(  1-C ,  2-C ) :   0.9200 B(  1-C ,  6-C ) :   0.7877
B(  1-C ,  7-C ) :   0.8726 B(  2-C ,  3-O ) :   0.8710 B(  2-C , 12-H ) :   0.9210
B(  2-C , 13-H ) :   0.9322 B(  3-O ,  4-C ) :   1.0419 B(  4-C ,  5-O ) :   2.0501
B(  4-C ,  6-C ) :   0.9448 B(  6-C ,  7-C ) :   0.8287 B(  6-C , 14-H ) :   0.8983
B(  7-C ,  8-O ) :   1.0340 B(  7-C , 15-H ) :   0.9497 B(  8-O , 16-H ) :   0.8169

MP2 TOTAL ENERGY:     -458.258549479 Eh
FINAL SINGLE POINT ENERGY      -458.258549479385

DIPOLE MOMENT
-------------
                                X             Y             Z
Electronic contribution:     -0.11080      -7.76568       2.99602
Nuclear contribution   :     -0.05764       9.42816      -3.60475
                        -----------------------------------------
Total Dipole Moment    :     -0.16844       1.66247      -0.60873
                        -----------------------------------------
Magnitude (a.u.)       :      1.77841
Magnitude (Debye)      :      4.52036

                             ****ORCA TERMINATED NORMALLY****
TOTAL RUN TIME: 0 days 0 hours 17 minutes 37 seconds 693 msec
