                         Program Version 3.0.3 - RELEASE   -
|  1> ! RI-MP2 RIJK def2-TZVP def2-TZVP/C def2-TZVP/JK TIGHTSCF
|  2> % maxcore 2000
|  3> % mp2 density relaxed end
|  4> *xyz 0 1
|  5>  C        0.3983536284     1.5167753485     0.1263554296
|  6>  C        0.1114947342     0.0149605231     0.0019722148
|  7>  C        0.7533750193    -0.6031528943    -1.2268573478
|  8>  C        2.0022139632    -1.4696625893    -1.1328760078
|  9>  O        2.5250898250    -1.8063367512     0.1151518078
| 10>  C        3.5421356741    -0.9264133506     0.5487147277
| 11>  C        0.6950100235    -2.1001423859    -1.5240104206
| 12>  C        0.0126456508    -3.0369618436    -0.5439029453
| 13>  C        0.5307426645    -2.5070623120    -2.9774836347
| 14>  H        1.4735171584     1.7160748286     0.1901647455
| 15>  H        0.0151590805     2.0652112627    -0.7414583499
| 16>  H       -0.0735132453     1.9370621579     1.0201385500
| 17>  H        0.4642266965    -0.5013105083     0.9000571259
| 18>  H       -0.9752593454    -0.1368427158    -0.0340358092
| 19>  H        0.7020324831     0.0319235422    -2.1103945290
| 20>  H        2.7657470697    -1.3537776369    -1.9054583246
| 21>  H        4.3891402404    -0.9144320212    -0.1542743265
| 22>  H        3.1755695392     0.1030181808     0.6638534830
| 23>  H        3.8930036390    -1.2915555838     1.5170174879
| 24>  H        0.2405221832    -2.7889411114     0.4927921856
| 25>  H       -1.0752996419    -3.0138217125    -0.6768739110
| 26>  H        0.3428345461    -4.0681440883    -0.7141350399
| 27>  H        0.9206946831    -3.5171494964    -3.1515795828
| 28>  H       -0.5269518119    -2.5042200322    -3.2676332479
| 29>  H        1.0592741323    -1.8243144204    -3.6505754909
| 30> *
| 31>
| 32>                          ****END OF INPUT****

CARTESIAN COORDINATES (ANGSTROEM)
---------------------------------
  C      0.398354    1.516775    0.126355
  C      0.111495    0.014961    0.001972
  C      0.753375   -0.603153   -1.226857
  C      2.002214   -1.469663   -1.132876
  O      2.525090   -1.806337    0.115152
  C      3.542136   -0.926413    0.548715
  C      0.695010   -2.100142   -1.524010
  C      0.012646   -3.036962   -0.543903
  C      0.530743   -2.507062   -2.977484
  H      1.473517    1.716075    0.190165
  H      0.015159    2.065211   -0.741458
  H     -0.073513    1.937062    1.020139
  H      0.464227   -0.501311    0.900057
  H     -0.975259   -0.136843   -0.034036
  H      0.702032    0.031924   -2.110395
  H      2.765747   -1.353778   -1.905458
  H      4.389140   -0.914432   -0.154274
  H      3.175570    0.103018    0.663853
  H      3.893004   -1.291556    1.517017
  H      0.240522   -2.788941    0.492792
  H     -1.075300   -3.013822   -0.676874
  H      0.342835   -4.068144   -0.714135
  H      0.920695   -3.517149   -3.151580
  H     -0.526952   -2.504220   -3.267633
  H      1.059274   -1.824314   -3.650575

 Total Charge           Charge          ....    0
 Multiplicity           Mult            ....    1
 Number of Electrons    NEL             ....   72
 Basis Dimension        Dim             ....  375

ORBITAL ENERGIES
----------------

  NO   OCC          E(Eh)            E(eV)
   0   2.0000     -20.556506      -559.3710
   1   2.0000     -11.270773      -306.6933
   2   2.0000     -11.269902      -306.6696
   3   2.0000     -11.228734      -305.5494
   4   2.0000     -11.219263      -305.2917
   5   2.0000     -11.217306      -305.2384
   6   2.0000     -11.212996      -305.1211
   7   2.0000     -11.211338      -305.0760
   8   2.0000     -11.206279      -304.9384
   9   2.0000      -1.379335       -37.5336
  10   2.0000      -1.146662       -31.2023
  11   2.0000      -1.029863       -28.0240
  12   2.0000      -0.969532       -26.3823
  13   2.0000      -0.934322       -25.4242
  14   2.0000      -0.920588       -25.0505
  15   2.0000      -0.855627       -23.2828
  16   2.0000      -0.769583       -20.9414
  17   2.0000      -0.734297       -19.9812
  18   2.0000      -0.677162       -18.4265
  19   2.0000      -0.646681       -17.5971
  20   2.0000      -0.628491       -17.1021
  21   2.0000      -0.604737       -16.4557
  22   2.0000      -0.596239       -16.2245
  23   2.0000      -0.574708       -15.6386
  24   2.0000      -0.565560       -15.3897
  25   2.0000      -0.555113       -15.1054
  26   2.0000      -0.532702       -14.4955
  27   2.0000      -0.529482       -14.4079
  28   2.0000      -0.510048       -13.8791
  29   2.0000      -0.505508       -13.7556
  30   2.0000      -0.493599       -13.4315
  31   2.0000      -0.479925       -13.0594
  32   2.0000      -0.461822       -12.5668
  33   2.0000      -0.453545       -12.3416
  34   2.0000      -0.379355       -10.3228
  35   2.0000      -0.368439       -10.0257
  36   0.0000       0.135247         3.6802
  37   0.0000       0.152166         4.1406
  38   0.0000       0.164598         4.4789
  39   0.0000       0.171137         4.6569
  40   0.0000       0.193318         5.2605

MULLIKEN ATOMIC CHARGES
-----------------------
   0 C :   -0.395073
   1 C :   -0.231520
   2 C :   -0.163995
   3 C :   -0.025444
   4 O :   -0.311024
   5 C :   -0.220284
   6 C :    0.173905
   7 C :   -0.404962
   8 C :   -0.404306
   9 H :    0.121018
  10 H :    0.123822
  11 H :    0.133619
  12 H :    0.133177
  13 H :    0.115904
  14 H :    0.106350
  15 H :    0.095512
  16 H :    0.116312
  17 H :    0.107405
  18 H :    0.139967
  19 H :    0.148776
  20 H :    0.126563
  21 H :    0.130392
  22 H :    0.129923
  23 H :    0.130018
  24 H :    0.123948
Sum of atomic charges:    0.0000000

LOEWDIN ATOMIC CHARGES
----------------------
   0 C :   -0.317320
   1 C :   -0.272823
   2 C :   -0.179279
   3 C :   -0.266193
   4 O :    0.172010
   5 C :   -0.349596
   6 C :   -0.261606
   7 C :   -0.262526
   8 C :   -0.266728
   9 H :    0.115962
  10 H :    0.119764
  11 H :    0.120344
  12 H :    0.141931
  13 H :    0.139163
  14 H :    0.150123
  15 H :    0.133930
  16 H :    0.103454
  17 H :    0.102135
  18 H :    0.113321
  19 H :    0.130785
  20 H :    0.126065
  21 H :    0.128918
  22 H :    0.126158
  23 H :    0.126388
  24 H :    0.125620

  Mayer bond orders larger than 0.1
B(  0-C ,  1-C ) :   0.9147 B(  0-C ,  9-H ) :   0.9407 B(  0-C , 10-H ) :   0.9409
B(  0-C , 11-H ) :   0.9423 B(  1-C ,  2-C ) :   0.8842 B(  1-C , 12-H ) :   0.9368
B(  1-C , 13-H ) :   0.9361 B(  2-C ,  3-C ) :   0.9258 B(  2-C ,  6-C ) :   0.8169
B(  2-C , 14-H ) :   0.9202 B(  3-C ,  4-O ) :   0.9769 B(  3-C ,  6-C ) :   0.8603
B(  3-C , 15-H ) :   0.9347 B(  4-O ,  5-C ) :   0.9045 B(  5-C , 16-H ) :   0.9391
B(  5-C , 17-H ) :   0.9346 B(  5-C , 18-H ) :   0.9404 B(  6-C ,  7-C ) :   0.9162
B(  6-C ,  8-C ) :   0.8800 B(  7-C , 19-H ) :   0.9289 B(  7-C , 20-H ) :   0.9385
B(  7-C , 21-H ) :   0.9360 B(  8-C , 22-H ) :   0.9408 B(  8-C , 23-H ) :   0.9435
B(  8-C , 24-H ) :   0.9303

MP2 TOTAL ENERGY:     -388.795304618 Eh
FINAL SINGLE POINT ENERGY      -388.795304618317

DIPOLE MOMENT
-------------
                                X             Y             Z
Electronic contribution:      2.39261      -2.68724       0.14849
Nuclear contribution   :     -2.25319       3.01445      -0.27481
                        -----------------------------------------
Total Dipole Moment    :      0.13942       0.32721      -0.12633
                        -----------------------------------------
Magnitude (a.u.)       :      0.37744
Magnitude (Debye)      :      0.95938

                             ****ORCA TERMINATED NORMALLY****
TOTAL RUN TIME: 0 days 0 hours 21 minutes 27 seconds 224 msec
