                         Program Version 3.0.3 - RELEASE   -
|  1> ! RI-MP2 RIJK def2-TZVP def2-TZVP/C def2-TZVP/JK TIGHTSCF
|  2> % maxcore 2000
|  3> % mp2 density relaxed end
|  4> *xyz 0 1
|  5>  C        0.3544123570     0.5621374033    -0.9110615409
|  6>  C       -0.1254074254     0.2199126541     0.4817420165
|  7>  O        0.3162521036     0.7453156873     1.4749058069
|  8>  C       -1.2508997815    -0.8171442521     0.6001934794
|  9>  C       -0.8561851805    -2.2079732086     0.2046280479
| 10>  N        0.2295666593    -2.5731301584    -0.3433779196
| 11>  C        0.1453578259    -4.0305363451    -0.5179871825
| 12>  C       -1.2390263467    -4.4148755926     0.0662795908
| 13>  O       -1.7945158015    -3.1497139141     0.4953326000
| 14>  H        1.1042501700     1.3521168408    -0.8577748468
| 15>  H        0.7759039213    -0.3360260142    -1.3718338766
| 16>  H       -0.4859616548     0.8882594130    -1.5349871909
| 17>  H       -1.5920798431    -0.8312805560     1.6388263192
| 18>  H       -2.1056795846    -0.5153257716    -0.0197510735
| 19>  H        0.2393911914    -4.2862700743    -1.5785583412
| 20>  H        0.9731810296    -4.5166833794     0.0080456613
| 21>  H       -1.9191405182    -4.8554082996    -0.6676139908
| 22>  H       -1.1802222721    -5.0740471924     0.9364581909
| 23> *
| 24>
| 25>                          ****END OF INPUT****

CARTESIAN COORDINATES (ANGSTROEM)
---------------------------------
  C      0.354412    0.562137   -0.911062
  C     -0.125407    0.219913    0.481742
  O      0.316252    0.745316    1.474906
  C     -1.250900   -0.817144    0.600193
  C     -0.856185   -2.207973    0.204628
  N      0.229567   -2.573130   -0.343378
  C      0.145358   -4.030536   -0.517987
  C     -1.239026   -4.414876    0.066280
  O     -1.794516   -3.149714    0.495333
  H      1.104250    1.352117   -0.857775
  H      0.775904   -0.336026   -1.371834
  H     -0.485962    0.888259   -1.534987
  H     -1.592080   -0.831281    1.638826
  H     -2.105680   -0.515326   -0.019751
  H      0.239391   -4.286270   -1.578558
  H      0.973181   -4.516683    0.008046
  H     -1.919141   -4.855408   -0.667614
  H     -1.180222   -5.074047    0.936458

 Total Charge           Charge          ....    0
 Multiplicity           Mult            ....    1
 Number of Electrons    NEL             ....   68
 Basis Dimension        Dim             ....  333

ORBITAL ENERGIES
----------------

  NO   OCC          E(Eh)            E(eV)
   0   2.0000     -20.601824      -560.6041
   1   2.0000     -20.545261      -559.0650
   2   2.0000     -15.552743      -423.2116
   3   2.0000     -11.348248      -308.8015
   4   2.0000     -11.334106      -308.4167
   5   2.0000     -11.299549      -307.4764
   6   2.0000     -11.268958      -306.6439
   7   2.0000     -11.256831      -306.3139
   8   2.0000     -11.225379      -305.4581
   9   2.0000      -1.445425       -39.3320
  10   2.0000      -1.389990       -37.8236
  11   2.0000      -1.221943       -33.2508
  12   2.0000      -1.080002       -29.3883
  13   2.0000      -1.012905       -27.5626
  14   2.0000      -0.969020       -26.3684
  15   2.0000      -0.870862       -23.6973
  16   2.0000      -0.790285       -21.5047
  17   2.0000      -0.733407       -19.9570
  18   2.0000      -0.699874       -19.0445
  19   2.0000      -0.697782       -18.9876
  20   2.0000      -0.649287       -17.6680
  21   2.0000      -0.644503       -17.5378
  22   2.0000      -0.614694       -16.7267
  23   2.0000      -0.598526       -16.2867
  24   2.0000      -0.582929       -15.8623
  25   2.0000      -0.572039       -15.5660
  26   2.0000      -0.554230       -15.0814
  27   2.0000      -0.539876       -14.6908
  28   2.0000      -0.525347       -14.2954
  29   2.0000      -0.514942       -14.0123
  30   2.0000      -0.492993       -13.4150
  31   2.0000      -0.443003       -12.0547
  32   2.0000      -0.415229       -11.2990
  33   2.0000      -0.387512       -10.5447
  34   0.0000       0.126751         3.4491
  35   0.0000       0.143067         3.8930
  36   0.0000       0.151217         4.1148
  37   0.0000       0.163286         4.4432
  38   0.0000       0.175849         4.7851

MULLIKEN ATOMIC CHARGES
-----------------------
   0 C :   -0.400178
   1 C :    0.206077
   2 O :   -0.277233
   3 C :   -0.166639
   4 C :    0.176115
   5 N :   -0.290777
   6 C :   -0.146566
   7 C :   -0.063991
   8 O :   -0.273969
   9 H :    0.143638
  10 H :    0.172953
  11 H :    0.129860
  12 H :    0.153324
  13 H :    0.145789
  14 H :    0.124168
  15 H :    0.127927
  16 H :    0.119104
  17 H :    0.120397
Sum of atomic charges:   -0.0000000

LOEWDIN ATOMIC CHARGES
----------------------
   0 C :   -0.280188
   1 C :   -0.337420
   2 O :    0.155016
   3 C :   -0.188142
   4 C :   -0.374632
   5 N :    0.082199
   6 C :   -0.277593
   7 C :   -0.258898
   8 O :    0.229964
   9 H :    0.132319
  10 H :    0.143977
  11 H :    0.134216
  12 H :    0.164040
  13 H :    0.162945
  14 H :    0.130684
  15 H :    0.132162
  16 H :    0.124333
  17 H :    0.125019

  Mayer bond orders larger than 0.1
B(  0-C ,  1-C ) :   0.9246 B(  0-C ,  9-H ) :   0.9327 B(  0-C , 10-H ) :   0.9004
B(  0-C , 11-H ) :   0.9068 B(  1-C ,  2-O ) :   2.0285 B(  1-C ,  3-C ) :   0.8818
B(  3-C ,  4-C ) :   0.9034 B(  3-C , 12-H ) :   0.9033 B(  3-C , 13-H ) :   0.9077
B(  4-C ,  5-N ) :   1.7796 B(  4-C ,  8-O ) :   1.0857 B(  5-N ,  6-C ) :   0.9299
B(  6-C ,  7-C ) :   0.9414 B(  6-C , 14-H ) :   0.9274 B(  6-C , 15-H ) :   0.9261
B(  7-C ,  8-O ) :   0.8699 B(  7-C , 16-H ) :   0.9276 B(  7-C , 17-H ) :   0.9273

MP2 TOTAL ENERGY:     -438.395326410 Eh
FINAL SINGLE POINT ENERGY      -438.395326409857

DIPOLE MOMENT
-------------
                                X             Y             Z
Electronic contribution:     -0.70245       1.27931       3.84925
Nuclear contribution   :      0.07280      -2.34919      -4.69540
                        -----------------------------------------
Total Dipole Moment    :     -0.62965      -1.06988      -0.84615
                        -----------------------------------------
Magnitude (a.u.)       :      1.50236
Magnitude (Debye)      :      3.81869

                             ****ORCA TERMINATED NORMALLY****
TOTAL RUN TIME: 0 days 0 hours 16 minutes 35 seconds 224 msec
