                         Program Version 3.0.3 - RELEASE   -
|  1> ! RI-MP2 RIJK def2-TZVP def2-TZVP/C def2-TZVP/JK TIGHTSCF
|  2> % maxcore 2000
|  3> % mp2 density relaxed end
|  4> *xyz 0 1
|  5>  O       -0.0795377779     1.3664267130    -0.1102569892
|  6>  C       -0.0235140101    -0.0217626910     0.0269602708
|  7>  C       -0.5030943197    -0.6715305209     1.3070244895
|  8>  C       -1.3428493379    -0.7218764835     0.0608788886
|  9>  C       -2.6800981979    -0.0424702501    -0.2458710082
| 10>  C       -2.8803497959    -1.0575083305    -1.4080255986
| 11>  C       -1.7340560326    -1.9396091470    -0.8056049190
| 12>  C       -0.7362789437    -2.4910521752    -1.7070672912
| 13>  N        0.0748076486    -2.9082049240    -2.4184875958
| 14>  H        0.6508938913     1.7470085089     0.3882890896
| 15>  H        0.7882002073    -0.5121016927    -0.5109729756
| 16>  H       -0.0059923979    -1.5765871296     1.6427844186
| 17>  H       -0.8460331830    -0.0123496490     2.0987300072
| 18>  H       -3.4153499546    -0.1674378515     0.5545954650
| 19>  H       -2.6210198155     1.0121598606    -0.5168993626
| 20>  H       -3.8528863632    -1.5432319700    -1.4963258520
| 21>  H       -2.5958935175    -0.6425054429    -2.3760274824
| 22>  H       -2.1410374498    -2.7484097445    -0.1898415745
| 23> *
| 24>
| 25>                          ****END OF INPUT****

CARTESIAN COORDINATES (ANGSTROEM)
---------------------------------
  O     -0.079538    1.366427   -0.110257
  C     -0.023514   -0.021763    0.026960
  C     -0.503094   -0.671531    1.307024
  C     -1.342849   -0.721876    0.060879
  C     -2.680098   -0.042470   -0.245871
  C     -2.880350   -1.057508   -1.408026
  C     -1.734056   -1.939609   -0.805605
  C     -0.736279   -2.491052   -1.707067
  N      0.074808   -2.908205   -2.418488
  H      0.650894    1.747009    0.388289
  H      0.788200   -0.512102   -0.510973
  H     -0.005992   -1.576587    1.642784
  H     -0.846033   -0.012350    2.098730
  H     -3.415350   -0.167438    0.554595
  H     -2.621020    1.012160   -0.516899
  H     -3.852886   -1.543232   -1.496326
  H     -2.595894   -0.642505   -2.376027
  H     -2.141037   -2.748410   -0.189842

 Total Charge           Charge          ....    0
 Multiplicity           Mult            ....    1
 Number of Electrons    NEL             ....   66
 Basis Dimension        Dim             ....  333

ORBITAL ENERGIES
----------------

  NO   OCC          E(Eh)            E(eV)
   0   2.0000     -20.574481      -559.8601
   1   2.0000     -15.566232      -423.5787
   2   2.0000     -11.294891      -307.3496
   3   2.0000     -11.282553      -307.0139
   4   2.0000     -11.269220      -306.6511
   5   2.0000     -11.259390      -306.3836
   6   2.0000     -11.250122      -306.1314
   7   2.0000     -11.239019      -305.8293
   8   2.0000     -11.238910      -305.8263
   9   2.0000      -1.384533       -37.6750
  10   2.0000      -1.219021       -33.1712
  11   2.0000      -1.181271       -32.1440
  12   2.0000      -1.089799       -29.6549
  13   2.0000      -0.965890       -26.2832
  14   2.0000      -0.865878       -23.5618
  15   2.0000      -0.842282       -22.9196
  16   2.0000      -0.769568       -20.9410
  17   2.0000      -0.718787       -19.5592
  18   2.0000      -0.709727       -19.3127
  19   2.0000      -0.680047       -18.5050
  20   2.0000      -0.637437       -17.3455
  21   2.0000      -0.599131       -16.3032
  22   2.0000      -0.569479       -15.4963
  23   2.0000      -0.560127       -15.2418
  24   2.0000      -0.555637       -15.1196
  25   2.0000      -0.536459       -14.5978
  26   2.0000      -0.517250       -14.0751
  27   2.0000      -0.506036       -13.7699
  28   2.0000      -0.491436       -13.3727
  29   2.0000      -0.448354       -12.2003
  30   2.0000      -0.444050       -12.0832
  31   2.0000      -0.416647       -11.3376
  32   2.0000      -0.402054       -10.9405
  33   0.0000       0.129649         3.5279
  34   0.0000       0.135968         3.6999
  35   0.0000       0.145337         3.9548
  36   0.0000       0.160154         4.3580
  37   0.0000       0.175109         4.7650

MULLIKEN ATOMIC CHARGES
-----------------------
   0 O :   -0.459571
   1 C :   -0.029603
   2 C :   -0.311183
   3 C :    0.023429
   4 C :   -0.197602
   5 C :   -0.266362
   6 C :    0.130055
   7 C :   -0.248381
   8 N :   -0.054689
   9 H :    0.327358
  10 H :    0.130450
  11 H :    0.136879
  12 H :    0.142034
  13 H :    0.121406
  14 H :    0.142153
  15 H :    0.132208
  16 H :    0.142131
  17 H :    0.139290
Sum of atomic charges:    0.0000000

LOEWDIN ATOMIC CHARGES
----------------------
   0 O :    0.004243
   1 C :   -0.295877
   2 C :   -0.195807
   3 C :   -0.187047
   4 C :   -0.184320
   5 C :   -0.179456
   6 C :   -0.176049
   7 C :   -0.174092
   8 N :    0.058704
   9 H :    0.183560
  10 H :    0.140442
  11 H :    0.138836
  12 H :    0.141619
  13 H :    0.137684
  14 H :    0.138839
  15 H :    0.129227
  16 H :    0.144155
  17 H :    0.175340

  Mayer bond orders larger than 0.1
B(  0-O ,  1-C ) :   1.0929 B(  0-O ,  3-C ) :  -0.1271 B(  0-O ,  9-H ) :   0.8390
B(  1-C ,  2-C ) :   0.9176 B(  1-C ,  3-C ) :   0.8304 B(  1-C , 10-H ) :   0.9516
B(  2-C ,  3-C ) :   0.8583 B(  2-C , 11-H ) :   0.9104 B(  2-C , 12-H ) :   0.9220
B(  3-C ,  4-C ) :   0.8964 B(  3-C ,  6-C ) :   0.8474 B(  4-C ,  5-C ) :   0.9503
B(  4-C , 13-H ) :   0.9233 B(  4-C , 14-H ) :   0.9132 B(  5-C ,  6-C ) :   0.9038
B(  5-C , 15-H ) :   0.9308 B(  5-C , 16-H ) :   0.9153 B(  6-C ,  7-C ) :   0.9268
B(  6-C , 17-H ) :   0.8944 B(  7-C ,  8-N ) :   2.8674

MP2 TOTAL ENERGY:     -401.240269435 Eh
FINAL SINGLE POINT ENERGY      -401.240269435471

DIPOLE MOMENT
-------------
                                X             Y             Z
Electronic contribution:      3.38751      -2.59444      -3.08734
Nuclear contribution   :     -4.01166       3.17388       4.36986
                        -----------------------------------------
Total Dipole Moment    :     -0.62415       0.57944       1.28252
                        -----------------------------------------
Magnitude (a.u.)       :      1.53953
Magnitude (Debye)      :      3.91318

                             ****ORCA TERMINATED NORMALLY****
TOTAL RUN TIME: 0 days 0 hours 18 minutes 48 seconds 44 msec
