                         Program Version 3.0.3 - RELEASE   -
|  1> ! RI-MP2 RIJK def2-TZVP def2-TZVP/C def2-TZVP/JK TIGHTSCF
|  2> % maxcore 2000
|  3> % mp2 density relaxed end
|  4> *xyz 0 1
|  5>  C       -0.1393405909     1.4873262850    -0.0020770984
|  6>  C        0.0376115833    -0.0272311314     0.0263325097
|  7>  C        1.2130915625    -0.5851874065    -0.8348386654
|  8>  C        2.1280868075    -0.4205553045     0.4166976999
|  9>  C        0.8169832228    -0.5918910000     1.2442357505
| 10>  O        0.6369080191     0.1329796064     2.4365602650
| 11>  C        0.4789183182    -2.0845734422     1.3964081937
| 12>  C        0.9533763204    -2.9005571362     0.1676756519
| 13>  C        0.9585830927    -2.0702123445    -1.1396772983
| 14>  H        0.8065934432     2.0203219325     0.1303505131
| 15>  H       -0.5678378971     1.8011347647    -0.9603801051
| 16>  H       -0.8122766489     1.8133902989     0.7960630979
| 17>  H       -0.9326335125    -0.5082523269    -0.1504656642
| 18>  H        1.4766449540    -0.0182382914    -1.7312241726
| 19>  H        2.9462587160    -1.1306040749     0.5675448856
| 20>  H        2.5155922335     0.5950717437     0.5107192372
| 21>  H        1.0982193243    -0.3281648154     3.1452439853
| 22>  H        0.9616712671    -2.4806866411     2.3009767206
| 23>  H       -0.6021310677    -2.1782380156     1.5525378804
| 24>  H        1.9737721483    -3.2468974966     0.3595853513
| 25>  H        0.3498041693    -3.8058223344     0.0516721376
| 26>  H        0.0001570549    -2.1630389309    -1.6653849349
| 27>  H        1.7239808101    -2.4665581787    -1.8167585507
| 28> *
| 29>
| 30>                          ****END OF INPUT****

CARTESIAN COORDINATES (ANGSTROEM)
---------------------------------
  C     -0.139341    1.487326   -0.002077
  C      0.037612   -0.027231    0.026333
  C      1.213092   -0.585187   -0.834839
  C      2.128087   -0.420555    0.416698
  C      0.816983   -0.591891    1.244236
  O      0.636908    0.132980    2.436560
  C      0.478918   -2.084573    1.396408
  C      0.953376   -2.900557    0.167676
  C      0.958583   -2.070212   -1.139677
  H      0.806593    2.020322    0.130351
  H     -0.567838    1.801135   -0.960380
  H     -0.812277    1.813390    0.796063
  H     -0.932634   -0.508252   -0.150466
  H      1.476645   -0.018238   -1.731224
  H      2.946259   -1.130604    0.567545
  H      2.515592    0.595072    0.510719
  H      1.098219   -0.328165    3.145244
  H      0.961671   -2.480687    2.300977
  H     -0.602131   -2.178238    1.552538
  H      1.973772   -3.246897    0.359585
  H      0.349804   -3.805822    0.051672
  H      0.000157   -2.163039   -1.665385
  H      1.723981   -2.466558   -1.816759

 Total Charge           Charge          ....    0
 Multiplicity           Mult            ....    1
 Number of Electrons    NEL             ....   70
 Basis Dimension        Dim             ....  363

ORBITAL ENERGIES
----------------

  NO   OCC          E(Eh)            E(eV)
   0   2.0000     -20.550980      -559.2206
   1   2.0000     -11.277621      -306.8797
   2   2.0000     -11.223758      -305.4140
   3   2.0000     -11.221732      -305.3589
   4   2.0000     -11.220675      -305.3301
   5   2.0000     -11.218458      -305.2698
   6   2.0000     -11.216929      -305.2282
   7   2.0000     -11.213064      -305.1230
   8   2.0000     -11.204093      -304.8789
   9   2.0000      -1.361314       -37.0432
  10   2.0000      -1.155771       -31.4501
  11   2.0000      -1.034657       -28.1544
  12   2.0000      -0.979129       -26.6434
  13   2.0000      -0.962898       -26.2018
  14   2.0000      -0.866459       -23.5776
  15   2.0000      -0.814829       -22.1726
  16   2.0000      -0.796342       -21.6696
  17   2.0000      -0.712040       -19.3756
  18   2.0000      -0.682891       -18.5824
  19   2.0000      -0.644987       -17.5510
  20   2.0000      -0.629566       -17.1313
  21   2.0000      -0.605900       -16.4874
  22   2.0000      -0.588398       -16.0111
  23   2.0000      -0.551336       -15.0026
  24   2.0000      -0.541749       -14.7417
  25   2.0000      -0.536709       -14.6046
  26   2.0000      -0.525407       -14.2970
  27   2.0000      -0.520760       -14.1706
  28   2.0000      -0.512469       -13.9450
  29   2.0000      -0.471705       -12.8358
  30   2.0000      -0.469078       -12.7643
  31   2.0000      -0.437593       -11.9075
  32   2.0000      -0.420876       -11.4526
  33   2.0000      -0.411938       -11.2094
  34   2.0000      -0.397065       -10.8047
  35   0.0000       0.129841         3.5331
  36   0.0000       0.150581         4.0975
  37   0.0000       0.157454         4.2845
  38   0.0000       0.169608         4.6153
  39   0.0000       0.180185         4.9031

MULLIKEN ATOMIC CHARGES
-----------------------
   0 C :   -0.432134
   1 C :   -0.149737
   2 C :    0.072556
   3 C :   -0.371698
   4 C :    0.338481
   5 O :   -0.461315
   6 C :   -0.316087
   7 C :   -0.232452
   8 C :   -0.295962
   9 H :    0.123608
  10 H :    0.128960
  11 H :    0.142632
  12 H :    0.094766
  13 H :    0.111083
  14 H :    0.113761
  15 H :    0.127006
  16 H :    0.310314
  17 H :    0.102276
  18 H :    0.119386
  19 H :    0.119464
  20 H :    0.125694
  21 H :    0.112782
  22 H :    0.116614
Sum of atomic charges:   -0.0000000

LOEWDIN ATOMIC CHARGES
----------------------
   0 C :   -0.288051
   1 C :   -0.193612
   2 C :   -0.196878
   3 C :   -0.185129
   4 C :   -0.348757
   5 O :    0.016535
   6 C :   -0.226775
   7 C :   -0.252551
   8 C :   -0.240293
   9 H :    0.125183
  10 H :    0.123098
  11 H :    0.128738
  12 H :    0.143129
  13 H :    0.138298
  14 H :    0.125705
  15 H :    0.138076
  16 H :    0.174457
  17 H :    0.134179
  18 H :    0.140024
  19 H :    0.136316
  20 H :    0.134965
  21 H :    0.137170
  22 H :    0.136172

  Mayer bond orders larger than 0.1
B(  0-C ,  1-C ) :   0.8947 B(  0-C ,  9-H ) :   0.9317 B(  0-C , 10-H ) :   0.9429
B(  0-C , 11-H ) :   0.9409 B(  1-C ,  2-C ) :   0.8492 B(  1-C ,  4-C ) :   0.8447
B(  1-C , 12-H ) :   0.9331 B(  2-C ,  3-C ) :   0.8883 B(  2-C ,  8-C ) :   0.8718
B(  2-C , 13-H ) :   0.9280 B(  3-C ,  4-C ) :   0.8932 B(  3-C , 14-H ) :   0.9185
B(  3-C , 15-H ) :   0.9194 B(  4-C ,  5-O ) :   0.9982 B(  4-C ,  6-C ) :   0.8887
B(  5-O , 16-H ) :   0.8394 B(  6-C ,  7-C ) :   0.9318 B(  6-C , 17-H ) :   0.9203
B(  6-C , 18-H ) :   0.9344 B(  7-C ,  8-C ) :   0.9533 B(  7-C , 19-H ) :   0.9319
B(  7-C , 20-H ) :   0.9270 B(  8-C , 21-H ) :   0.9343 B(  8-C , 22-H ) :   0.9294

MP2 TOTAL ENERGY:     -387.633038778 Eh
FINAL SINGLE POINT ENERGY      -387.633038778012

DIPOLE MOMENT
-------------
                                X             Y             Z
Electronic contribution:      0.29167       0.76722       3.00022
Nuclear contribution   :     -0.00818      -1.29620      -3.04624
                        -----------------------------------------
Total Dipole Moment    :      0.28349      -0.52898      -0.04603
                        -----------------------------------------
Magnitude (a.u.)       :      0.60192
Magnitude (Debye)      :      1.52995

                             ****ORCA TERMINATED NORMALLY****
TOTAL RUN TIME: 0 days 0 hours 22 minutes 45 seconds 331 msec
