                         Program Version 3.0.3 - RELEASE   -
|  1> ! RI-MP2 RIJK def2-TZVP def2-TZVP/C def2-TZVP/JK TIGHTSCF
|  2> % maxcore 2000
|  3> % mp2 density relaxed end
|  4> *xyz 0 1
|  5>  C        0.1255524498     1.5703732189     0.0980236775
|  6>  C       -0.1372616370     0.0692872426    -0.0608194783
|  7>  C        0.6059935716    -0.5482579871    -1.2384306630
|  8>  N        2.0751499740    -0.6300617372    -1.1065456468
|  9>  C        2.1870715830    -1.9932141930    -1.2832538161
| 10>  O        3.1187691103    -2.7462209742    -1.3504042826
| 11>  C        0.6540194001    -2.0907710256    -1.3490548765
| 12>  C       -0.2480014897    -3.1341142046    -0.8643065774
| 13>  O       -0.0719622792    -2.8712454550    -2.2642021403
| 14>  H        1.1855022199     1.7695609358     0.2897445311
| 15>  H       -0.1617458960     2.1218481717    -0.8038690954
| 16>  H       -0.4423812561     1.9827051051     0.9368469270
| 17>  H        0.1473086057    -0.4614910281     0.8553610963
| 18>  H       -1.2108873159    -0.1022361411    -0.2099469634
| 19>  H        0.2942798653    -0.0861624031    -2.1839233182
| 20>  H        2.7821700098     0.0877380768    -1.0737224508
| 21>  H        0.1700512532    -4.0748288547    -0.5116296609
| 22>  H       -1.2191635588    -2.8582135270    -0.4570080621
| 23> *
| 24>
| 25>                          ****END OF INPUT****

CARTESIAN COORDINATES (ANGSTROEM)
---------------------------------
  C      0.125552    1.570373    0.098024
  C     -0.137262    0.069287   -0.060819
  C      0.605994   -0.548258   -1.238431
  N      2.075150   -0.630062   -1.106546
  C      2.187072   -1.993214   -1.283254
  O      3.118769   -2.746221   -1.350404
  C      0.654019   -2.090771   -1.349055
  C     -0.248001   -3.134114   -0.864307
  O     -0.071962   -2.871245   -2.264202
  H      1.185502    1.769561    0.289745
  H     -0.161746    2.121848   -0.803869
  H     -0.442381    1.982705    0.936847
  H      0.147309   -0.461491    0.855361
  H     -1.210887   -0.102236   -0.209947
  H      0.294280   -0.086162   -2.183923
  H      2.782170    0.087738   -1.073722
  H      0.170051   -4.074829   -0.511630
  H     -1.219164   -2.858214   -0.457008

 Total Charge           Charge          ....    0
 Multiplicity           Mult            ....    1
 Number of Electrons    NEL             ....   68
 Basis Dimension        Dim             ....  333

ORBITAL ENERGIES
----------------

  NO   OCC          E(Eh)            E(eV)
   0   2.0000     -20.592561      -560.3521
   1   2.0000     -20.534123      -558.7619
   2   2.0000     -15.592589      -424.2959
   3   2.0000     -11.358554      -309.0820
   4   2.0000     -11.314711      -307.8889
   5   2.0000     -11.303888      -307.5944
   6   2.0000     -11.293854      -307.3214
   7   2.0000     -11.245006      -305.9922
   8   2.0000     -11.235129      -305.7234
   9   2.0000      -1.441139       -39.2154
  10   2.0000      -1.392247       -37.8850
  11   2.0000      -1.275884       -34.7186
  12   2.0000      -1.068815       -29.0839
  13   2.0000      -0.985123       -26.8066
  14   2.0000      -0.928915       -25.2771
  15   2.0000      -0.908921       -24.7330
  16   2.0000      -0.826388       -22.4872
  17   2.0000      -0.768652       -20.9161
  18   2.0000      -0.714879       -19.4528
  19   2.0000      -0.695016       -18.9124
  20   2.0000      -0.656285       -17.8584
  21   2.0000      -0.653339       -17.7782
  22   2.0000      -0.615433       -16.7468
  23   2.0000      -0.604786       -16.4571
  24   2.0000      -0.588927       -16.0255
  25   2.0000      -0.560547       -15.2533
  26   2.0000      -0.553241       -15.0545
  27   2.0000      -0.515150       -14.0179
  28   2.0000      -0.514047       -13.9879
  29   2.0000      -0.503906       -13.7120
  30   2.0000      -0.481804       -13.1106
  31   2.0000      -0.459162       -12.4944
  32   2.0000      -0.413896       -11.2627
  33   2.0000      -0.405543       -11.0354
  34   0.0000       0.121062         3.2943
  35   0.0000       0.142353         3.8736
  36   0.0000       0.151551         4.1239
  37   0.0000       0.161341         4.3903
  38   0.0000       0.171627         4.6702

MULLIKEN ATOMIC CHARGES
-----------------------
   0 C :   -0.401658
   1 C :   -0.232945
   2 C :    0.105913
   3 N :   -0.349214
   4 C :    0.219019
   5 O :   -0.299539
   6 C :    0.085521
   7 C :   -0.070406
   8 O :   -0.318098
   9 H :    0.122151
  10 H :    0.130692
  11 H :    0.142522
  12 H :    0.121084
  13 H :    0.115670
  14 H :    0.121738
  15 H :    0.242822
  16 H :    0.139971
  17 H :    0.124758
Sum of atomic charges:    0.0000000

LOEWDIN ATOMIC CHARGES
----------------------
   0 C :   -0.315711
   1 C :   -0.275356
   2 C :   -0.209170
   3 N :    0.150009
   4 C :   -0.407073
   5 O :    0.116860
   6 C :   -0.263402
   7 C :   -0.219663
   8 O :    0.194043
   9 H :    0.119533
  10 H :    0.123162
  11 H :    0.124874
  12 H :    0.142359
  13 H :    0.143575
  14 H :    0.148431
  15 H :    0.173210
  16 H :    0.130073
  17 H :    0.124245

  Mayer bond orders larger than 0.1
B(  0-C ,  1-C ) :   0.9154 B(  0-C ,  9-H ) :   0.9419 B(  0-C , 10-H ) :   0.9355
B(  0-C , 11-H ) :   0.9397 B(  1-C ,  2-C ) :   0.9075 B(  1-C , 12-H ) :   0.9304
B(  1-C , 13-H ) :   0.9289 B(  2-C ,  3-N ) :   0.8677 B(  2-C ,  6-C ) :   0.8614
B(  2-C , 14-H ) :   0.9190 B(  3-N ,  4-C ) :   1.1560 B(  3-N , 15-H ) :   0.8587
B(  4-C ,  5-O ) :   2.0525 B(  4-C ,  6-C ) :   0.8321 B(  6-C ,  7-C ) :   0.9480
B(  6-C ,  8-O ) :   0.8983 B(  7-C ,  8-O ) :   0.8998 B(  7-C , 16-H ) :   0.9096
B(  7-C , 17-H ) :   0.9126

MP2 TOTAL ENERGY:     -438.356456810 Eh
FINAL SINGLE POINT ENERGY      -438.356456810346

DIPOLE MOMENT
-------------
                                X             Y             Z
Electronic contribution:      5.41253      -8.65900      -5.05631
Nuclear contribution   :     -6.33976       9.99070       5.84271
                        -----------------------------------------
Total Dipole Moment    :     -0.92724       1.33170       0.78640
                        -----------------------------------------
Magnitude (a.u.)       :      1.80323
Magnitude (Debye)      :      4.58344

                             ****ORCA TERMINATED NORMALLY****
TOTAL RUN TIME: 0 days 0 hours 27 minutes 41 seconds 708 msec
