                         Program Version 3.0.3 - RELEASE   -
|  1> ! RI-MP2 RIJK def2-TZVP def2-TZVP/C def2-TZVP/JK TIGHTSCF
|  2> % maxcore 2000
|  3> % mp2 density relaxed end
|  4> *xyz 0 1
|  5>  C       -0.1918704927     1.5623610212     0.7904371546
|  6>  C       -0.1016558539     0.0797423085     0.4855331806
|  7>  C        1.0707524077    -0.4842051603    -0.3744028719
|  8>  N        1.9884329620    -0.1514119284     0.7955322983
|  9>  C        0.7766547370    -0.8513556368     1.3907240718
| 10>  C        0.6395511908    -1.1043714547     2.8050617336
| 11>  N        0.5077625164    -1.3292464203     3.9317513267
| 12>  C        0.8221394504    -1.9045303628     0.2276309013
| 13>  C       -0.3464888237    -2.8051575366    -0.1389907021
| 14>  H        0.7873414976     1.9794684739     1.0265493381
| 15>  H       -0.6054696636     2.0980321653    -0.0710006362
| 16>  H       -0.8634483781     1.7379965037     1.6374882072
| 17>  H       -1.0798642728    -0.3377065490     0.2478093157
| 18>  H        1.3412874596    -0.2194217095    -1.3966620664
| 19>  H        2.7802374077    -0.8028614691     0.8008591098
| 20>  H        1.7464826646    -2.4924719393     0.2722101437
| 21>  H       -1.3009430353    -2.2804933700    -0.2168282657
| 22>  H       -0.1539567405    -3.2893802477    -1.1022531514
| 23>  H       -0.4607804234    -3.5965759882     0.6089905723
| 24> *
| 25>
| 26>                          ****END OF INPUT****

CARTESIAN COORDINATES (ANGSTROEM)
---------------------------------
  C     -0.191870    1.562361    0.790437
  C     -0.101656    0.079742    0.485533
  C      1.070752   -0.484205   -0.374403
  N      1.988433   -0.151412    0.795532
  C      0.776655   -0.851356    1.390724
  C      0.639551   -1.104371    2.805062
  N      0.507763   -1.329246    3.931751
  C      0.822139   -1.904530    0.227631
  C     -0.346489   -2.805158   -0.138991
  H      0.787341    1.979468    1.026549
  H     -0.605470    2.098032   -0.071001
  H     -0.863448    1.737997    1.637488
  H     -1.079864   -0.337707    0.247809
  H      1.341287   -0.219422   -1.396662
  H      2.780237   -0.802861    0.800859
  H      1.746483   -2.492472    0.272210
  H     -1.300943   -2.280493   -0.216828
  H     -0.153957   -3.289380   -1.102253
  H     -0.460780   -3.596576    0.608991

 Total Charge           Charge          ....    0
 Multiplicity           Mult            ....    1
 Number of Electrons    NEL             ....   66
 Basis Dimension        Dim             ....  339

ORBITAL ENERGIES
----------------

  NO   OCC          E(Eh)            E(eV)
   0   2.0000     -15.577066      -423.8735
   1   2.0000     -15.576584      -423.8604
   2   2.0000     -11.322040      -308.0884
   3   2.0000     -11.294141      -307.3292
   4   2.0000     -11.274828      -306.8037
   5   2.0000     -11.270116      -306.6754
   6   2.0000     -11.263721      -306.5014
   7   2.0000     -11.236959      -305.7732
   8   2.0000     -11.220304      -305.3200
   9   2.0000      -1.311350       -35.6836
  10   2.0000      -1.218636       -33.1608
  11   2.0000      -1.060453       -28.8564
  12   2.0000      -1.031334       -28.0640
  13   2.0000      -0.954949       -25.9855
  14   2.0000      -0.937833       -25.5197
  15   2.0000      -0.853939       -23.2369
  16   2.0000      -0.776734       -21.1360
  17   2.0000      -0.738291       -20.0899
  18   2.0000      -0.662533       -18.0284
  19   2.0000      -0.604918       -16.4607
  20   2.0000      -0.599900       -16.3241
  21   2.0000      -0.585664       -15.9367
  22   2.0000      -0.571666       -15.5558
  23   2.0000      -0.556750       -15.1499
  24   2.0000      -0.552729       -15.0405
  25   2.0000      -0.536804       -14.6072
  26   2.0000      -0.511632       -13.9222
  27   2.0000      -0.506940       -13.7945
  28   2.0000      -0.482188       -13.1210
  29   2.0000      -0.468319       -12.7436
  30   2.0000      -0.451518       -12.2864
  31   2.0000      -0.434126       -11.8132
  32   2.0000      -0.407371       -11.0851
  33   0.0000       0.125510         3.4153
  34   0.0000       0.135806         3.6955
  35   0.0000       0.142798         3.8857
  36   0.0000       0.163154         4.4396
  37   0.0000       0.173933         4.7330

MULLIKEN ATOMIC CHARGES
-----------------------
   0 C :   -0.457896
   1 C :   -0.018737
   2 C :   -0.088927
   3 N :   -0.293884
   4 C :    0.138521
   5 C :   -0.258402
   6 N :   -0.021648
   7 C :   -0.026649
   8 C :   -0.411061
   9 H :    0.170666
  10 H :    0.133486
  11 H :    0.140595
  12 H :    0.110330
  13 H :    0.146757
  14 H :    0.200671
  15 H :    0.113641
  16 H :    0.133419
  17 H :    0.141038
  18 H :    0.148082
Sum of atomic charges:    0.0000000

LOEWDIN ATOMIC CHARGES
----------------------
   0 C :   -0.290963
   1 C :   -0.171891
   2 C :   -0.173742
   3 N :    0.045788
   4 C :   -0.231726
   5 C :   -0.147975
   6 N :    0.079983
   7 C :   -0.183853
   8 C :   -0.291551
   9 H :    0.135584
  10 H :    0.128003
  11 H :    0.130137
  12 H :    0.147661
  13 H :    0.126913
  14 H :    0.160535
  15 H :    0.148906
  16 H :    0.123925
  17 H :    0.131022
  18 H :    0.133245

  Mayer bond orders larger than 0.1
B(  0-C ,  1-C ) :   0.9135 B(  0-C ,  9-H ) :   0.9345 B(  0-C , 10-H ) :   0.9332
B(  0-C , 11-H ) :   0.9321 B(  1-C ,  2-C ) :   0.8786 B(  1-C ,  4-C ) :   0.8008
B(  1-C , 12-H ) :   0.9208 B(  2-C ,  3-N ) :   0.9268 B(  2-C ,  7-C ) :   0.9402
B(  2-C , 13-H ) :   0.8889 B(  3-N ,  4-C ) :   0.9209 B(  3-N , 14-H ) :   0.8791
B(  4-C ,  5-C ) :   0.8574 B(  4-C ,  7-C ) :   0.8577 B(  5-C ,  6-N ) :   2.8924
B(  7-C ,  8-C ) :   0.9464 B(  7-C , 15-H ) :   0.9221 B(  8-C , 16-H ) :   0.9319
B(  8-C , 17-H ) :   0.9303 B(  8-C , 18-H ) :   0.9279

MP2 TOTAL ENERGY:     -381.345924618 Eh
FINAL SINGLE POINT ENERGY      -381.345924617947

DIPOLE MOMENT
-------------
                                X             Y             Z
Electronic contribution:      3.11805      -0.78579       6.56936
Nuclear contribution   :     -3.25345       0.47234      -8.29826
                        -----------------------------------------
Total Dipole Moment    :     -0.13540      -0.31344      -1.72889
                        -----------------------------------------
Magnitude (a.u.)       :      1.76228
Magnitude (Debye)      :      4.47937

                             ****ORCA TERMINATED NORMALLY****
TOTAL RUN TIME: 0 days 0 hours 20 minutes 1 seconds 942 msec
