                         Program Version 3.0.3 - RELEASE   -
|  1> ! RI-MP2 RIJK def2-TZVP def2-TZVP/C def2-TZVP/JK TIGHTSCF
|  2> % maxcore 2000
|  3> % mp2 density relaxed end
|  4> *xyz 0 1
|  5>  C       -0.3267317909     1.5857165472    -0.1201378866
|  6>  C        0.1142871133     0.1188002468     0.0284887139
|  7>  C        0.8839850507    -0.3980168582    -1.1367362707
|  8>  C        2.1461020944    -0.9002853670    -1.2923950439
|  9>  N        3.1175049936    -1.1449449836    -0.3050723520
| 10>  C        2.2822437211    -1.2349577567    -2.6840190051
| 11>  C        1.0999202990    -0.9114236643    -3.2654925128
| 12>  O        0.2370103940    -0.4094826375    -2.3527123904
| 13>  H        0.5391751092     2.2474415510    -0.2208636617
| 14>  H       -0.9476884169     1.7106030664    -1.0113490046
| 15>  H       -0.9079571306     1.9090600312     0.7491244147
| 16>  H        0.7334919684     0.0055019478     0.9262001220
| 17>  H       -0.7730249941    -0.5067065870     0.1990197116
| 18>  H        2.9566817942    -0.6120641353     0.5402872055
| 19>  H        4.0545315232    -0.9507101096    -0.6357896675
| 20>  H        3.1462247932    -1.6652640166    -3.1669199015
| 21>  H        0.7327269882    -0.9765712448    -4.2766553008
| 22> *
| 23>
| 24>                          ****END OF INPUT****

CARTESIAN COORDINATES (ANGSTROEM)
---------------------------------
  C     -0.326732    1.585717   -0.120138
  C      0.114287    0.118800    0.028489
  C      0.883985   -0.398017   -1.136736
  C      2.146102   -0.900285   -1.292395
  N      3.117505   -1.144945   -0.305072
  C      2.282244   -1.234958   -2.684019
  C      1.099920   -0.911424   -3.265493
  O      0.237010   -0.409483   -2.352712
  H      0.539175    2.247442   -0.220864
  H     -0.947688    1.710603   -1.011349
  H     -0.907957    1.909060    0.749124
  H      0.733492    0.005502    0.926200
  H     -0.773025   -0.506707    0.199020
  H      2.956682   -0.612064    0.540287
  H      4.054532   -0.950710   -0.635790
  H      3.146225   -1.665264   -3.166920
  H      0.732727   -0.976571   -4.276655

 Total Charge           Charge          ....    0
 Multiplicity           Mult            ....    1
 Number of Electrons    NEL             ....   60
 Basis Dimension        Dim             ....  302

ORBITAL ENERGIES
----------------

  NO   OCC          E(Eh)            E(eV)
   0   2.0000     -20.605230      -560.6968
   1   2.0000     -15.560525      -423.4234
   2   2.0000     -11.281648      -306.9892
   3   2.0000     -11.264375      -306.5192
   4   2.0000     -11.257445      -306.3307
   5   2.0000     -11.233920      -305.6905
   6   2.0000     -11.219995      -305.3116
   7   2.0000     -11.214959      -305.1745
   8   2.0000      -1.442909       -39.2635
   9   2.0000      -1.207257       -32.8511
  10   2.0000      -1.061267       -28.8786
  11   2.0000      -1.050998       -28.5991
  12   2.0000      -0.963656       -26.2224
  13   2.0000      -0.857296       -23.3282
  14   2.0000      -0.798961       -21.7408
  15   2.0000      -0.754834       -20.5401
  16   2.0000      -0.704426       -19.1684
  17   2.0000      -0.662677       -18.0324
  18   2.0000      -0.639574       -17.4037
  19   2.0000      -0.613032       -16.6814
  20   2.0000      -0.593885       -16.1604
  21   2.0000      -0.587190       -15.9783
  22   2.0000      -0.561025       -15.2663
  23   2.0000      -0.539190       -14.6721
  24   2.0000      -0.514116       -13.9898
  25   2.0000      -0.499191       -13.5837
  26   2.0000      -0.492169       -13.3926
  27   2.0000      -0.484923       -13.1954
  28   2.0000      -0.358718        -9.7612
  29   2.0000      -0.286048        -7.7838
  30   0.0000       0.127786         3.4772
  31   0.0000       0.144833         3.9411
  32   0.0000       0.168138         4.5753
  33   0.0000       0.175672         4.7803
  34   0.0000       0.185523         5.0483

MULLIKEN ATOMIC CHARGES
-----------------------
   0 C :   -0.374910
   1 C :   -0.248679
   2 C :    0.139287
   3 C :    0.107745
   4 N :   -0.515988
   5 C :   -0.250612
   6 C :   -0.010129
   7 O :   -0.234260
   8 H :    0.123165
   9 H :    0.138740
  10 H :    0.129155
  11 H :    0.108883
  12 H :    0.130179
  13 H :    0.234680
  14 H :    0.247647
  15 H :    0.133615
  16 H :    0.141481
Sum of atomic charges:   -0.0000000

LOEWDIN ATOMIC CHARGES
----------------------
   0 C :   -0.309441
   1 C :   -0.264457
   2 C :   -0.244655
   3 C :   -0.261295
   4 N :   -0.095832
   5 C :   -0.176476
   6 C :   -0.256010
   7 O :    0.348049
   8 H :    0.121129
   9 H :    0.124951
  10 H :    0.119275
  11 H :    0.143683
  12 H :    0.147530
  13 H :    0.162831
  14 H :    0.167503
  15 H :    0.142398
  16 H :    0.130816

  Mayer bond orders larger than 0.1
B(  0-C ,  1-C ) :   0.9222 B(  0-C ,  8-H ) :   0.9348 B(  0-C ,  9-H ) :   0.9375
B(  0-C , 10-H ) :   0.9373 B(  1-C ,  2-C ) :   0.9007 B(  1-C , 11-H ) :   0.9466
B(  1-C , 12-H ) :   0.9342 B(  2-C ,  3-C ) :   1.4965 B(  2-C ,  7-O ) :   0.9769
B(  3-C ,  4-N ) :   0.9936 B(  3-C ,  5-C ) :   1.2174 B(  4-N , 13-H ) :   0.8846
B(  4-N , 14-H ) :   0.8803 B(  5-C ,  6-C ) :   1.5510 B(  5-C , 15-H ) :   0.9194
B(  6-C ,  7-O ) :   1.0687 B(  6-C , 16-H ) :   0.9400

MP2 TOTAL ENERGY:     -363.264376316 Eh
FINAL SINGLE POINT ENERGY      -363.264376316051

DIPOLE MOMENT
-------------
                                X             Y             Z
Electronic contribution:      1.48706      -3.90944      -4.73036
Nuclear contribution   :     -1.05132       4.29984       4.96175
                        -----------------------------------------
Total Dipole Moment    :      0.43574       0.39040       0.23139
                        -----------------------------------------
Magnitude (a.u.)       :      0.62915
Magnitude (Debye)      :      1.59916

                             ****ORCA TERMINATED NORMALLY****
TOTAL RUN TIME: 0 days 0 hours 12 minutes 17 seconds 995 msec
