                         Program Version 3.0.3 - RELEASE   -
|  1> ! RI-MP2 RIJK def2-TZVP def2-TZVP/C def2-TZVP/JK TIGHTSCF
|  2> % maxcore 2000
|  3> % mp2 density relaxed end
|  4> *xyz 0 1
|  5>  C       -0.1010367557     1.5128878217    -0.0053756497
|  6>  C       -0.0506203315    -0.0234254891    -0.0585031824
|  7>  C       -1.3640006183    -0.6212308956     0.0896658126
|  8>  N       -2.4021345012    -1.1238915654     0.1802328815
|  9>  C        0.8263137520    -0.6012178953    -1.2601980272
| 10>  O        1.1738720559     0.2886446054    -2.2810044599
| 11>  C        1.9976506081    -0.8779347080    -0.2881002070
| 12>  C        1.0620908402    -0.5931297741     0.8867610643
| 13>  O        1.1119993185    -0.7593986837     2.0650342122
| 14>  H        0.8988865296     1.9332950209    -0.1309464992
| 15>  H       -0.7348538769     1.9021091945    -0.8061517536
| 16>  H       -0.5073309824     1.8388538500     0.9545598512
| 17>  H        0.3816243835    -1.5241134617    -1.6477430319
| 18>  H        0.4476165610     0.3420570410    -2.9109242432
| 19>  H        2.4603025047    -1.8661786781    -0.3097697611
| 20>  H        2.7806010523    -0.1176663724    -0.3803474968
| 21> *
| 22>
| 23>                          ****END OF INPUT****

CARTESIAN COORDINATES (ANGSTROEM)
---------------------------------
  C     -0.101037    1.512888   -0.005376
  C     -0.050620   -0.023425   -0.058503
  C     -1.364001   -0.621231    0.089666
  N     -2.402135   -1.123892    0.180233
  C      0.826314   -0.601218   -1.260198
  O      1.173872    0.288645   -2.281004
  C      1.997651   -0.877935   -0.288100
  C      1.062091   -0.593130    0.886761
  O      1.111999   -0.759399    2.065034
  H      0.898887    1.933295   -0.130946
  H     -0.734854    1.902109   -0.806152
  H     -0.507331    1.838854    0.954560
  H      0.381624   -1.524113   -1.647743
  H      0.447617    0.342057   -2.910924
  H      2.460303   -1.866179   -0.309770
  H      2.780601   -0.117666   -0.380347

 Total Charge           Charge          ....    0
 Multiplicity           Mult            ....    1
 Number of Electrons    NEL             ....   66
 Basis Dimension        Dim             ....  321

ORBITAL ENERGIES
----------------

  NO   OCC          E(Eh)            E(eV)
   0   2.0000     -20.598951      -560.5259
   1   2.0000     -20.582365      -560.0746
   2   2.0000     -15.582043      -424.0089
   3   2.0000     -11.363764      -309.2238
   4   2.0000     -11.332573      -308.3750
   5   2.0000     -11.305533      -307.6392
   6   2.0000     -11.283368      -307.0361
   7   2.0000     -11.265832      -306.5589
   8   2.0000     -11.259549      -306.3879
   9   2.0000      -1.427447       -38.8428
  10   2.0000      -1.409702       -38.3599
  11   2.0000      -1.232004       -33.5245
  12   2.0000      -1.167344       -31.7651
  13   2.0000      -1.042291       -28.3622
  14   2.0000      -0.929208       -25.2850
  15   2.0000      -0.880658       -23.9639
  16   2.0000      -0.799946       -21.7676
  17   2.0000      -0.750652       -20.4263
  18   2.0000      -0.714868       -19.4525
  19   2.0000      -0.679535       -18.4911
  20   2.0000      -0.649422       -17.6717
  21   2.0000      -0.622865       -16.9490
  22   2.0000      -0.605000       -16.4629
  23   2.0000      -0.593494       -16.1498
  24   2.0000      -0.585848       -15.9417
  25   2.0000      -0.567053       -15.4303
  26   2.0000      -0.562644       -15.3103
  27   2.0000      -0.533966       -14.5299
  28   2.0000      -0.512185       -13.9373
  29   2.0000      -0.500182       -13.6107
  30   2.0000      -0.485920       -13.2226
  31   2.0000      -0.445701       -12.1281
  32   2.0000      -0.412730       -11.2309
  33   0.0000       0.092443         2.5155
  34   0.0000       0.117624         3.2007
  35   0.0000       0.139640         3.7998
  36   0.0000       0.147694         4.0190
  37   0.0000       0.162753         4.4287

MULLIKEN ATOMIC CHARGES
-----------------------
   0 C :   -0.395742
   1 C :    0.260861
   2 C :   -0.216876
   3 N :   -0.047038
   4 C :   -0.036191
   5 O :   -0.444042
   6 C :   -0.197877
   7 C :    0.060707
   8 O :   -0.219756
   9 H :    0.155465
  10 H :    0.138979
  11 H :    0.165063
  12 H :    0.133232
  13 H :    0.329266
  14 H :    0.158947
  15 H :    0.155000
Sum of atomic charges:    0.0000000

LOEWDIN ATOMIC CHARGES
----------------------
   0 C :   -0.234977
   1 C :   -0.227470
   2 C :   -0.157100
   3 N :    0.072944
   4 C :   -0.272843
   5 O :    0.011690
   6 C :   -0.178934
   7 C :   -0.261163
   8 O :    0.198162
   9 H :    0.136794
  10 H :    0.133708
  11 H :    0.140115
  12 H :    0.142033
  13 H :    0.186255
  14 H :    0.148231
  15 H :    0.162557

  Mayer bond orders larger than 0.1
B(  0-C ,  1-C ) :   0.9033 B(  0-C ,  9-H ) :   0.9166 B(  0-C , 10-H ) :   0.9304
B(  0-C , 11-H ) :   0.9283 B(  1-C ,  2-C ) :   0.9274 B(  1-C ,  4-C ) :   0.8371
B(  1-C ,  7-C ) :   0.7243 B(  2-C ,  3-N ) :   2.8578 B(  4-C ,  5-O ) :   1.1079
B(  4-C ,  6-C ) :   0.9139 B(  4-C , 12-H ) :   0.9640 B(  5-O , 13-H ) :   0.8386
B(  6-C ,  7-C ) :   0.8983 B(  6-C , 14-H ) :   0.9012 B(  6-C , 15-H ) :   0.8833
B(  7-C ,  8-O ) :   2.0554

MP2 TOTAL ENERGY:     -437.181431591 Eh
FINAL SINGLE POINT ENERGY      -437.181431590650

DIPOLE MOMENT
-------------
                                X             Y             Z
Electronic contribution:     -2.49980      -3.61525       2.93882
Nuclear contribution   :      3.43218       4.19785      -4.17984
                        -----------------------------------------
Total Dipole Moment    :      0.93238       0.58259      -1.24102
                        -----------------------------------------
Magnitude (a.u.)       :      1.65798
Magnitude (Debye)      :      4.21424

                             ****ORCA TERMINATED NORMALLY****
TOTAL RUN TIME: 0 days 0 hours 15 minutes 51 seconds 177 msec
