                         Program Version 3.0.3 - RELEASE   -
|  1> ! RI-MP2 RIJK def2-TZVP def2-TZVP/C def2-TZVP/JK TIGHTSCF
|  2> % maxcore 2000
|  3> % mp2 density relaxed end
|  4> *xyz 0 1
|  5>  O        0.0831983445    -0.0187618587    -0.4570758180
|  6>  C       -0.0476705064     1.1407634706    -0.1309543628
|  7>  C        1.1352695427     1.9704504673     0.1821862543
|  8>  N        2.0645766115     2.6140065320     0.4258089240
|  9>  C       -1.2856445238     1.8381611524    -0.0073258109
| 10>  C       -2.3325470321     2.4377637549     0.1000233213
| 11>  C       -3.5626773660     3.1382975618     0.2244147745
| 12>  C       -3.7095288398     4.2143000802     1.3021740889
| 13>  C       -3.6194338603     4.6263549422    -0.1268137291
| 14>  H       -4.4511291787     2.5568686157     0.0007536601
| 15>  H       -4.6704507135     4.2576650906     1.8011590461
| 16>  H       -2.8524797079     4.3848220666     1.9418544660
| 17>  H       -2.7001519196     5.0814652054    -0.4740861635
| 18>  H       -4.5168948205     4.9599603891    -0.6342668310
| 19> *
| 20>
| 21>                          ****END OF INPUT****

CARTESIAN COORDINATES (ANGSTROEM)
---------------------------------
  O      0.083198   -0.018762   -0.457076
  C     -0.047671    1.140763   -0.130954
  C      1.135270    1.970450    0.182186
  N      2.064577    2.614007    0.425809
  C     -1.285645    1.838161   -0.007326
  C     -2.332547    2.437764    0.100023
  C     -3.562677    3.138298    0.224415
  C     -3.709529    4.214300    1.302174
  C     -3.619434    4.626355   -0.126814
  H     -4.451129    2.556869    0.000754
  H     -4.670451    4.257665    1.801159
  H     -2.852480    4.384822    1.941854
  H     -2.700152    5.081465   -0.474086
  H     -4.516895    4.959960   -0.634267

 Total Charge           Charge          ....    0
 Multiplicity           Mult            ....    1
 Number of Electrons    NEL             ....   62
 Basis Dimension        Dim             ....  309

ORBITAL ENERGIES
----------------

  NO   OCC          E(Eh)            E(eV)
   0   2.0000     -20.599657      -560.5452
   1   2.0000     -15.608686      -424.7340
   2   2.0000     -11.416652      -310.6629
   3   2.0000     -11.298998      -307.4614
   4   2.0000     -11.296453      -307.3921
   5   2.0000     -11.289221      -307.1953
   6   2.0000     -11.271186      -306.7046
   7   2.0000     -11.270462      -306.6849
   8   2.0000     -11.263657      -306.4997
   9   2.0000      -1.439810       -39.1792
  10   2.0000      -1.244924       -33.8761
  11   2.0000      -1.192496       -32.4495
  12   2.0000      -1.091281       -29.6953
  13   2.0000      -0.987890       -26.8819
  14   2.0000      -0.898899       -24.4603
  15   2.0000      -0.860696       -23.4207
  16   2.0000      -0.805959       -21.9313
  17   2.0000      -0.732311       -19.9272
  18   2.0000      -0.699592       -19.0369
  19   2.0000      -0.682198       -18.5636
  20   2.0000      -0.609511       -16.5856
  21   2.0000      -0.595969       -16.2172
  22   2.0000      -0.594888       -16.1877
  23   2.0000      -0.555184       -15.1073
  24   2.0000      -0.509291       -13.8585
  25   2.0000      -0.508339       -13.8326
  26   2.0000      -0.501814       -13.6551
  27   2.0000      -0.489692       -13.3252
  28   2.0000      -0.487834       -13.2746
  29   2.0000      -0.420590       -11.4448
  30   2.0000      -0.394684       -10.7399
  31   0.0000       0.030956         0.8424
  32   0.0000       0.114625         3.1191
  33   0.0000       0.138479         3.7682
  34   0.0000       0.145382         3.9560
  35   0.0000       0.155062         4.2195

MULLIKEN ATOMIC CHARGES
-----------------------
   0 O :   -0.227143
   1 C :    0.241685
   2 C :   -0.149480
   3 N :   -0.053338
   4 C :    0.087787
   5 C :    0.038478
   6 C :   -0.245815
   7 C :   -0.228789
   8 C :   -0.228804
   9 H :    0.157264
  10 H :    0.147762
  11 H :    0.156315
  12 H :    0.156316
  13 H :    0.147763
Sum of atomic charges:    0.0000000

LOEWDIN ATOMIC CHARGES
----------------------
   0 O :    0.212695
   1 C :   -0.333967
   2 C :   -0.121664
   3 N :    0.099265
   4 C :   -0.014469
   5 C :    0.009440
   6 C :   -0.200130
   7 C :   -0.190998
   8 C :   -0.190991
   9 H :    0.168374
  10 H :    0.138687
  11 H :    0.142532
  12 H :    0.142534
  13 H :    0.138690

  Mayer bond orders larger than 0.1
B(  0-O ,  1-C ) :   2.0113 B(  1-C ,  2-C ) :   0.9600 B(  1-C ,  4-C ) :   0.9525
B(  2-C ,  3-N ) :   2.7748 B(  2-C ,  4-C ) :  -0.1213 B(  4-C ,  5-C ) :   2.5730
B(  4-C ,  6-C ) :  -0.1458 B(  5-C ,  6-C ) :   1.1186 B(  6-C ,  7-C ) :   0.8430
B(  6-C ,  8-C ) :   0.8430 B(  6-C ,  9-H ) :   0.9243 B(  7-C ,  8-C ) :   0.9005
B(  7-C , 10-H ) :   0.9283 B(  7-C , 11-H ) :   0.9321 B(  8-C , 12-H ) :   0.9321
B(  8-C , 13-H ) :   0.9283

MP2 TOTAL ENERGY:     -398.809933798 Eh
FINAL SINGLE POINT ENERGY      -398.809933798413

DIPOLE MOMENT
-------------
                                X             Y             Z
Electronic contribution:     10.02660      -7.52185      -1.53942
Nuclear contribution   :    -12.04748       8.45946       1.68304
                        -----------------------------------------
Total Dipole Moment    :     -2.02088       0.93760       0.14363
                        -----------------------------------------
Magnitude (a.u.)       :      2.23241
Magnitude (Debye)      :      5.67435

                             ****ORCA TERMINATED NORMALLY****
TOTAL RUN TIME: 0 days 0 hours 11 minutes 48 seconds 818 msec
