                         Program Version 3.0.3 - RELEASE   -
|  1> ! RI-MP2 RIJK def2-TZVP def2-TZVP/C def2-TZVP/JK TIGHTSCF
|  2> % maxcore 2000
|  3> % mp2 density relaxed end
|  4> *xyz 0 1
|  5>  O        0.1683861460     1.3601784871    -0.1709629658
|  6>  C        0.0361507569     0.0628079988     0.4064778543
|  7>  C       -1.3713879512    -0.4778822549     0.2277370488
|  8>  C       -2.4970069075     0.3450814267     0.8357183945
|  9>  O       -2.6036001228     1.6294072865     0.2665697850
| 10>  O       -1.6332267248    -1.0098895921    -1.0831785207
| 11>  C       -1.5870259950    -1.9271473876     0.0084423593
| 12>  C       -0.4942317509    -2.8779546721     0.0250514179
| 13>  N        0.3641922804    -3.6512275259     0.0575064653
| 14>  H        0.0703338887     1.2622948804    -1.1257984339
| 15>  H        0.7679325602    -0.6354402512    -0.0152972557
| 16>  H        0.2543055334     0.1839851492     1.4721718154
| 17>  H       -3.4513480522    -0.1612737508     0.6593411328
| 18>  H       -2.3380767236     0.3863767021     1.9274381308
| 19>  H       -1.7121029172     2.0042336564     0.2414658111
| 20>  H       -2.5464035304    -2.3572831829     0.2919312509
| 21> *
| 22>
| 23>                          ****END OF INPUT****

CARTESIAN COORDINATES (ANGSTROEM)
---------------------------------
  O      0.168386    1.360178   -0.170963
  C      0.036151    0.062808    0.406478
  C     -1.371388   -0.477882    0.227737
  C     -2.497007    0.345081    0.835718
  O     -2.603600    1.629407    0.266570
  O     -1.633227   -1.009890   -1.083179
  C     -1.587026   -1.927147    0.008442
  C     -0.494232   -2.877955    0.025051
  N      0.364192   -3.651228    0.057506
  H      0.070334    1.262295   -1.125798
  H      0.767933   -0.635440   -0.015297
  H      0.254306    0.183985    1.472172
  H     -3.451348   -0.161274    0.659341
  H     -2.338077    0.386377    1.927438
  H     -1.712103    2.004234    0.241466
  H     -2.546404   -2.357283    0.291931

 Total Charge           Charge          ....    0
 Multiplicity           Mult            ....    1
 Number of Electrons    NEL             ....   68
 Basis Dimension        Dim             ....  321

ORBITAL ENERGIES
----------------

  NO   OCC          E(Eh)            E(eV)
   0   2.0000     -20.619106      -561.0744
   1   2.0000     -20.596673      -560.4640
   2   2.0000     -20.566476      -559.6423
   3   2.0000     -15.599555      -424.4855
   4   2.0000     -11.361829      -309.1711
   5   2.0000     -11.338723      -308.5423
   6   2.0000     -11.317317      -307.9598
   7   2.0000     -11.307217      -307.6850
   8   2.0000     -11.298244      -307.4408
   9   2.0000      -1.467778       -39.9403
  10   2.0000      -1.400762       -38.1167
  11   2.0000      -1.373710       -37.3805
  12   2.0000      -1.242536       -33.8111
  13   2.0000      -1.058660       -28.8076
  14   2.0000      -1.001173       -27.2433
  15   2.0000      -0.961119       -26.1534
  16   2.0000      -0.840640       -22.8750
  17   2.0000      -0.777914       -21.1681
  18   2.0000      -0.748400       -20.3650
  19   2.0000      -0.707889       -19.2626
  20   2.0000      -0.694067       -18.8865
  21   2.0000      -0.647231       -17.6120
  22   2.0000      -0.640090       -17.4177
  23   2.0000      -0.614599       -16.7241
  24   2.0000      -0.604989       -16.4626
  25   2.0000      -0.586923       -15.9710
  26   2.0000      -0.564595       -15.3634
  27   2.0000      -0.549430       -14.9507
  28   2.0000      -0.535005       -14.5582
  29   2.0000      -0.517593       -14.0844
  30   2.0000      -0.490689       -13.3523
  31   2.0000      -0.479326       -13.0431
  32   2.0000      -0.457654       -12.4534
  33   2.0000      -0.449671       -12.2362
  34   0.0000       0.120967         3.2917
  35   0.0000       0.124942         3.3998
  36   0.0000       0.132464         3.6045
  37   0.0000       0.154638         4.2079
  38   0.0000       0.158617         4.3162

MULLIKEN ATOMIC CHARGES
-----------------------
   0 O :   -0.494633
   1 C :   -0.009139
   2 C :    0.053131
   3 C :   -0.001244
   4 O :   -0.472623
   5 O :   -0.299542
   6 C :    0.101913
   7 C :   -0.174961
   8 N :   -0.044668
   9 H :    0.342613
  10 H :    0.151067
  11 H :    0.130427
  12 H :    0.114427
  13 H :    0.107666
  14 H :    0.334561
  15 H :    0.161006
Sum of atomic charges:   -0.0000000

LOEWDIN ATOMIC CHARGES
----------------------
   0 O :   -0.037627
   1 C :   -0.288299
   2 C :   -0.303138
   3 C :   -0.307447
   4 O :   -0.033028
   5 O :    0.215516
   6 C :   -0.236928
   7 C :   -0.168317
   8 N :    0.086680
   9 H :    0.186577
  10 H :    0.139027
  11 H :    0.143557
  12 H :    0.138451
  13 H :    0.128658
  14 H :    0.171979
  15 H :    0.164342

  Mayer bond orders larger than 0.1
B(  0-O ,  1-C ) :   0.8700 B(  0-O ,  9-H ) :   0.8296 B(  1-C ,  2-C ) :   0.9405
B(  1-C , 10-H ) :   0.9238 B(  1-C , 11-H ) :   0.9209 B(  2-C ,  3-C ) :   0.9325
B(  2-C ,  5-O ) :   0.8259 B(  2-C ,  6-C ) :   0.9229 B(  3-C ,  4-O ) :   0.9801
B(  3-C , 12-H ) :   0.9124 B(  3-C , 13-H ) :   0.9291 B(  4-O , 14-H ) :   0.8128
B(  5-O ,  6-C ) :   0.9341 B(  6-C ,  7-C ) :   0.8867 B(  6-C , 15-H ) :   0.8970
B(  7-C ,  8-N ) :   2.8174

MP2 TOTAL ENERGY:     -474.254878444 Eh
FINAL SINGLE POINT ENERGY      -474.254878443863

DIPOLE MOMENT
-------------
                                X             Y             Z
Electronic contribution:      0.99618      -4.38827      -2.40802
Nuclear contribution   :     -1.28266       4.61330       2.88833
                        -----------------------------------------
Total Dipole Moment    :     -0.28648       0.22503       0.48031
                        -----------------------------------------
Magnitude (a.u.)       :      0.60283
Magnitude (Debye)      :      1.53227

                             ****ORCA TERMINATED NORMALLY****
TOTAL RUN TIME: 0 days 0 hours 15 minutes 25 seconds 971 msec
