                         Program Version 3.0.3 - RELEASE   -
|  1> ! RI-MP2 RIJK def2-TZVP def2-TZVP/C def2-TZVP/JK TIGHTSCF
|  2> % maxcore 2000
|  3> % mp2 density relaxed end
|  4> *xyz 0 1
|  5>  C       -0.2745345275     1.5139515496     0.1175188863
|  6>  C       -0.0321164015     0.0140264160    -0.0044498706
|  7>  O       -1.2124552659    -0.6754345762    -0.3539377166
|  8>  C        1.1435601870    -0.3629138749    -0.9457345373
|  9>  C        2.0673108411    -0.5619965531     0.2860017755
| 10>  O        2.8154201694     0.5892028510     0.6478421680
| 11>  C        0.7992186465    -0.6271531089     1.1702922799
| 12>  C        0.8134111123    -0.0123368207     2.5430508352
| 13>  O       -0.1561288123     0.4932245322     3.0560916957
| 14>  H        0.6579980868     2.0427533478     0.3289223849
| 15>  H       -0.6907080953     1.8886380889    -0.8231597002
| 16>  H       -0.9736221785     1.7296475106     0.9308730063
| 17>  H       -1.9183480573    -0.3633682610     0.2234378206
| 18>  H        0.9338493552    -1.3066871040    -1.4547912189
| 19>  H        1.4569941916     0.3882942675    -1.6760959995
| 20>  H        2.7068042182    -1.4527859132     0.2733274365
| 21>  H        3.4542293193     0.7651763046    -0.0504443312
| 22>  H        0.4742849498    -1.6693469756     1.2739228984
| 23>  H        1.7839025710    -0.0654276706     3.0819062769
| 24> *
| 25>
| 26>                          ****END OF INPUT****

CARTESIAN COORDINATES (ANGSTROEM)
---------------------------------
  C     -0.274535    1.513952    0.117519
  C     -0.032116    0.014026   -0.004450
  O     -1.212455   -0.675435   -0.353938
  C      1.143560   -0.362914   -0.945735
  C      2.067311   -0.561997    0.286002
  O      2.815420    0.589203    0.647842
  C      0.799219   -0.627153    1.170292
  C      0.813411   -0.012337    2.543051
  O     -0.156129    0.493225    3.056092
  H      0.657998    2.042753    0.328922
  H     -0.690708    1.888638   -0.823160
  H     -0.973622    1.729648    0.930873
  H     -1.918348   -0.363368    0.223438
  H      0.933849   -1.306687   -1.454791
  H      1.456994    0.388294   -1.676096
  H      2.706804   -1.452786    0.273327
  H      3.454229    0.765176   -0.050444
  H      0.474285   -1.669347    1.273923
  H      1.783903   -0.065428    3.081906

 Total Charge           Charge          ....    0
 Multiplicity           Mult            ....    1
 Number of Electrons    NEL             ....   70
 Basis Dimension        Dim             ....  339

ORBITAL ENERGIES
----------------

  NO   OCC          E(Eh)            E(eV)
   0   2.0000     -20.574789      -559.8685
   1   2.0000     -20.559451      -559.4511
   2   2.0000     -20.553630      -559.2927
   3   2.0000     -11.330321      -308.3137
   4   2.0000     -11.299081      -307.4636
   5   2.0000     -11.298276      -307.4417
   6   2.0000     -11.242175      -305.9151
   7   2.0000     -11.231554      -305.6261
   8   2.0000     -11.214016      -305.1489
   9   2.0000      -1.393396       -37.9162
  10   2.0000      -1.382308       -37.6145
  11   2.0000      -1.369821       -37.2747
  12   2.0000      -1.133713       -30.8499
  13   2.0000      -0.986220       -26.8364
  14   2.0000      -0.961639       -26.1675
  15   2.0000      -0.859632       -23.3918
  16   2.0000      -0.818161       -22.2633
  17   2.0000      -0.752502       -20.4766
  18   2.0000      -0.721775       -19.6405
  19   2.0000      -0.685835       -18.6625
  20   2.0000      -0.675740       -18.3878
  21   2.0000      -0.644388       -17.5347
  22   2.0000      -0.619610       -16.8605
  23   2.0000      -0.605230       -16.4692
  24   2.0000      -0.602861       -16.4047
  25   2.0000      -0.578537       -15.7428
  26   2.0000      -0.544425       -14.8145
  27   2.0000      -0.533887       -14.5278
  28   2.0000      -0.528175       -14.3724
  29   2.0000      -0.512418       -13.9436
  30   2.0000      -0.487612       -13.2686
  31   2.0000      -0.469966       -12.7884
  32   2.0000      -0.447230       -12.1697
  33   2.0000      -0.423765       -11.5312
  34   2.0000      -0.401755       -10.9323
  35   0.0000       0.121308         3.3010
  36   0.0000       0.137659         3.7459
  37   0.0000       0.149424         4.0660
  38   0.0000       0.156095         4.2476
  39   0.0000       0.176626         4.8062

MULLIKEN ATOMIC CHARGES
-----------------------
   0 C :   -0.488420
   1 C :    0.246151
   2 O :   -0.460083
   3 C :   -0.249570
   4 C :   -0.018571
   5 O :   -0.471926
   6 C :   -0.031096
   7 C :    0.085110
   8 O :   -0.281864
   9 H :    0.148270
  10 H :    0.138290
  11 H :    0.149641
  12 H :    0.321210
  13 H :    0.127546
  14 H :    0.126187
  15 H :    0.110372
  16 H :    0.320088
  17 H :    0.132289
  18 H :    0.096378
Sum of atomic charges:    0.0000000

LOEWDIN ATOMIC CHARGES
----------------------
   0 C :   -0.279693
   1 C :   -0.355289
   2 O :    0.010352
   3 C :   -0.184957
   4 C :   -0.296904
   5 O :   -0.015177
   6 C :   -0.185986
   7 C :   -0.266649
   8 O :    0.127222
   9 H :    0.134382
  10 H :    0.128248
  11 H :    0.129439
  12 H :    0.181355
  13 H :    0.146237
  14 H :    0.131569
  15 H :    0.123534
  16 H :    0.177974
  17 H :    0.176710
  18 H :    0.117633

  Mayer bond orders larger than 0.1
B(  0-C ,  1-C ) :   0.9164 B(  0-C ,  9-H ) :   0.9234 B(  0-C , 10-H ) :   0.9360
B(  0-C , 11-H ) :   0.9260 B(  1-C ,  2-O ) :   1.0244 B(  1-C ,  3-C ) :   0.8507
B(  1-C ,  6-C ) :   0.8860 B(  2-O , 12-H ) :   0.8394 B(  3-C ,  4-C ) :   0.9112
B(  3-C , 13-H ) :   0.9065 B(  3-C , 14-H ) :   0.9252 B(  4-C ,  5-O ) :   1.0044
B(  4-C ,  6-C ) :   0.8913 B(  4-C , 15-H ) :   0.9529 B(  5-O , 16-H ) :   0.8421
B(  6-C ,  7-C ) :   0.8362 B(  6-C , 17-H ) :   0.8906 B(  7-C ,  8-O ) :   1.9690
B(  7-C , 18-H ) :   0.9399

MP2 TOTAL ENERGY:     -459.428387364 Eh
FINAL SINGLE POINT ENERGY      -459.428387364232

DIPOLE MOMENT
-------------
                                X             Y             Z
Electronic contribution:     -0.43473      -1.51874       4.04570
Nuclear contribution   :      1.23759       1.25913      -4.76356
                        -----------------------------------------
Total Dipole Moment    :      0.80285      -0.25961      -0.71786
                        -----------------------------------------
Magnitude (a.u.)       :      1.10783
Magnitude (Debye)      :      2.81588

                             ****ORCA TERMINATED NORMALLY****
TOTAL RUN TIME: 0 days 0 hours 19 minutes 21 seconds 531 msec
