                         Program Version 3.0.3 - RELEASE   -
|  1> ! RI-MP2 RIJK def2-TZVP def2-TZVP/C def2-TZVP/JK TIGHTSCF
|  2> % maxcore 2000
|  3> % mp2 density relaxed end
|  4> *xyz 0 1
|  5>  C       -0.0942122427     1.5995726688    -0.0925684136
|  6>  C        0.0642997801     0.0902306337     0.0161976173
|  7>  C        1.0817184843    -0.6358443384    -0.9043095098
|  8>  C        1.3855694379    -1.6081291142     0.2668593564
|  9>  C        2.8155205352    -2.1195748816     0.4647311368
| 10>  C        3.1978489615    -3.0972839954    -0.6225943352
| 11>  O        4.1156425147    -2.9591477579    -1.3896787270
| 12>  C        0.7766799373    -0.5565935285     1.2553932390
| 13>  C        1.7873388471     0.3349711134     1.9732017209
| 14>  H        0.8643899970     2.1190256675     0.0041394896
| 15>  H       -0.5179687805     1.8722734553    -1.0655534832
| 16>  H       -0.7659060461     1.9903448269     0.6801722457
| 17>  H       -0.9185270923    -0.3811646180    -0.0993236365
| 18>  H        0.7146772918    -1.0606676517    -1.8422000354
| 19>  H        1.9445846642    -0.0002578127    -1.1318710654
| 20>  H        0.7078244995    -2.4686017886     0.2094484493
| 21>  H        3.5453138388    -1.3058234063     0.4714103962
| 22>  H        2.8804763079    -2.6518695268     1.4255884402
| 23>  H        2.5346972373    -3.9937873180    -0.6819461107
| 24>  H        0.0947846475    -0.9826578132     1.9987852712
| 25>  H        2.5067657058     0.7926999132     1.2864851459
| 26>  H        1.2790042436     1.1465004839     2.5039753490
| 27>  H        2.3570163100    -0.2355550514     2.7143964492
| 28> *
| 29>
| 30>                          ****END OF INPUT****

CARTESIAN COORDINATES (ANGSTROEM)
---------------------------------
  C     -0.094212    1.599573   -0.092568
  C      0.064300    0.090231    0.016198
  C      1.081718   -0.635844   -0.904310
  C      1.385569   -1.608129    0.266859
  C      2.815521   -2.119575    0.464731
  C      3.197849   -3.097284   -0.622594
  O      4.115643   -2.959148   -1.389679
  C      0.776680   -0.556594    1.255393
  C      1.787339    0.334971    1.973202
  H      0.864390    2.119026    0.004139
  H     -0.517969    1.872273   -1.065553
  H     -0.765906    1.990345    0.680172
  H     -0.918527   -0.381165   -0.099324
  H      0.714677   -1.060668   -1.842200
  H      1.944585   -0.000258   -1.131871
  H      0.707824   -2.468602    0.209448
  H      3.545314   -1.305823    0.471410
  H      2.880476   -2.651870    1.425588
  H      2.534697   -3.993787   -0.681946
  H      0.094785   -0.982658    1.998785
  H      2.506766    0.792700    1.286485
  H      1.279004    1.146500    2.503975
  H      2.357016   -0.235555    2.714396

 Total Charge           Charge          ....    0
 Multiplicity           Mult            ....    1
 Number of Electrons    NEL             ....   70
 Basis Dimension        Dim             ....  363

ORBITAL ENERGIES
----------------

  NO   OCC          E(Eh)            E(eV)
   0   2.0000     -20.553457      -559.2880
   1   2.0000     -11.328377      -308.2608
   2   2.0000     -11.240451      -305.8682
   3   2.0000     -11.237005      -305.7745
   4   2.0000     -11.233502      -305.6791
   5   2.0000     -11.230365      -305.5938
   6   2.0000     -11.221997      -305.3661
   7   2.0000     -11.219956      -305.3105
   8   2.0000     -11.215727      -305.1954
   9   2.0000      -1.392091       -37.8807
  10   2.0000      -1.152042       -31.3487
  11   2.0000      -1.039875       -28.2964
  12   2.0000      -0.990146       -26.9432
  13   2.0000      -0.962429       -26.1890
  14   2.0000      -0.859902       -23.3991
  15   2.0000      -0.832334       -22.6490
  16   2.0000      -0.785037       -21.3619
  17   2.0000      -0.724325       -19.7099
  18   2.0000      -0.676458       -18.4074
  19   2.0000      -0.663459       -18.0536
  20   2.0000      -0.631775       -17.1915
  21   2.0000      -0.611642       -16.6436
  22   2.0000      -0.592541       -16.1239
  23   2.0000      -0.584853       -15.9147
  24   2.0000      -0.557208       -15.1624
  25   2.0000      -0.548701       -14.9309
  26   2.0000      -0.539513       -14.6809
  27   2.0000      -0.529756       -14.4154
  28   2.0000      -0.517420       -14.0797
  29   2.0000      -0.496814       -13.5190
  30   2.0000      -0.459725       -12.5097
  31   2.0000      -0.450398       -12.2559
  32   2.0000      -0.436049       -11.8655
  33   2.0000      -0.423442       -11.5224
  34   2.0000      -0.405667       -11.0387
  35   0.0000       0.122862         3.3433
  36   0.0000       0.136881         3.7247
  37   0.0000       0.140685         3.8282
  38   0.0000       0.153813         4.1855
  39   0.0000       0.166745         4.5374

MULLIKEN ATOMIC CHARGES
-----------------------
   0 C :   -0.423090
   1 C :   -0.006716
   2 C :   -0.316071
   3 C :   -0.115901
   4 C :   -0.166442
   5 C :    0.101943
   6 O :   -0.265379
   7 C :   -0.007456
   8 C :   -0.477770
   9 H :    0.125431
  10 H :    0.136287
  11 H :    0.131957
  12 H :    0.096169
  13 H :    0.125644
  14 H :    0.120067
  15 H :    0.104987
  16 H :    0.116145
  17 H :    0.128113
  18 H :    0.068961
  19 H :    0.103689
  20 H :    0.138483
  21 H :    0.143384
  22 H :    0.137566
Sum of atomic charges:    0.0000000

LOEWDIN ATOMIC CHARGES
----------------------
   0 C :   -0.301734
   1 C :   -0.236933
   2 C :   -0.198106
   3 C :   -0.212846
   4 C :   -0.248246
   5 C :   -0.293835
   6 O :    0.129748
   7 C :   -0.209600
   8 C :   -0.295606
   9 H :    0.122886
  10 H :    0.126321
  11 H :    0.124331
  12 H :    0.150738
  13 H :    0.125574
  14 H :    0.139828
  15 H :    0.153261
  16 H :    0.146898
  17 H :    0.153192
  18 H :    0.108571
  19 H :    0.139431
  20 H :    0.124292
  21 H :    0.126841
  22 H :    0.124995

  Mayer bond orders larger than 0.1
B(  0-C ,  1-C ) :   0.8863 B(  0-C ,  9-H ) :   0.9371 B(  0-C , 10-H ) :   0.9392
B(  0-C , 11-H ) :   0.9429 B(  1-C ,  2-C ) :   0.9256 B(  1-C ,  7-C ) :   0.9058
B(  1-C , 12-H ) :   0.9263 B(  2-C ,  3-C ) :   0.9390 B(  2-C , 13-H ) :   0.9220
B(  2-C , 14-H ) :   0.9185 B(  3-C ,  4-C ) :   0.8748 B(  3-C ,  7-C ) :   0.9145
B(  3-C , 15-H ) :   0.9190 B(  4-C ,  5-C ) :   0.8721 B(  4-C , 16-H ) :   0.9019
B(  4-C , 17-H ) :   0.9191 B(  5-C ,  6-O ) :   2.0133 B(  5-C , 18-H ) :   0.9416
B(  7-C ,  8-C ) :   0.8830 B(  7-C , 19-H ) :   0.9154 B(  8-C , 20-H ) :   0.9439
B(  8-C , 21-H ) :   0.9377 B(  8-C , 22-H ) :   0.9362

MP2 TOTAL ENERGY:     -387.616508999 Eh
FINAL SINGLE POINT ENERGY      -387.616508998543

DIPOLE MOMENT
-------------
                                X             Y             Z
Electronic contribution:      5.34943      -7.91440      -3.98545
Nuclear contribution   :     -6.23197       8.09020       4.73982
                        -----------------------------------------
Total Dipole Moment    :     -0.88254       0.17580       0.75437
                        -----------------------------------------
Magnitude (a.u.)       :      1.17425
Magnitude (Debye)      :      2.98470

                             ****ORCA TERMINATED NORMALLY****
TOTAL RUN TIME: 0 days 0 hours 20 minutes 49 seconds 595 msec
