                         Program Version 3.0.3 - RELEASE   -
|  1> ! RI-MP2 RIJK def2-TZVP def2-TZVP/C def2-TZVP/JK TIGHTSCF
|  2> % maxcore 2000
|  3> % mp2 density relaxed end
|  4> *xyz 0 1
|  5>  C       -0.1391324238     1.5283283788    -0.1347231873
|  6>  C       -0.0566051108     0.0139927969    -0.2106403546
|  7>  O       -1.2802412119    -0.5210318592     0.2851120723
|  8>  C       -1.3745741105    -1.9007445185     0.1997035002
|  9>  C       -1.6859428440    -2.5805939579    -1.1103653261
| 10>  C       -2.7105339446    -2.5612491192     0.0081343417
| 11>  C       -2.7141354141    -3.7552287998     0.9404707838
| 12>  O       -1.3409108193    -3.9968541582     1.2551660107
| 13>  C       -0.6523391182    -2.7527551744     1.2393696572
| 14>  H        0.7855440651     1.9790167803    -0.5073430193
| 15>  H       -0.9739913800     1.8975299174    -0.7371944937
| 16>  H       -0.2926682859     1.8537815440     0.8980552197
| 17>  H        0.1028064114    -0.3194640677    -1.2469595034
| 18>  H        0.7916231234    -0.3556400900     0.3857286385
| 19>  H       -1.8904252315    -1.9294445223    -1.9529064246
| 20>  H       -1.1898612778    -3.5156862292    -1.3519871617
| 21>  H       -3.6054368767    -1.9622278077    -0.1069112585
| 22>  H       -3.2962482393    -3.5267227811     1.8478310129
| 23>  H       -3.1078504237    -4.6771969991     0.5001626843
| 24>  H        0.3970424529    -2.9697081833     1.0142227866
| 25>  H       -0.7059999309    -2.2353427999     2.2115887414
| 26> *
| 27>
| 28>                          ****END OF INPUT****

CARTESIAN COORDINATES (ANGSTROEM)
---------------------------------
  C     -0.139132    1.528328   -0.134723
  C     -0.056605    0.013993   -0.210640
  O     -1.280241   -0.521032    0.285112
  C     -1.374574   -1.900745    0.199704
  C     -1.685943   -2.580594   -1.110365
  C     -2.710534   -2.561249    0.008134
  C     -2.714135   -3.755229    0.940471
  O     -1.340911   -3.996854    1.255166
  C     -0.652339   -2.752755    1.239370
  H      0.785544    1.979017   -0.507343
  H     -0.973991    1.897530   -0.737194
  H     -0.292668    1.853782    0.898055
  H      0.102806   -0.319464   -1.246960
  H      0.791623   -0.355640    0.385729
  H     -1.890425   -1.929445   -1.952906
  H     -1.189861   -3.515686   -1.351987
  H     -3.605437   -1.962228   -0.106911
  H     -3.296248   -3.526723    1.847831
  H     -3.107850   -4.677197    0.500163
  H      0.397042   -2.969708    1.014223
  H     -0.706000   -2.235343    2.211589

 Total Charge           Charge          ....    0
 Multiplicity           Mult            ....    1
 Number of Electrons    NEL             ....   70
 Basis Dimension        Dim             ....  351

ORBITAL ENERGIES
----------------

  NO   OCC          E(Eh)            E(eV)
   0   2.0000     -20.564051      -559.5763
   1   2.0000     -20.553701      -559.2947
   2   2.0000     -11.285177      -307.0853
   3   2.0000     -11.279600      -306.9335
   4   2.0000     -11.275427      -306.8200
   5   2.0000     -11.274577      -306.7968
   6   2.0000     -11.230480      -305.5969
   7   2.0000     -11.227213      -305.5080
   8   2.0000     -11.218171      -305.2620
   9   2.0000      -1.393963       -37.9317
  10   2.0000      -1.372931       -37.3593
  11   2.0000      -1.140830       -31.0436
  12   2.0000      -1.020425       -27.7672
  13   2.0000      -0.984904       -26.8006
  14   2.0000      -0.900856       -24.5135
  15   2.0000      -0.850585       -23.1456
  16   2.0000      -0.787030       -21.4162
  17   2.0000      -0.769829       -20.9481
  18   2.0000      -0.713937       -19.4272
  19   2.0000      -0.663600       -18.0575
  20   2.0000      -0.662821       -18.0363
  21   2.0000      -0.633545       -17.2396
  22   2.0000      -0.610075       -16.6010
  23   2.0000      -0.599625       -16.3166
  24   2.0000      -0.567150       -15.4329
  25   2.0000      -0.561680       -15.2841
  26   2.0000      -0.546169       -14.8620
  27   2.0000      -0.536657       -14.6032
  28   2.0000      -0.523128       -14.2350
  29   2.0000      -0.494236       -13.4488
  30   2.0000      -0.485917       -13.2225
  31   2.0000      -0.455900       -12.4057
  32   2.0000      -0.425953       -11.5908
  33   2.0000      -0.398631       -10.8473
  34   2.0000      -0.389052       -10.5866
  35   0.0000       0.135255         3.6805
  36   0.0000       0.158613         4.3161
  37   0.0000       0.165998         4.5170
  38   0.0000       0.173753         4.7281
  39   0.0000       0.190748         5.1905

MULLIKEN ATOMIC CHARGES
-----------------------
   0 C :   -0.360155
   1 C :   -0.048355
   2 O :   -0.288371
   3 C :    0.144613
   4 C :   -0.317273
   5 C :   -0.140695
   6 C :   -0.036594
   7 O :   -0.327631
   8 C :   -0.050026
   9 H :    0.123955
  10 H :    0.129171
  11 H :    0.131035
  12 H :    0.100917
  13 H :    0.096741
  14 H :    0.139162
  15 H :    0.138890
  16 H :    0.138189
  17 H :    0.098520
  18 H :    0.113859
  19 H :    0.116010
  20 H :    0.098040
Sum of atomic charges:   -0.0000000

LOEWDIN ATOMIC CHARGES
----------------------
   0 C :   -0.316592
   1 C :   -0.332225
   2 O :    0.215716
   3 C :   -0.342620
   4 C :   -0.188297
   5 C :   -0.188800
   6 C :   -0.279982
   7 O :    0.149026
   8 C :   -0.267775
   9 H :    0.125090
  10 H :    0.124085
  11 H :    0.124577
  12 H :    0.119667
  13 H :    0.118633
  14 H :    0.140691
  15 H :    0.139524
  16 H :    0.150413
  17 H :    0.124673
  18 H :    0.128161
  19 H :    0.128212
  20 H :    0.127825

  Mayer bond orders larger than 0.1
B(  0-C ,  1-C ) :   0.9540 B(  0-C ,  9-H ) :   0.9321 B(  0-C , 10-H ) :   0.9363
B(  0-C , 11-H ) :   0.9353 B(  1-C ,  2-O ) :   0.8826 B(  1-C , 12-H ) :   0.9226
B(  1-C , 13-H ) :   0.9220 B(  2-O ,  3-C ) :   1.0298 B(  3-C ,  4-C ) :   0.8955
B(  3-C ,  5-C ) :   0.8640 B(  3-C ,  8-C ) :   0.9415 B(  4-C ,  5-C ) :   0.8896
B(  4-C , 14-H ) :   0.9220 B(  4-C , 15-H ) :   0.8982 B(  5-C ,  6-C ) :   0.9691
B(  5-C , 16-H ) :   0.9053 B(  6-C ,  7-O ) :   0.9227 B(  6-C , 17-H ) :   0.9323
B(  6-C , 18-H ) :   0.9202 B(  7-O ,  8-C ) :   0.9337 B(  8-C , 19-H ) :   0.9194
B(  8-C , 20-H ) :   0.9181

MP2 TOTAL ENERGY:     -423.499678319 Eh
FINAL SINGLE POINT ENERGY      -423.499678318758

DIPOLE MOMENT
-------------
                                X             Y             Z
Electronic contribution:     -2.38388      -5.19082       1.96157
Nuclear contribution   :      2.49703       5.61336      -2.32268
                        -----------------------------------------
Total Dipole Moment    :      0.11315       0.42254      -0.36111
                        -----------------------------------------
Magnitude (a.u.)       :      0.56722
Magnitude (Debye)      :      1.44177

                             ****ORCA TERMINATED NORMALLY****
TOTAL RUN TIME: 0 days 0 hours 16 minutes 44 seconds 555 msec
