                         Program Version 3.0.3 - RELEASE   -
|  1> ! RI-MP2 RIJK def2-TZVP def2-TZVP/C def2-TZVP/JK TIGHTSCF
|  2> % maxcore 2000
|  3> % mp2 density relaxed end
|  4> *xyz 0 1
|  5>  C        0.1746761943     1.6131082557    -0.1657198700
|  6>  C        0.1046871632     0.0865966818    -0.0661791612
|  7>  C        0.6345857824    -0.4861064486     1.2612120021
|  8>  C       -0.2664938195    -0.1703179396     2.4936835105
|  9>  C       -1.2612156848    -1.3144105780     2.8270195413
| 10>  C       -0.6764717079    -2.6530971433     2.3831811636
| 11>  C        0.8596775658    -2.7021692577     2.5319079474
| 12>  C        0.7952512408    -2.0086368308     1.1555361642
| 13>  O       -0.5209676174    -2.5978408878     0.9346144149
| 14>  H        1.2057188903     1.9706769246    -0.0623976107
| 15>  H       -0.2005495664     1.9593809495    -1.1339113177
| 16>  H       -0.4225191959     2.1048519488     0.6091800551
| 17>  H       -0.9236741447    -0.2591287195    -0.2163286481
| 18>  H        0.6884791455    -0.3470621755    -0.8893815520
| 19>  H        1.6303305655    -0.0556662714     1.4419949862
| 20>  H        0.3778199361    -0.0059758975     3.3632255454
| 21>  H       -0.8068044905     0.7692064468     2.3477068799
| 22>  H       -1.4858342084    -1.3191926644     3.9003366897
| 23>  H       -2.2119761039    -1.1816894136     2.2995201333
| 24>  H       -1.2697830229    -3.5153426808     2.7003456481
| 25>  H        1.3310562377    -2.1819108803     3.3684333830
| 26>  H        1.2421364793    -3.7210345055     2.4551397408
| 27>  H        1.5082652416    -2.3033425030     0.3790579742
| 28> *
| 29>
| 30>                          ****END OF INPUT****

CARTESIAN COORDINATES (ANGSTROEM)
---------------------------------
  C      0.174676    1.613108   -0.165720
  C      0.104687    0.086597   -0.066179
  C      0.634586   -0.486106    1.261212
  C     -0.266494   -0.170318    2.493684
  C     -1.261216   -1.314411    2.827020
  C     -0.676472   -2.653097    2.383181
  C      0.859678   -2.702169    2.531908
  C      0.795251   -2.008637    1.155536
  O     -0.520968   -2.597841    0.934614
  H      1.205719    1.970677   -0.062398
  H     -0.200550    1.959381   -1.133911
  H     -0.422519    2.104852    0.609180
  H     -0.923674   -0.259129   -0.216329
  H      0.688479   -0.347062   -0.889382
  H      1.630331   -0.055666    1.441995
  H      0.377820   -0.005976    3.363226
  H     -0.806804    0.769206    2.347707
  H     -1.485834   -1.319193    3.900337
  H     -2.211976   -1.181689    2.299520
  H     -1.269783   -3.515343    2.700346
  H      1.331056   -2.181911    3.368433
  H      1.242136   -3.721035    2.455140
  H      1.508265   -2.303343    0.379058

 Total Charge           Charge          ....    0
 Multiplicity           Mult            ....    1
 Number of Electrons    NEL             ....   70
 Basis Dimension        Dim             ....  363

ORBITAL ENERGIES
----------------

  NO   OCC          E(Eh)            E(eV)
   0   2.0000     -20.536530      -558.8274
   1   2.0000     -11.278216      -306.8959
   2   2.0000     -11.276719      -306.8551
   3   2.0000     -11.224731      -305.4405
   4   2.0000     -11.223956      -305.4194
   5   2.0000     -11.220675      -305.3301
   6   2.0000     -11.219741      -305.3047
   7   2.0000     -11.212774      -305.1151
   8   2.0000     -11.209748      -305.0327
   9   2.0000      -1.373197       -37.3666
  10   2.0000      -1.092381       -29.7252
  11   2.0000      -1.038663       -28.2635
  12   2.0000      -0.991798       -26.9882
  13   2.0000      -0.968797       -26.3623
  14   2.0000      -0.862175       -23.4610
  15   2.0000      -0.832126       -22.6433
  16   2.0000      -0.790607       -21.5135
  17   2.0000      -0.707413       -19.2497
  18   2.0000      -0.698587       -19.0095
  19   2.0000      -0.641440       -17.4545
  20   2.0000      -0.631430       -17.1821
  21   2.0000      -0.603242       -16.4150
  22   2.0000      -0.580804       -15.8045
  23   2.0000      -0.565226       -15.3806
  24   2.0000      -0.542437       -14.7605
  25   2.0000      -0.534986       -14.5577
  26   2.0000      -0.520674       -14.1683
  27   2.0000      -0.515555       -14.0290
  28   2.0000      -0.490247       -13.3403
  29   2.0000      -0.486399       -13.2356
  30   2.0000      -0.471637       -12.8339
  31   2.0000      -0.462140       -12.5755
  32   2.0000      -0.434442       -11.8218
  33   2.0000      -0.423560       -11.5257
  34   2.0000      -0.389866       -10.6088
  35   0.0000       0.132692         3.6107
  36   0.0000       0.155836         4.2405
  37   0.0000       0.159476         4.3396
  38   0.0000       0.167732         4.5642
  39   0.0000       0.183727         4.9995

MULLIKEN ATOMIC CHARGES
-----------------------
   0 C :   -0.389102
   1 C :   -0.251631
   2 C :   -0.088918
   3 C :   -0.258352
   4 C :   -0.272212
   5 C :    0.096574
   6 C :   -0.273264
   7 C :    0.135804
   8 O :   -0.348281
   9 H :    0.119435
  10 H :    0.135119
  11 H :    0.119064
  12 H :    0.132720
  13 H :    0.105957
  14 H :    0.084950
  15 H :    0.127537
  16 H :    0.124958
  17 H :    0.111507
  18 H :    0.115795
  19 H :    0.112462
  20 H :    0.122711
  21 H :    0.123733
  22 H :    0.113433
Sum of atomic charges:    0.0000000

LOEWDIN ATOMIC CHARGES
----------------------
   0 C :   -0.320961
   1 C :   -0.269918
   2 C :   -0.237743
   3 C :   -0.227320
   4 C :   -0.244563
   5 C :   -0.273780
   6 C :   -0.203396
   7 C :   -0.252755
   8 O :    0.152612
   9 H :    0.119373
  10 H :    0.121465
  11 H :    0.116895
  12 H :    0.142253
  13 H :    0.138824
  14 H :    0.154078
  15 H :    0.136704
  16 H :    0.136954
  17 H :    0.137884
  18 H :    0.142094
  19 H :    0.130622
  20 H :    0.130196
  21 H :    0.137360
  22 H :    0.133123

  Mayer bond orders larger than 0.1
B(  0-C ,  1-C ) :   0.9108 B(  0-C ,  9-H ) :   0.9370 B(  0-C , 10-H ) :   0.9442
B(  0-C , 11-H ) :   0.9406 B(  1-C ,  2-C ) :   0.9035 B(  1-C , 12-H ) :   0.9350
B(  1-C , 13-H ) :   0.9363 B(  2-C ,  3-C ) :   0.8999 B(  2-C ,  7-C ) :   0.9241
B(  2-C , 14-H ) :   0.9172 B(  3-C ,  4-C ) :   0.9448 B(  3-C , 15-H ) :   0.9337
B(  3-C , 16-H ) :   0.9388 B(  4-C ,  5-C ) :   0.9385 B(  4-C , 17-H ) :   0.9212
B(  4-C , 18-H ) :   0.9230 B(  5-C ,  6-C ) :   0.9552 B(  5-C ,  8-O ) :   0.9178
B(  5-C , 19-H ) :   0.9238 B(  6-C ,  7-C ) :   0.9270 B(  6-C , 20-H ) :   0.9285
B(  6-C , 21-H ) :   0.9255 B(  7-C ,  8-O ) :   0.8935 B(  7-C , 22-H ) :   0.9210

MP2 TOTAL ENERGY:     -387.617486703 Eh
FINAL SINGLE POINT ENERGY      -387.617486702737

DIPOLE MOMENT
-------------
                                X             Y             Z
Electronic contribution:     -0.62009      -6.88217       0.50558
Nuclear contribution   :      0.95644       7.11028       0.04357
                        -----------------------------------------
Total Dipole Moment    :      0.33635       0.22812       0.54914
                        -----------------------------------------
Magnitude (a.u.)       :      0.68317
Magnitude (Debye)      :      1.73649

                             ****ORCA TERMINATED NORMALLY****
TOTAL RUN TIME: 0 days 0 hours 20 minutes 58 seconds 285 msec
