                         Program Version 3.0.3 - RELEASE   -
|  1> ! RI-MP2 RIJK def2-TZVP def2-TZVP/C def2-TZVP/JK TIGHTSCF
|  2> % maxcore 2000
|  3> % mp2 density relaxed end
|  4> *xyz 0 1
|  5>  O        0.1294492385     1.3295851910    -0.3687613096
|  6>  C       -0.0075936224     0.0825124487     0.3001891987
|  7>  C       -1.3582228157    -0.4734581581     0.2352330352
|  8>  C       -2.4696729389    -0.9317636147     0.1207016968
|  9>  C       -3.8247975945    -1.4086745788     0.0489684665
| 10>  C       -4.7823056730    -0.6791081635     0.9856151390
| 11>  O       -4.8714937348     0.7036140627     0.7094934598
| 12>  C       -4.3561887597    -1.8796957789    -1.2956688299
| 13>  C       -4.0734862517    -2.8854073667    -0.2189877152
| 14>  H       -0.2150039201     1.2159863597    -1.2608188871
| 15>  H        0.7073542016    -0.6614208089    -0.0869015534
| 16>  H        0.2737057603     0.2742799097     1.3417231243
| 17>  H       -5.7920916879    -1.0837258843     0.8598947765
| 18>  H       -4.4756198070    -0.8622811128     2.0273404513
| 19>  H       -3.9780330924     1.0622725340     0.7691931737
| 20>  H       -5.3882303300    -1.6352951360    -1.5217144566
| 21>  H       -3.6834005007    -1.8347733193    -2.1435468072
| 22>  H       -3.2065875272    -3.5263284877    -0.3249903204
| 23>  H       -4.9116904843    -3.3412688460     0.2976613475
| 24> *
| 25>
| 26>                          ****END OF INPUT****

CARTESIAN COORDINATES (ANGSTROEM)
---------------------------------
  O      0.129449    1.329585   -0.368761
  C     -0.007594    0.082512    0.300189
  C     -1.358223   -0.473458    0.235233
  C     -2.469673   -0.931764    0.120702
  C     -3.824798   -1.408675    0.048968
  C     -4.782306   -0.679108    0.985615
  O     -4.871494    0.703614    0.709493
  C     -4.356189   -1.879696   -1.295669
  C     -4.073486   -2.885407   -0.218988
  H     -0.215004    1.215986   -1.260819
  H      0.707354   -0.661421   -0.086902
  H      0.273706    0.274280    1.341723
  H     -5.792092   -1.083726    0.859895
  H     -4.475620   -0.862281    2.027340
  H     -3.978033    1.062273    0.769193
  H     -5.388230   -1.635295   -1.521714
  H     -3.683401   -1.834773   -2.143547
  H     -3.206588   -3.526328   -0.324990
  H     -4.911690   -3.341269    0.297661

 Total Charge           Charge          ....    0
 Multiplicity           Mult            ....    1
 Number of Electrons    NEL             ....   68
 Basis Dimension        Dim             ....  339

ORBITAL ENERGIES
----------------

  NO   OCC          E(Eh)            E(eV)
   0   2.0000     -20.568144      -559.6877
   1   2.0000     -20.554432      -559.3145
   2   2.0000     -11.309102      -307.7363
   3   2.0000     -11.284820      -307.0756
   4   2.0000     -11.266831      -306.5861
   5   2.0000     -11.246091      -306.0217
   6   2.0000     -11.243025      -305.9383
   7   2.0000     -11.239778      -305.8499
   8   2.0000     -11.232161      -305.6426
   9   2.0000      -1.372360       -37.3438
  10   2.0000      -1.362109       -37.0649
  11   2.0000      -1.172911       -31.9165
  12   2.0000      -1.053217       -28.6595
  13   2.0000      -0.966338       -26.2954
  14   2.0000      -0.938996       -25.5514
  15   2.0000      -0.841033       -22.8857
  16   2.0000      -0.835009       -22.7217
  17   2.0000      -0.725401       -19.7392
  18   2.0000      -0.701134       -19.0788
  19   2.0000      -0.688214       -18.7273
  20   2.0000      -0.661878       -18.0106
  21   2.0000      -0.649037       -17.6612
  22   2.0000      -0.621307       -16.9066
  23   2.0000      -0.597660       -16.2631
  24   2.0000      -0.588805       -16.0222
  25   2.0000      -0.542011       -14.7489
  26   2.0000      -0.532962       -14.5026
  27   2.0000      -0.517452       -14.0806
  28   2.0000      -0.478826       -13.0295
  29   2.0000      -0.473058       -12.8726
  30   2.0000      -0.466377       -12.6908
  31   2.0000      -0.442814       -12.0496
  32   2.0000      -0.379583       -10.3290
  33   2.0000      -0.365041        -9.9333
  34   0.0000       0.123403         3.3580
  35   0.0000       0.150134         4.0853
  36   0.0000       0.155240         4.2243
  37   0.0000       0.166102         4.5199
  38   0.0000       0.169879         4.6227

MULLIKEN ATOMIC CHARGES
-----------------------
   0 O :   -0.458428
   1 C :   -0.065691
   2 C :   -0.011361
   3 C :   -0.082199
   4 C :   -0.055794
   5 C :   -0.011491
   6 O :   -0.473506
   7 C :   -0.261439
   8 C :   -0.271236
   9 H :    0.319884
  10 H :    0.134187
  11 H :    0.138555
  12 H :    0.105461
  13 H :    0.109483
  14 H :    0.324763
  15 H :    0.141002
  16 H :    0.138424
  17 H :    0.140727
  18 H :    0.138657
Sum of atomic charges:   -0.0000000

LOEWDIN ATOMIC CHARGES
----------------------
   0 O :   -0.043076
   1 C :   -0.336157
   2 C :   -0.084282
   3 C :   -0.041543
   4 C :   -0.251289
   5 C :   -0.294078
   6 O :   -0.035539
   7 C :   -0.182580
   8 C :   -0.183828
   9 H :    0.177171
  10 H :    0.135289
  11 H :    0.145557
  12 H :    0.134903
  13 H :    0.125429
  14 H :    0.180058
  15 H :    0.139343
  16 H :    0.138251
  17 H :    0.139052
  18 H :    0.137319

  Mayer bond orders larger than 0.1
B(  0-O ,  1-C ) :   0.9566 B(  0-O ,  9-H ) :   0.8420 B(  1-C ,  2-C ) :   0.8574
B(  1-C , 10-H ) :   0.9821 B(  1-C , 11-H ) :   0.9205 B(  2-C ,  3-C ) :   2.6494
B(  2-C ,  4-C ) :  -0.1842 B(  3-C ,  4-C ) :   1.1603 B(  4-C ,  5-C ) :   0.9761
B(  4-C ,  7-C ) :   0.8098 B(  4-C ,  8-C ) :   0.8419 B(  5-C ,  6-O ) :   0.9542
B(  5-C , 12-H ) :   0.9046 B(  5-C , 13-H ) :   0.9335 B(  6-O , 14-H ) :   0.8378
B(  7-C ,  8-C ) :   0.9191 B(  7-C , 15-H ) :   0.9254 B(  7-C , 16-H ) :   0.9300
B(  8-C , 17-H ) :   0.9236 B(  8-C , 18-H ) :   0.9252

MP2 TOTAL ENERGY:     -422.264635645 Eh
FINAL SINGLE POINT ENERGY      -422.264635645127

DIPOLE MOMENT
-------------
                                X             Y             Z
Electronic contribution:      2.34013       3.08066       0.34794
Nuclear contribution   :     -2.17513      -4.03956      -0.59577
                        -----------------------------------------
Total Dipole Moment    :      0.16500      -0.95890      -0.24783
                        -----------------------------------------
Magnitude (a.u.)       :      1.00406
Magnitude (Debye)      :      2.55212

                             ****ORCA TERMINATED NORMALLY****
TOTAL RUN TIME: 0 days 0 hours 15 minutes 16 seconds 558 msec
