                         Program Version 3.0.3 - RELEASE   -
|  1> ! RI-MP2 RIJK def2-TZVP def2-TZVP/C def2-TZVP/JK TIGHTSCF
|  2> % maxcore 2000
|  3> % mp2 density relaxed end
|  4> *xyz 0 1
|  5>  C       -0.0591376088     1.5574209619    -0.1333593374
|  6>  C       -0.1394989618     0.0393711355    -0.2207079691
|  7>  C       -0.2165256001    -0.7889769834     1.0337743387
|  8>  C       -1.4207222219    -0.6721260529     0.1298357274
|  9>  C        1.3353164417     2.0731341690     0.0564513071
| 10>  C        2.0530846521     2.4193115392     1.1864865158
| 11>  C        3.3288055759     2.7903056758     0.7116714206
| 12>  N        3.4155557456     2.6902547449    -0.6112770712
| 13>  N        2.1951570117     2.2515519185    -0.9816573441
| 14>  H       -0.4974368427     2.0007925166    -1.0378569152
| 15>  H       -0.6756730463     1.9015239260     0.7040415759
| 16>  H        0.4378038207    -0.3890081850    -1.0360590786
| 17>  H        0.3171563914    -1.7321021841     1.0651230084
| 18>  H       -0.2432545690    -0.2652424181     1.9838783575
| 19>  H       -2.2560325843    -0.0704503929     0.4738462341
| 20>  H       -1.7111977474    -1.5349491434    -0.4592118623
| 21>  H        1.6976146770     2.4060802706     2.2043462628
| 22>  H        4.1837503126     3.1305194892     1.2778139303
| 23>  H        2.0078139634     2.1093725425    -1.9601103406
| 24> *
| 25>
| 26>                          ****END OF INPUT****

CARTESIAN COORDINATES (ANGSTROEM)
---------------------------------
  C     -0.059138    1.557421   -0.133359
  C     -0.139499    0.039371   -0.220708
  C     -0.216526   -0.788977    1.033774
  C     -1.420722   -0.672126    0.129836
  C      1.335316    2.073134    0.056451
  C      2.053085    2.419312    1.186487
  C      3.328806    2.790306    0.711671
  N      3.415556    2.690255   -0.611277
  N      2.195157    2.251552   -0.981657
  H     -0.497437    2.000793   -1.037857
  H     -0.675673    1.901524    0.704042
  H      0.437804   -0.389008   -1.036059
  H      0.317156   -1.732102    1.065123
  H     -0.243255   -0.265242    1.983878
  H     -2.256033   -0.070450    0.473846
  H     -1.711198   -1.534949   -0.459212
  H      1.697615    2.406080    2.204346
  H      4.183750    3.130519    1.277814
  H      2.007814    2.109373   -1.960110

 Total Charge           Charge          ....    0
 Multiplicity           Mult            ....    1
 Number of Electrons    NEL             ....   66
 Basis Dimension        Dim             ....  339

ORBITAL ENERGIES
----------------

  NO   OCC          E(Eh)            E(eV)
   0   2.0000     -15.627312      -425.2408
   1   2.0000     -15.576126      -423.8479
   2   2.0000     -11.275369      -306.8184
   3   2.0000     -11.249975      -306.1274
   4   2.0000     -11.244967      -305.9911
   5   2.0000     -11.242624      -305.9273
   6   2.0000     -11.231906      -305.6357
   7   2.0000     -11.230216      -305.5897
   8   2.0000     -11.210249      -305.0464
   9   2.0000      -1.365082       -37.1458
  10   2.0000      -1.156497       -31.4699
  11   2.0000      -1.099019       -29.9058
  12   2.0000      -1.055915       -28.7329
  13   2.0000      -0.970787       -26.4165
  14   2.0000      -0.829652       -22.5760
  15   2.0000      -0.814081       -22.1523
  16   2.0000      -0.795944       -21.6587
  17   2.0000      -0.790900       -21.5215
  18   2.0000      -0.699883       -19.0448
  19   2.0000      -0.668071       -18.1791
  20   2.0000      -0.637141       -17.3375
  21   2.0000      -0.601886       -16.3781
  22   2.0000      -0.599030       -16.3004
  23   2.0000      -0.588513       -16.0143
  24   2.0000      -0.559581       -15.2270
  25   2.0000      -0.546265       -14.8646
  26   2.0000      -0.519859       -14.1461
  27   2.0000      -0.509651       -13.8683
  28   2.0000      -0.449765       -12.2387
  29   2.0000      -0.426421       -11.6035
  30   2.0000      -0.418479       -11.3874
  31   2.0000      -0.358286        -9.7495
  32   2.0000      -0.330999        -9.0069
  33   0.0000       0.126688         3.4473
  34   0.0000       0.143482         3.9044
  35   0.0000       0.158595         4.3156
  36   0.0000       0.164123         4.4660
  37   0.0000       0.170854         4.6492

MULLIKEN ATOMIC CHARGES
-----------------------
   0 C :   -0.330437
   1 C :   -0.061939
   2 C :   -0.269871
   3 C :   -0.260362
   4 C :    0.134030
   5 C :   -0.194408
   6 C :   -0.108138
   7 N :   -0.226916
   8 N :   -0.114695
   9 H :    0.136456
  10 H :    0.146419
  11 H :    0.118639
  12 H :    0.131911
  13 H :    0.125602
  14 H :    0.127106
  15 H :    0.131382
  16 H :    0.135153
  17 H :    0.129346
  18 H :    0.250723
Sum of atomic charges:    0.0000000

LOEWDIN ATOMIC CHARGES
----------------------
   0 C :   -0.217492
   1 C :   -0.228804
   2 C :   -0.226713
   3 C :   -0.230379
   4 C :   -0.235457
   5 C :   -0.185874
   6 C :   -0.281033
   7 N :    0.016353
   8 N :    0.146537
   9 H :    0.149508
  10 H :    0.157316
  11 H :    0.146288
  12 H :    0.132032
  13 H :    0.132692
  14 H :    0.132246
  15 H :    0.131186
  16 H :    0.141094
  17 H :    0.132166
  18 H :    0.188334

  Mayer bond orders larger than 0.1
B(  0-C ,  1-C ) :   0.8938 B(  0-C ,  4-C ) :   0.8974 B(  0-C ,  9-H ) :   0.9378
B(  0-C , 10-H ) :   0.9441 B(  1-C ,  2-C ) :   0.9011 B(  1-C ,  3-C ) :   0.8835
B(  1-C , 11-H ) :   0.9217 B(  2-C ,  3-C ) :   0.9018 B(  2-C , 12-H ) :   0.9297
B(  2-C , 13-H ) :   0.9299 B(  3-C , 14-H ) :   0.9280 B(  3-C , 15-H ) :   0.9283
B(  4-C ,  5-C ) :   1.4058 B(  4-C ,  7-N ) :   0.1077 B(  4-C ,  8-N ) :   1.1737
B(  5-C ,  6-C ) :   1.3032 B(  5-C , 16-H ) :   0.9276 B(  6-C ,  7-N ) :   1.5350
B(  6-C , 17-H ) :   0.9412 B(  7-N ,  8-N ) :   1.0656 B(  8-N , 18-H ) :   0.8713

MP2 TOTAL ENERGY:     -381.399450080 Eh
FINAL SINGLE POINT ENERGY      -381.399450079889

DIPOLE MOMENT
-------------
                                X             Y             Z
Electronic contribution:      6.71969       5.22863      -2.02468
Nuclear contribution   :     -7.71251      -5.64124       1.92192
                        -----------------------------------------
Total Dipole Moment    :     -0.99281      -0.41261      -0.10277
                        -----------------------------------------
Magnitude (a.u.)       :      1.08004
Magnitude (Debye)      :      2.74525

                             ****ORCA TERMINATED NORMALLY****
TOTAL RUN TIME: 0 days 0 hours 16 minutes 34 seconds 680 msec
