                         Program Version 3.0.3 - RELEASE   -
|  1> ! RI-MP2 RIJK def2-TZVP def2-TZVP/C def2-TZVP/JK TIGHTSCF
|  2> % maxcore 2000
|  3> % mp2 density relaxed end
|  4> *xyz 0 1
|  5>  O       -0.0635644868     1.3771533853     0.0949499830
|  6>  C       -0.0495223547    -0.0323621176     0.2394233833
|  7>  C       -1.3487459974    -0.5564573453    -0.3835102679
|  8>  C       -1.4700001016    -2.0055483625    -0.2999219388
|  9>  C       -1.5434881309    -3.2065031309    -0.2170065780
| 10>  C       -1.6598037684    -4.6358358027    -0.1454430505
| 11>  C       -1.5566519083    -5.3290059872     1.1745538377
| 12>  N       -2.8503886259    -5.2566112465     0.4898980789
| 13>  H        0.7485715595     1.7282147194     0.4710416857
| 14>  H        0.8105825669    -0.4876285039    -0.2736642227
| 15>  H       -0.0034988732    -0.3345511959     1.2964323787
| 16>  H       -2.1936321557    -0.0725670779     0.1218805957
| 17>  H       -1.3878928106    -0.2290492684    -1.4296512882
| 18>  H       -1.3242583101    -5.1760662550    -1.0272052157
| 19>  H       -1.1150680259    -6.3206685357     1.2182473005
| 20>  H       -1.3862354975    -4.7091073321     2.0497286534
| 21>  H       -3.4155115595    -4.5199781428     0.9059733251
| 22> *
| 23>
| 24>                          ****END OF INPUT****

CARTESIAN COORDINATES (ANGSTROEM)
---------------------------------
  O     -0.063564    1.377153    0.094950
  C     -0.049522   -0.032362    0.239423
  C     -1.348746   -0.556457   -0.383510
  C     -1.470000   -2.005548   -0.299922
  C     -1.543488   -3.206503   -0.217007
  C     -1.659804   -4.635836   -0.145443
  C     -1.556652   -5.329006    1.174554
  N     -2.850389   -5.256611    0.489898
  H      0.748572    1.728215    0.471042
  H      0.810583   -0.487629   -0.273664
  H     -0.003499   -0.334551    1.296432
  H     -2.193632   -0.072567    0.121881
  H     -1.387893   -0.229049   -1.429651
  H     -1.324258   -5.176066   -1.027205
  H     -1.115068   -6.320669    1.218247
  H     -1.386235   -4.709107    2.049729
  H     -3.415512   -4.519978    0.905973

 Total Charge           Charge          ....    0
 Multiplicity           Mult            ....    1
 Number of Electrons    NEL             ....   60
 Basis Dimension        Dim             ....  302

ORBITAL ENERGIES
----------------

  NO   OCC          E(Eh)            E(eV)
   0   2.0000     -20.564870      -559.5986
   1   2.0000     -15.567518      -423.6137
   2   2.0000     -11.288027      -307.1628
   3   2.0000     -11.283446      -307.0382
   4   2.0000     -11.265484      -306.5494
   5   2.0000     -11.251581      -306.1711
   6   2.0000     -11.232596      -305.6545
   7   2.0000     -11.227198      -305.5076
   8   2.0000      -1.370053       -37.2810
   9   2.0000      -1.269669       -34.5494
  10   2.0000      -1.079930       -29.3864
  11   2.0000      -1.006059       -27.3763
  12   2.0000      -0.911452       -24.8019
  13   2.0000      -0.874643       -23.8002
  14   2.0000      -0.848095       -23.0778
  15   2.0000      -0.734842       -19.9961
  16   2.0000      -0.714602       -19.4453
  17   2.0000      -0.663566       -18.0565
  18   2.0000      -0.652963       -17.7680
  19   2.0000      -0.613599       -16.6969
  20   2.0000      -0.592169       -16.1137
  21   2.0000      -0.562695       -15.3117
  22   2.0000      -0.558253       -15.1908
  23   2.0000      -0.514405       -13.9977
  24   2.0000      -0.504894       -13.7389
  25   2.0000      -0.497959       -13.5502
  26   2.0000      -0.455048       -12.3825
  27   2.0000      -0.432871       -11.7790
  28   2.0000      -0.378862       -10.3094
  29   2.0000      -0.352757        -9.5990
  30   0.0000       0.129536         3.5249
  31   0.0000       0.144614         3.9352
  32   0.0000       0.160987         4.3807
  33   0.0000       0.167159         4.5486
  34   0.0000       0.173156         4.7118

MULLIKEN ATOMIC CHARGES
-----------------------
   0 O :   -0.461352
   1 C :   -0.047426
   2 C :   -0.237638
   3 C :   -0.020319
   4 C :   -0.024841
   5 C :   -0.173789
   6 C :   -0.133455
   7 N :   -0.340087
   8 H :    0.319117
   9 H :    0.103489
  10 H :    0.099825
  11 H :    0.142444
  12 H :    0.145051
  13 H :    0.143067
  14 H :    0.126634
  15 H :    0.132472
  16 H :    0.226807
Sum of atomic charges:   -0.0000000

LOEWDIN ATOMIC CHARGES
----------------------
   0 O :   -0.048481
   1 C :   -0.337722
   2 C :   -0.251712
   3 C :   -0.067303
   4 C :   -0.076526
   5 C :   -0.264799
   6 C :   -0.250831
   7 N :   -0.005922
   8 H :    0.174668
   9 H :    0.118285
  10 H :    0.117482
  11 H :    0.158624
  12 H :    0.159024
  13 H :    0.155742
  14 H :    0.125386
  15 H :    0.124640
  16 H :    0.169445

  Mayer bond orders larger than 0.1
B(  0-O ,  1-C ) :   1.0200 B(  0-O ,  2-C ) :  -0.1180 B(  0-O ,  8-H ) :   0.8466
B(  1-C ,  2-C ) :   0.9426 B(  1-C ,  9-H ) :   0.9298 B(  1-C , 10-H ) :   0.9295
B(  2-C ,  3-C ) :   0.9398 B(  2-C , 11-H ) :   0.9223 B(  2-C , 12-H ) :   0.9290
B(  3-C ,  4-C ) :   2.5860 B(  4-C ,  5-C ) :   1.0824 B(  5-C ,  6-C ) :   0.9393
B(  5-C ,  7-N ) :   0.9487 B(  5-C , 13-H ) :   0.9154 B(  6-C ,  7-N ) :   0.9195
B(  6-C , 14-H ) :   0.9232 B(  6-C , 15-H ) :   0.9175 B(  7-N , 16-H ) :   0.8776

MP2 TOTAL ENERGY:     -363.172775468 Eh
FINAL SINGLE POINT ENERGY      -363.172775468434

DIPOLE MOMENT
-------------
                                X             Y             Z
Electronic contribution:     -1.26544      -0.66195      -1.33681
Nuclear contribution   :      2.09581       1.00810       1.90008
                        -----------------------------------------
Total Dipole Moment    :      0.83037       0.34615       0.56327
                        -----------------------------------------
Magnitude (a.u.)       :      1.06142
Magnitude (Debye)      :      2.69790

                             ****ORCA TERMINATED NORMALLY****
TOTAL RUN TIME: 0 days 0 hours 9 minutes 39 seconds 738 msec
