                         Program Version 3.0.3 - RELEASE   -
|  1> ! RI-MP2 RIJK def2-TZVP def2-TZVP/C def2-TZVP/JK TIGHTSCF
|  2> % maxcore 2000
|  3> % mp2 density relaxed end
|  4> *xyz 0 1
|  5>  O       -0.1247049376     1.3003462902     0.0151343396
|  6>  N        0.0049767894    -0.0914995445    -0.0671256674
|  7>  C       -1.1286316557    -0.6642034475    -0.0227715080
|  8>  C       -2.5066388596    -0.0455529815     0.0787958016
|  9>  C       -3.4084544729    -1.2581274900     0.0547003268
| 10>  C       -2.7292493225    -2.4032945037    -0.0358535770
| 11>  C       -1.2640831357    -2.1602282978    -0.0859210721
| 12>  C       -0.2679177327    -3.0522963571    -0.7032018180
| 13>  O       -0.3924742328    -2.9819030945     0.7135223887
| 14>  H        0.7921268072     1.5954318685    -0.0133199872
| 15>  H       -2.6153854272     0.5538074687     0.9920643324
| 16>  H       -2.6882427986     0.6456336265    -0.7541830255
| 17>  H       -4.4876699029    -1.1755052303     0.1057876652
| 18>  H       -3.1469504562    -3.4018537415    -0.0597491959
| 19>  H       -0.5935395129    -3.9862679510    -1.1616215923
| 20>  H        0.6357259407    -2.6069438044    -1.1163185909
| 21> *
| 22>
| 23>                          ****END OF INPUT****

CARTESIAN COORDINATES (ANGSTROEM)
---------------------------------
  O     -0.124705    1.300346    0.015134
  N      0.004977   -0.091500   -0.067126
  C     -1.128632   -0.664203   -0.022772
  C     -2.506639   -0.045553    0.078796
  C     -3.408454   -1.258127    0.054700
  C     -2.729249   -2.403295   -0.035854
  C     -1.264083   -2.160228   -0.085921
  C     -0.267918   -3.052296   -0.703202
  O     -0.392474   -2.981903    0.713522
  H      0.792127    1.595432   -0.013320
  H     -2.615385    0.553807    0.992064
  H     -2.688243    0.645634   -0.754183
  H     -4.487670   -1.175505    0.105788
  H     -3.146950   -3.401854   -0.059749
  H     -0.593540   -3.986268   -1.161622
  H      0.635726   -2.606944   -1.116319

 Total Charge           Charge          ....    0
 Multiplicity           Mult            ....    1
 Number of Electrons    NEL             ....   66
 Basis Dimension        Dim             ....  321

ORBITAL ENERGIES
----------------

  NO   OCC          E(Eh)            E(eV)
   0   2.0000     -20.598266      -560.5073
   1   2.0000     -20.573473      -559.8327
   2   2.0000     -15.622594      -425.1124
   3   2.0000     -11.305379      -307.6350
   4   2.0000     -11.287840      -307.1577
   5   2.0000     -11.283491      -307.0394
   6   2.0000     -11.251650      -306.1730
   7   2.0000     -11.249907      -306.1255
   8   2.0000     -11.243171      -305.9422
   9   2.0000      -1.427845       -38.8536
  10   2.0000      -1.414862       -38.5004
  11   2.0000      -1.185436       -32.2574
  12   2.0000      -1.113185       -30.2913
  13   2.0000      -0.972781       -26.4707
  14   2.0000      -0.929345       -25.2888
  15   2.0000      -0.890010       -24.2184
  16   2.0000      -0.785646       -21.3785
  17   2.0000      -0.738332       -20.0910
  18   2.0000      -0.702313       -19.1109
  19   2.0000      -0.690802       -18.7977
  20   2.0000      -0.661893       -18.0110
  21   2.0000      -0.630181       -17.1481
  22   2.0000      -0.621032       -16.8992
  23   2.0000      -0.596421       -16.2294
  24   2.0000      -0.573727       -15.6119
  25   2.0000      -0.554699       -15.0941
  26   2.0000      -0.538371       -14.6498
  27   2.0000      -0.520892       -14.1742
  28   2.0000      -0.482588       -13.1319
  29   2.0000      -0.464545       -12.6409
  30   2.0000      -0.432286       -11.7631
  31   2.0000      -0.391864       -10.6632
  32   2.0000      -0.357257        -9.7214
  33   0.0000       0.122083         3.3220
  34   0.0000       0.141415         3.8481
  35   0.0000       0.148969         4.0536
  36   0.0000       0.158366         4.3094
  37   0.0000       0.168245         4.5782

MULLIKEN ATOMIC CHARGES
-----------------------
   0 O :   -0.366651
   1 N :   -0.064829
   2 C :   -0.034611
   3 C :   -0.138510
   4 C :   -0.181573
   5 C :   -0.177272
   6 C :    0.210221
   7 C :   -0.069724
   8 O :   -0.324895
   9 H :    0.338494
  10 H :    0.143317
  11 H :    0.141285
  12 H :    0.137508
  13 H :    0.139418
  14 H :    0.117097
  15 H :    0.130725
Sum of atomic charges:   -0.0000000

LOEWDIN ATOMIC CHARGES
----------------------
   0 O :   -0.063388
   1 N :    0.043305
   2 C :   -0.224362
   3 C :   -0.204695
   4 C :   -0.129494
   5 C :   -0.110972
   6 C :   -0.274559
   7 C :   -0.230869
   8 O :    0.177746
   9 H :    0.172068
  10 H :    0.156098
  11 H :    0.155840
  12 H :    0.139821
  13 H :    0.146079
  14 H :    0.120827
  15 H :    0.126554

  Mayer bond orders larger than 0.1
B(  0-O ,  1-N ) :   0.8117 B(  0-O ,  9-H ) :   0.8432 B(  1-N ,  2-C ) :   1.8627
B(  2-C ,  3-C ) :   0.9991 B(  2-C ,  6-C ) :   0.9219 B(  3-C ,  4-C ) :   0.9349
B(  3-C , 10-H ) :   0.8980 B(  3-C , 11-H ) :   0.8975 B(  4-C ,  5-C ) :   1.7700
B(  4-C , 12-H ) :   0.9252 B(  5-C ,  6-C ) :   0.9658 B(  5-C , 13-H ) :   0.9222
B(  6-C ,  7-C ) :   0.9456 B(  6-C ,  8-O ) :   0.8170 B(  7-C ,  8-O ) :   0.8950
B(  7-C , 14-H ) :   0.9184 B(  7-C , 15-H ) :   0.8999

MP2 TOTAL ENERGY:     -437.098582146 Eh
FINAL SINGLE POINT ENERGY      -437.098582146257

DIPOLE MOMENT
-------------
                                X             Y             Z
Electronic contribution:      2.67703       0.15479       1.25831
Nuclear contribution   :     -3.12192       0.12316      -1.87892
                        -----------------------------------------
Total Dipole Moment    :     -0.44489       0.27795      -0.62061
                        -----------------------------------------
Magnitude (a.u.)       :      0.81261
Magnitude (Debye)      :      2.06549

                             ****ORCA TERMINATED NORMALLY****
TOTAL RUN TIME: 0 days 0 hours 15 minutes 39 seconds 288 msec
