                         Program Version 3.0.3 - RELEASE   -
|  1> ! RI-MP2 RIJK def2-TZVP def2-TZVP/C def2-TZVP/JK TIGHTSCF
|  2> % maxcore 2000
|  3> % mp2 density relaxed end
|  4> *xyz 0 1
|  5>  C       -0.3333301679     1.5392488683     0.3380058086
|  6>  C        0.0127838830     0.0477922142     0.1696270556
|  7>  C        0.8704333847    -0.4025952536     1.3683457992
|  8>  C       -1.3002606445    -0.7606745361     0.1388680018
|  9>  C        0.7841202498    -0.2996400957    -1.1185508987
| 10>  C        0.3023362853     0.0633629317    -2.5543724585
| 11>  C        1.7313480191     0.5489336532    -2.7953723868
| 12>  C        2.0597608010     1.6484696840    -1.8768632122
| 13>  N        2.1694562299     0.2632599621    -1.3661147586
| 14>  H        0.5590137130     2.1507704354     0.4946055257
| 15>  H       -0.8798349230     1.9372873413    -0.5235262336
| 16>  H       -0.9742303843     1.6715345729     1.2168110003
| 17>  H        0.3631480892    -0.1832094533     2.3140386934
| 18>  H        1.0642392878    -1.4801746282     1.3334805151
| 19>  H        1.8373328130     0.1089649107     1.3696395771
| 20>  H       -1.9405367454    -0.4544489430    -0.6957582496
| 21>  H       -1.1055228034    -1.8338831081     0.0372923385
| 22>  H       -1.8666060078    -0.6107495074     1.0641113109
| 23>  H        0.9436825426    -1.3832807524    -1.0855356123
| 24>  H        0.0044110903    -0.8068728306    -3.1412100489
| 25>  H       -0.4692568950     0.8323798081    -2.6586373494
| 26>  H        2.3550536184     0.2769454460    -3.6405239780
| 27>  H        3.0356002814     2.1152355690    -1.9720245499
| 28>  H        1.2761000130     2.3140465015    -1.5326131695
| 29> *
| 30>
| 31>                          ****END OF INPUT****

CARTESIAN COORDINATES (ANGSTROEM)
---------------------------------
  C     -0.333330    1.539249    0.338006
  C      0.012784    0.047792    0.169627
  C      0.870433   -0.402595    1.368346
  C     -1.300261   -0.760675    0.138868
  C      0.784120   -0.299640   -1.118551
  C      0.302336    0.063363   -2.554372
  C      1.731348    0.548934   -2.795372
  C      2.059761    1.648470   -1.876863
  N      2.169456    0.263260   -1.366115
  H      0.559014    2.150770    0.494606
  H     -0.879835    1.937287   -0.523526
  H     -0.974230    1.671535    1.216811
  H      0.363148   -0.183209    2.314039
  H      1.064239   -1.480175    1.333481
  H      1.837333    0.108965    1.369640
  H     -1.940537   -0.454449   -0.695758
  H     -1.105523   -1.833883    0.037292
  H     -1.866606   -0.610750    1.064111
  H      0.943683   -1.383281   -1.085536
  H      0.004411   -0.806873   -3.141210
  H     -0.469257    0.832380   -2.658637
  H      2.355054    0.276945   -3.640524
  H      3.035600    2.115236   -1.972025
  H      1.276100    2.314047   -1.532613

 Total Charge           Charge          ....    0
 Multiplicity           Mult            ....    1
 Number of Electrons    NEL             ....   70
 Basis Dimension        Dim             ....  369

ORBITAL ENERGIES
----------------

  NO   OCC          E(Eh)            E(eV)
   0   2.0000     -15.552269      -423.1988
   1   2.0000     -11.257369      -306.3286
   2   2.0000     -11.254891      -306.2611
   3   2.0000     -11.248647      -306.0912
   4   2.0000     -11.234962      -305.7189
   5   2.0000     -11.228013      -305.5298
   6   2.0000     -11.212987      -305.1209
   7   2.0000     -11.212077      -305.0961
   8   2.0000     -11.205524      -304.9178
   9   2.0000      -1.280118       -34.8338
  10   2.0000      -1.099754       -29.9258
  11   2.0000      -0.995406       -27.0864
  12   2.0000      -0.938614       -25.5410
  13   2.0000      -0.930156       -25.3108
  14   2.0000      -0.917492       -24.9662
  15   2.0000      -0.828175       -22.5358
  16   2.0000      -0.774299       -21.0697
  17   2.0000      -0.711330       -19.3563
  18   2.0000      -0.679968       -18.5029
  19   2.0000      -0.631385       -17.1809
  20   2.0000      -0.622556       -16.9406
  21   2.0000      -0.599261       -16.3067
  22   2.0000      -0.582319       -15.8457
  23   2.0000      -0.557940       -15.1823
  24   2.0000      -0.544027       -14.8037
  25   2.0000      -0.535531       -14.5725
  26   2.0000      -0.529032       -14.3957
  27   2.0000      -0.511742       -13.9252
  28   2.0000      -0.501784       -13.6542
  29   2.0000      -0.478576       -13.0227
  30   2.0000      -0.467684       -12.7263
  31   2.0000      -0.451791       -12.2939
  32   2.0000      -0.434463       -11.8223
  33   2.0000      -0.399895       -10.8817
  34   2.0000      -0.363466        -9.8904
  35   0.0000       0.131744         3.5849
  36   0.0000       0.160028         4.3546
  37   0.0000       0.164539         4.4773
  38   0.0000       0.175895         4.7863
  39   0.0000       0.186594         5.0775

MULLIKEN ATOMIC CHARGES
-----------------------
   0 C :   -0.470040
   1 C :    0.096686
   2 C :   -0.412204
   3 C :   -0.413662
   4 C :    0.010656
   5 C :   -0.267973
   6 C :   -0.039060
   7 C :   -0.186431
   8 N :   -0.267712
   9 H :    0.145356
  10 H :    0.132411
  11 H :    0.135596
  12 H :    0.128358
  13 H :    0.125089
  14 H :    0.148352
  15 H :    0.131449
  16 H :    0.130117
  17 H :    0.133282
  18 H :    0.098292
  19 H :    0.131280
  20 H :    0.120605
  21 H :    0.129543
  22 H :    0.128551
  23 H :    0.131458
Sum of atomic charges:   -0.0000000

LOEWDIN ATOMIC CHARGES
----------------------
   0 C :   -0.276356
   1 C :   -0.336407
   2 C :   -0.266418
   3 C :   -0.267244
   4 C :   -0.217847
   5 C :   -0.214520
   6 C :   -0.218562
   7 C :   -0.256048
   8 N :    0.110299
   9 H :    0.125854
  10 H :    0.121468
  11 H :    0.127410
  12 H :    0.124144
  13 H :    0.125763
  14 H :    0.130300
  15 H :    0.125571
  16 H :    0.125744
  17 H :    0.126247
  18 H :    0.156376
  19 H :    0.134438
  20 H :    0.130890
  21 H :    0.130747
  22 H :    0.132351
  23 H :    0.125798

  Mayer bond orders larger than 0.1
B(  0-C ,  1-C ) :   0.8772 B(  0-C ,  9-H ) :   0.9402 B(  0-C , 10-H ) :   0.9398
B(  0-C , 11-H ) :   0.9338 B(  1-C ,  2-C ) :   0.9198 B(  1-C ,  3-C ) :   0.9124
B(  1-C ,  4-C ) :   0.9006 B(  2-C , 12-H ) :   0.9357 B(  2-C , 13-H ) :   0.9305
B(  2-C , 14-H ) :   0.9304 B(  3-C , 15-H ) :   0.9329 B(  3-C , 16-H ) :   0.9335
B(  3-C , 17-H ) :   0.9347 B(  4-C ,  5-C ) :   0.9412 B(  4-C ,  8-N ) :   0.9029
B(  4-C , 18-H ) :   0.9170 B(  5-C ,  6-C ) :   0.9397 B(  5-C , 19-H ) :   0.9327
B(  5-C , 20-H ) :   0.9182 B(  6-C ,  7-C ) :   0.9439 B(  6-C ,  8-N ) :   0.8551
B(  6-C , 21-H ) :   0.9070 B(  7-C ,  8-N ) :   0.8893 B(  7-C , 22-H ) :   0.9336
B(  7-C , 23-H ) :   0.9091

MP2 TOTAL ENERGY:     -367.712017852 Eh
FINAL SINGLE POINT ENERGY      -367.712017851593

DIPOLE MOMENT
-------------
                                X             Y             Z
Electronic contribution:      4.96223      -0.02819      -4.81819
Nuclear contribution   :     -5.51153       0.20553       4.57223
                        -----------------------------------------
Total Dipole Moment    :     -0.54930       0.17734      -0.24597
                        -----------------------------------------
Magnitude (a.u.)       :      0.62744
Magnitude (Debye)      :      1.59484

                             ****ORCA TERMINATED NORMALLY****
TOTAL RUN TIME: 0 days 0 hours 26 minutes 27 seconds 893 msec
