                         Program Version 3.0.3 - RELEASE   -
|  1> ! RI-MP2 RIJK def2-TZVP def2-TZVP/C def2-TZVP/JK TIGHTSCF
|  2> % maxcore 2000
|  3> % mp2 density relaxed end
|  4> *xyz 0 1
|  5>  C       -0.1707241028     1.5387360890     0.1116905579
|  6>  C       -0.0050509064     0.0176320047     0.0551115557
|  7>  C        0.6876680893    -0.4597270458    -1.2289595168
|  8>  C        2.1490342599     0.0034627174    -1.2890647002
|  9>  O        2.7469148618     0.2295274721    -2.3062078026
| 10>  C        0.7262669222    -1.9854167577    -1.3322195363
| 11>  O        0.7612585476    -2.7035353260    -0.3565179717
| 12>  C        0.7495878944    -2.5867631617    -2.7251978114
| 13>  O        0.9112474680    -3.9719421025    -2.6887284775
| 14>  H        0.7942473344     2.0562909635     0.0697861626
| 15>  H       -0.7752008121     1.9039854220    -0.7255372428
| 16>  H       -0.6665235753     1.8407899112     1.0384917951
| 17>  H        0.5714964775    -0.3413251173     0.9144836697
| 18>  H       -0.9824336416    -0.4698328722     0.1298006569
| 19>  H        0.2035658647    -0.0657209531    -2.1297844522
| 20>  H        2.6366684795     0.0862761140    -0.2924867799
| 21>  H       -0.1943299475    -2.2988735320    -3.2221670477
| 22>  H        1.5546523732    -2.0983164022    -3.2972897723
| 23>  H        0.8852597033    -4.2105523836    -1.7491696066
| 24> *
| 25>
| 26>                          ****END OF INPUT****

CARTESIAN COORDINATES (ANGSTROEM)
---------------------------------
  C     -0.170724    1.538736    0.111691
  C     -0.005051    0.017632    0.055112
  C      0.687668   -0.459727   -1.228960
  C      2.149034    0.003463   -1.289065
  O      2.746915    0.229527   -2.306208
  C      0.726267   -1.985417   -1.332220
  O      0.761259   -2.703535   -0.356518
  C      0.749588   -2.586763   -2.725198
  O      0.911247   -3.971942   -2.688728
  H      0.794247    2.056291    0.069786
  H     -0.775201    1.903985   -0.725537
  H     -0.666524    1.840790    1.038492
  H      0.571496   -0.341325    0.914484
  H     -0.982434   -0.469833    0.129801
  H      0.203566   -0.065721   -2.129784
  H      2.636668    0.086276   -0.292487
  H     -0.194330   -2.298874   -3.222167
  H      1.554652   -2.098316   -3.297290
  H      0.885260   -4.210552   -1.749170

 Total Charge           Charge          ....    0
 Multiplicity           Mult            ....    1
 Number of Electrons    NEL             ....   70
 Basis Dimension        Dim             ....  339

ORBITAL ENERGIES
----------------

  NO   OCC          E(Eh)            E(eV)
   0   2.0000     -20.582245      -560.0714
   1   2.0000     -20.578924      -559.9810
   2   2.0000     -20.562032      -559.5213
   3   2.0000     -11.359585      -309.1100
   4   2.0000     -11.357677      -309.0581
   5   2.0000     -11.299386      -307.4719
   6   2.0000     -11.274773      -306.8022
   7   2.0000     -11.253282      -306.2174
   8   2.0000     -11.238851      -305.8247
   9   2.0000      -1.430513       -38.9262
  10   2.0000      -1.421390       -38.6780
  11   2.0000      -1.368570       -37.2407
  12   2.0000      -1.120150       -30.4808
  13   2.0000      -1.024796       -27.8861
  14   2.0000      -0.967007       -26.3136
  15   2.0000      -0.866296       -23.5731
  16   2.0000      -0.830466       -22.5981
  17   2.0000      -0.773116       -21.0375
  18   2.0000      -0.729582       -19.8529
  19   2.0000      -0.683072       -18.5873
  20   2.0000      -0.680649       -18.5214
  21   2.0000      -0.678375       -18.4595
  22   2.0000      -0.649103       -17.6630
  23   2.0000      -0.615257       -16.7420
  24   2.0000      -0.609272       -16.5791
  25   2.0000      -0.587464       -15.9857
  26   2.0000      -0.561582       -15.2814
  27   2.0000      -0.548121       -14.9151
  28   2.0000      -0.540968       -14.7205
  29   2.0000      -0.525830       -14.3086
  30   2.0000      -0.521253       -14.1840
  31   2.0000      -0.508287       -13.8312
  32   2.0000      -0.459786       -12.5114
  33   2.0000      -0.448899       -12.2152
  34   2.0000      -0.428881       -11.6705
  35   0.0000       0.088771         2.4156
  36   0.0000       0.122117         3.3230
  37   0.0000       0.137925         3.7531
  38   0.0000       0.147423         4.0116
  39   0.0000       0.165541         4.5046

MULLIKEN ATOMIC CHARGES
-----------------------
   0 C :   -0.391245
   1 C :   -0.236363
   2 C :   -0.023940
   3 C :    0.041050
   4 O :   -0.243287
   5 C :    0.190211
   6 O :   -0.316459
   7 C :   -0.049248
   8 O :   -0.480179
   9 H :    0.134325
  10 H :    0.131025
  11 H :    0.145412
  12 H :    0.138329
  13 H :    0.131120
  14 H :    0.119778
  15 H :    0.103808
  16 H :    0.119686
  17 H :    0.150164
  18 H :    0.335813
Sum of atomic charges:    0.0000000

LOEWDIN ATOMIC CHARGES
----------------------
   0 C :   -0.311100
   1 C :   -0.263138
   2 C :   -0.227496
   3 C :   -0.262635
   4 O :    0.151188
   5 C :   -0.305597
   6 O :    0.154228
   7 C :   -0.334218
   8 O :   -0.029081
   9 H :    0.123573
  10 H :    0.124234
  11 H :    0.126107
  12 H :    0.146710
  13 H :    0.145656
  14 H :    0.172091
  15 H :    0.122679
  16 H :    0.138647
  17 H :    0.145565
  18 H :    0.182588

  Mayer bond orders larger than 0.1
B(  0-C ,  1-C ) :   0.9164 B(  0-C ,  9-H ) :   0.9368 B(  0-C , 10-H ) :   0.9333
B(  0-C , 11-H ) :   0.9412 B(  1-C ,  2-C ) :   0.8922 B(  1-C , 12-H ) :   0.9214
B(  1-C , 13-H ) :   0.9346 B(  2-C ,  3-C ) :   0.7982 B(  2-C ,  5-C ) :   0.8581
B(  2-C , 14-H ) :   0.9106 B(  3-C ,  4-O ) :   1.9904 B(  3-C , 15-H ) :   0.9331
B(  5-C ,  6-O ) :   1.8972 B(  5-C ,  7-C ) :   0.9670 B(  7-C ,  8-O ) :   1.0053
B(  7-C , 16-H ) :   0.9025 B(  7-C , 17-H ) :   0.9008 B(  8-O , 18-H ) :   0.8086

MP2 TOTAL ENERGY:     -459.448580332 Eh
FINAL SINGLE POINT ENERGY      -459.448580331658

DIPOLE MOMENT
-------------
                                X             Y             Z
Electronic contribution:      4.44947      -6.35842      -3.07425
Nuclear contribution   :     -5.17022       7.28245       3.68244
                        -----------------------------------------
Total Dipole Moment    :     -0.72076       0.92404       0.60819
                        -----------------------------------------
Magnitude (a.u.)       :      1.32031
Magnitude (Debye)      :      3.35597

                             ****ORCA TERMINATED NORMALLY****
TOTAL RUN TIME: 0 days 0 hours 15 minutes 18 seconds 82 msec
