                         Program Version 3.0.3 - RELEASE   -
|  1> ! RI-MP2 RIJK def2-TZVP def2-TZVP/C def2-TZVP/JK TIGHTSCF
|  2> % maxcore 2000
|  3> % mp2 density relaxed end
|  4> *xyz 0 1
|  5>  C       -0.0506472831     1.5148987989    -0.0337330933
|  6>  C       -0.0563242029    -0.0194889631     0.0236233283
|  7>  C       -1.5024851394    -0.5395836046     0.1113097100
|  8>  O        0.5769361393    -0.3977669593    -1.2097854233
|  9>  C        0.4561307859    -1.7178509696    -1.6830092911
| 10>  C        1.1181455629    -2.7904867303    -0.8721516751
| 11>  C        1.5448837665    -2.7248500744     0.3968863861
| 12>  C        1.4196528019    -1.6285790474     1.3510138764
| 13>  C        0.7366727428    -0.4827141113     1.2270497221
| 14>  H        0.9733051792     1.8807205564    -0.1472426643
| 15>  H       -0.6369014054     1.8591909049    -0.8895818940
| 16>  H       -0.4764003208     1.9411755811     0.8792381940
| 17>  H       -2.0639700044    -0.2448238647    -0.7822879082
| 18>  H       -1.5358566195    -1.6269986141     0.2128386855
| 19>  H       -1.9997972927    -0.1128891062     0.9870558974
| 20>  H       -0.5977767063    -1.9932253927    -1.8655888476
| 21>  H        0.9271332443    -1.6941739073    -2.6749324444
| 22>  H        1.2711897413    -3.7208488267    -1.4170993045
| 23>  H        2.0376895061    -3.6099933956     0.7933082949
| 24>  H        1.9277218637    -1.7967130953     2.2982121412
| 25>  H        0.7365888705     0.2041519613     2.0704933300
| 26> *
| 27>
| 28>                          ****END OF INPUT****

CARTESIAN COORDINATES (ANGSTROEM)
---------------------------------
  C     -0.050647    1.514899   -0.033733
  C     -0.056324   -0.019489    0.023623
  C     -1.502485   -0.539584    0.111310
  O      0.576936   -0.397767   -1.209785
  C      0.456131   -1.717851   -1.683009
  C      1.118146   -2.790487   -0.872152
  C      1.544884   -2.724850    0.396886
  C      1.419653   -1.628579    1.351014
  C      0.736673   -0.482714    1.227050
  H      0.973305    1.880721   -0.147243
  H     -0.636901    1.859191   -0.889582
  H     -0.476400    1.941176    0.879238
  H     -2.063970   -0.244824   -0.782288
  H     -1.535857   -1.626999    0.212839
  H     -1.999797   -0.112889    0.987056
  H     -0.597777   -1.993225   -1.865589
  H      0.927133   -1.694174   -2.674932
  H      1.271190   -3.720849   -1.417099
  H      2.037690   -3.609993    0.793308
  H      1.927722   -1.796713    2.298212
  H      0.736589    0.204152    2.070493

 Total Charge           Charge          ....    0
 Multiplicity           Mult            ....    1
 Number of Electrons    NEL             ....   68
 Basis Dimension        Dim             ....  351

ORBITAL ENERGIES
----------------

  NO   OCC          E(Eh)            E(eV)
   0   2.0000     -20.549041      -559.1678
   1   2.0000     -11.291581      -307.2595
   2   2.0000     -11.278891      -306.9142
   3   2.0000     -11.233585      -305.6814
   4   2.0000     -11.230107      -305.5867
   5   2.0000     -11.229193      -305.5619
   6   2.0000     -11.226911      -305.4998
   7   2.0000     -11.218545      -305.2721
   8   2.0000     -11.211987      -305.0937
   9   2.0000      -1.371364       -37.3167
  10   2.0000      -1.096403       -29.8346
  11   2.0000      -1.080975       -29.4148
  12   2.0000      -0.993404       -27.0319
  13   2.0000      -0.943362       -25.6702
  14   2.0000      -0.920152       -25.0386
  15   2.0000      -0.851398       -23.1677
  16   2.0000      -0.741396       -20.1744
  17   2.0000      -0.725093       -19.7308
  18   2.0000      -0.684887       -18.6367
  19   2.0000      -0.652609       -17.7584
  20   2.0000      -0.624612       -16.9966
  21   2.0000      -0.612919       -16.6784
  22   2.0000      -0.596777       -16.2391
  23   2.0000      -0.558558       -15.1991
  24   2.0000      -0.549783       -14.9603
  25   2.0000      -0.542667       -14.7667
  26   2.0000      -0.531610       -14.4658
  27   2.0000      -0.522223       -14.2104
  28   2.0000      -0.495523       -13.4839
  29   2.0000      -0.483740       -13.1632
  30   2.0000      -0.463421       -12.6103
  31   2.0000      -0.418550       -11.3893
  32   2.0000      -0.414936       -11.2910
  33   2.0000      -0.311041        -8.4639
  34   0.0000       0.104398         2.8408
  35   0.0000       0.138086         3.7575
  36   0.0000       0.159064         4.3283
  37   0.0000       0.162556         4.4234
  38   0.0000       0.188159         5.1201

MULLIKEN ATOMIC CHARGES
-----------------------
   0 C :   -0.393180
   1 C :    0.331230
   2 C :   -0.448561
   3 O :   -0.305745
   4 C :   -0.036870
   5 C :   -0.193432
   6 C :   -0.137042
   7 C :   -0.117755
   8 C :   -0.248578
   9 H :    0.142631
  10 H :    0.132940
  11 H :    0.119326
  12 H :    0.139332
  13 H :    0.154584
  14 H :    0.135924
  15 H :    0.111234
  16 H :    0.138916
  17 H :    0.117503
  18 H :    0.117479
  19 H :    0.121490
  20 H :    0.118574
Sum of atomic charges:   -0.0000000

LOEWDIN ATOMIC CHARGES
----------------------
   0 C :   -0.265420
   1 C :   -0.378824
   2 C :   -0.266468
   3 O :    0.209447
   4 C :   -0.323234
   5 C :   -0.165942
   6 C :   -0.172616
   7 C :   -0.164171
   8 C :   -0.119659
   9 H :    0.131046
  10 H :    0.126957
  11 H :    0.124945
  12 H :    0.128647
  13 H :    0.130286
  14 H :    0.132291
  15 H :    0.130405
  16 H :    0.143323
  17 H :    0.147548
  18 H :    0.150441
  19 H :    0.150515
  20 H :    0.150482

  Mayer bond orders larger than 0.1
B(  0-C ,  1-C ) :   0.8914 B(  0-C ,  9-H ) :   0.9405 B(  0-C , 10-H ) :   0.9411
B(  0-C , 11-H ) :   0.9282 B(  1-C ,  2-C ) :   0.8823 B(  1-C ,  3-O ) :   0.9275
B(  1-C ,  8-C ) :   0.8934 B(  2-C , 12-H ) :   0.9340 B(  2-C , 13-H ) :   0.9312
B(  2-C , 14-H ) :   0.9235 B(  3-O ,  4-C ) :   0.9847 B(  4-C ,  5-C ) :   0.9169
B(  4-C , 15-H ) :   0.9244 B(  4-C , 16-H ) :   0.9202 B(  5-C ,  6-C ) :   1.7514
B(  5-C , 17-H ) :   0.9159 B(  6-C ,  7-C ) :   1.0165 B(  6-C , 18-H ) :   0.9327
B(  7-C ,  8-C ) :   1.7471 B(  7-C , 19-H ) :   0.9217 B(  8-C , 20-H ) :   0.9159

MP2 TOTAL ENERGY:     -386.408460741 Eh
FINAL SINGLE POINT ENERGY      -386.408460740524

DIPOLE MOMENT
-------------
                                X             Y             Z
Electronic contribution:      4.00049      -2.41635      -0.56577
Nuclear contribution   :     -4.34989       2.17049       0.71761
                        -----------------------------------------
Total Dipole Moment    :     -0.34940      -0.24586       0.15184
                        -----------------------------------------
Magnitude (a.u.)       :      0.45341
Magnitude (Debye)      :      1.15248

                             ****ORCA TERMINATED NORMALLY****
TOTAL RUN TIME: 0 days 0 hours 18 minutes 44 seconds 649 msec
