                         Program Version 3.0.3 - RELEASE   -
|  1> ! RI-MP2 RIJK def2-TZVP def2-TZVP/C def2-TZVP/JK TIGHTSCF
|  2> % maxcore 2000
|  3> % mp2 density relaxed end
|  4> *xyz 0 1
|  5>  C        0.0091668060     1.5555905392     0.0395195105
|  6>  C       -0.0213882470     0.0254285147    -0.0027011806
|  7>  N       -1.3686009295    -0.5206868711     0.0186074062
|  8>  C       -2.0623547974    -0.9569760874     1.1368632549
|  9>  C       -3.3177583407    -1.3368071701     0.7415975631
| 10>  C       -3.4154316985    -1.1232124644    -0.6680726196
| 11>  C       -2.1985611989    -0.6198915419    -1.0627760067
| 12>  O       -1.7035273736    -0.2221722915    -2.2678981134
| 13>  H        1.0434961185     1.9142082920     0.0423743418
| 14>  H       -0.4967792645     1.9725662787    -0.8352234881
| 15>  H       -0.4892809211     1.9298938159     0.9384627177
| 16>  H        0.4789740378    -0.3354443513    -0.9060034081
| 17>  H        0.5118352025    -0.3941825297     0.8554782701
| 18>  H       -1.5830505481    -0.9614291041     2.1022877034
| 19>  H       -4.0896657126    -1.7337754178     1.3827386860
| 20>  H       -4.2638931314    -1.3180118548    -1.3059011784
| 21>  H       -2.3695939114    -0.4018661565    -2.9376684088
| 22> *
| 23>
| 24>                          ****END OF INPUT****

CARTESIAN COORDINATES (ANGSTROEM)
---------------------------------
  C      0.009167    1.555591    0.039520
  C     -0.021388    0.025429   -0.002701
  N     -1.368601   -0.520687    0.018607
  C     -2.062355   -0.956976    1.136863
  C     -3.317758   -1.336807    0.741598
  C     -3.415432   -1.123212   -0.668073
  C     -2.198561   -0.619892   -1.062776
  O     -1.703527   -0.222172   -2.267898
  H      1.043496    1.914208    0.042374
  H     -0.496779    1.972566   -0.835223
  H     -0.489281    1.929894    0.938463
  H      0.478974   -0.335444   -0.906003
  H      0.511835   -0.394183    0.855478
  H     -1.583051   -0.961429    2.102288
  H     -4.089666   -1.733775    1.382739
  H     -4.263893   -1.318012   -1.305901
  H     -2.369594   -0.401866   -2.937668

 Total Charge           Charge          ....    0
 Multiplicity           Mult            ....    1
 Number of Electrons    NEL             ....   60
 Basis Dimension        Dim             ....  302

ORBITAL ENERGIES
----------------

  NO   OCC          E(Eh)            E(eV)
   0   2.0000     -20.596304      -560.4539
   1   2.0000     -15.595444      -424.3736
   2   2.0000     -11.313148      -307.8464
   3   2.0000     -11.269623      -306.6620
   4   2.0000     -11.237789      -305.7958
   5   2.0000     -11.218981      -305.2840
   6   2.0000     -11.206261      -304.9379
   7   2.0000     -11.198286      -304.7209
   8   2.0000      -1.417456       -38.5709
   9   2.0000      -1.286721       -35.0135
  10   2.0000      -1.084314       -29.5057
  11   2.0000      -0.989618       -26.9289
  12   2.0000      -0.962492       -26.1907
  13   2.0000      -0.863987       -23.5103
  14   2.0000      -0.805062       -21.9068
  15   2.0000      -0.757612       -20.6157
  16   2.0000      -0.712168       -19.3791
  17   2.0000      -0.650341       -17.6967
  18   2.0000      -0.635293       -17.2872
  19   2.0000      -0.630595       -17.1594
  20   2.0000      -0.590337       -16.0639
  21   2.0000      -0.585087       -15.9210
  22   2.0000      -0.557589       -15.1728
  23   2.0000      -0.542388       -14.7591
  24   2.0000      -0.526653       -14.3310
  25   2.0000      -0.515406       -14.0249
  26   2.0000      -0.496793       -13.5184
  27   2.0000      -0.491906       -13.3854
  28   2.0000      -0.336022        -9.1436
  29   2.0000      -0.277928        -7.5628
  30   0.0000       0.131270         3.5720
  31   0.0000       0.149316         4.0631
  32   0.0000       0.172971         4.7068
  33   0.0000       0.178666         4.8617
  34   0.0000       0.189070         5.1449

MULLIKEN ATOMIC CHARGES
-----------------------
   0 C :   -0.391267
   1 C :   -0.153078
   2 N :   -0.001406
   3 C :   -0.173840
   4 C :   -0.173695
   5 C :   -0.280806
   6 C :    0.214193
   7 O :   -0.449005
   8 H :    0.128291
   9 H :    0.147469
  10 H :    0.132003
  11 H :    0.138798
  12 H :    0.132805
  13 H :    0.137637
  14 H :    0.126407
  15 H :    0.126402
  16 H :    0.339092
Sum of atomic charges:    0.0000000

LOEWDIN ATOMIC CHARGES
----------------------
   0 C :   -0.310753
   1 C :   -0.266640
   2 N :    0.259998
   3 C :   -0.230131
   4 C :   -0.205906
   5 C :   -0.214303
   6 C :   -0.348905
   7 O :    0.057948
   8 H :    0.123786
   9 H :    0.126948
  10 H :    0.123573
  11 H :    0.141958
  12 H :    0.138760
  13 H :    0.132735
  14 H :    0.137249
  15 H :    0.134938
  16 H :    0.198745

  Mayer bond orders larger than 0.1
B(  0-C ,  1-C ) :   0.9207 B(  0-C ,  8-H ) :   0.9330 B(  0-C ,  9-H ) :   0.9362
B(  0-C , 10-H ) :   0.9336 B(  1-C ,  2-N ) :   0.8595 B(  1-C , 11-H ) :   0.9263
B(  1-C , 12-H ) :   0.9334 B(  2-N ,  3-C ) :   1.0874 B(  2-N ,  6-C ) :   1.1596
B(  3-C ,  4-C ) :   1.5146 B(  3-C , 13-H ) :   0.9193 B(  4-C ,  5-C ) :   1.2272
B(  4-C , 14-H ) :   0.9301 B(  5-C ,  6-C ) :   1.4496 B(  5-C , 15-H ) :   0.9239
B(  6-C ,  7-O ) :   1.0668 B(  7-O , 16-H ) :   0.8309

MP2 TOTAL ENERGY:     -363.273299799 Eh
FINAL SINGLE POINT ENERGY      -363.273299799130

DIPOLE MOMENT
-------------
                                X             Y             Z
Electronic contribution:     -3.51936      -3.44529      -2.26195
Nuclear contribution   :      3.87197       3.64507       1.96963
                        -----------------------------------------
Total Dipole Moment    :      0.35262       0.19977      -0.29232
                        -----------------------------------------
Magnitude (a.u.)       :      0.49970
Magnitude (Debye)      :      1.27013

                             ****ORCA TERMINATED NORMALLY****
TOTAL RUN TIME: 0 days 0 hours 11 minutes 51 seconds 991 msec
