                         Program Version 3.0.3 - RELEASE   -
|  1> ! RI-MP2 RIJK def2-TZVP def2-TZVP/C def2-TZVP/JK TIGHTSCF
|  2> % maxcore 2000
|  3> % mp2 density relaxed end
|  4> *xyz 0 1
|  5>  O       -0.1295968261     0.0838177750    -0.3720099097
|  6>  C       -0.0829787840     1.2532264620    -0.0960065680
|  7>  C       -1.2577749425     2.1654473501     0.2643010172
|  8>  O       -0.6818275756     3.3922354363     0.6677979659
|  9>  C        0.5666550545     3.5294274022    -0.0151401801
| 10>  C        1.1662342044     2.1281363409    -0.0506949922
| 11>  C        2.1996752614     1.7373027241     1.0466365174
| 12>  O        3.2273773280     1.5215028008     0.0672470282
| 13>  C        2.3144197509     1.7804923221    -1.0163148500
| 14>  H       -1.9032673336     2.2789645784    -0.6233960652
| 15>  H       -1.8635857484     1.7559766511     1.0774621595
| 16>  H        0.4112206295     3.9068003766    -1.0401190350
| 17>  H        1.1660327113     4.2587205227     0.5345796224
| 18>  H        2.4492594128     2.5401069443     1.7513768332
| 19>  H        1.9612054951     0.8211874003     1.6004070334
| 20>  H        2.1288198686     0.8850486342    -1.6213580286
| 21>  H        2.6545506536     2.6025015089    -1.6585783283
| 22> *
| 23>
| 24>                          ****END OF INPUT****

CARTESIAN COORDINATES (ANGSTROEM)
---------------------------------
  O     -0.129597    0.083818   -0.372010
  C     -0.082979    1.253226   -0.096007
  C     -1.257775    2.165447    0.264301
  O     -0.681828    3.392235    0.667798
  C      0.566655    3.529427   -0.015140
  C      1.166234    2.128136   -0.050695
  C      2.199675    1.737303    1.046637
  O      3.227377    1.521503    0.067247
  C      2.314420    1.780492   -1.016315
  H     -1.903267    2.278965   -0.623396
  H     -1.863586    1.755977    1.077462
  H      0.411221    3.906800   -1.040119
  H      1.166033    4.258721    0.534580
  H      2.449259    2.540107    1.751377
  H      1.961205    0.821187    1.600407
  H      2.128820    0.885049   -1.621358
  H      2.654551    2.602502   -1.658578

 Total Charge           Charge          ....    0
 Multiplicity           Mult            ....    1
 Number of Electrons    NEL             ....   68
 Basis Dimension        Dim             ....  327

ORBITAL ENERGIES
----------------

  NO   OCC          E(Eh)            E(eV)
   0   2.0000     -20.582936      -560.0902
   1   2.0000     -20.567741      -559.6767
   2   2.0000     -20.562732      -559.5404
   3   2.0000     -11.347228      -308.7738
   4   2.0000     -11.302696      -307.5620
   5   2.0000     -11.302270      -307.5504
   6   2.0000     -11.299988      -307.4883
   7   2.0000     -11.297142      -307.4109
   8   2.0000     -11.262897      -306.4790
   9   2.0000      -1.421397       -38.6782
  10   2.0000      -1.399940       -38.0943
  11   2.0000      -1.393958       -37.9315
  12   2.0000      -1.085267       -29.5316
  13   2.0000      -1.009548       -27.4712
  14   2.0000      -0.952895       -25.9296
  15   2.0000      -0.913091       -24.8465
  16   2.0000      -0.825988       -22.4763
  17   2.0000      -0.744009       -20.2455
  18   2.0000      -0.709527       -19.3072
  19   2.0000      -0.705493       -19.1974
  20   2.0000      -0.680151       -18.5078
  21   2.0000      -0.668690       -18.1960
  22   2.0000      -0.628842       -17.1117
  23   2.0000      -0.616276       -16.7697
  24   2.0000      -0.594995       -16.1906
  25   2.0000      -0.579254       -15.7623
  26   2.0000      -0.571871       -15.5614
  27   2.0000      -0.563247       -15.3267
  28   2.0000      -0.539327       -14.6758
  29   2.0000      -0.483732       -13.1630
  30   2.0000      -0.472073       -12.8458
  31   2.0000      -0.450046       -12.2464
  32   2.0000      -0.435962       -11.8631
  33   2.0000      -0.406761       -11.0685
  34   0.0000       0.112601         3.0640
  35   0.0000       0.129912         3.5351
  36   0.0000       0.152046         4.1374
  37   0.0000       0.167489         4.5576
  38   0.0000       0.170046         4.6272

MULLIKEN ATOMIC CHARGES
-----------------------
   0 O :   -0.265372
   1 C :    0.087697
   2 C :   -0.041198
   3 O :   -0.314273
   4 C :   -0.058302
   5 C :    0.065400
   6 C :   -0.048015
   7 O :   -0.321201
   8 C :   -0.042638
   9 H :    0.117761
  10 H :    0.146304
  11 H :    0.106737
  12 H :    0.133022
  13 H :    0.103726
  14 H :    0.110274
  15 H :    0.117719
  16 H :    0.102358
Sum of atomic charges:   -0.0000000

LOEWDIN ATOMIC CHARGES
----------------------
   0 O :    0.172270
   1 C :   -0.287968
   2 C :   -0.275314
   3 O :    0.154969
   4 C :   -0.255789
   5 C :   -0.234466
   6 C :   -0.216277
   7 O :    0.122325
   8 C :   -0.219550
   9 H :    0.137873
  10 H :    0.141727
  11 H :    0.127549
  12 H :    0.135062
  13 H :    0.122256
  14 H :    0.125215
  15 H :    0.128194
  16 H :    0.121924

  Mayer bond orders larger than 0.1
B(  0-O ,  1-C ) :   2.0177 B(  1-C ,  2-C ) :   0.9340 B(  1-C ,  5-C ) :   0.8585
B(  2-C ,  3-O ) :   0.9557 B(  2-C ,  9-H ) :   0.9087 B(  2-C , 10-H ) :   0.9082
B(  3-O ,  4-C ) :   0.9076 B(  4-C ,  5-C ) :   0.9263 B(  4-C , 11-H ) :   0.9272
B(  4-C , 12-H ) :   0.9176 B(  5-C ,  6-C ) :   0.9154 B(  5-C ,  8-C ) :   0.9449
B(  6-C ,  7-O ) :   0.9725 B(  6-C , 13-H ) :   0.9049 B(  6-C , 14-H ) :   0.8993
B(  7-O ,  8-C ) :   0.9676 B(  8-C , 15-H ) :   0.8987 B(  8-C , 16-H ) :   0.9078

MP2 TOTAL ENERGY:     -458.211075234 Eh
FINAL SINGLE POINT ENERGY      -458.211075234402

DIPOLE MOMENT
-------------
                                X             Y             Z
Electronic contribution:     -0.76289      -2.43527       0.27105
Nuclear contribution   :      0.44100       3.18946      -0.41294
                        -----------------------------------------
Total Dipole Moment    :     -0.32189       0.75419      -0.14189
                        -----------------------------------------
Magnitude (a.u.)       :      0.83220
Magnitude (Debye)      :      2.11527

                             ****ORCA TERMINATED NORMALLY****
TOTAL RUN TIME: 0 days 0 hours 16 minutes 3 seconds 990 msec
