                         Program Version 3.0.3 - RELEASE   -
|  1> ! RI-MP2 RIJK def2-TZVP def2-TZVP/C def2-TZVP/JK TIGHTSCF
|  2> % maxcore 2000
|  3> % mp2 density relaxed end
|  4> *xyz 0 1
|  5>  C       -0.5940191973     1.6528610613     0.6226001333
|  6>  C       -0.4704250168     0.2838847650    -0.0643712682
|  7>  C        0.8556143275    -0.3072649049     0.1067719671
|  8>  C        1.9378987947    -0.7970957841     0.2890057585
|  9>  C       -1.4945226424    -0.7205625670     0.5090233341
| 10>  O       -1.9882230515    -0.5940967289     1.6022721353
| 11>  C       -1.8639582932    -1.8996557535    -0.3501673564
| 12>  C       -2.4953623636    -1.6876665261    -1.6698785360
| 13>  O       -1.1460809294    -2.1156393785    -1.5616570416
| 14>  H        0.1713353621     2.3340670688     0.2445658737
| 15>  H       -1.5798092685     2.0860840423     0.4316885352
| 16>  H       -0.4735600130     1.5448353106     1.7015925490
| 17>  H       -0.6555743637     0.3796902607    -1.1415373779
| 18>  H        2.8980533440    -1.2279347155     0.4308666353
| 19>  H       -2.1351753009    -2.7908774394     0.2129161071
| 20>  H       -3.2040522171    -2.4297369915    -2.0326948969
| 21>  H       -2.6421161408    -0.6758903691    -2.0454281215
| 22> *
| 23>
| 24>                          ****END OF INPUT****

CARTESIAN COORDINATES (ANGSTROEM)
---------------------------------
  C     -0.594019    1.652861    0.622600
  C     -0.470425    0.283885   -0.064371
  C      0.855614   -0.307265    0.106772
  C      1.937899   -0.797096    0.289006
  C     -1.494523   -0.720563    0.509023
  O     -1.988223   -0.594097    1.602272
  C     -1.863958   -1.899656   -0.350167
  C     -2.495362   -1.687667   -1.669879
  O     -1.146081   -2.115639   -1.561657
  H      0.171335    2.334067    0.244566
  H     -1.579809    2.086084    0.431689
  H     -0.473560    1.544835    1.701593
  H     -0.655574    0.379690   -1.141537
  H      2.898053   -1.227935    0.430867
  H     -2.135175   -2.790877    0.212916
  H     -3.204052   -2.429737   -2.032695
  H     -2.642116   -0.675890   -2.045428

 Total Charge           Charge          ....    0
 Multiplicity           Mult            ....    1
 Number of Electrons    NEL             ....   66
 Basis Dimension        Dim             ....  327

ORBITAL ENERGIES
----------------

  NO   OCC          E(Eh)            E(eV)
   0   2.0000     -20.597243      -560.4795
   1   2.0000     -20.563377      -559.5579
   2   2.0000     -11.350174      -308.8539
   3   2.0000     -11.312171      -307.8198
   4   2.0000     -11.310921      -307.7858
   5   2.0000     -11.277889      -306.8870
   6   2.0000     -11.241217      -305.8891
   7   2.0000     -11.230066      -305.5856
   8   2.0000     -11.229282      -305.5643
   9   2.0000      -1.444611       -39.3099
  10   2.0000      -1.407331       -38.2954
  11   2.0000      -1.108797       -30.1719
  12   2.0000      -1.007596       -27.4181
  13   2.0000      -0.983860       -26.7722
  14   2.0000      -0.924520       -25.1575
  15   2.0000      -0.884079       -24.0570
  16   2.0000      -0.781463       -21.2647
  17   2.0000      -0.724501       -19.7147
  18   2.0000      -0.718816       -19.5600
  19   2.0000      -0.700924       -19.0731
  20   2.0000      -0.659672       -17.9506
  21   2.0000      -0.649934       -17.6856
  22   2.0000      -0.602883       -16.4053
  23   2.0000      -0.581808       -15.8318
  24   2.0000      -0.561898       -15.2900
  25   2.0000      -0.546093       -14.8599
  26   2.0000      -0.538236       -14.6462
  27   2.0000      -0.523930       -14.2569
  28   2.0000      -0.491072       -13.3627
  29   2.0000      -0.458248       -12.4696
  30   2.0000      -0.441667       -12.0184
  31   2.0000      -0.393225       -10.7002
  32   2.0000      -0.385812       -10.4985
  33   0.0000       0.113883         3.0989
  34   0.0000       0.130273         3.5449
  35   0.0000       0.158697         4.3184
  36   0.0000       0.164221         4.4687
  37   0.0000       0.169112         4.6018

MULLIKEN ATOMIC CHARGES
-----------------------
   0 C :   -0.369090
   1 C :   -0.105199
   2 C :   -0.070953
   3 C :   -0.157952
   4 C :    0.209616
   5 O :   -0.273589
   6 C :   -0.011490
   7 C :   -0.076152
   8 O :   -0.308095
   9 H :    0.144070
  10 H :    0.132172
  11 H :    0.149915
  12 H :    0.131460
  13 H :    0.192255
  14 H :    0.152651
  15 H :    0.134558
  16 H :    0.125821
Sum of atomic charges:    0.0000000

LOEWDIN ATOMIC CHARGES
----------------------
   0 C :   -0.263954
   1 C :   -0.237202
   2 C :   -0.082163
   3 C :   -0.085099
   4 C :   -0.279842
   5 O :    0.180929
   6 C :   -0.251588
   7 C :   -0.253440
   8 O :    0.176514
   9 H :    0.129415
  10 H :    0.126944
  11 H :    0.134785
  12 H :    0.178481
  13 H :    0.128186
  14 H :    0.150371
  15 H :    0.125646
  16 H :    0.122018

  Mayer bond orders larger than 0.1
B(  0-C ,  1-C ) :   0.9012 B(  0-C ,  9-H ) :   0.9378 B(  0-C , 10-H ) :   0.9352
B(  0-C , 11-H ) :   0.9231 B(  1-C ,  2-C ) :   1.0895 B(  1-C ,  4-C ) :   0.8258
B(  1-C , 12-H ) :   0.9245 B(  2-C ,  3-C ) :   2.6082 B(  3-C , 13-H ) :   0.8942
B(  4-C ,  5-O ) :   1.9690 B(  4-C ,  6-C ) :   0.9373 B(  6-C ,  7-C ) :   0.9431
B(  6-C ,  8-O ) :   0.8895 B(  6-C , 14-H ) :   0.9214 B(  7-C ,  8-O ) :   0.9125
B(  7-C , 15-H ) :   0.9234 B(  7-C , 16-H ) :   0.9073

MP2 TOTAL ENERGY:     -421.061401097 Eh
FINAL SINGLE POINT ENERGY      -421.061401097368

DIPOLE MOMENT
-------------
                                X             Y             Z
Electronic contribution:      0.33372      -4.31847       0.86743
Nuclear contribution   :     -0.67894       4.44131      -1.56041
                        -----------------------------------------
Total Dipole Moment    :     -0.34522       0.12285      -0.69298
                        -----------------------------------------
Magnitude (a.u.)       :      0.78390
Magnitude (Debye)      :      1.99250

                             ****ORCA TERMINATED NORMALLY****
TOTAL RUN TIME: 0 days 0 hours 17 minutes 28 seconds 394 msec
