                         Program Version 3.0.3 - RELEASE   -
|  1> ! RI-MP2 RIJK def2-TZVP def2-TZVP/C def2-TZVP/JK TIGHTSCF
|  2> % maxcore 2000
|  3> % mp2 density relaxed end
|  4> *xyz 0 1
|  5>  C       -0.1003142557     1.4674985360    -0.0237489788
|  6>  C       -0.0158911940     0.0160143636    -0.0097798909
|  7>  C        0.0723046115    -1.1882309659    -0.0011452055
|  8>  C        0.1040535972    -2.5996182556     0.0274247274
|  9>  C        1.1334615529    -3.4263850102    -0.1871078941
| 10>  C        0.6982133441    -4.8582951049    -0.0504831103
| 11>  C        1.4706214125    -5.6661371934     0.9934788884
| 12>  O       -0.6830405413    -4.7795429444     0.3226308609
| 13>  C       -1.1309949665    -3.4330102170     0.3133378628
| 14>  H        0.4771202940     1.9063184938     0.7979999459
| 15>  H        0.2925448094     1.8796007797    -0.9600994933
| 16>  H       -1.1366592777     1.8067757408     0.0805418769
| 17>  H        2.1463444120    -3.1336437562    -0.4300890040
| 18>  H        0.7747899692    -5.3802119561    -1.0210483846
| 19>  H        1.4414453677    -5.1634862861     1.9644312418
| 20>  H        1.0255515831    -6.6593777293     1.1001444333
| 21>  H        2.5159188752    -5.7877832799     0.6904554968
| 22>  H       -1.5855062032    -3.1804107948     1.2818967345
| 23>  H       -1.9009160207    -3.2836718602    -0.4601649273
| 24> *
| 25>
| 26>                          ****END OF INPUT****

CARTESIAN COORDINATES (ANGSTROEM)
---------------------------------
  C     -0.100314    1.467499   -0.023749
  C     -0.015891    0.016014   -0.009780
  C      0.072305   -1.188231   -0.001145
  C      0.104054   -2.599618    0.027425
  C      1.133462   -3.426385   -0.187108
  C      0.698213   -4.858295   -0.050483
  C      1.470621   -5.666137    0.993479
  O     -0.683041   -4.779543    0.322631
  C     -1.130995   -3.433010    0.313338
  H      0.477120    1.906318    0.798000
  H      0.292545    1.879601   -0.960099
  H     -1.136659    1.806776    0.080542
  H      2.146344   -3.133644   -0.430089
  H      0.774790   -5.380212   -1.021048
  H      1.441445   -5.163486    1.964431
  H      1.025552   -6.659378    1.100144
  H      2.515919   -5.787783    0.690455
  H     -1.585506   -3.180411    1.281897
  H     -1.900916   -3.283672   -0.460165

 Total Charge           Charge          ....    0
 Multiplicity           Mult            ....    1
 Number of Electrons    NEL             ....   66
 Basis Dimension        Dim             ....  339

ORBITAL ENERGIES
----------------

  NO   OCC          E(Eh)            E(eV)
   0   2.0000     -20.549666      -559.1848
   1   2.0000     -11.285757      -307.1011
   2   2.0000     -11.280110      -306.9474
   3   2.0000     -11.254831      -306.2595
   4   2.0000     -11.252354      -306.1921
   5   2.0000     -11.237572      -305.7899
   6   2.0000     -11.236595      -305.7633
   7   2.0000     -11.226732      -305.4949
   8   2.0000     -11.215473      -305.1885
   9   2.0000      -1.377220       -37.4761
  10   2.0000      -1.104873       -30.0651
  11   2.0000      -1.055001       -28.7080
  12   2.0000      -1.033934       -28.1348
  13   2.0000      -0.958572       -26.0841
  14   2.0000      -0.918210       -24.9858
  15   2.0000      -0.821599       -22.3569
  16   2.0000      -0.783680       -21.3250
  17   2.0000      -0.714114       -19.4320
  18   2.0000      -0.661715       -18.0062
  19   2.0000      -0.640119       -17.4185
  20   2.0000      -0.612263       -16.6605
  21   2.0000      -0.600596       -16.3430
  22   2.0000      -0.592349       -16.1186
  23   2.0000      -0.591358       -16.0917
  24   2.0000      -0.556368       -15.1395
  25   2.0000      -0.538757       -14.6603
  26   2.0000      -0.530825       -14.4445
  27   2.0000      -0.504588       -13.7305
  28   2.0000      -0.489827       -13.3289
  29   2.0000      -0.459514       -12.5040
  30   2.0000      -0.406931       -11.0732
  31   2.0000      -0.376797       -10.2532
  32   2.0000      -0.322399        -8.7729
  33   0.0000       0.114007         3.1023
  34   0.0000       0.134711         3.6657
  35   0.0000       0.148271         4.0347
  36   0.0000       0.168691         4.5903
  37   0.0000       0.185552         5.0491

MULLIKEN ATOMIC CHARGES
-----------------------
   0 C :   -0.469136
   1 C :    0.051985
   2 C :    0.076798
   3 C :   -0.163756
   4 C :   -0.221571
   5 C :    0.139991
   6 C :   -0.384777
   7 O :   -0.335392
   8 C :   -0.017370
   9 H :    0.164892
  10 H :    0.164818
  11 H :    0.164189
  12 H :    0.139212
  13 H :    0.091146
  14 H :    0.126170
  15 H :    0.139681
  16 H :    0.117881
  17 H :    0.109803
  18 H :    0.105436
Sum of atomic charges:   -0.0000000

LOEWDIN ATOMIC CHARGES
----------------------
   0 C :   -0.292546
   1 C :   -0.075804
   2 C :   -0.048826
   3 C :   -0.165398
   4 C :   -0.091420
   5 C :   -0.315870
   6 C :   -0.289597
   7 O :    0.172841
   8 C :   -0.245596
   9 H :    0.143021
  10 H :    0.142844
  11 H :    0.142324
  12 H :    0.146718
  13 H :    0.142138
  14 H :    0.125079
  15 H :    0.127027
  16 H :    0.124256
  17 H :    0.129881
  18 H :    0.128927

  Mayer bond orders larger than 0.1
B(  0-C ,  1-C ) :   0.8568 B(  0-C ,  9-H ) :   0.9434 B(  0-C , 10-H ) :   0.9446
B(  0-C , 11-H ) :   0.9433 B(  1-C ,  2-C ) :   2.6102 B(  1-C ,  3-C ) :  -0.1699
B(  2-C ,  3-C ) :   1.0846 B(  3-C ,  4-C ) :   1.7002 B(  3-C ,  8-C ) :   1.0019
B(  4-C ,  5-C ) :   0.9628 B(  4-C , 12-H ) :   0.9151 B(  5-C ,  6-C ) :   0.9051
B(  5-C ,  7-O ) :   0.9294 B(  5-C , 13-H ) :   0.9088 B(  6-C , 14-H ) :   0.9348
B(  6-C , 15-H ) :   0.9350 B(  6-C , 16-H ) :   0.9302 B(  7-O ,  8-C ) :   0.9599
B(  8-C , 17-H ) :   0.9056 B(  8-C , 18-H ) :   0.9101

MP2 TOTAL ENERGY:     -385.184287465 Eh
FINAL SINGLE POINT ENERGY      -385.184287465319

DIPOLE MOMENT
-------------
                                X             Y             Z
Electronic contribution:     -1.91020      -0.06475      -1.35836
Nuclear contribution   :      2.25510       0.76559       1.24652
                        -----------------------------------------
Total Dipole Moment    :      0.34490       0.70084      -0.11183
                        -----------------------------------------
Magnitude (a.u.)       :      0.78908
Magnitude (Debye)      :      2.00567

                             ****ORCA TERMINATED NORMALLY****
TOTAL RUN TIME: 0 days 0 hours 22 minutes 42 seconds 678 msec
