                         Program Version 3.0.3 - RELEASE   -
|  1> ! RI-MP2 RIJK def2-TZVP def2-TZVP/C def2-TZVP/JK TIGHTSCF
|  2> % maxcore 2000
|  3> % mp2 density relaxed end
|  4> *xyz 0 1
|  5>  C       -0.0879656348     1.5732697397     0.0257224806
|  6>  C       -0.0151704365     0.0749697973    -0.0433377166
|  7>  C        0.6474842238    -0.6948152337    -1.1897558041
|  8>  C       -0.3575094611    -1.8731303840    -0.9645969435
|  9>  O        0.1468583308    -3.0517323269    -0.3455828347
| 10>  C        1.0372080796    -2.7752052709     0.7000185883
| 11>  O        0.5528411692    -1.8526760644     1.6565532651
| 12>  C       -0.2449486255    -0.8075011810     1.1643364231
| 13>  C       -1.1560818827    -0.9893492968     0.0019036683
| 14>  H        0.8991761193     2.0060433433     0.2290525448
| 15>  H       -0.4459272278     1.9971891424    -0.9201175725
| 16>  H       -0.7643880529     1.9082395235     0.8189120658
| 17>  H        0.4331085211    -0.2158636461    -2.1500822539
| 18>  H        1.7214324972    -0.8935962405    -1.1407143042
| 19>  H       -0.8788497643    -2.2066752079    -1.8608617210
| 20>  H        1.1984761357    -3.7164635405     1.2314921603
| 21>  H        1.9978026697    -2.4131617439     0.3011065512
| 22>  H       -0.6598292672    -0.2739203125     2.0137841618
| 23>  H       -2.2340356036    -0.8853020072     0.0423210312
| 24> *
| 25>
| 26>                          ****END OF INPUT****

CARTESIAN COORDINATES (ANGSTROEM)
---------------------------------
  C     -0.087966    1.573270    0.025722
  C     -0.015170    0.074970   -0.043338
  C      0.647484   -0.694815   -1.189756
  C     -0.357509   -1.873130   -0.964597
  O      0.146858   -3.051732   -0.345583
  C      1.037208   -2.775205    0.700019
  O      0.552841   -1.852676    1.656553
  C     -0.244949   -0.807501    1.164336
  C     -1.156082   -0.989349    0.001904
  H      0.899176    2.006043    0.229053
  H     -0.445927    1.997189   -0.920118
  H     -0.764388    1.908240    0.818912
  H      0.433109   -0.215864   -2.150082
  H      1.721432   -0.893596   -1.140714
  H     -0.878850   -2.206675   -1.860862
  H      1.198476   -3.716464    1.231492
  H      1.997803   -2.413162    0.301107
  H     -0.659829   -0.273920    2.013784
  H     -2.234036   -0.885302    0.042321

 Total Charge           Charge          ....    0
 Multiplicity           Mult            ....    1
 Number of Electrons    NEL             ....   68
 Basis Dimension        Dim             ....  339

ORBITAL ENERGIES
----------------

  NO   OCC          E(Eh)            E(eV)
   0   2.0000     -20.561128      -559.4967
   1   2.0000     -20.560824      -559.4885
   2   2.0000     -11.324673      -308.1600
   3   2.0000     -11.290744      -307.2368
   4   2.0000     -11.288530      -307.1765
   5   2.0000     -11.248360      -306.0834
   6   2.0000     -11.233682      -305.6840
   7   2.0000     -11.229731      -305.5765
   8   2.0000     -11.226342      -305.4843
   9   2.0000      -1.421949       -38.6932
  10   2.0000      -1.344815       -36.5943
  11   2.0000      -1.192035       -32.4369
  12   2.0000      -0.996429       -27.1142
  13   2.0000      -0.981261       -26.7015
  14   2.0000      -0.931327       -25.3427
  15   2.0000      -0.869628       -23.6638
  16   2.0000      -0.750788       -20.4300
  17   2.0000      -0.744236       -20.2517
  18   2.0000      -0.716467       -19.4961
  19   2.0000      -0.679601       -18.4929
  20   2.0000      -0.659274       -17.9398
  21   2.0000      -0.612137       -16.6571
  22   2.0000      -0.603866       -16.4320
  23   2.0000      -0.591923       -16.1070
  24   2.0000      -0.582490       -15.8504
  25   2.0000      -0.557053       -15.1582
  26   2.0000      -0.554109       -15.0781
  27   2.0000      -0.532134       -14.4801
  28   2.0000      -0.502625       -13.6771
  29   2.0000      -0.488027       -13.2799
  30   2.0000      -0.456485       -12.4216
  31   2.0000      -0.417305       -11.3554
  32   2.0000      -0.386352       -10.5132
  33   2.0000      -0.371485       -10.1086
  34   0.0000       0.134189         3.6515
  35   0.0000       0.162718         4.4278
  36   0.0000       0.167408         4.5554
  37   0.0000       0.176811         4.8113
  38   0.0000       0.196061         5.3351

MULLIKEN ATOMIC CHARGES
-----------------------
   0 C :   -0.414077
   1 C :    0.041103
   2 C :   -0.253658
   3 C :    0.080113
   4 O :   -0.311088
   5 C :    0.093852
   6 O :   -0.303671
   7 C :    0.008074
   8 C :   -0.173821
   9 H :    0.140279
  10 H :    0.129473
  11 H :    0.130224
  12 H :    0.117381
  13 H :    0.121584
  14 H :    0.123111
  15 H :    0.130022
  16 H :    0.076838
  17 H :    0.124290
  18 H :    0.139969
Sum of atomic charges:    0.0000000

LOEWDIN ATOMIC CHARGES
----------------------
   0 C :   -0.275370
   1 C :   -0.203856
   2 C :   -0.179948
   3 C :   -0.255543
   4 O :    0.178646
   5 C :   -0.377847
   6 O :    0.180534
   7 C :   -0.252594
   8 C :   -0.131903
   9 H :    0.131542
  10 H :    0.127289
  11 H :    0.130001
  12 H :    0.143260
  13 H :    0.127954
  14 H :    0.139940
  15 H :    0.123224
  16 H :    0.105436
  17 H :    0.153979
  18 H :    0.135255

  Mayer bond orders larger than 0.1
B(  0-C ,  1-C ) :   0.8926 B(  0-C ,  9-H ) :   0.9363 B(  0-C , 10-H ) :   0.9384
B(  0-C , 11-H ) :   0.9333 B(  1-C ,  2-C ) :   0.9441 B(  1-C ,  7-C ) :   0.8782
B(  1-C ,  8-C ) :   0.7682 B(  2-C ,  3-C ) :   0.9193 B(  2-C , 12-H ) :   0.9128
B(  2-C , 13-H ) :   0.9218 B(  3-C ,  4-O ) :   0.9256 B(  3-C ,  8-C ) :   0.9195
B(  3-C , 14-H ) :   0.9426 B(  4-O ,  5-C ) :   0.9768 B(  5-C ,  6-O ) :   0.9514
B(  5-C , 15-H ) :   0.9266 B(  5-C , 16-H ) :   0.9250 B(  6-O ,  7-C ) :   0.9767
B(  7-C ,  8-C ) :   0.8848 B(  7-C , 17-H ) :   0.9552 B(  8-C , 18-H ) :   0.9049

MP2 TOTAL ENERGY:     -422.283357358 Eh
FINAL SINGLE POINT ENERGY      -422.283357357765

DIPOLE MOMENT
-------------
                                X             Y             Z
Electronic contribution:     -0.47834      -5.97315       2.08965
Nuclear contribution   :      0.42717       6.65154      -2.50986
                        -----------------------------------------
Total Dipole Moment    :     -0.05117       0.67839      -0.42021
                        -----------------------------------------
Magnitude (a.u.)       :      0.79963
Magnitude (Debye)      :      2.03251

                             ****ORCA TERMINATED NORMALLY****
TOTAL RUN TIME: 0 days 0 hours 18 minutes 4 seconds 934 msec
