                         Program Version 3.0.3 - RELEASE   -
|  1> ! RI-MP2 RIJK def2-TZVP def2-TZVP/C def2-TZVP/JK TIGHTSCF
|  2> % maxcore 2000
|  3> % mp2 density relaxed end
|  4> *xyz 0 1
|  5>  C        0.2276161342     1.3114418677    -0.3471520673
|  6>  C       -0.0276891551    -0.0681378936     0.2360460720
|  7>  O       -1.1741507081    -0.6147823112    -0.3886555355
|  8>  C       -1.4916891332    -1.9115385037     0.0372129742
|  9>  C       -2.2223120667    -2.1048933762     1.4020727352
| 10>  C       -3.2053712551    -3.0840305160     0.6926864656
| 11>  C       -2.7078466685    -2.5324211966    -0.6495415755
| 12>  C       -3.5412688855    -1.8126609689    -1.6683367171
| 13>  C       -2.8187497126    -3.0899328642    -2.0344742383
| 14>  H        1.1096465047     1.7648311109     0.1150820359
| 15>  H        0.3944694758     1.2467090791    -1.4262021023
| 16>  H       -0.6310816010     1.9660720009    -0.1728771853
| 17>  H        0.8421223440    -0.7265435531     0.0708771883
| 18>  H       -0.1791109343    -0.0031684733     1.3256533561
| 19>  H       -0.6025717296    -2.5605928260    -0.0344747039
| 20>  H       -1.6424368117    -2.4901718234     2.2435191944
| 21>  H       -2.7183565537    -1.1760911390     1.6958583035
| 22>  H       -2.9349376615    -4.1334096762     0.8475121233
| 23>  H       -4.2684166256    -2.9622819756     0.9149345158
| 24>  H       -4.6208873097    -1.8480449851    -1.5596652918
| 25>  H       -3.1513692855    -0.8776417319    -2.0540407020
| 26>  H       -1.9522979992    -3.0166397904    -2.6848539620
| 27>  H       -3.4081690421    -3.9906594841    -2.1756999131
| 28> *
| 29>
| 30>                          ****END OF INPUT****

CARTESIAN COORDINATES (ANGSTROEM)
---------------------------------
  C      0.227616    1.311442   -0.347152
  C     -0.027689   -0.068138    0.236046
  O     -1.174151   -0.614782   -0.388656
  C     -1.491689   -1.911539    0.037213
  C     -2.222312   -2.104893    1.402073
  C     -3.205371   -3.084031    0.692686
  C     -2.707847   -2.532421   -0.649542
  C     -3.541269   -1.812661   -1.668337
  C     -2.818750   -3.089933   -2.034474
  H      1.109647    1.764831    0.115082
  H      0.394469    1.246709   -1.426202
  H     -0.631082    1.966072   -0.172877
  H      0.842122   -0.726544    0.070877
  H     -0.179111   -0.003168    1.325653
  H     -0.602572   -2.560593   -0.034475
  H     -1.642437   -2.490172    2.243519
  H     -2.718357   -1.176091    1.695858
  H     -2.934938   -4.133410    0.847512
  H     -4.268417   -2.962282    0.914935
  H     -4.620887   -1.848045   -1.559665
  H     -3.151369   -0.877642   -2.054041
  H     -1.952298   -3.016640   -2.684854
  H     -3.408169   -3.990659   -2.175700

 Total Charge           Charge          ....    0
 Multiplicity           Mult            ....    1
 Number of Electrons    NEL             ....   70
 Basis Dimension        Dim             ....  363

ORBITAL ENERGIES
----------------

  NO   OCC          E(Eh)            E(eV)
   0   2.0000     -20.549774      -559.1878
   1   2.0000     -11.273770      -306.7749
   2   2.0000     -11.272835      -306.7494
   3   2.0000     -11.226337      -305.4842
   4   2.0000     -11.220617      -305.3285
   5   2.0000     -11.217750      -305.2505
   6   2.0000     -11.216216      -305.2088
   7   2.0000     -11.214601      -305.1648
   8   2.0000     -11.213111      -305.1243
   9   2.0000      -1.374612       -37.4051
  10   2.0000      -1.157440       -31.4955
  11   2.0000      -1.063645       -28.9433
  12   2.0000      -1.012478       -27.5509
  13   2.0000      -0.885705       -24.1013
  14   2.0000      -0.847680       -23.0665
  15   2.0000      -0.824771       -22.4431
  16   2.0000      -0.812146       -22.0996
  17   2.0000      -0.726297       -19.7635
  18   2.0000      -0.675217       -18.3736
  19   2.0000      -0.663310       -18.0496
  20   2.0000      -0.648368       -17.6430
  21   2.0000      -0.631921       -17.1954
  22   2.0000      -0.592558       -16.1243
  23   2.0000      -0.566294       -15.4097
  24   2.0000      -0.542369       -14.7586
  25   2.0000      -0.530785       -14.4434
  26   2.0000      -0.515290       -14.0218
  27   2.0000      -0.507078       -13.7983
  28   2.0000      -0.501321       -13.6416
  29   2.0000      -0.483254       -13.1500
  30   2.0000      -0.468395       -12.7457
  31   2.0000      -0.445227       -12.1152
  32   2.0000      -0.416036       -11.3209
  33   2.0000      -0.395282       -10.7562
  34   2.0000      -0.381849       -10.3907
  35   0.0000       0.140097         3.8122
  36   0.0000       0.154937         4.2160
  37   0.0000       0.158353         4.3090
  38   0.0000       0.162025         4.4089
  39   0.0000       0.187277         5.0961

MULLIKEN ATOMIC CHARGES
-----------------------
   0 C :   -0.362904
   1 C :   -0.056782
   2 O :   -0.286089
   3 C :    0.048809
   4 C :   -0.247318
   5 C :   -0.200608
   6 C :    0.089725
   7 C :   -0.295587
   8 C :   -0.291806
   9 H :    0.122008
  10 H :    0.128285
  11 H :    0.129675
  12 H :    0.089608
  13 H :    0.096569
  14 H :    0.066925
  15 H :    0.120354
  16 H :    0.111791
  17 H :    0.112876
  18 H :    0.112324
  19 H :    0.122638
  20 H :    0.138319
  21 H :    0.127810
  22 H :    0.123381
Sum of atomic charges:    0.0000000

LOEWDIN ATOMIC CHARGES
----------------------
   0 C :   -0.317775
   1 C :   -0.348094
   2 O :    0.186342
   3 C :   -0.274867
   4 C :   -0.217066
   5 C :   -0.196873
   6 C :   -0.218138
   7 C :   -0.200869
   8 C :   -0.212348
   9 H :    0.123895
  10 H :    0.123460
  11 H :    0.123794
  12 H :    0.115982
  13 H :    0.117910
  14 H :    0.134625
  15 H :    0.121736
  16 H :    0.138886
  17 H :    0.134402
  18 H :    0.128441
  19 H :    0.131449
  20 H :    0.137483
  21 H :    0.134864
  22 H :    0.132762

  Mayer bond orders larger than 0.1
B(  0-C ,  1-C ) :   0.9532 B(  0-C ,  9-H ) :   0.9335 B(  0-C , 10-H ) :   0.9357
B(  0-C , 11-H ) :   0.9369 B(  1-C ,  2-O ) :   0.9106 B(  1-C , 12-H ) :   0.9208
B(  1-C , 13-H ) :   0.9234 B(  2-O ,  3-C ) :   1.0180 B(  3-C ,  4-C ) :   0.9411
B(  3-C ,  6-C ) :   0.9041 B(  3-C , 14-H ) :   0.9321 B(  4-C ,  5-C ) :   0.9613
B(  4-C , 15-H ) :   0.9273 B(  4-C , 16-H ) :   0.9088 B(  5-C ,  6-C ) :   0.8839
B(  5-C , 17-H ) :   0.9203 B(  5-C , 18-H ) :   0.9181 B(  6-C ,  7-C ) :   0.8465
B(  6-C ,  8-C ) :   0.8465 B(  7-C ,  8-C ) :   0.9571 B(  7-C , 19-H ) :   0.9263
B(  7-C , 20-H ) :   0.9153 B(  8-C , 21-H ) :   0.9207 B(  8-C , 22-H ) :   0.9227

MP2 TOTAL ENERGY:     -387.577795547 Eh
FINAL SINGLE POINT ENERGY      -387.577795546819

DIPOLE MOMENT
-------------
                                X             Y             Z
Electronic contribution:     -1.63913      -2.08183      -0.81987
Nuclear contribution   :      1.89906       1.98112       1.14851
                        -----------------------------------------
Total Dipole Moment    :      0.25993      -0.10070       0.32864
                        -----------------------------------------
Magnitude (a.u.)       :      0.43094
Magnitude (Debye)      :      1.09537

                             ****ORCA TERMINATED NORMALLY****
TOTAL RUN TIME: 0 days 0 hours 18 minutes 24 seconds 721 msec
