                         Program Version 3.0.3 - RELEASE   -
|  1> ! RI-MP2 RIJK def2-TZVP def2-TZVP/C def2-TZVP/JK TIGHTSCF
|  2> % maxcore 2000
|  3> % mp2 density relaxed end
|  4> *xyz 0 1
|  5>  C        0.0589600746     1.4638123597    -0.1495221446
|  6>  C        0.0028507683    -0.0202952452    -0.0435364379
|  7>  N        0.1231240113    -0.8489916449    -1.0769729234
|  8>  N        0.0002406836    -2.0362093508    -0.4876702827
|  9>  C        0.0995255063    -3.2850543622    -1.2063071498
| 10>  C        1.4968587946    -3.5097980670    -1.7879938400
| 11>  O        1.7124502831    -4.3278455530    -2.6371375290
| 12>  N       -0.1760136273    -1.9653394199     0.8275034476
| 13>  N       -0.1806967224    -0.6935546373     1.1236378071
| 14>  H        0.8504985612     1.8651934342     0.4896092693
| 15>  H        0.2497059819     1.7598170994    -1.1819148203
| 16>  H       -0.8846586408     1.9094975938     0.1788071550
| 17>  H       -0.1217118219    -4.0817342987    -0.4903418537
| 18>  H       -0.6368099875    -3.3194925962    -2.0127406172
| 19>  H        2.2923997451    -2.8702438917    -1.3498916704
| 20> *
| 21>
| 22>                          ****END OF INPUT****

CARTESIAN COORDINATES (ANGSTROEM)
---------------------------------
  C      0.058960    1.463812   -0.149522
  C      0.002851   -0.020295   -0.043536
  N      0.123124   -0.848992   -1.076973
  N      0.000241   -2.036209   -0.487670
  C      0.099526   -3.285054   -1.206307
  C      1.496859   -3.509798   -1.787994
  O      1.712450   -4.327846   -2.637138
  N     -0.176014   -1.965339    0.827503
  N     -0.180697   -0.693555    1.123638
  H      0.850499    1.865193    0.489609
  H      0.249706    1.759817   -1.181915
  H     -0.884659    1.909498    0.178807
  H     -0.121712   -4.081734   -0.490342
  H     -0.636810   -3.319493   -2.012741
  H      2.292400   -2.870244   -1.349892

 Total Charge           Charge          ....    0
 Multiplicity           Mult            ....    1
 Number of Electrons    NEL             ....   66
 Basis Dimension        Dim             ....  315

ORBITAL ENERGIES
----------------

  NO   OCC          E(Eh)            E(eV)
   0   2.0000     -20.583650      -560.1096
   1   2.0000     -15.711634      -427.5353
   2   2.0000     -15.679083      -426.6495
   3   2.0000     -15.628855      -425.2828
   4   2.0000     -15.612649      -424.8418
   5   2.0000     -11.360624      -309.1383
   6   2.0000     -11.317549      -307.9662
   7   2.0000     -11.315269      -307.9041
   8   2.0000     -11.247873      -306.0702
   9   2.0000      -1.509709       -41.0813
  10   2.0000      -1.425209       -38.7819
  11   2.0000      -1.276485       -34.7349
  12   2.0000      -1.210955       -32.9518
  13   2.0000      -1.063343       -28.9350
  14   2.0000      -0.998880       -27.1809
  15   2.0000      -0.888194       -24.1690
  16   2.0000      -0.851035       -23.1578
  17   2.0000      -0.831696       -22.6316
  18   2.0000      -0.745537       -20.2871
  19   2.0000      -0.710745       -19.3403
  20   2.0000      -0.670906       -18.2563
  21   2.0000      -0.650637       -17.7047
  22   2.0000      -0.637082       -17.3359
  23   2.0000      -0.615702       -16.7541
  24   2.0000      -0.586269       -15.9532
  25   2.0000      -0.577582       -15.7168
  26   2.0000      -0.560067       -15.2402
  27   2.0000      -0.534762       -14.5516
  28   2.0000      -0.505336       -13.7509
  29   2.0000      -0.476223       -12.9587
  30   2.0000      -0.462283       -12.5794
  31   2.0000      -0.443012       -12.0550
  32   2.0000      -0.396255       -10.7826
  33   0.0000       0.104840         2.8528
  34   0.0000       0.107634         2.9289
  35   0.0000       0.138360         3.7650
  36   0.0000       0.150381         4.0921
  37   0.0000       0.169364         4.6086

MULLIKEN ATOMIC CHARGES
-----------------------
   0 C :   -0.414054
   1 C :    0.141551
   2 N :   -0.273407
   3 N :    0.214112
   4 C :   -0.112360
   5 C :    0.081459
   6 O :   -0.238771
   7 N :   -0.154740
   8 N :   -0.164820
   9 H :    0.155098
  10 H :    0.155484
  11 H :    0.154660
  12 H :    0.183531
  13 H :    0.165456
  14 H :    0.106799
Sum of atomic charges:   -0.0000000

LOEWDIN ATOMIC CHARGES
----------------------
   0 C :   -0.269361
   1 C :   -0.387995
   2 N :    0.065268
   3 N :    0.110670
   4 C :   -0.241896
   5 C :   -0.283686
   6 O :    0.157655
   7 N :   -0.032630
   8 N :    0.022689
   9 H :    0.140085
  10 H :    0.138409
  11 H :    0.140212
  12 H :    0.165418
  13 H :    0.157510
  14 H :    0.117652

  Mayer bond orders larger than 0.1
B(  0-C ,  1-C ) :   0.9077 B(  0-C ,  9-H ) :   0.9267 B(  0-C , 10-H ) :   0.9445
B(  0-C , 11-H ) :   0.9241 B(  1-C ,  2-N ) :   1.4609 B(  1-C ,  8-N ) :   1.3690
B(  2-N ,  3-N ) :   1.0513 B(  3-N ,  4-C ) :   0.8485 B(  3-N ,  7-N ) :   1.0728
B(  4-C ,  5-C ) :   0.8495 B(  4-C , 12-H ) :   0.8966 B(  4-C , 13-H ) :   0.8993
B(  5-C ,  6-O ) :   2.0075 B(  5-C , 14-H ) :   0.9358 B(  7-N ,  8-N ) :   1.2302

MP2 TOTAL ENERGY:     -449.388313859 Eh
FINAL SINGLE POINT ENERGY      -449.388313858728

DIPOLE MOMENT
-------------
                                X             Y             Z
Electronic contribution:      0.26951      -4.76057       0.26014
Nuclear contribution   :     -0.39265       5.16274      -0.56355
                        -----------------------------------------
Total Dipole Moment    :     -0.12314       0.40217      -0.30341
                        -----------------------------------------
Magnitude (a.u.)       :      0.51862
Magnitude (Debye)      :      1.31822

                             ****ORCA TERMINATED NORMALLY****
TOTAL RUN TIME: 0 days 0 hours 13 minutes 42 seconds 504 msec
