                         Program Version 3.0.3 - RELEASE   -
|  1> ! RI-MP2 RIJK def2-TZVP def2-TZVP/C def2-TZVP/JK TIGHTSCF
|  2> % maxcore 2000
|  3> % mp2 density relaxed end
|  4> *xyz 0 1
|  5>  O        0.1342496911     0.2183953981     0.5817377168
|  6>  C        0.1158008418     1.2670035271     0.0302084740
|  7>  O       -0.9704668657     2.1084250631     0.0050657380
|  8>  C       -0.6906424559     3.1928335257    -0.8495535387
|  9>  C        0.4859067579     4.1561027296    -0.5816028499
| 10>  N        1.3440155976     3.9505323483     0.5621201058
| 11>  C        1.7386386361     2.7465352686     0.5017123289
| 12>  N        1.2427548674     1.9492556564    -0.6241643300
| 13>  C        0.6236332437     2.9617297460    -1.5026953912
| 14>  H       -1.5694870511     3.5624461980    -1.3598628045
| 15>  H        0.3737545571     5.1708967065    -0.9406403061
| 16>  H        2.3416569275     2.2459227744     1.2498173762
| 17>  H        0.8488856824     2.9373024583    -2.5610546394
| 18> *
| 19>
| 20>                          ****END OF INPUT****

CARTESIAN COORDINATES (ANGSTROEM)
---------------------------------
  O      0.134250    0.218395    0.581738
  C      0.115801    1.267004    0.030208
  O     -0.970467    2.108425    0.005066
  C     -0.690642    3.192834   -0.849554
  C      0.485907    4.156103   -0.581603
  N      1.344016    3.950532    0.562120
  C      1.738639    2.746535    0.501712
  N      1.242755    1.949256   -0.624164
  C      0.623633    2.961730   -1.502695
  H     -1.569487    3.562446   -1.359863
  H      0.373755    5.170897   -0.940640
  H      2.341657    2.245923    1.249817
  H      0.848886    2.937302   -2.561055

 Total Charge           Charge          ....    0
 Multiplicity           Mult            ....    1
 Number of Electrons    NEL             ....   64
 Basis Dimension        Dim             ....  303

ORBITAL ENERGIES
----------------

  NO   OCC          E(Eh)            E(eV)
   0   2.0000     -20.633326      -561.4613
   1   2.0000     -20.572104      -559.7954
   2   2.0000     -15.624392      -425.1613
   3   2.0000     -15.593666      -424.3252
   4   2.0000     -11.432473      -311.0934
   5   2.0000     -11.340281      -308.5847
   6   2.0000     -11.334520      -308.4280
   7   2.0000     -11.304019      -307.5980
   8   2.0000     -11.299590      -307.4775
   9   2.0000      -1.503635       -40.9160
  10   2.0000      -1.409534       -38.3554
  11   2.0000      -1.344019       -36.5726
  12   2.0000      -1.203143       -32.7392
  13   2.0000      -1.141547       -31.0631
  14   2.0000      -0.918701       -24.9991
  15   2.0000      -0.866704       -23.5842
  16   2.0000      -0.832346       -22.6493
  17   2.0000      -0.823087       -22.3973
  18   2.0000      -0.763773       -20.7833
  19   2.0000      -0.704862       -19.1803
  20   2.0000      -0.684349       -18.6221
  21   2.0000      -0.659339       -17.9415
  22   2.0000      -0.631682       -17.1889
  23   2.0000      -0.622179       -16.9303
  24   2.0000      -0.603402       -16.4194
  25   2.0000      -0.550549       -14.9812
  26   2.0000      -0.531342       -14.4586
  27   2.0000      -0.521602       -14.1935
  28   2.0000      -0.478011       -13.0073
  29   2.0000      -0.473642       -12.8885
  30   2.0000      -0.440848       -11.9961
  31   2.0000      -0.387593       -10.5469
  32   0.0000       0.106320         2.8931
  33   0.0000       0.139836         3.8051
  34   0.0000       0.161314         4.3896
  35   0.0000       0.169913         4.6236
  36   0.0000       0.174727         4.7546

MULLIKEN ATOMIC CHARGES
-----------------------
   0 O :   -0.236248
   1 C :    0.299021
   2 O :   -0.223507
   3 C :    0.042628
   4 C :   -0.071462
   5 N :   -0.206530
   6 C :    0.007760
   7 N :   -0.144472
   8 C :   -0.098916
   9 H :    0.157195
  10 H :    0.149369
  11 H :    0.171509
  12 H :    0.153654
Sum of atomic charges:    0.0000000

LOEWDIN ATOMIC CHARGES
----------------------
   0 O :    0.179463
   1 C :   -0.486888
   2 O :    0.286528
   3 C :   -0.229745
   4 C :   -0.208866
   5 N :    0.136201
   6 C :   -0.224985
   7 N :    0.156560
   8 C :   -0.195472
   9 H :    0.149662
  10 H :    0.150244
  11 H :    0.145692
  12 H :    0.141606

  Mayer bond orders larger than 0.1
B(  0-O ,  1-C ) :   2.0784 B(  1-C ,  2-O ) :   1.0758 B(  1-C ,  7-N ) :   0.9293
B(  2-O ,  3-C ) :   0.9202 B(  3-C ,  4-C ) :   0.8300 B(  3-C ,  8-C ) :   0.8832
B(  3-C ,  9-H ) :   0.9330 B(  4-C ,  5-N ) :   0.9500 B(  4-C ,  8-C ) :   0.8743
B(  4-C , 10-H ) :   0.9293 B(  5-N ,  6-C ) :   1.8282 B(  6-C ,  7-N ) :   0.9286
B(  6-C , 11-H ) :   0.9134 B(  7-N ,  8-C ) :   0.9410 B(  8-C , 12-H ) :   0.9229

MP2 TOTAL ENERGY:     -452.004880916 Eh
FINAL SINGLE POINT ENERGY      -452.004880915968

DIPOLE MOMENT
-------------
                                X             Y             Z
Electronic contribution:     -0.34821      -2.77927       1.56729
Nuclear contribution   :      0.27869       3.77149      -2.64740
                        -----------------------------------------
Total Dipole Moment    :     -0.06951       0.99221      -1.08011
                        -----------------------------------------
Magnitude (a.u.)       :      1.46832
Magnitude (Debye)      :      3.73217

                             ****ORCA TERMINATED NORMALLY****
TOTAL RUN TIME: 0 days 0 hours 14 minutes 58 seconds 357 msec
