                         Program Version 3.0.3 - RELEASE   -
|  1> ! RI-MP2 RIJK def2-TZVP def2-TZVP/C def2-TZVP/JK TIGHTSCF
|  2> % maxcore 2000
|  3> % mp2 density relaxed end
|  4> *xyz 0 1
|  5>  C        0.1592046095     1.4196914701    -0.0930623877
|  6>  O       -0.1239347360     0.0446609238     0.0916914171
|  7>  C        0.6089077352    -0.5587313889     1.1346722677
|  8>  C       -0.0246615114    -1.9481997644     1.3634522160
|  9>  C       -1.4069964569    -1.8502491140     1.8253392962
| 10>  N       -2.4930998158    -1.7774542660     2.2115164555
| 11>  C        2.0379370605    -0.6938588241     0.8221996519
| 12>  C        3.2041045602    -0.8118643116     0.5575772686
| 13>  H        1.2073994709     1.5816864742    -0.3765788961
| 14>  H       -0.4905613603     1.7669409157    -0.8982591796
| 15>  H       -0.0566966949     1.9975775087     0.8175555158
| 16>  H        0.5043080848     0.0321750453     2.0596491793
| 17>  H        0.0078942534    -2.5025602462     0.4207479250
| 18>  H        0.5648643453    -2.5032699901     2.0987836021
| 19>  H        4.2368117354    -0.9092508125     0.3269222581
| 20> *
| 21>
| 22>                          ****END OF INPUT****

CARTESIAN COORDINATES (ANGSTROEM)
---------------------------------
  C      0.159205    1.419691   -0.093062
  O     -0.123935    0.044661    0.091691
  C      0.608908   -0.558731    1.134672
  C     -0.024662   -1.948200    1.363452
  C     -1.406996   -1.850249    1.825339
  N     -2.493100   -1.777454    2.211516
  C      2.037937   -0.693859    0.822200
  C      3.204105   -0.811864    0.557577
  H      1.207399    1.581686   -0.376579
  H     -0.490561    1.766941   -0.898259
  H     -0.056697    1.997578    0.817556
  H      0.504308    0.032175    2.059649
  H      0.007894   -2.502560    0.420748
  H      0.564864   -2.503270    2.098784
  H      4.236812   -0.909251    0.326922

 Total Charge           Charge          ....    0
 Multiplicity           Mult            ....    1
 Number of Electrons    NEL             ....   58
 Basis Dimension        Dim             ....  290

ORBITAL ENERGIES
----------------

  NO   OCC          E(Eh)            E(eV)
   0   2.0000     -20.583410      -560.1031
   1   2.0000     -15.569730      -423.6739
   2   2.0000     -11.342883      -308.6555
   3   2.0000     -11.292129      -307.2745
   4   2.0000     -11.284876      -307.0771
   5   2.0000     -11.274304      -306.7894
   6   2.0000     -11.255710      -306.2834
   7   2.0000     -11.251062      -306.1570
   8   2.0000      -1.407083       -38.2887
   9   2.0000      -1.219159       -33.1750
  10   2.0000      -1.109454       -30.1898
  11   2.0000      -1.041722       -28.3467
  12   2.0000      -0.958001       -26.0685
  13   2.0000      -0.903818       -24.5941
  14   2.0000      -0.758983       -20.6530
  15   2.0000      -0.724304       -19.7093
  16   2.0000      -0.700992       -19.0750
  17   2.0000      -0.685115       -18.6429
  18   2.0000      -0.654776       -17.8174
  19   2.0000      -0.620980       -16.8977
  20   2.0000      -0.589235       -16.0339
  21   2.0000      -0.560262       -15.2455
  22   2.0000      -0.553533       -15.0624
  23   2.0000      -0.515554       -14.0289
  24   2.0000      -0.463985       -12.6257
  25   2.0000      -0.463613       -12.6156
  26   2.0000      -0.457245       -12.4423
  27   2.0000      -0.420834       -11.4515
  28   2.0000      -0.413004       -11.2384
  29   0.0000       0.121432         3.3043
  30   0.0000       0.146003         3.9729
  31   0.0000       0.149699         4.0735
  32   0.0000       0.151354         4.1185
  33   0.0000       0.158225         4.3055

MULLIKEN ATOMIC CHARGES
-----------------------
   0 C :   -0.226496
   1 O :   -0.284647
   2 C :   -0.126479
   3 C :   -0.047753
   4 C :   -0.204010
   5 N :   -0.052627
   6 C :   -0.014269
   7 C :   -0.101068
   8 H :    0.132251
   9 H :    0.148452
  10 H :    0.118708
  11 H :    0.128404
  12 H :    0.161237
  13 H :    0.167638
  14 H :    0.200659
Sum of atomic charges:    0.0000000

LOEWDIN ATOMIC CHARGES
----------------------
   0 C :   -0.337848
   1 O :    0.177631
   2 C :   -0.313856
   3 C :   -0.205774
   4 C :   -0.188154
   5 N :    0.062223
   6 C :   -0.088913
   7 C :   -0.074230
   8 H :    0.109431
   9 H :    0.117947
  10 H :    0.105989
  11 H :    0.160244
  12 H :    0.173169
  13 H :    0.171257
  14 H :    0.130883

  Mayer bond orders larger than 0.1
B(  0-C ,  1-O ) :   0.8989 B(  0-C ,  8-H ) :   0.9332 B(  0-C ,  9-H ) :   0.9378
B(  0-C , 10-H ) :   0.9307 B(  1-O ,  2-C ) :   1.0105 B(  2-C ,  3-C ) :   0.8960
B(  2-C ,  6-C ) :   1.0371 B(  2-C , 11-H ) :   0.9934 B(  3-C ,  4-C ) :   0.9186
B(  3-C , 12-H ) :   0.8906 B(  3-C , 13-H ) :   0.9110 B(  4-C ,  5-N ) :   2.8767
B(  6-C ,  7-C ) :   2.6466 B(  7-C , 14-H ) :   0.8830

MP2 TOTAL ENERGY:     -361.998979991 Eh
FINAL SINGLE POINT ENERGY      -361.998979990902

DIPOLE MOMENT
-------------
                                X             Y             Z
Electronic contribution:     -2.42789      -3.85878       1.80019
Nuclear contribution   :      4.13369       4.20131      -2.10950
                        -----------------------------------------
Total Dipole Moment    :      1.70581       0.34253      -0.30931
                        -----------------------------------------
Magnitude (a.u.)       :      1.76714
Magnitude (Debye)      :      4.49170

                             ****ORCA TERMINATED NORMALLY****
TOTAL RUN TIME: 0 days 0 hours 9 minutes 57 seconds 754 msec
