                         Program Version 3.0.3 - RELEASE   -
|  1> ! RI-MP2 RIJK def2-TZVP def2-TZVP/C def2-TZVP/JK TIGHTSCF
|  2> % maxcore 2000
|  3> % mp2 density relaxed end
|  4> *xyz 0 1
|  5>  C       -0.1041323968     1.4734276233    -0.0846146044
|  6>  C        0.0675123225    -0.0083518735     0.0297509931
|  7>  C        0.8380108640    -0.8364510138    -0.9490214155
|  8>  C        1.0908768005    -2.2133035157    -0.3629033330
|  9>  C       -0.3026106651    -2.0220157543     0.2577082547
| 10>  C       -0.1758444714    -0.8603303224     1.2798087581
| 11>  C        0.7982788745    -0.9170284676     2.3535729829
| 12>  C        1.6171498823    -0.9676385151     3.2333044397
| 13>  N       -0.6630345155    -0.9858212477    -0.8510839019
| 14>  H        0.6991567637     1.9976190452     0.4445893044
| 15>  H       -0.0825043077     1.7845972469    -1.1333429834
| 16>  H       -1.0605736835     1.7920804346     0.3427358672
| 17>  H        1.2967116312    -0.3881284523    -1.8236508000
| 18>  H        1.0707711490    -2.9778225431    -1.1435665056
| 19>  H        1.9419414378    -2.3729536625     0.3050067942
| 20>  H       -0.9706792776    -2.8575204755     0.4544710475
| 21>  H       -1.1707255717    -0.6209398390     1.6722491999
| 22>  H        2.3366001138    -1.0095701076     4.0132989424
| 23> *
| 24>
| 25>                          ****END OF INPUT****

CARTESIAN COORDINATES (ANGSTROEM)
---------------------------------
  C     -0.104132    1.473428   -0.084615
  C      0.067512   -0.008352    0.029751
  C      0.838011   -0.836451   -0.949021
  C      1.090877   -2.213304   -0.362903
  C     -0.302611   -2.022016    0.257708
  C     -0.175844   -0.860330    1.279809
  C      0.798279   -0.917028    2.353573
  C      1.617150   -0.967639    3.233304
  N     -0.663035   -0.985821   -0.851084
  H      0.699157    1.997619    0.444589
  H     -0.082504    1.784597   -1.133343
  H     -1.060574    1.792080    0.342736
  H      1.296712   -0.388128   -1.823651
  H      1.070771   -2.977823   -1.143567
  H      1.941941   -2.372954    0.305007
  H     -0.970679   -2.857520    0.454471
  H     -1.170726   -0.620940    1.672249
  H      2.336600   -1.009570    4.013299

 Total Charge           Charge          ....    0
 Multiplicity           Mult            ....    1
 Number of Electrons    NEL             ....   64
 Basis Dimension        Dim             ....  333

ORBITAL ENERGIES
----------------

  NO   OCC          E(Eh)            E(eV)
   0   2.0000     -15.562029      -423.4643
   1   2.0000     -11.275913      -306.8332
   2   2.0000     -11.275548      -306.8233
   3   2.0000     -11.264826      -306.5315
   4   2.0000     -11.263743      -306.5020
   5   2.0000     -11.237325      -305.7832
   6   2.0000     -11.234161      -305.6971
   7   2.0000     -11.227571      -305.5177
   8   2.0000     -11.226130      -305.4785
   9   2.0000      -1.322749       -35.9938
  10   2.0000      -1.067110       -29.0376
  11   2.0000      -1.030616       -28.0445
  12   2.0000      -0.985662       -26.8212
  13   2.0000      -0.965924       -26.2841
  14   2.0000      -0.887372       -24.1466
  15   2.0000      -0.769887       -20.9497
  16   2.0000      -0.747546       -20.3418
  17   2.0000      -0.714129       -19.4324
  18   2.0000      -0.689819       -18.7709
  19   2.0000      -0.654844       -17.8192
  20   2.0000      -0.625552       -17.0221
  21   2.0000      -0.583783       -15.8855
  22   2.0000      -0.569564       -15.4986
  23   2.0000      -0.549631       -14.9562
  24   2.0000      -0.538846       -14.6627
  25   2.0000      -0.510984       -13.9046
  26   2.0000      -0.479285       -13.0420
  27   2.0000      -0.442192       -12.0327
  28   2.0000      -0.417428       -11.3588
  29   2.0000      -0.387630       -10.5479
  30   2.0000      -0.384593       -10.4653
  31   2.0000      -0.378408       -10.2970
  32   0.0000       0.140734         3.8296
  33   0.0000       0.153610         4.1799
  34   0.0000       0.159957         4.3526
  35   0.0000       0.164016         4.4631
  36   0.0000       0.173839         4.7304

MULLIKEN ATOMIC CHARGES
-----------------------
   0 C :   -0.425594
   1 C :    0.092800
   2 C :   -0.176147
   3 C :   -0.171071
   4 C :   -0.060439
   5 C :   -0.084941
   6 C :   -0.050535
   7 C :   -0.167210
   8 N :   -0.215963
   9 H :    0.145090
  10 H :    0.142242
  11 H :    0.135301
  12 H :    0.131879
  13 H :    0.122147
  14 H :    0.128996
  15 H :    0.137797
  16 H :    0.125213
  17 H :    0.190436
Sum of atomic charges:   -0.0000000

LOEWDIN ATOMIC CHARGES
----------------------
   0 C :   -0.264192
   1 C :   -0.243896
   2 C :   -0.188059
   3 C :   -0.207037
   4 C :   -0.152189
   5 C :   -0.175482
   6 C :   -0.084100
   7 C :   -0.093987
   8 N :    0.156721
   9 H :    0.134880
  10 H :    0.136243
  11 H :    0.131324
  12 H :    0.136716
  13 H :    0.143779
  14 H :    0.133908
  15 H :    0.131276
  16 H :    0.176894
  17 H :    0.127203

  Mayer bond orders larger than 0.1
B(  0-C ,  1-C ) :   0.8755 B(  0-C ,  9-H ) :   0.9391 B(  0-C , 10-H ) :   0.9330
B(  0-C , 11-H ) :   0.9378 B(  1-C ,  2-C ) :   0.9278 B(  1-C ,  5-C ) :   0.8606
B(  1-C ,  8-N ) :   0.8325 B(  2-C ,  3-C ) :   0.9602 B(  2-C ,  8-N ) :   0.9236
B(  2-C , 12-H ) :   0.9116 B(  3-C ,  4-C ) :   0.9649 B(  3-C , 13-H ) :   0.9188
B(  3-C , 14-H ) :   0.9017 B(  4-C ,  5-C ) :   0.9378 B(  4-C ,  8-N ) :   0.9600
B(  4-C , 15-H ) :   0.8999 B(  5-C ,  6-C ) :   1.1207 B(  5-C , 16-H ) :   0.9193
B(  6-C ,  7-C ) :   2.5850 B(  7-C , 17-H ) :   0.8996

MP2 TOTAL ENERGY:     -364.060087438 Eh
FINAL SINGLE POINT ENERGY      -364.060087438261

DIPOLE MOMENT
-------------
                                X             Y             Z
Electronic contribution:     -0.44561      -2.32891       1.61588
Nuclear contribution   :      0.91329       2.35020      -1.34827
                        -----------------------------------------
Total Dipole Moment    :      0.46769       0.02129       0.26762
                        -----------------------------------------
Magnitude (a.u.)       :      0.53926
Magnitude (Debye)      :      1.37070

                             ****ORCA TERMINATED NORMALLY****
TOTAL RUN TIME: 0 days 0 hours 19 minutes 27 seconds 291 msec
