                         Program Version 3.0.3 - RELEASE   -
|  1> ! RI-MP2 RIJK def2-TZVP def2-TZVP/C def2-TZVP/JK TIGHTSCF
|  2> % maxcore 2000
|  3> % mp2 density relaxed end
|  4> *xyz 0 1
|  5>  O       -0.9374125598    -0.3051373736    -0.2202953717
|  6>  C        0.3798965425    -0.7666440540    -0.5171387625
|  7>  C        1.1455691361     0.2803982497    -1.2211656945
|  8>  N        1.7433564142     1.1168936142    -1.7484468217
|  9>  C        1.1446098347    -1.2703989234     0.7029732685
| 10>  C        0.8572621354    -0.7190254517     2.0905199489
| 11>  C        0.4357406349    -2.1216165141     1.7283493040
| 12>  O       -0.8984453093    -2.4891115254     1.5916192466
| 13>  H       -0.8681964502     0.5565421967     0.2076120759
| 14>  H        0.2324180778    -1.5987921614    -1.2153978340
| 15>  H        2.1764500204    -1.5199012494     0.4733544069
| 16>  H        1.6915406156    -0.5590528647     2.7641867021
| 17>  H        0.0586148700     0.0088866065     2.1951584716
| 18>  H        1.0012475022    -2.9404905090     2.1610614651
| 19>  H       -1.3481430444    -1.7980295205     1.0862176046
| 20> *
| 21>
| 22>                          ****END OF INPUT****

CARTESIAN COORDINATES (ANGSTROEM)
---------------------------------
  O     -0.937413   -0.305137   -0.220295
  C      0.379897   -0.766644   -0.517139
  C      1.145569    0.280398   -1.221166
  N      1.743356    1.116894   -1.748447
  C      1.144610   -1.270399    0.702973
  C      0.857262   -0.719025    2.090520
  C      0.435741   -2.121617    1.728349
  O     -0.898445   -2.489112    1.591619
  H     -0.868196    0.556542    0.207612
  H      0.232418   -1.598792   -1.215398
  H      2.176450   -1.519901    0.473354
  H      1.691541   -0.559053    2.764187
  H      0.058615    0.008887    2.195158
  H      1.001248   -2.940491    2.161061
  H     -1.348143   -1.798030    1.086218

 Total Charge           Charge          ....    0
 Multiplicity           Mult            ....    1
 Number of Electrons    NEL             ....   60
 Basis Dimension        Dim             ....  290

ORBITAL ENERGIES
----------------

  NO   OCC          E(Eh)            E(eV)
   0   2.0000     -20.614507      -560.9492
   1   2.0000     -20.567955      -559.6825
   2   2.0000     -15.591039      -424.2537
   3   2.0000     -11.361331      -309.1575
   4   2.0000     -11.305505      -307.6384
   5   2.0000     -11.287701      -307.1540
   6   2.0000     -11.266063      -306.5652
   7   2.0000     -11.250672      -306.1463
   8   2.0000      -1.423982       -38.7485
   9   2.0000      -1.380617       -37.5685
  10   2.0000      -1.235207       -33.6117
  11   2.0000      -1.158469       -31.5235
  12   2.0000      -1.028367       -27.9833
  13   2.0000      -0.851367       -23.1669
  14   2.0000      -0.839473       -22.8432
  15   2.0000      -0.792525       -21.5657
  16   2.0000      -0.717184       -19.5156
  17   2.0000      -0.707159       -19.2428
  18   2.0000      -0.671149       -18.2629
  19   2.0000      -0.622798       -16.9472
  20   2.0000      -0.610354       -16.6086
  21   2.0000      -0.581494       -15.8233
  22   2.0000      -0.576124       -15.6771
  23   2.0000      -0.563163       -15.3244
  24   2.0000      -0.558581       -15.1998
  25   2.0000      -0.517591       -14.0844
  26   2.0000      -0.486472       -13.2376
  27   2.0000      -0.474940       -12.9238
  28   2.0000      -0.440890       -11.9972
  29   2.0000      -0.403233       -10.9725
  30   0.0000       0.108929         2.9641
  31   0.0000       0.132280         3.5995
  32   0.0000       0.151868         4.1325
  33   0.0000       0.158268         4.3067
  34   0.0000       0.176453         4.8015

MULLIKEN ATOMIC CHARGES
-----------------------
   0 O :   -0.483131
   1 C :    0.204973
   2 C :   -0.200069
   3 N :   -0.044341
   4 C :   -0.164916
   5 C :   -0.303520
   6 C :    0.079884
   7 O :   -0.454148
   8 H :    0.337654
   9 H :    0.153234
  10 H :    0.144265
  11 H :    0.144079
  12 H :    0.119922
  13 H :    0.131605
  14 H :    0.334509
Sum of atomic charges:   -0.0000000

LOEWDIN ATOMIC CHARGES
----------------------
   0 O :    0.005990
   1 C :   -0.310034
   2 C :   -0.167048
   3 N :    0.077454
   4 C :   -0.199153
   5 C :   -0.213224
   6 C :   -0.309494
   7 O :    0.004824
   8 H :    0.185521
   9 H :    0.175714
  10 H :    0.160263
  11 H :    0.136352
  12 H :    0.132758
  13 H :    0.143895
  14 H :    0.176183

  Mayer bond orders larger than 0.1
B(  0-O ,  1-C ) :   0.8545 B(  0-O ,  8-H ) :   0.8285 B(  1-C ,  2-C ) :   0.9523
B(  1-C ,  4-C ) :   0.8989 B(  1-C ,  9-H ) :   0.9054 B(  2-C ,  3-N ) :   2.8489
B(  4-C ,  5-C ) :   0.8674 B(  4-C ,  6-C ) :   0.8766 B(  4-C , 10-H ) :   0.9003
B(  5-C ,  6-C ) :   0.8676 B(  5-C , 11-H ) :   0.9164 B(  5-C , 12-H ) :   0.9248
B(  6-C ,  7-O ) :   1.0314 B(  6-C , 13-H ) :   0.9465 B(  7-O , 14-H ) :   0.8104

MP2 TOTAL ENERGY:     -399.135791126 Eh
FINAL SINGLE POINT ENERGY      -399.135791125582

DIPOLE MOMENT
-------------
                                X             Y             Z
Electronic contribution:     -0.05021       1.86830      -4.33280
Nuclear contribution   :      0.08192      -2.01958       4.95460
                        -----------------------------------------
Total Dipole Moment    :      0.03171      -0.15128       0.62180
                        -----------------------------------------
Magnitude (a.u.)       :      0.64072
Magnitude (Debye)      :      1.62859

                             ****ORCA TERMINATED NORMALLY****
TOTAL RUN TIME: 0 days 0 hours 10 minutes 42 seconds 259 msec
