                         Program Version 3.0.3 - RELEASE   -
|  1> ! RI-MP2 RIJK def2-TZVP def2-TZVP/C def2-TZVP/JK TIGHTSCF
|  2> % maxcore 2000
|  3> % mp2 density relaxed end
|  4> *xyz 0 1
|  5>  C        0.0334971394     1.4380634950     0.0080227052
|  6>  N        0.0069446840    -0.0067546203     0.0358546344
|  7>  C       -0.0383658239    -0.8345999930    -1.0405677846
|  8>  N       -0.0456971242    -2.1047416045    -0.6947105423
|  9>  C       -0.0132180152    -2.1008446890     0.6767581531
| 10>  N       -0.0633436723    -3.3019907729     1.4069419034
| 11>  C        0.0099618836    -0.8149941280     1.1698213227
| 12>  C        0.0164769076    -0.2926022600     2.5646896258
| 13>  H        0.9361396810     1.8275439004     0.4907053008
| 14>  H        0.0248666896     1.7711376682    -1.0316584324
| 15>  H       -0.8400825077     1.8620708432     0.5145923470
| 16>  H       -0.0613218288    -0.4532076367    -2.0510714602
| 17>  H       -0.0367283651    -4.0827331392     0.7616010390
| 18>  H        0.7055003905    -3.3960170532     2.0599858541
| 19>  H        0.9772624847     0.1501734225     2.8618573605
| 20>  H       -0.7544720954     0.4708364976     2.7286500697
| 21>  H       -0.1938816979    -1.1157354302     3.2529958939
| 22> *
| 23>
| 24>                          ****END OF INPUT****

CARTESIAN COORDINATES (ANGSTROEM)
---------------------------------
  C      0.033497    1.438063    0.008023
  N      0.006945   -0.006755    0.035855
  C     -0.038366   -0.834600   -1.040568
  N     -0.045697   -2.104742   -0.694711
  C     -0.013218   -2.100845    0.676758
  N     -0.063344   -3.301991    1.406942
  C      0.009962   -0.814994    1.169821
  C      0.016477   -0.292602    2.564690
  H      0.936140    1.827544    0.490705
  H      0.024867    1.771138   -1.031658
  H     -0.840083    1.862071    0.514592
  H     -0.061322   -0.453208   -2.051071
  H     -0.036728   -4.082733    0.761601
  H      0.705500   -3.396017    2.059986
  H      0.977262    0.150173    2.861857
  H     -0.754472    0.470836    2.728650
  H     -0.193882   -1.115735    3.252996

 Total Charge           Charge          ....    0
 Multiplicity           Mult            ....    1
 Number of Electrons    NEL             ....   60
 Basis Dimension        Dim             ....  302

ORBITAL ENERGIES
----------------

  NO   OCC          E(Eh)            E(eV)
   0   2.0000     -15.609226      -424.7486
   1   2.0000     -15.544240      -422.9803
   2   2.0000     -15.530220      -422.5988
   3   2.0000     -11.284273      -307.0607
   4   2.0000     -11.279515      -306.9312
   5   2.0000     -11.264449      -306.5212
   6   2.0000     -11.239390      -305.8394
   7   2.0000     -11.230352      -305.5934
   8   2.0000      -1.336717       -36.3739
   9   2.0000      -1.207758       -32.8648
  10   2.0000      -1.147945       -31.2372
  11   2.0000      -1.033915       -28.1343
  12   2.0000      -0.961512       -26.1641
  13   2.0000      -0.918498       -24.9936
  14   2.0000      -0.792725       -21.5712
  15   2.0000      -0.758578       -20.6420
  16   2.0000      -0.696295       -18.9472
  17   2.0000      -0.657408       -17.8890
  18   2.0000      -0.646423       -17.5901
  19   2.0000      -0.615394       -16.7457
  20   2.0000      -0.588678       -16.0188
  21   2.0000      -0.572298       -15.5730
  22   2.0000      -0.569690       -15.5020
  23   2.0000      -0.550296       -14.9743
  24   2.0000      -0.538250       -14.6465
  25   2.0000      -0.533587       -14.5196
  26   2.0000      -0.454489       -12.3673
  27   2.0000      -0.428281       -11.6541
  28   2.0000      -0.365035        -9.9331
  29   2.0000      -0.277539        -7.5522
  30   0.0000       0.124236         3.3806
  31   0.0000       0.148868         4.0509
  32   0.0000       0.164048         4.4640
  33   0.0000       0.170503         4.6396
  34   0.0000       0.188090         5.1182

MULLIKEN ATOMIC CHARGES
-----------------------
   0 C :   -0.330784
   1 N :   -0.031442
   2 C :   -0.016694
   3 N :   -0.313832
   4 C :    0.158236
   5 N :   -0.552529
   6 C :   -0.028076
   7 C :   -0.416195
   8 H :    0.151001
   9 H :    0.151338
  10 H :    0.152274
  11 H :    0.142239
  12 H :    0.250368
  13 H :    0.245566
  14 H :    0.143958
  15 H :    0.136769
  16 H :    0.157802
Sum of atomic charges:    0.0000000

LOEWDIN ATOMIC CHARGES
----------------------
   0 C :   -0.270496
   1 N :    0.236228
   2 C :   -0.318330
   3 N :    0.087714
   4 C :   -0.346840
   5 N :   -0.107739
   6 C :   -0.235588
   7 C :   -0.283574
   8 H :    0.123831
   9 H :    0.130085
  10 H :    0.123438
  11 H :    0.129456
  12 H :    0.170432
  13 H :    0.163162
  14 H :    0.127515
  15 H :    0.129860
  16 H :    0.140846

  Mayer bond orders larger than 0.1
B(  0-C ,  1-N ) :   0.8729 B(  0-C ,  8-H ) :   0.9297 B(  0-C ,  9-H ) :   0.9309
B(  0-C , 10-H ) :   0.9307 B(  1-N ,  2-C ) :   1.1881 B(  1-N ,  6-C ) :   1.1144
B(  2-C ,  3-N ) :   1.5282 B(  2-C , 11-H ) :   0.9234 B(  3-N ,  4-C ) :   1.3323
B(  4-C ,  5-N ) :   0.9638 B(  4-C ,  6-C ) :   1.5208 B(  5-N , 12-H ) :   0.8800
B(  5-N , 13-H ) :   0.8777 B(  6-C ,  7-C ) :   0.8444 B(  7-C , 14-H ) :   0.9364
B(  7-C , 15-H ) :   0.9364 B(  7-C , 16-H ) :   0.9447

MP2 TOTAL ENERGY:     -359.464445821 Eh
FINAL SINGLE POINT ENERGY      -359.464445820882

DIPOLE MOMENT
-------------
                                X             Y             Z
Electronic contribution:     -0.28508      -4.29401      -3.91557
Nuclear contribution   :      0.75301       5.56832       4.37693
                        -----------------------------------------
Total Dipole Moment    :      0.46794       1.27432       0.46136
                        -----------------------------------------
Magnitude (a.u.)       :      1.43377
Magnitude (Debye)      :      3.64436

                             ****ORCA TERMINATED NORMALLY****
TOTAL RUN TIME: 0 days 0 hours 12 minutes 45 seconds 594 msec
