                         Program Version 3.0.3 - RELEASE   -
|  1> ! RI-MP2 RIJK def2-TZVP def2-TZVP/C def2-TZVP/JK TIGHTSCF
|  2> % maxcore 2000
|  3> % mp2 density relaxed end
|  4> *xyz 0 1
|  5>  N       -0.0709520315    -1.0987573097     0.3199268619
|  6>  C       -0.0185164927     0.0426595101     0.1442420691
|  7>  C        0.0248909610     1.4629485327    -0.1109611614
|  8>  C       -1.0135467786     2.1010880790    -1.0324705199
|  9>  C       -0.3401650940     3.3499460081    -1.6118472266
| 10>  C        0.0973095439     4.4645466854    -0.7013261178
| 11>  C        1.0978874843     3.4102998238    -1.1171534319
| 12>  C        1.2813516728     2.2545805495    -0.1670029623
| 13>  O        0.4391114382     2.2824206713     0.9912728261
| 14>  H       -1.2569043001     1.3959973358    -1.8334739504
| 15>  H       -1.9393719191     2.3161992571    -0.4896990768
| 16>  H       -0.5742183781     3.6026466138    -2.6395191798
| 17>  H        0.2059174527     5.4470863930    -1.1467923655
| 18>  H       -0.2290512018     4.4588470021     0.3311449184
| 19>  H        1.9254999748     3.6628297377    -1.7679236294
| 20>  H        2.2577754183     1.8041785605    -0.0170194138
| 21> *
| 22>
| 23>                          ****END OF INPUT****

CARTESIAN COORDINATES (ANGSTROEM)
---------------------------------
  N     -0.070952   -1.098757    0.319927
  C     -0.018516    0.042660    0.144242
  C      0.024891    1.462949   -0.110961
  C     -1.013547    2.101088   -1.032471
  C     -0.340165    3.349946   -1.611847
  C      0.097310    4.464547   -0.701326
  C      1.097887    3.410300   -1.117153
  C      1.281352    2.254581   -0.167003
  O      0.439111    2.282421    0.991273
  H     -1.256904    1.395997   -1.833474
  H     -1.939372    2.316199   -0.489699
  H     -0.574218    3.602647   -2.639519
  H      0.205917    5.447086   -1.146792
  H     -0.229051    4.458847    0.331145
  H      1.925500    3.662830   -1.767924
  H      2.257775    1.804179   -0.017019

 Total Charge           Charge          ....    0
 Multiplicity           Mult            ....    1
 Number of Electrons    NEL             ....   64
 Basis Dimension        Dim             ....  321

ORBITAL ENERGIES
----------------

  NO   OCC          E(Eh)            E(eV)
   0   2.0000     -20.601613      -560.5984
   1   2.0000     -15.582748      -424.0281
   2   2.0000     -11.342022      -308.6321
   3   2.0000     -11.322117      -308.0905
   4   2.0000     -11.282281      -307.0065
   5   2.0000     -11.261436      -306.4392
   6   2.0000     -11.257453      -306.3309
   7   2.0000     -11.256773      -306.3124
   8   2.0000     -11.245684      -306.0106
   9   2.0000      -1.450974       -39.4830
  10   2.0000      -1.226298       -33.3693
  11   2.0000      -1.182710       -32.1832
  12   2.0000      -1.050455       -28.5843
  13   2.0000      -0.969265       -26.3751
  14   2.0000      -0.911622       -24.8065
  15   2.0000      -0.811983       -22.0952
  16   2.0000      -0.801908       -21.8210
  17   2.0000      -0.768932       -20.9237
  18   2.0000      -0.685223       -18.6459
  19   2.0000      -0.643979       -17.5236
  20   2.0000      -0.633386       -17.2353
  21   2.0000      -0.609420       -16.5832
  22   2.0000      -0.594579       -16.1793
  23   2.0000      -0.568047       -15.4574
  24   2.0000      -0.548385       -14.9223
  25   2.0000      -0.533584       -14.5196
  26   2.0000      -0.515563       -14.0292
  27   2.0000      -0.484324       -13.1791
  28   2.0000      -0.473141       -12.8748
  29   2.0000      -0.453686       -12.3454
  30   2.0000      -0.431258       -11.7351
  31   2.0000      -0.405267       -11.0279
  32   0.0000       0.130219         3.5435
  33   0.0000       0.148210         4.0330
  34   0.0000       0.152078         4.1383
  35   0.0000       0.155419         4.2292
  36   0.0000       0.162649         4.4259

MULLIKEN ATOMIC CHARGES
-----------------------
   0 N :   -0.042699
   1 C :   -0.230674
   2 C :    0.286752
   3 C :   -0.213227
   4 C :   -0.104949
   5 C :   -0.295670
   6 C :   -0.092062
   7 C :   -0.026974
   8 O :   -0.300884
   9 H :    0.145491
  10 H :    0.139438
  11 H :    0.138805
  12 H :    0.139171
  13 H :    0.163419
  14 H :    0.141829
  15 H :    0.152233
Sum of atomic charges:    0.0000000

LOEWDIN ATOMIC CHARGES
----------------------
   0 N :    0.081908
   1 C :   -0.142679
   2 C :   -0.280938
   3 C :   -0.169236
   4 C :   -0.182455
   5 C :   -0.190490
   6 C :   -0.180377
   7 C :   -0.188361
   8 O :    0.218695
   9 H :    0.157501
  10 H :    0.153211
  11 H :    0.147100
  12 H :    0.137343
  13 H :    0.142938
  14 H :    0.148868
  15 H :    0.146971

  Mayer bond orders larger than 0.1
B(  0-N ,  1-C ) :   2.8602 B(  1-C ,  2-C ) :   0.8808 B(  2-C ,  3-C ) :   0.9496
B(  2-C ,  7-C ) :   0.9313 B(  2-C ,  8-O ) :   0.9002 B(  3-C ,  4-C ) :   0.9466
B(  3-C ,  9-H ) :   0.9178 B(  3-C , 10-H ) :   0.9026 B(  4-C ,  5-C ) :   0.8956
B(  4-C ,  6-C ) :   0.8708 B(  4-C , 11-H ) :   0.9294 B(  5-C ,  6-C ) :   0.8843
B(  5-C , 12-H ) :   0.9325 B(  5-C , 13-H ) :   0.9139 B(  6-C ,  7-C ) :   0.9290
B(  6-C , 14-H ) :   0.9198 B(  7-C ,  8-O ) :   0.8746 B(  7-C , 15-H ) :   0.9161

MP2 TOTAL ENERGY:     -400.042885463 Eh
FINAL SINGLE POINT ENERGY      -400.042885462744

DIPOLE MOMENT
-------------
                                X             Y             Z
Electronic contribution:      0.88232      -6.35785       3.72706
Nuclear contribution   :     -0.71524       7.76049      -4.76856
                        -----------------------------------------
Total Dipole Moment    :      0.16708       1.40264      -1.04150
                        -----------------------------------------
Magnitude (a.u.)       :      1.75500
Magnitude (Debye)      :      4.46085

                             ****ORCA TERMINATED NORMALLY****
TOTAL RUN TIME: 0 days 0 hours 16 minutes 57 seconds 511 msec
