                         Program Version 3.0.3 - RELEASE   -
|  1> ! RI-MP2 RIJK def2-TZVP def2-TZVP/C def2-TZVP/JK TIGHTSCF
|  2> % maxcore 2000
|  3> % mp2 density relaxed end
|  4> *xyz 0 1
|  5>  N        0.5591288466     1.3009284425     0.3235360070
|  6>  C        0.0458749630    -0.0442167864     0.0401060778
|  7>  C       -0.3077185392    -0.8077670077     1.3485793836
|  8>  O       -1.7182443568    -0.6524179164     1.1211674285
|  9>  C       -1.4970786520    -0.0364458367    -0.1583221218
| 10>  C        0.8276784373    -0.7751989539    -0.9511236423
| 11>  C        1.5065677886    -1.3360174871    -1.7740151308
| 12>  C        2.3116464346    -2.0352969811    -2.7673973838
| 13>  O        3.3847702227    -1.1993306739    -3.1851451307
| 14>  H        1.5264731361     1.2249069489     0.6317868531
| 15>  H        0.5963726064     1.8281043715    -0.5466657104
| 16>  H       -0.0032770711    -1.8606241283     1.3634277930
| 17>  H        0.0272515907    -0.3020236291     2.2609121602
| 18>  H       -1.9307535081     0.9677813736    -0.2198563153
| 19>  H       -1.8576151764    -0.6580530513    -0.9859885800
| 20>  H        2.6854348166    -2.9755128803    -2.3298150004
| 21>  H        1.6691942472    -2.3149201776    -3.6184373177
| 22>  H        3.8932823040    -1.6910344468    -3.8382206799
| 23> *
| 24>
| 25>                          ****END OF INPUT****

CARTESIAN COORDINATES (ANGSTROEM)
---------------------------------
  N      0.559129    1.300928    0.323536
  C      0.045875   -0.044217    0.040106
  C     -0.307719   -0.807767    1.348579
  O     -1.718244   -0.652418    1.121167
  C     -1.497079   -0.036446   -0.158322
  C      0.827678   -0.775199   -0.951124
  C      1.506568   -1.336017   -1.774015
  C      2.311646   -2.035297   -2.767397
  O      3.384770   -1.199331   -3.185145
  H      1.526473    1.224907    0.631787
  H      0.596373    1.828104   -0.546666
  H     -0.003277   -1.860624    1.363428
  H      0.027252   -0.302024    2.260912
  H     -1.930754    0.967781   -0.219856
  H     -1.857615   -0.658053   -0.985989
  H      2.685435   -2.975513   -2.329815
  H      1.669194   -2.314920   -3.618437
  H      3.893282   -1.691034   -3.838221

 Total Charge           Charge          ....    0
 Multiplicity           Mult            ....    1
 Number of Electrons    NEL             ....   68
 Basis Dimension        Dim             ....  333

ORBITAL ENERGIES
----------------

  NO   OCC          E(Eh)            E(eV)
   0   2.0000     -20.574034      -559.8479
   1   2.0000     -20.550000      -559.1939
   2   2.0000     -15.555805      -423.2950
   3   2.0000     -11.315115      -307.8999
   4   2.0000     -11.293452      -307.3104
   5   2.0000     -11.281997      -306.9987
   6   2.0000     -11.281984      -306.9984
   7   2.0000     -11.235260      -305.7270
   8   2.0000     -11.231168      -305.6156
   9   2.0000      -1.383954       -37.6593
  10   2.0000      -1.377692       -37.4889
  11   2.0000      -1.200049       -32.6550
  12   2.0000      -1.061004       -28.8714
  13   2.0000      -0.995669       -27.0935
  14   2.0000      -0.940348       -25.5882
  15   2.0000      -0.936302       -25.4781
  16   2.0000      -0.792210       -21.5571
  17   2.0000      -0.723556       -19.6890
  18   2.0000      -0.714212       -19.4347
  19   2.0000      -0.676124       -18.3983
  20   2.0000      -0.671961       -18.2850
  21   2.0000      -0.653620       -17.7859
  22   2.0000      -0.650818       -17.7097
  23   2.0000      -0.597359       -16.2550
  24   2.0000      -0.593962       -16.1625
  25   2.0000      -0.563175       -15.3248
  26   2.0000      -0.543474       -14.7887
  27   2.0000      -0.502343       -13.6695
  28   2.0000      -0.489024       -13.3070
  29   2.0000      -0.472430       -12.8555
  30   2.0000      -0.426556       -11.6072
  31   2.0000      -0.421553       -11.4711
  32   2.0000      -0.384722       -10.4688
  33   2.0000      -0.374158       -10.1814
  34   0.0000       0.117295         3.1918
  35   0.0000       0.130804         3.5593
  36   0.0000       0.164123         4.4660
  37   0.0000       0.169816         4.6209
  38   0.0000       0.172440         4.6923

MULLIKEN ATOMIC CHARGES
-----------------------
   0 N :   -0.543841
   1 C :    0.176162
   2 C :   -0.015933
   3 O :   -0.327229
   4 C :   -0.015933
   5 C :   -0.114130
   6 C :    0.045247
   7 C :   -0.207905
   8 O :   -0.445178
   9 H :    0.235039
  10 H :    0.235034
  11 H :    0.102148
  12 H :    0.098011
  13 H :    0.098010
  14 H :    0.102146
  15 H :    0.130580
  16 H :    0.130576
  17 H :    0.317195
Sum of atomic charges:   -0.0000000

LOEWDIN ATOMIC CHARGES
----------------------
   0 N :   -0.110417
   1 C :   -0.337004
   2 C :   -0.219304
   3 O :    0.119214
   4 C :   -0.219305
   5 C :   -0.044929
   6 C :   -0.063844
   7 C :   -0.337477
   8 O :   -0.042509
   9 H :    0.162080
  10 H :    0.162078
  11 H :    0.121204
  12 H :    0.122546
  13 H :    0.122546
  14 H :    0.121203
  15 H :    0.134449
  16 H :    0.134448
  17 H :    0.175022

  Mayer bond orders larger than 0.1
B(  0-N ,  1-C ) :   0.8394 B(  0-N ,  5-C ) :   0.1016 B(  0-N ,  9-H ) :   0.8898
B(  0-N , 10-H ) :   0.8898 B(  1-C ,  2-C ) :   0.9450 B(  1-C ,  4-C ) :   0.9450
B(  1-C ,  5-C ) :   1.0938 B(  2-C ,  3-O ) :   0.9747 B(  2-C , 11-H ) :   0.9140
B(  2-C , 12-H ) :   0.8956 B(  3-O ,  4-C ) :   0.9747 B(  4-C , 13-H ) :   0.8956
B(  4-C , 14-H ) :   0.9140 B(  5-C ,  6-C ) :   2.7386 B(  5-C ,  8-O ) :  -0.1031
B(  6-C ,  7-C ) :   0.8821 B(  7-C ,  8-O ) :   1.1350 B(  7-C , 15-H ) :   0.9573
B(  7-C , 16-H ) :   0.9573 B(  8-O , 17-H ) :   0.8463

MP2 TOTAL ENERGY:     -438.286192795 Eh
FINAL SINGLE POINT ENERGY      -438.286192795402

DIPOLE MOMENT
-------------
                                X             Y             Z
Electronic contribution:     -0.32086      -0.32803       0.08608
Nuclear contribution   :      1.16891      -0.26224      -1.05806
                        -----------------------------------------
Total Dipole Moment    :      0.84805      -0.59027      -0.97198
                        -----------------------------------------
Magnitude (a.u.)       :      1.41858
Magnitude (Debye)      :      3.60573

                             ****ORCA TERMINATED NORMALLY****
TOTAL RUN TIME: 0 days 0 hours 14 minutes 14 seconds 803 msec
