                         Program Version 3.0.3 - RELEASE   -
|  1> ! RI-MP2 RIJK def2-TZVP def2-TZVP/C def2-TZVP/JK TIGHTSCF
|  2> % maxcore 2000
|  3> % mp2 density relaxed end
|  4> *xyz 0 1
|  5>  N       -0.0197733125     1.1782115094     0.4546795767
|  6>  C       -0.0199348661    -0.0138631324     0.0843431572
|  7>  O        1.0257884447    -0.8554478697    -0.2839853183
|  8>  C        0.1239662932    -1.9239954947    -0.6540694457
|  9>  C       -0.2081343041    -2.9015295057     0.4986136513
| 10>  N       -1.2138808774    -1.9531389849     1.0465263979
| 11>  C       -1.0898918096    -1.0695991252    -0.1342380980
| 12>  C        0.2930596793    -2.4125563788    -2.0585491506
| 13>  O        0.9908593983    -1.8890555438    -2.8850983728
| 14>  H        0.9246768907     1.5646583199     0.4997467429
| 15>  H       -0.6341971994    -3.8386154849     0.1182964557
| 16>  H        0.6205606313    -3.1270929728     1.1754396760
| 17>  H       -2.1375606937    -2.3490155308     1.1637733783
| 18>  H       -1.9893992993    -0.8107789395    -0.6915777045
| 19>  H       -0.3185095354    -3.3153971862    -2.2878714161
| 20> *
| 21>
| 22>                          ****END OF INPUT****

CARTESIAN COORDINATES (ANGSTROEM)
---------------------------------
  N     -0.019773    1.178212    0.454680
  C     -0.019935   -0.013863    0.084343
  O      1.025788   -0.855448   -0.283985
  C      0.123966   -1.923995   -0.654069
  C     -0.208134   -2.901530    0.498614
  N     -1.213881   -1.953139    1.046526
  C     -1.089892   -1.069599   -0.134238
  C      0.293060   -2.412556   -2.058549
  O      0.990859   -1.889056   -2.885098
  H      0.924677    1.564658    0.499747
  H     -0.634197   -3.838615    0.118296
  H      0.620561   -3.127093    1.175440
  H     -2.137561   -2.349016    1.163773
  H     -1.989399   -0.810779   -0.691578
  H     -0.318510   -3.315397   -2.287871

 Total Charge           Charge          ....    0
 Multiplicity           Mult            ....    1
 Number of Electrons    NEL             ....   66
 Basis Dimension        Dim             ....  315

ORBITAL ENERGIES
----------------

  NO   OCC          E(Eh)            E(eV)
   0   2.0000     -20.606646      -560.7353
   1   2.0000     -20.580852      -560.0334
   2   2.0000     -15.581971      -424.0070
   3   2.0000     -15.549049      -423.1111
   4   2.0000     -11.355091      -308.9877
   5   2.0000     -11.349597      -308.8382
   6   2.0000     -11.330216      -308.3109
   7   2.0000     -11.309373      -307.7437
   8   2.0000     -11.294898      -307.3498
   9   2.0000      -1.457406       -39.6580
  10   2.0000      -1.415006       -38.5043
  11   2.0000      -1.261391       -34.3242
  12   2.0000      -1.210128       -32.9293
  13   2.0000      -1.026734       -27.9389
  14   2.0000      -0.990963       -26.9655
  15   2.0000      -0.899945       -24.4888
  16   2.0000      -0.812249       -22.1024
  17   2.0000      -0.751678       -20.4542
  18   2.0000      -0.743402       -20.2290
  19   2.0000      -0.712202       -19.3800
  20   2.0000      -0.691311       -18.8115
  21   2.0000      -0.671027       -18.2596
  22   2.0000      -0.635649       -17.2969
  23   2.0000      -0.623249       -16.9595
  24   2.0000      -0.592706       -16.1284
  25   2.0000      -0.561036       -15.2666
  26   2.0000      -0.551747       -15.0138
  27   2.0000      -0.517379       -14.0786
  28   2.0000      -0.473037       -12.8720
  29   2.0000      -0.464858       -12.6494
  30   2.0000      -0.447454       -12.1758
  31   2.0000      -0.414389       -11.2761
  32   2.0000      -0.404527       -11.0077
  33   0.0000       0.090802         2.4708
  34   0.0000       0.112997         3.0748
  35   0.0000       0.139998         3.8095
  36   0.0000       0.162833         4.4309
  37   0.0000       0.174680         4.7533

MULLIKEN ATOMIC CHARGES
-----------------------
   0 N :   -0.345126
   1 C :    0.132983
   2 O :   -0.254583
   3 C :    0.247689
   4 C :   -0.155484
   5 N :   -0.342032
   6 C :   -0.015687
   7 C :    0.028713
   8 O :   -0.227090
   9 H :    0.237745
  10 H :    0.127332
  11 H :    0.125576
  12 H :    0.218064
  13 H :    0.141251
  14 H :    0.080649
Sum of atomic charges:   -0.0000000

LOEWDIN ATOMIC CHARGES
----------------------
   0 N :   -0.029631
   1 C :   -0.362329
   2 O :    0.269038
   3 C :   -0.265641
   4 C :   -0.216749
   5 N :    0.004615
   6 C :   -0.158270
   7 C :   -0.271623
   8 O :    0.164533
   9 H :    0.178458
  10 H :    0.129399
  11 H :    0.132968
  12 H :    0.164442
  13 H :    0.142966
  14 H :    0.117825

  Mayer bond orders larger than 0.1
B(  0-N ,  1-C ) :   2.1172 B(  0-N ,  9-H ) :   0.8433 B(  1-C ,  2-O ) :   1.0361
B(  1-C ,  6-C ) :   0.8747 B(  2-O ,  3-C ) :   0.9159 B(  3-C ,  4-C ) :   0.9142
B(  3-C ,  6-C ) :   0.8900 B(  3-C ,  7-C ) :   0.8423 B(  4-C ,  5-N ) :   0.9624
B(  4-C , 10-H ) :   0.9062 B(  4-C , 11-H ) :   0.8995 B(  5-N ,  6-C ) :   0.9922
B(  5-N , 12-H ) :   0.8721 B(  6-C , 13-H ) :   0.8928 B(  7-C ,  8-O ) :   2.0460
B(  7-C , 14-H ) :   0.9498

MP2 TOTAL ENERGY:     -453.161326643 Eh
FINAL SINGLE POINT ENERGY      -453.161326642806

DIPOLE MOMENT
-------------
                                X             Y             Z
Electronic contribution:      2.45850       2.31491      -2.32622
Nuclear contribution   :     -3.31989      -3.69334       2.49808
                        -----------------------------------------
Total Dipole Moment    :     -0.86139      -1.37843       0.17186
                        -----------------------------------------
Magnitude (a.u.)       :      1.63451
Magnitude (Debye)      :      4.15458

                             ****ORCA TERMINATED NORMALLY****
TOTAL RUN TIME: 0 days 0 hours 15 minutes 11 seconds 85 msec
