                         Program Version 3.0.3 - RELEASE   -
|  1> ! RI-MP2 RIJK def2-TZVP def2-TZVP/C def2-TZVP/JK TIGHTSCF
|  2> % maxcore 2000
|  3> % mp2 density relaxed end
|  4> *xyz 0 1
|  5>  N       -0.0470692625    -1.1005847607     0.0832418485
|  6>  C       -0.0727113105     0.0554759138     0.0839314246
|  7>  C       -0.0572331806     1.5184973313     0.0539788566
|  8>  C       -0.3396827114     2.1902352715    -1.3197801928
|  9>  C        0.9087752624     3.0935645479    -1.1232512905
| 10>  C        1.3608055750     2.2177661556     0.0858270876
| 11>  C        1.4749145813     2.8690075456     1.4766223356
| 12>  C        0.1977108586     2.3834395208     2.2149226473
| 13>  N       -0.8064450619     2.0756226834     1.1842113580
| 14>  H       -0.2264798658     1.4874168075    -2.1466976175
| 15>  H       -1.3184764025     2.6693699912    -1.4062674621
| 16>  H        1.5987637734     3.1307274843    -1.9677632494
| 17>  H        0.6670492104     4.1204346010    -0.8364301998
| 18>  H        2.1937134604     1.5567612540    -0.1557743822
| 19>  H        2.3875929641     2.5779430105     2.0036295850
| 20>  H        1.4823395941     3.9608130617     1.3914548765
| 21>  H        0.4141641569     1.4648260581     2.7723868725
| 22>  H       -0.2036803918     3.1092974916     2.9260685983
| 23>  H       -1.2680688294     2.9279919209     0.8853109239
| 24> *
| 25>
| 26>                          ****END OF INPUT****

CARTESIAN COORDINATES (ANGSTROEM)
---------------------------------
  N     -0.047069   -1.100585    0.083242
  C     -0.072711    0.055476    0.083931
  C     -0.057233    1.518497    0.053979
  C     -0.339683    2.190235   -1.319780
  C      0.908775    3.093565   -1.123251
  C      1.360806    2.217766    0.085827
  C      1.474915    2.869008    1.476622
  C      0.197711    2.383440    2.214923
  N     -0.806445    2.075623    1.184211
  H     -0.226480    1.487417   -2.146698
  H     -1.318476    2.669370   -1.406267
  H      1.598764    3.130727   -1.967763
  H      0.667049    4.120435   -0.836430
  H      2.193713    1.556761   -0.155774
  H      2.387593    2.577943    2.003630
  H      1.482340    3.960813    1.391455
  H      0.414164    1.464826    2.772387
  H     -0.203680    3.109297    2.926069
  H     -1.268069    2.927992    0.885311

 Total Charge           Charge          ....    0
 Multiplicity           Mult            ....    1
 Number of Electrons    NEL             ....   66
 Basis Dimension        Dim             ....  339

ORBITAL ENERGIES
----------------

  NO   OCC          E(Eh)            E(eV)
   0   2.0000     -15.566466      -423.5851
   1   2.0000     -15.561303      -423.4446
   2   2.0000     -11.305941      -307.6503
   3   2.0000     -11.263666      -306.4999
   4   2.0000     -11.261632      -306.4446
   5   2.0000     -11.252499      -306.1961
   6   2.0000     -11.251807      -306.1772
   7   2.0000     -11.244720      -305.9844
   8   2.0000     -11.236988      -305.7740
   9   2.0000      -1.263053       -34.3694
  10   2.0000      -1.203863       -32.7588
  11   2.0000      -1.119213       -30.4553
  12   2.0000      -1.037590       -28.2342
  13   2.0000      -0.945368       -25.7248
  14   2.0000      -0.900584       -24.5061
  15   2.0000      -0.839749       -22.8507
  16   2.0000      -0.785032       -21.3618
  17   2.0000      -0.716335       -19.4925
  18   2.0000      -0.691491       -18.8164
  19   2.0000      -0.636695       -17.3254
  20   2.0000      -0.629216       -17.1218
  21   2.0000      -0.590968       -16.0811
  22   2.0000      -0.580200       -15.7880
  23   2.0000      -0.552905       -15.0453
  24   2.0000      -0.551218       -14.9994
  25   2.0000      -0.516441       -14.0531
  26   2.0000      -0.508394       -13.8341
  27   2.0000      -0.494409       -13.4536
  28   2.0000      -0.486020       -13.2253
  29   2.0000      -0.462634       -12.5889
  30   2.0000      -0.445253       -12.1160
  31   2.0000      -0.428197       -11.6518
  32   2.0000      -0.398366       -10.8401
  33   0.0000       0.119553         3.2532
  34   0.0000       0.140924         3.8347
  35   0.0000       0.143323         3.9000
  36   0.0000       0.153263         4.1705
  37   0.0000       0.170709         4.6452

MULLIKEN ATOMIC CHARGES
-----------------------
   0 N :   -0.046393
   1 C :   -0.249135
   2 C :    0.206674
   3 C :   -0.253033
   4 C :   -0.285142
   5 C :   -0.014099
   6 C :   -0.281546
   7 C :   -0.163646
   8 N :   -0.289977
   9 H :    0.144767
  10 H :    0.134396
  11 H :    0.127758
  12 H :    0.125139
  13 H :    0.135149
  14 H :    0.128369
  15 H :    0.116601
  16 H :    0.122535
  17 H :    0.136224
  18 H :    0.205360
Sum of atomic charges:   -0.0000000

LOEWDIN ATOMIC CHARGES
----------------------
   0 N :    0.062227
   1 C :   -0.149560
   2 C :   -0.278115
   3 C :   -0.182327
   4 C :   -0.215012
   5 C :   -0.160383
   6 C :   -0.243093
   7 C :   -0.282225
   8 N :    0.042691
   9 H :    0.145861
  10 H :    0.132062
  11 H :    0.131156
  12 H :    0.132119
  13 H :    0.151666
  14 H :    0.137394
  15 H :    0.135968
  16 H :    0.135942
  17 H :    0.129911
  18 H :    0.173716

  Mayer bond orders larger than 0.1
B(  0-N ,  1-C ) :   2.8932 B(  1-C ,  2-C ) :   0.9355 B(  2-C ,  3-C ) :   0.8753
B(  2-C ,  5-C ) :   0.8881 B(  2-C ,  8-N ) :   1.0500 B(  3-C ,  4-C ) :   0.9364
B(  3-C ,  9-H ) :   0.9117 B(  3-C , 10-H ) :   0.9308 B(  4-C ,  5-C ) :   0.9134
B(  4-C , 11-H ) :   0.9244 B(  4-C , 12-H ) :   0.9194 B(  5-C ,  6-C ) :   0.9268
B(  5-C , 13-H ) :   0.8986 B(  6-C ,  7-C ) :   0.9363 B(  6-C , 14-H ) :   0.9262
B(  6-C , 15-H ) :   0.9273 B(  7-C ,  8-N ) :   0.9567 B(  7-C , 16-H ) :   0.9198
B(  7-C , 17-H ) :   0.9342 B(  8-N , 18-H ) :   0.8646

MP2 TOTAL ENERGY:     -381.402662689 Eh
FINAL SINGLE POINT ENERGY      -381.402662689269

DIPOLE MOMENT
-------------
                                X             Y             Z
Electronic contribution:     -2.20273      -7.00483      -0.41466
Nuclear contribution   :      2.63679       8.96758       0.26559
                        -----------------------------------------
Total Dipole Moment    :      0.43406       1.96274      -0.14907
                        -----------------------------------------
Magnitude (a.u.)       :      2.01569
Magnitude (Debye)      :      5.12347

                             ****ORCA TERMINATED NORMALLY****
TOTAL RUN TIME: 0 days 0 hours 20 minutes 46 seconds 758 msec
