                         Program Version 3.0.3 - RELEASE   -
|  1> ! RI-MP2 RIJK def2-TZVP def2-TZVP/C def2-TZVP/JK TIGHTSCF
|  2> % maxcore 2000
|  3> % mp2 density relaxed end
|  4> *xyz 0 1
|  5>  C       -0.5034890201     1.5551567709     0.1395994653
|  6>  C        0.0361384640     0.1352169005    -0.0326911134
|  7>  C       -1.0656719880    -0.9180936439     0.1286034389
|  8>  C        0.9679881068    -0.0985482963    -1.2780245844
|  9>  C        2.0836753415    -0.5845174018    -0.3406887943
| 10>  C        2.9927905398    -1.7390135736    -0.4504362298
| 11>  O        3.4745093397    -0.3998409829    -0.5090845589
| 12>  C        1.2620788962    -0.1702890721     0.8713866164
| 13>  O        1.4737616960    -0.0743989255     2.0452443829
| 14>  H        0.2881551606     2.3028669270     0.0293939727
| 15>  H       -1.2769899528     1.7675688308    -0.6065193707
| 16>  H       -0.9436180028     1.6784290155     1.1340511069
| 17>  H       -1.8544521589    -0.7642982774    -0.6160156755
| 18>  H       -0.6770179916    -1.9338596242     0.0012407213
| 19>  H       -1.5171514954    -0.8532120200     1.1234281191
| 20>  H        0.6099900630    -0.8256285847    -2.0097205541
| 21>  H        1.2355533850     0.8282845933    -1.7914171316
| 22>  H        3.2619221989    -2.2944332783     0.4464565815
| 23>  H        3.0223335281    -2.2928337474    -1.3879344424
| 24> *
| 25>
| 26>                          ****END OF INPUT****

CARTESIAN COORDINATES (ANGSTROEM)
---------------------------------
  C     -0.503489    1.555157    0.139599
  C      0.036138    0.135217   -0.032691
  C     -1.065672   -0.918094    0.128603
  C      0.967988   -0.098548   -1.278025
  C      2.083675   -0.584517   -0.340689
  C      2.992791   -1.739014   -0.450436
  O      3.474509   -0.399841   -0.509085
  C      1.262079   -0.170289    0.871387
  O      1.473762   -0.074399    2.045244
  H      0.288155    2.302867    0.029394
  H     -1.276990    1.767569   -0.606519
  H     -0.943618    1.678429    1.134051
  H     -1.854452   -0.764298   -0.616016
  H     -0.677018   -1.933860    0.001241
  H     -1.517151   -0.853212    1.123428
  H      0.609990   -0.825629   -2.009721
  H      1.235553    0.828285   -1.791417
  H      3.261922   -2.294433    0.446457
  H      3.022334   -2.292834   -1.387934

 Total Charge           Charge          ....    0
 Multiplicity           Mult            ....    1
 Number of Electrons    NEL             ....   68
 Basis Dimension        Dim             ....  339

ORBITAL ENERGIES
----------------

  NO   OCC          E(Eh)            E(eV)
   0   2.0000     -20.589690      -560.2739
   1   2.0000     -20.561553      -559.5083
   2   2.0000     -11.333428      -308.3983
   3   2.0000     -11.306237      -307.6583
   4   2.0000     -11.301986      -307.5427
   5   2.0000     -11.259364      -306.3829
   6   2.0000     -11.244790      -305.9863
   7   2.0000     -11.235249      -305.7267
   8   2.0000     -11.230741      -305.6040
   9   2.0000      -1.436251       -39.0824
  10   2.0000      -1.399790       -38.0902
  11   2.0000      -1.152320       -31.3562
  12   2.0000      -1.013929       -27.5904
  13   2.0000      -0.950803       -25.8727
  14   2.0000      -0.924801       -25.1651
  15   2.0000      -0.878750       -23.9120
  16   2.0000      -0.813993       -22.1499
  17   2.0000      -0.715441       -19.4681
  18   2.0000      -0.694964       -18.9109
  19   2.0000      -0.680909       -18.5285
  20   2.0000      -0.638812       -17.3830
  21   2.0000      -0.635376       -17.2895
  22   2.0000      -0.613379       -16.6909
  23   2.0000      -0.581676       -15.8282
  24   2.0000      -0.567858       -15.4522
  25   2.0000      -0.562995       -15.3199
  26   2.0000      -0.541655       -14.7392
  27   2.0000      -0.531519       -14.4634
  28   2.0000      -0.519071       -14.1246
  29   2.0000      -0.495386       -13.4801
  30   2.0000      -0.476642       -12.9701
  31   2.0000      -0.466291       -12.6884
  32   2.0000      -0.440705       -11.9922
  33   2.0000      -0.391518       -10.6537
  34   0.0000       0.112567         3.0631
  35   0.0000       0.124580         3.3900
  36   0.0000       0.156374         4.2551
  37   0.0000       0.166239         4.5236
  38   0.0000       0.181729         4.9451

MULLIKEN ATOMIC CHARGES
-----------------------
   0 C :   -0.420647
   1 C :    0.171450
   2 C :   -0.429704
   3 C :   -0.235598
   4 C :    0.111318
   5 C :   -0.091800
   6 O :   -0.315611
   7 C :    0.084969
   8 O :   -0.238486
   9 H :    0.137749
  10 H :    0.137700
  11 H :    0.145560
  12 H :    0.139183
  13 H :    0.133955
  14 H :    0.145791
  15 H :    0.132427
  16 H :    0.131591
  17 H :    0.137020
  18 H :    0.123133
Sum of atomic charges:    0.0000000

LOEWDIN ATOMIC CHARGES
----------------------
   0 C :   -0.263237
   1 C :   -0.263860
   2 C :   -0.261233
   3 C :   -0.151915
   4 C :   -0.279548
   5 C :   -0.225201
   6 O :    0.194238
   7 C :   -0.246447
   8 O :    0.180784
   9 H :    0.129959
  10 H :    0.128832
  11 H :    0.133525
  12 H :    0.129073
  13 H :    0.128610
  14 H :    0.132866
  15 H :    0.136695
  16 H :    0.145076
  17 H :    0.127697
  18 H :    0.124087

  Mayer bond orders larger than 0.1
B(  0-C ,  1-C ) :   0.8898 B(  0-C ,  9-H ) :   0.9277 B(  0-C , 10-H ) :   0.9381
B(  0-C , 11-H ) :   0.9344 B(  1-C ,  2-C ) :   0.8941 B(  1-C ,  3-C ) :   0.9101
B(  1-C ,  4-C ) :  -0.1102 B(  1-C ,  7-C ) :   0.8010 B(  2-C , 12-H ) :   0.9379
B(  2-C , 13-H ) :   0.9269 B(  2-C , 14-H ) :   0.9336 B(  3-C ,  4-C ) :   0.9470
B(  3-C , 15-H ) :   0.9128 B(  3-C , 16-H ) :   0.8912 B(  4-C ,  5-C ) :   0.9417
B(  4-C ,  6-O ) :   0.8884 B(  4-C ,  7-C ) :   0.8448 B(  5-C ,  6-O ) :   0.9091
B(  5-C , 17-H ) :   0.9098 B(  5-C , 18-H ) :   0.9179 B(  7-C ,  8-O ) :   2.0872

MP2 TOTAL ENERGY:     -422.301997782 Eh
FINAL SINGLE POINT ENERGY      -422.301997781987

DIPOLE MOMENT
-------------
                                X             Y             Z
Electronic contribution:      8.33884      -0.64131       3.18214
Nuclear contribution   :     -9.15180       0.12985      -4.12175
                        -----------------------------------------
Total Dipole Moment    :     -0.81296      -0.51145      -0.93961
                        -----------------------------------------
Magnitude (a.u.)       :      1.34363
Magnitude (Debye)      :      3.41524

                             ****ORCA TERMINATED NORMALLY****
TOTAL RUN TIME: 0 days 0 hours 20 minutes 1 seconds 7 msec
