                         Program Version 3.0.3 - RELEASE   -
|  1> ! RI-MP2 RIJK def2-TZVP def2-TZVP/C def2-TZVP/JK TIGHTSCF
|  2> % maxcore 2000
|  3> % mp2 density relaxed end
|  4> *xyz 0 1
|  5>  C       -0.4467312256     1.2649545512     0.5600881242
|  6>  C       -0.6760203572    -0.0588522908    -0.1834238611
|  7>  C       -1.7591746956     0.0730444737    -1.2638255661
|  8>  C        0.6243694455    -0.5304450495    -0.8036059734
|  9>  O        1.6303274682    -1.0561120138     0.0660753290
| 10>  C        1.0589941436    -1.9343945394    -0.9116728930
| 11>  C        0.2710100889    -3.0949083704    -0.4043460391
| 12>  C       -0.2133110929    -4.1345416038    -1.3243885242
| 13>  O        0.9181199575    -4.3696572732    -0.4908971139
| 14>  H        0.3273291636     1.1517114080     1.3242894255
| 15>  H       -0.1265362283     2.0522869311    -0.1326473052
| 16>  H       -1.3658797242     1.6041066190     1.0480748846
| 17>  H       -0.9993849754    -0.8071060446     0.5487684427
| 18>  H       -1.4620778837     0.7957247058    -2.0328789200
| 19>  H       -1.9495789561    -0.8837816781    -1.7604454558
| 20>  H       -2.7006589970     0.4226595221    -0.8292815358
| 21>  H        1.0205955121     0.1545698905    -1.5596952347
| 22>  H        1.7353675604    -2.2028004432    -1.7254104768
| 23>  H       -0.2654503162    -2.9317664351     0.5282149102
| 24>  H       -1.1123137580    -4.6959674362    -1.0742349328
| 25>  H       -0.0003110895    -4.0522283532    -2.3899054342
| 26> *
| 27>
| 28>                          ****END OF INPUT****

CARTESIAN COORDINATES (ANGSTROEM)
---------------------------------
  C     -0.446731    1.264955    0.560088
  C     -0.676020   -0.058852   -0.183424
  C     -1.759175    0.073044   -1.263826
  C      0.624369   -0.530445   -0.803606
  O      1.630327   -1.056112    0.066075
  C      1.058994   -1.934395   -0.911673
  C      0.271010   -3.094908   -0.404346
  C     -0.213311   -4.134542   -1.324389
  O      0.918120   -4.369657   -0.490897
  H      0.327329    1.151711    1.324289
  H     -0.126536    2.052287   -0.132647
  H     -1.365880    1.604107    1.048075
  H     -0.999385   -0.807106    0.548768
  H     -1.462078    0.795725   -2.032879
  H     -1.949579   -0.883782   -1.760445
  H     -2.700659    0.422660   -0.829282
  H      1.020596    0.154570   -1.559695
  H      1.735368   -2.202800   -1.725410
  H     -0.265450   -2.931766    0.528215
  H     -1.112314   -4.695967   -1.074235
  H     -0.000311   -4.052228   -2.389905

 Total Charge           Charge          ....    0
 Multiplicity           Mult            ....    1
 Number of Electrons    NEL             ....   70
 Basis Dimension        Dim             ....  351

ORBITAL ENERGIES
----------------

  NO   OCC          E(Eh)            E(eV)
   0   2.0000     -20.575460      -559.8867
   1   2.0000     -20.569509      -559.7248
   2   2.0000     -11.296631      -307.3970
   3   2.0000     -11.293089      -307.3006
   4   2.0000     -11.292272      -307.2784
   5   2.0000     -11.290501      -307.2301
   6   2.0000     -11.242126      -305.9138
   7   2.0000     -11.226716      -305.4945
   8   2.0000     -11.219262      -305.2916
   9   2.0000      -1.424086       -38.7513
  10   2.0000      -1.409901       -38.3654
  11   2.0000      -1.087955       -29.6048
  12   2.0000      -0.991314       -26.9750
  13   2.0000      -0.939062       -25.5532
  14   2.0000      -0.913792       -24.8655
  15   2.0000      -0.897871       -24.4323
  16   2.0000      -0.831375       -22.6229
  17   2.0000      -0.772914       -21.0320
  18   2.0000      -0.717665       -19.5287
  19   2.0000      -0.684197       -18.6180
  20   2.0000      -0.666199       -18.1282
  21   2.0000      -0.620502       -16.8847
  22   2.0000      -0.610134       -16.6026
  23   2.0000      -0.582037       -15.8380
  24   2.0000      -0.565464       -15.3871
  25   2.0000      -0.553540       -15.0626
  26   2.0000      -0.545558       -14.8454
  27   2.0000      -0.540500       -14.7077
  28   2.0000      -0.506336       -13.7781
  29   2.0000      -0.497911       -13.5489
  30   2.0000      -0.485255       -13.2045
  31   2.0000      -0.469751       -12.7826
  32   2.0000      -0.458523       -12.4770
  33   2.0000      -0.441349       -12.0097
  34   2.0000      -0.413673       -11.2566
  35   0.0000       0.128840         3.5059
  36   0.0000       0.150836         4.1045
  37   0.0000       0.155178         4.2226
  38   0.0000       0.174071         4.7367
  39   0.0000       0.185355         5.0438

MULLIKEN ATOMIC CHARGES
-----------------------
   0 C :   -0.404778
   1 C :   -0.007539
   2 C :   -0.424371
   3 C :    0.016413
   4 O :   -0.332965
   5 C :    0.013035
   6 C :    0.023350
   7 C :   -0.090554
   8 O :   -0.322814
   9 H :    0.151183
  10 H :    0.121596
  11 H :    0.133613
  12 H :    0.078101
  13 H :    0.126926
  14 H :    0.133440
  15 H :    0.137988
  16 H :    0.117018
  17 H :    0.135165
  18 H :    0.153827
  19 H :    0.121598
  20 H :    0.119766
Sum of atomic charges:   -0.0000000

LOEWDIN ATOMIC CHARGES
----------------------
   0 C :   -0.286657
   1 C :   -0.296242
   2 C :   -0.287410
   3 C :   -0.246347
   4 O :    0.172573
   5 C :   -0.252013
   6 C :   -0.274766
   7 C :   -0.264954
   8 O :    0.153888
   9 H :    0.129867
  10 H :    0.124196
  11 H :    0.123886
  12 H :    0.153490
  13 H :    0.124970
  14 H :    0.123681
  15 H :    0.125824
  16 H :    0.142605
  17 H :    0.147559
  18 H :    0.143657
  19 H :    0.120714
  20 H :    0.121479

  Mayer bond orders larger than 0.1
B(  0-C ,  1-C ) :   0.9227 B(  0-C ,  9-H ) :   0.9365 B(  0-C , 10-H ) :   0.9310
B(  0-C , 11-H ) :   0.9394 B(  1-C ,  2-C ) :   0.9144 B(  1-C ,  3-C ) :   0.9076
B(  1-C , 12-H ) :   0.9230 B(  2-C , 13-H ) :   0.9311 B(  2-C , 14-H ) :   0.9374
B(  2-C , 15-H ) :   0.9364 B(  3-C ,  4-O ) :   0.8714 B(  3-C ,  5-C ) :   0.9772
B(  3-C , 16-H ) :   0.9092 B(  4-O ,  5-C ) :   0.9019 B(  5-C ,  6-C ) :   0.9086
B(  5-C , 17-H ) :   0.9133 B(  6-C ,  7-C ) :   0.9691 B(  6-C ,  8-O ) :   0.8781
B(  6-C , 18-H ) :   0.9121 B(  7-C ,  8-O ) :   0.9121 B(  7-C , 19-H ) :   0.9207
B(  7-C , 20-H ) :   0.9074

MP2 TOTAL ENERGY:     -423.477157913 Eh
FINAL SINGLE POINT ENERGY      -423.477157912680

DIPOLE MOMENT
-------------
                                X             Y             Z
Electronic contribution:      7.12209      -8.07545       0.99648
Nuclear contribution   :     -8.20623       8.48787      -1.66837
                        -----------------------------------------
Total Dipole Moment    :     -1.08414       0.41242      -0.67189
                        -----------------------------------------
Magnitude (a.u.)       :      1.34048
Magnitude (Debye)      :      3.40722

                             ****ORCA TERMINATED NORMALLY****
TOTAL RUN TIME: 0 days 0 hours 17 minutes 6 seconds 442 msec
