                         Program Version 3.0.3 - RELEASE   -
|  1> ! RI-MP2 RIJK def2-TZVP def2-TZVP/C def2-TZVP/JK TIGHTSCF
|  2> % maxcore 2000
|  3> % mp2 density relaxed end
|  4> *xyz 0 1
|  5>  O        0.0850865113    -0.0084559588    -0.0453196211
|  6>  C       -0.0141251707     1.1841163549    -0.0293260595
|  7>  N       -1.1328309411     1.9569119139    -0.2534472990
|  8>  C       -0.9129944520     3.3299094469     0.1513991327
|  9>  C        0.6242689844     3.3891091017     0.0997472939
| 10>  C        1.2984612346     4.1838054874    -1.0422278062
| 11>  O        1.7963686876     5.1609647935    -0.1058983233
| 12>  C        1.3590232445     4.3765705700     1.0210037738
| 13>  O        1.0403322376     2.0320566869     0.2136050697
| 14>  H       -2.0296614909     1.5061711345    -0.1739264841
| 15>  H       -1.3735025323     4.0475358163    -0.5332720232
| 16>  H       -1.2808161378     3.5352641264     1.1673852687
| 17>  H        2.1034175002     3.6231517189    -1.5319222815
| 18>  H        0.6396214471     4.6286591677    -1.7967576505
| 19>  H        0.7366591110     4.9548934114     1.7146548168
| 20>  H        2.1915499165     3.9156903086     1.5658871930
| 21> *
| 22>
| 23>                          ****END OF INPUT****

CARTESIAN COORDINATES (ANGSTROEM)
---------------------------------
  O      0.085087   -0.008456   -0.045320
  C     -0.014125    1.184116   -0.029326
  N     -1.132831    1.956912   -0.253447
  C     -0.912994    3.329909    0.151399
  C      0.624269    3.389109    0.099747
  C      1.298461    4.183805   -1.042228
  O      1.796369    5.160965   -0.105898
  C      1.359023    4.376571    1.021004
  O      1.040332    2.032057    0.213605
  H     -2.029661    1.506171   -0.173926
  H     -1.373503    4.047536   -0.533272
  H     -1.280816    3.535264    1.167385
  H      2.103418    3.623152   -1.531922
  H      0.639621    4.628659   -1.796758
  H      0.736659    4.954893    1.714655
  H      2.191550    3.915690    1.565887

 Total Charge           Charge          ....    0
 Multiplicity           Mult            ....    1
 Number of Electrons    NEL             ....   68
 Basis Dimension        Dim             ....  321

ORBITAL ENERGIES
----------------

  NO   OCC          E(Eh)            E(eV)
   0   2.0000     -20.613657      -560.9261
   1   2.0000     -20.569022      -559.7115
   2   2.0000     -20.535491      -558.7991
   3   2.0000     -15.605042      -424.6348
   4   2.0000     -11.409991      -310.4816
   5   2.0000     -11.326733      -308.2161
   6   2.0000     -11.301261      -307.5229
   7   2.0000     -11.299756      -307.4820
   8   2.0000     -11.297243      -307.4136
   9   2.0000      -1.481184       -40.3051
  10   2.0000      -1.402009       -38.1506
  11   2.0000      -1.373072       -37.3632
  12   2.0000      -1.254459       -34.1356
  13   2.0000      -1.062580       -28.9143
  14   2.0000      -0.960709       -26.1422
  15   2.0000      -0.940853       -25.6019
  16   2.0000      -0.847507       -23.0618
  17   2.0000      -0.809110       -22.0170
  18   2.0000      -0.731104       -19.8943
  19   2.0000      -0.712072       -19.3765
  20   2.0000      -0.689809       -18.7706
  21   2.0000      -0.687133       -18.6978
  22   2.0000      -0.635203       -17.2847
  23   2.0000      -0.627467       -17.0742
  24   2.0000      -0.616223       -16.7683
  25   2.0000      -0.610333       -16.6080
  26   2.0000      -0.574764       -15.6401
  27   2.0000      -0.555870       -15.1260
  28   2.0000      -0.536386       -14.5958
  29   2.0000      -0.502093       -13.6626
  30   2.0000      -0.460260       -12.5243
  31   2.0000      -0.449483       -12.2311
  32   2.0000      -0.438282       -11.9262
  33   2.0000      -0.423010       -11.5107
  34   0.0000       0.116568         3.1720
  35   0.0000       0.141705         3.8560
  36   0.0000       0.160800         4.3756
  37   0.0000       0.162931         4.4336
  38   0.0000       0.182929         4.9777

MULLIKEN ATOMIC CHARGES
-----------------------
   0 O :   -0.311303
   1 C :    0.332790
   2 N :   -0.361213
   3 C :   -0.153494
   4 C :    0.197735
   5 C :   -0.051749
   6 O :   -0.322737
   7 C :   -0.049249
   8 O :   -0.241400
   9 H :    0.253760
  10 H :    0.140259
  11 H :    0.126218
  12 H :    0.114367
  13 H :    0.104114
  14 H :    0.103759
  15 H :    0.118143
Sum of atomic charges:    0.0000000

LOEWDIN ATOMIC CHARGES
----------------------
   0 O :    0.109856
   1 C :   -0.563197
   2 N :    0.088296
   3 C :   -0.233399
   4 C :   -0.307001
   5 C :   -0.227959
   6 O :    0.118412
   7 C :   -0.228900
   8 O :    0.282101
   9 H :    0.190443
  10 H :    0.138568
  11 H :    0.132220
  12 H :    0.128171
  13 H :    0.120971
  14 H :    0.121786
  15 H :    0.129633

  Mayer bond orders larger than 0.1
B(  0-O ,  1-C ) :   2.0474 B(  1-C ,  2-N ) :   1.1143 B(  1-C ,  8-O ) :   1.0453
B(  2-N ,  3-C ) :   0.9161 B(  2-N ,  9-H ) :   0.8692 B(  3-C ,  4-C ) :   0.9031
B(  3-C , 10-H ) :   0.9208 B(  3-C , 11-H ) :   0.9268 B(  4-C ,  5-C ) :   0.9555
B(  4-C ,  7-C ) :   0.9664 B(  4-C ,  8-O ) :   0.9537 B(  5-C ,  6-O ) :   0.9613
B(  5-C , 12-H ) :   0.9005 B(  5-C , 13-H ) :   0.9043 B(  6-O ,  7-C ) :   0.9672
B(  7-C , 14-H ) :   0.9089 B(  7-C , 15-H ) :   0.8996

MP2 TOTAL ENERGY:     -474.297248775 Eh
FINAL SINGLE POINT ENERGY      -474.297248775247

DIPOLE MOMENT
-------------
                                X             Y             Z
Electronic contribution:      0.89777      -4.82655      -0.18385
Nuclear contribution   :     -2.11971       5.92383       0.37212
                        -----------------------------------------
Total Dipole Moment    :     -1.22194       1.09728       0.18827
                        -----------------------------------------
Magnitude (a.u.)       :      1.65306
Magnitude (Debye)      :      4.20174

                             ****ORCA TERMINATED NORMALLY****
TOTAL RUN TIME: 0 days 0 hours 14 minutes 15 seconds 445 msec
