                         Program Version 3.0.3 - RELEASE   -
|  1> ! RI-MP2 RIJK def2-TZVP def2-TZVP/C def2-TZVP/JK TIGHTSCF
|  2> % maxcore 2000
|  3> % mp2 density relaxed end
|  4> *xyz 0 1
|  5>  N        0.0367359969    -1.2522252600     0.0523902096
|  6>  C        0.0261011129    -0.0991531295    -0.0129996048
|  7>  C        0.0160579646     1.3718572313    -0.1353756416
|  8>  N       -0.6752938740     1.9970869876     0.9998370491
|  9>  C        0.0755420488     3.1805689496     1.4414217837
| 10>  C        1.4372885664     2.9733237304     0.8089104482
| 11>  C        1.4045318431     1.9747884941    -0.0616370981
| 12>  C       -0.5295019048     4.4561220857     0.9991868479
| 13>  N       -1.0308673842     5.4373088527     0.6496801345
| 14>  H       -0.4423398795     1.6044832915    -1.1111846550
| 15>  H       -1.6538888699     2.1792356422     0.8244122758
| 16>  H        0.1348954317     3.2130939217     2.5379899554
| 17>  H        2.2830087185     3.6025044826     1.0497772138
| 18>  H        2.2221714997     1.6062748601    -0.6656583884
| 19> *
| 20>
| 21>                          ****END OF INPUT****

CARTESIAN COORDINATES (ANGSTROEM)
---------------------------------
  N      0.036736   -1.252225    0.052390
  C      0.026101   -0.099153   -0.013000
  C      0.016058    1.371857   -0.135376
  N     -0.675294    1.997087    0.999837
  C      0.075542    3.180569    1.441422
  C      1.437289    2.973324    0.808910
  C      1.404532    1.974788   -0.061637
  C     -0.529502    4.456122    0.999187
  N     -1.030867    5.437309    0.649680
  H     -0.442340    1.604483   -1.111185
  H     -1.653889    2.179236    0.824412
  H      0.134895    3.213094    2.537990
  H      2.283009    3.602504    1.049777
  H      2.222171    1.606275   -0.665658

 Total Charge           Charge          ....    0
 Multiplicity           Mult            ....    1
 Number of Electrons    NEL             ....   62
 Basis Dimension        Dim             ....  309

ORBITAL ENERGIES
----------------

  NO   OCC          E(Eh)            E(eV)
   0   2.0000     -15.603289      -424.5871
   1   2.0000     -15.592545      -424.2947
   2   2.0000     -15.583676      -424.0534
   3   2.0000     -11.345041      -308.7143
   4   2.0000     -11.344278      -308.6935
   5   2.0000     -11.291250      -307.2505
   6   2.0000     -11.285055      -307.0820
   7   2.0000     -11.283490      -307.0394
   8   2.0000     -11.283162      -307.0304
   9   2.0000      -1.300856       -35.3981
  10   2.0000      -1.236727       -33.6530
  11   2.0000      -1.225494       -33.3474
  12   2.0000      -1.098954       -29.9041
  13   2.0000      -1.072537       -29.1852
  14   2.0000      -0.928253       -25.2591
  15   2.0000      -0.817017       -22.2322
  16   2.0000      -0.782627       -21.2964
  17   2.0000      -0.747477       -20.3399
  18   2.0000      -0.692572       -18.8459
  19   2.0000      -0.650331       -17.6964
  20   2.0000      -0.629046       -17.1172
  21   2.0000      -0.604175       -16.4404
  22   2.0000      -0.586622       -15.9628
  23   2.0000      -0.574007       -15.6195
  24   2.0000      -0.566685       -15.4203
  25   2.0000      -0.495655       -13.4875
  26   2.0000      -0.485793       -13.2191
  27   2.0000      -0.477399       -12.9907
  28   2.0000      -0.473145       -12.8749
  29   2.0000      -0.438789       -11.9400
  30   2.0000      -0.411538       -11.1985
  31   0.0000       0.099804         2.7158
  32   0.0000       0.108022         2.9394
  33   0.0000       0.136837         3.7235
  34   0.0000       0.143486         3.9045
  35   0.0000       0.154052         4.1920

MULLIKEN ATOMIC CHARGES
-----------------------
   0 N :   -0.053234
   1 C :   -0.162393
   2 C :    0.129252
   3 N :   -0.378504
   4 C :    0.233847
   5 C :   -0.172320
   6 C :   -0.177981
   7 C :   -0.248623
   8 N :   -0.051180
   9 H :    0.153947
  10 H :    0.239535
  11 H :    0.157431
  12 H :    0.164041
  13 H :    0.166183
Sum of atomic charges:   -0.0000000

LOEWDIN ATOMIC CHARGES
----------------------
   0 N :    0.073265
   1 C :   -0.160202
   2 C :   -0.258673
   3 N :    0.073690
   4 C :   -0.258298
   5 C :   -0.103005
   6 C :   -0.100339
   7 C :   -0.169161
   8 N :    0.071979
   9 H :    0.171245
  10 H :    0.180343
  11 H :    0.173337
  12 H :    0.152363
  13 H :    0.153456

  Mayer bond orders larger than 0.1
B(  0-N ,  1-C ) :   2.8618 B(  1-C ,  2-C ) :   0.8956 B(  2-C ,  3-N ) :   1.0052
B(  2-C ,  6-C ) :   0.9039 B(  2-C ,  9-H ) :   0.9095 B(  3-N ,  4-C ) :   0.9495
B(  3-N , 10-H ) :   0.8785 B(  4-C ,  5-C ) :   0.9198 B(  4-C ,  7-C ) :   0.9002
B(  4-C , 11-H ) :   0.9059 B(  5-C ,  6-C ) :   1.8160 B(  5-C , 12-H ) :   0.9136
B(  6-C , 13-H ) :   0.9154 B(  7-C ,  8-N ) :   2.8448

MP2 TOTAL ENERGY:     -395.047184730 Eh
FINAL SINGLE POINT ENERGY      -395.047184730405

DIPOLE MOMENT
-------------
                                X             Y             Z
Electronic contribution:     -1.39740      -0.49343      -0.01444
Nuclear contribution   :      2.04673       0.99993      -0.00782
                        -----------------------------------------
Total Dipole Moment    :      0.64934       0.50651      -0.02226
                        -----------------------------------------
Magnitude (a.u.)       :      0.82382
Magnitude (Debye)      :      2.09399

                             ****ORCA TERMINATED NORMALLY****
TOTAL RUN TIME: 0 days 0 hours 13 minutes 17 seconds 289 msec
