                         Program Version 3.0.3 - RELEASE   -
|  1> ! RI-MP2 RIJK def2-TZVP def2-TZVP/C def2-TZVP/JK TIGHTSCF
|  2> % maxcore 2000
|  3> % mp2 density relaxed end
|  4> *xyz 0 1
|  5>  C        0.0212481171     1.5582310769    -0.0724337710
|  6>  C        0.0021824224     0.0286106041     0.0094415921
|  7>  C       -1.4161245529    -0.5571421129     0.0507538674
|  8>  C       -1.4770127403    -2.0948569166     0.1784244249
|  9>  C       -2.9415159294    -2.4047026290     0.5609390694
| 10>  C       -2.4329583750    -1.7212539404     1.8532343450
| 11>  O       -1.1093480015    -2.2932352823     1.5896834475
| 12>  C       -2.1843427740    -0.2816770062     1.3709305038
| 13>  O       -2.4780968311     0.7598171991     1.8902363715
| 14>  H        1.0488641441     1.9340902059    -0.0722477717
| 15>  H       -0.4621023087     1.9094054108    -0.9911299490
| 16>  H       -0.5100170347     2.0030467589     0.7724377851
| 17>  H        0.5255268984    -0.3958230444    -0.8576213851
| 18>  H        0.5455020389    -0.3122948335     0.8971047100
| 19>  H       -2.0002157024    -0.1864721408    -0.8009982113
| 20>  H       -0.8972699528    -2.7003912064    -0.5179536512
| 21>  H       -3.7521038548    -1.9415327638    -0.0079962855
| 22>  H       -3.1144165220    -3.4701096174     0.7167279661
| 23>  H       -2.8282013512    -1.8876465420     2.8529473420
| 24> *
| 25>
| 26>                          ****END OF INPUT****

CARTESIAN COORDINATES (ANGSTROEM)
---------------------------------
  C      0.021248    1.558231   -0.072434
  C      0.002182    0.028611    0.009442
  C     -1.416125   -0.557142    0.050754
  C     -1.477013   -2.094857    0.178424
  C     -2.941516   -2.404703    0.560939
  C     -2.432958   -1.721254    1.853234
  O     -1.109348   -2.293235    1.589683
  C     -2.184343   -0.281677    1.370931
  O     -2.478097    0.759817    1.890236
  H      1.048864    1.934090   -0.072248
  H     -0.462102    1.909405   -0.991130
  H     -0.510017    2.003047    0.772438
  H      0.525527   -0.395823   -0.857621
  H      0.545502   -0.312295    0.897105
  H     -2.000216   -0.186472   -0.800998
  H     -0.897270   -2.700391   -0.517954
  H     -3.752104   -1.941533   -0.007996
  H     -3.114417   -3.470110    0.716728
  H     -2.828201   -1.887647    2.852947

 Total Charge           Charge          ....    0
 Multiplicity           Mult            ....    1
 Number of Electrons    NEL             ....   68
 Basis Dimension        Dim             ....  339

ORBITAL ENERGIES
----------------

  NO   OCC          E(Eh)            E(eV)
   0   2.0000     -20.570799      -559.7599
   1   2.0000     -20.557785      -559.4058
   2   2.0000     -11.336756      -308.4888
   3   2.0000     -11.306967      -307.6782
   4   2.0000     -11.306168      -307.6565
   5   2.0000     -11.254518      -306.2510
   6   2.0000     -11.249821      -306.1232
   7   2.0000     -11.231659      -305.6290
   8   2.0000     -11.211522      -305.0810
   9   2.0000      -1.416681       -38.5498
  10   2.0000      -1.391415       -37.8623
  11   2.0000      -1.102860       -30.0103
  12   2.0000      -1.044296       -28.4167
  13   2.0000      -0.966560       -26.3014
  14   2.0000      -0.946573       -25.7576
  15   2.0000      -0.841647       -22.9024
  16   2.0000      -0.785193       -21.3662
  17   2.0000      -0.740711       -20.1558
  18   2.0000      -0.710051       -19.3215
  19   2.0000      -0.677369       -18.4321
  20   2.0000      -0.647275       -17.6132
  21   2.0000      -0.603049       -16.4098
  22   2.0000      -0.597116       -16.2484
  23   2.0000      -0.578867       -15.7518
  24   2.0000      -0.576758       -15.6944
  25   2.0000      -0.566588       -15.4176
  26   2.0000      -0.524534       -14.2733
  27   2.0000      -0.511392       -13.9157
  28   2.0000      -0.508221       -13.8294
  29   2.0000      -0.497374       -13.5342
  30   2.0000      -0.481736       -13.1087
  31   2.0000      -0.473559       -12.8862
  32   2.0000      -0.449809       -12.2399
  33   2.0000      -0.383627       -10.4390
  34   0.0000       0.129017         3.5107
  35   0.0000       0.139753         3.8029
  36   0.0000       0.159226         4.3328
  37   0.0000       0.162849         4.4314
  38   0.0000       0.170400         4.6368

MULLIKEN ATOMIC CHARGES
-----------------------
   0 C :   -0.401100
   1 C :   -0.243165
   2 C :   -0.043907
   3 C :    0.021175
   4 C :   -0.219044
   5 C :    0.036898
   6 O :   -0.311637
   7 C :    0.100737
   8 O :   -0.260620
   9 H :    0.132905
  10 H :    0.116416
  11 H :    0.156205
  12 H :    0.111095
  13 H :    0.137901
  14 H :    0.115889
  15 H :    0.138105
  16 H :    0.131828
  17 H :    0.133981
  18 H :    0.146338
Sum of atomic charges:    0.0000000

LOEWDIN ATOMIC CHARGES
----------------------
   0 C :   -0.314202
   1 C :   -0.264270
   2 C :   -0.203160
   3 C :   -0.221856
   4 C :   -0.193779
   5 C :   -0.222777
   6 O :    0.162423
   7 C :   -0.270515
   8 O :    0.165888
   9 H :    0.121279
  10 H :    0.120042
  11 H :    0.127949
  12 H :    0.137972
  13 H :    0.145394
  14 H :    0.162085
  15 H :    0.134151
  16 H :    0.133432
  17 H :    0.143003
  18 H :    0.136939

  Mayer bond orders larger than 0.1
B(  0-C ,  1-C ) :   0.9199 B(  0-C ,  9-H ) :   0.9402 B(  0-C , 10-H ) :   0.9367
B(  0-C , 11-H ) :   0.9343 B(  1-C ,  2-C ) :   0.8762 B(  1-C , 12-H ) :   0.9356
B(  1-C , 13-H ) :   0.9316 B(  2-C ,  3-C ) :   0.9065 B(  2-C ,  7-C ) :   0.8640
B(  2-C , 14-H ) :   0.8925 B(  3-C ,  4-C ) :   0.9234 B(  3-C ,  6-O ) :   0.8886
B(  3-C , 15-H ) :   0.9071 B(  4-C ,  5-C ) :   0.9245 B(  4-C , 16-H ) :   0.9249
B(  4-C , 17-H ) :   0.9159 B(  5-C ,  6-O ) :   0.9164 B(  5-C ,  7-C ) :   0.9213
B(  5-C , 18-H ) :   0.8965 B(  7-C ,  8-O ) :   2.0176

MP2 TOTAL ENERGY:     -422.313274163 Eh
FINAL SINGLE POINT ENERGY      -422.313274162536

DIPOLE MOMENT
-------------
                                X             Y             Z
Electronic contribution:     -3.92954      -3.00940       5.05025
Nuclear contribution   :      3.69679       2.35528      -5.92407
                        -----------------------------------------
Total Dipole Moment    :     -0.23276      -0.65413      -0.87382
                        -----------------------------------------
Magnitude (a.u.)       :      1.11607
Magnitude (Debye)      :      2.83683

                             ****ORCA TERMINATED NORMALLY****
TOTAL RUN TIME: 0 days 0 hours 32 minutes 8 seconds 74 msec
