                         Program Version 3.0.3 - RELEASE   -
|  1> ! RI-MP2 RIJK def2-TZVP def2-TZVP/C def2-TZVP/JK TIGHTSCF
|  2> % maxcore 2000
|  3> % mp2 density relaxed end
|  4> *xyz 0 1
|  5>  C       -0.0336332145     1.4779553361     0.0089924509
|  6>  C        0.0555625274    -0.0232143806     0.0027726487
|  7>  N        1.1838363377    -0.6170951375    -0.0092545648
|  8>  N       -1.1710362450    -0.6925113093     0.0110495992
|  9>  C       -1.4657759447    -2.1347609888     0.0081391281
| 10>  C       -2.9760491438    -1.7689895693     0.0231042409
| 11>  C       -2.5143797202    -0.3000139684     0.0236802826
| 12>  O       -3.0378284524     0.7782225955     0.0323885860
| 13>  H        0.9775621523     1.8832191778     0.0012899657
| 14>  H       -0.5900612500     1.8386710788    -0.8607454732
| 15>  H       -0.5740822517     1.8322951291     0.8913473003
| 16>  H        1.0761678639    -1.6335710452    -0.0119635265
| 17>  H       -1.1150972339    -2.6483042171    -0.8916859498
| 18>  H       -1.0990637248    -2.6551478904     0.8975768781
| 19>  H       -3.5411439596    -2.0582642791    -0.8643068381
| 20>  H       -3.5249366007    -2.0641953016     0.9187033520
| 21> *
| 22>
| 23>                          ****END OF INPUT****

CARTESIAN COORDINATES (ANGSTROEM)
---------------------------------
  C     -0.033633    1.477955    0.008992
  C      0.055563   -0.023214    0.002773
  N      1.183836   -0.617095   -0.009255
  N     -1.171036   -0.692511    0.011050
  C     -1.465776   -2.134761    0.008139
  C     -2.976049   -1.768990    0.023104
  C     -2.514380   -0.300014    0.023680
  O     -3.037828    0.778223    0.032389
  H      0.977562    1.883219    0.001290
  H     -0.590061    1.838671   -0.860745
  H     -0.574082    1.832295    0.891347
  H      1.076168   -1.633571   -0.011964
  H     -1.115097   -2.648304   -0.891686
  H     -1.099064   -2.655148    0.897577
  H     -3.541144   -2.058264   -0.864307
  H     -3.524937   -2.064195    0.918703

 Total Charge           Charge          ....    0
 Multiplicity           Mult            ....    1
 Number of Electrons    NEL             ....   60
 Basis Dimension        Dim             ....  296

ORBITAL ENERGIES
----------------

  NO   OCC          E(Eh)            E(eV)
   0   2.0000     -20.550683      -559.2125
   1   2.0000     -15.613095      -424.8539
   2   2.0000     -15.539382      -422.8481
   3   2.0000     -11.375476      -309.5424
   4   2.0000     -11.329286      -308.2856
   5   2.0000     -11.298813      -307.4563
   6   2.0000     -11.267766      -306.6115
   7   2.0000     -11.226629      -305.4921
   8   2.0000      -1.413855       -38.4729
   9   2.0000      -1.313814       -35.7507
  10   2.0000      -1.204445       -32.7746
  11   2.0000      -1.051010       -28.5994
  12   2.0000      -0.982425       -26.7331
  13   2.0000      -0.918341       -24.9893
  14   2.0000      -0.844409       -22.9775
  15   2.0000      -0.725989       -19.7552
  16   2.0000      -0.701263       -19.0823
  17   2.0000      -0.700090       -19.0504
  18   2.0000      -0.676286       -18.4027
  19   2.0000      -0.610757       -16.6196
  20   2.0000      -0.596199       -16.2234
  21   2.0000      -0.571026       -15.5384
  22   2.0000      -0.563992       -15.3470
  23   2.0000      -0.549867       -14.9626
  24   2.0000      -0.545424       -14.8417
  25   2.0000      -0.530520       -14.4362
  26   2.0000      -0.475535       -12.9400
  27   2.0000      -0.459396       -12.5008
  28   2.0000      -0.421994       -11.4830
  29   2.0000      -0.379222       -10.3191
  30   0.0000       0.119679         3.2566
  31   0.0000       0.129506         3.5240
  32   0.0000       0.146833         3.9955
  33   0.0000       0.157330         4.2812
  34   0.0000       0.180847         4.9211

MULLIKEN ATOMIC CHARGES
-----------------------
   0 C :   -0.348747
   1 C :    0.096584
   2 N :   -0.359016
   3 N :   -0.069327
   4 C :   -0.195180
   5 C :   -0.226403
   6 C :    0.181476
   7 O :   -0.300737
   8 H :    0.153986
   9 H :    0.147240
  10 H :    0.147211
  11 H :    0.204253
  12 H :    0.138935
  13 H :    0.138935
  14 H :    0.145377
  15 H :    0.145413
Sum of atomic charges:    0.0000000

LOEWDIN ATOMIC CHARGES
----------------------
   0 C :   -0.257718
   1 C :   -0.361258
   2 N :   -0.050739
   3 N :    0.233475
   4 C :   -0.219146
   5 C :   -0.196602
   6 C :   -0.395233
   7 O :    0.130117
   8 H :    0.137402
   9 H :    0.138512
  10 H :    0.138519
  11 H :    0.156758
  12 H :    0.128375
  13 H :    0.128370
  14 H :    0.144570
  15 H :    0.144597

  Mayer bond orders larger than 0.1
B(  0-C ,  1-C ) :   0.9265 B(  0-C ,  8-H ) :   0.9290 B(  0-C ,  9-H ) :   0.9194
B(  0-C , 10-H ) :   0.9193 B(  1-C ,  2-N ) :   1.9901 B(  1-C ,  3-N ) :   1.0133
B(  2-N , 11-H ) :   0.8702 B(  3-N ,  4-C ) :   0.8781 B(  3-N ,  6-C ) :   1.0296
B(  4-C ,  5-C ) :   0.9439 B(  4-C , 12-H ) :   0.9183 B(  4-C , 13-H ) :   0.9184
B(  5-C ,  6-C ) :   0.9412 B(  5-C , 14-H ) :   0.9107 B(  5-C , 15-H ) :   0.9106
B(  6-C ,  7-O ) :   1.9847

MP2 TOTAL ENERGY:     -379.314127575 Eh
FINAL SINGLE POINT ENERGY      -379.314127575033

DIPOLE MOMENT
-------------
                                X             Y             Z
Electronic contribution:     -1.91685       0.91309       0.01910
Nuclear contribution   :      1.49747      -2.17449      -0.01998
                        -----------------------------------------
Total Dipole Moment    :     -0.41938      -1.26140      -0.00088
                        -----------------------------------------
Magnitude (a.u.)       :      1.32929
Magnitude (Debye)      :      3.37878

                             ****ORCA TERMINATED NORMALLY****
TOTAL RUN TIME: 0 days 0 hours 12 minutes 24 seconds 293 msec
