                         Program Version 3.0.3 - RELEASE   -
|  1> ! RI-MP2 RIJK def2-TZVP def2-TZVP/C def2-TZVP/JK TIGHTSCF
|  2> % maxcore 2000
|  3> % mp2 density relaxed end
|  4> *xyz 0 1
|  5>  C       -0.0628819197     1.4828429335     0.1119669857
|  6>  C       -0.1744870108    -0.0306333800     0.1835191859
|  7>  O        0.7882525134    -0.5107514761     1.1004044085
|  8>  C        0.7719061366    -1.9111192302     1.2458071566
|  9>  C        1.8514833842    -2.2841522595     2.2677204104
| 10>  C        1.9306328056    -3.7202299719     2.4983447661
| 11>  C        1.9701364220    -4.9104764733     2.6732558095
| 12>  C        2.0488950759    -6.3503608912     2.8800351654
| 13>  O        1.0060024441    -6.7691034400     3.7538500187
| 14>  H        0.9362892872     1.7784864742    -0.2203507932
| 15>  H       -0.7971348805     1.8866229516    -0.5914645334
| 16>  H       -0.2420384701     1.9273638424     1.0950429673
| 17>  H       -1.1866285064    -0.3300519167     0.5045851659
| 18>  H       -0.0082803356    -0.4790405291    -0.8108342677
| 19>  H       -0.2128997092    -2.2614092738     1.5945867016
| 20>  H        0.9744539374    -2.4106432553     0.2844004191
| 21>  H        2.8159881499    -1.9024720162     1.9112628691
| 22>  H        1.6399951879    -1.7587040953     3.2067664543
| 23>  H        1.9774191013    -6.8596721347     1.9047870519
| 24>  H        3.0392013235    -6.6000358652     3.2953419246
| 25>  H        1.0949539833    -7.7207448433     3.8689326636
| 26> *
| 27>
| 28>                          ****END OF INPUT****

CARTESIAN COORDINATES (ANGSTROEM)
---------------------------------
  C     -0.062882    1.482843    0.111967
  C     -0.174487   -0.030633    0.183519
  O      0.788253   -0.510751    1.100404
  C      0.771906   -1.911119    1.245807
  C      1.851483   -2.284152    2.267720
  C      1.930633   -3.720230    2.498345
  C      1.970136   -4.910476    2.673256
  C      2.048895   -6.350361    2.880035
  O      1.006002   -6.769103    3.753850
  H      0.936289    1.778486   -0.220351
  H     -0.797135    1.886623   -0.591465
  H     -0.242038    1.927364    1.095043
  H     -1.186629   -0.330052    0.504585
  H     -0.008280   -0.479041   -0.810834
  H     -0.212900   -2.261409    1.594587
  H      0.974454   -2.410643    0.284400
  H      2.815988   -1.902472    1.911263
  H      1.639995   -1.758704    3.206766
  H      1.977419   -6.859672    1.904787
  H      3.039201   -6.600036    3.295342
  H      1.094954   -7.720745    3.868933

 Total Charge           Charge          ....    0
 Multiplicity           Mult            ....    1
 Number of Electrons    NEL             ....   70
 Basis Dimension        Dim             ....  351

ORBITAL ENERGIES
----------------

  NO   OCC          E(Eh)            E(eV)
   0   2.0000     -20.564783      -559.5962
   1   2.0000     -20.554903      -559.3274
   2   2.0000     -11.305453      -307.6370
   3   2.0000     -11.278889      -306.9142
   4   2.0000     -11.275468      -306.8211
   5   2.0000     -11.245649      -306.0097
   6   2.0000     -11.225102      -305.4505
   7   2.0000     -11.217930      -305.2554
   8   2.0000     -11.214608      -305.1650
   9   2.0000      -1.378561       -37.5126
  10   2.0000      -1.368291       -37.2331
  11   2.0000      -1.080747       -29.4086
  12   2.0000      -1.032375       -28.0924
  13   2.0000      -0.997226       -27.1359
  14   2.0000      -0.927178       -25.2298
  15   2.0000      -0.855648       -23.2834
  16   2.0000      -0.831496       -22.6261
  17   2.0000      -0.711836       -19.3701
  18   2.0000      -0.683144       -18.5893
  19   2.0000      -0.681601       -18.5473
  20   2.0000      -0.650523       -17.7016
  21   2.0000      -0.644230       -17.5304
  22   2.0000      -0.616627       -16.7793
  23   2.0000      -0.615675       -16.7534
  24   2.0000      -0.590831       -16.0773
  25   2.0000      -0.547554       -14.8997
  26   2.0000      -0.534787       -14.5523
  27   2.0000      -0.532224       -14.4825
  28   2.0000      -0.510619       -13.8947
  29   2.0000      -0.495547       -13.4845
  30   2.0000      -0.478394       -13.0178
  31   2.0000      -0.468786       -12.7563
  32   2.0000      -0.422950       -11.5091
  33   2.0000      -0.377202       -10.2642
  34   2.0000      -0.367841       -10.0095
  35   0.0000       0.125157         3.4057
  36   0.0000       0.139399         3.7932
  37   0.0000       0.157190         4.2774
  38   0.0000       0.170912         4.6508
  39   0.0000       0.176839         4.8120

MULLIKEN ATOMIC CHARGES
-----------------------
   0 C :   -0.360617
   1 C :   -0.046848
   2 O :   -0.288527
   3 C :   -0.057831
   4 C :   -0.243907
   5 C :    0.006549
   6 C :    0.010657
   7 C :   -0.195348
   8 O :   -0.446146
   9 H :    0.128569
  10 H :    0.121602
  11 H :    0.129386
  12 H :    0.093039
  13 H :    0.091410
  14 H :    0.104739
  15 H :    0.097773
  16 H :    0.143151
  17 H :    0.145479
  18 H :    0.124930
  19 H :    0.126791
  20 H :    0.315149
Sum of atomic charges:    0.0000000

LOEWDIN ATOMIC CHARGES
----------------------
   0 C :   -0.317075
   1 C :   -0.353457
   2 O :    0.156931
   3 C :   -0.315624
   4 C :   -0.247026
   5 C :   -0.068770
   6 C :   -0.078129
   7 C :   -0.338588
   8 O :   -0.043867
   9 H :    0.123745
  10 H :    0.124240
  11 H :    0.123995
  12 H :    0.116504
  13 H :    0.116038
  14 H :    0.123195
  15 H :    0.121489
  16 H :    0.158258
  17 H :    0.159099
  18 H :    0.132409
  19 H :    0.133193
  20 H :    0.173439

  Mayer bond orders larger than 0.1
B(  0-C ,  1-C ) :   0.9528 B(  0-C ,  9-H ) :   0.9362 B(  0-C , 10-H ) :   0.9325
B(  0-C , 11-H ) :   0.9362 B(  1-C ,  2-O ) :   0.9134 B(  1-C , 12-H ) :   0.9251
B(  1-C , 13-H ) :   0.9249 B(  2-O ,  3-C ) :   0.9684 B(  3-C ,  4-C ) :   0.9545
B(  3-C , 14-H ) :   0.9266 B(  3-C , 15-H ) :   0.9258 B(  4-C ,  5-C ) :   0.9636
B(  4-C , 16-H ) :   0.9287 B(  4-C , 17-H ) :   0.9225 B(  5-C ,  6-C ) :   2.7152
B(  6-C ,  7-C ) :   0.9194 B(  7-C ,  8-O ) :   1.1220 B(  7-C , 18-H ) :   0.9521
B(  7-C , 19-H ) :   0.9554 B(  8-O , 20-H ) :   0.8477

MP2 TOTAL ENERGY:     -423.468217281 Eh
FINAL SINGLE POINT ENERGY      -423.468217280701

DIPOLE MOMENT
-------------
                                X             Y             Z
Electronic contribution:      2.91424      -8.38651       5.15458
Nuclear contribution   :     -2.79821       7.89176      -5.68671
                        -----------------------------------------
Total Dipole Moment    :      0.11602      -0.49474      -0.53213
                        -----------------------------------------
Magnitude (a.u.)       :      0.73579
Magnitude (Debye)      :      1.87024

                             ****ORCA TERMINATED NORMALLY****
TOTAL RUN TIME: 0 days 0 hours 14 minutes 7 seconds 595 msec
