                         Program Version 3.0.3 - RELEASE   -
|  1> ! RI-MP2 RIJK def2-TZVP def2-TZVP/C def2-TZVP/JK TIGHTSCF
|  2> % maxcore 2000
|  3> % mp2 density relaxed end
|  4> *xyz 0 1
|  5>  O        0.0629454894     1.4726430405    -0.1158003776
|  6>  C        0.0564019560     0.0758483003    -0.0149455151
|  7>  C       -0.0919643313    -0.6196481722     1.3731325558
|  8>  C       -1.5314812584    -0.0369613603     1.4760029485
|  9>  C       -2.5160680493    -0.7654881717     2.3845131488
| 10>  C       -2.7345785253    -2.1945213499     1.8717885725
| 11>  C       -1.4090479899    -2.7665685062     1.3518282850
| 12>  N       -0.5959178806    -1.8095527298     0.5804034138
| 13>  C       -1.3309642386    -0.5924206253     0.0194012395
| 14>  H        0.9674054016     1.7762654513     0.0060310470
| 15>  H        0.7730967729    -0.4147772670    -0.6813426499
| 16>  H        0.6531472560    -0.7447063603     2.1641140743
| 17>  H       -1.5868954308     1.0499692420     1.5600136871
| 18>  H       -2.1216842919    -0.7728574360     3.4097618859
| 19>  H       -3.4683674966    -0.2252991351     2.4257151870
| 20>  H       -3.1690368822    -2.8447534117     2.6382013942
| 21>  H       -3.4528179680    -2.1654132431     1.0433174028
| 22>  H       -0.7835689795    -3.1181522326     2.1828847251
| 23>  H       -1.5963507056    -3.6377266372     0.7132511858
| 24>  H       -2.0506006280    -0.6745066658    -0.7974796106
| 25> *
| 26>
| 27>                          ****END OF INPUT****

CARTESIAN COORDINATES (ANGSTROEM)
---------------------------------
  O      0.062945    1.472643   -0.115800
  C      0.056402    0.075848   -0.014946
  C     -0.091964   -0.619648    1.373133
  C     -1.531481   -0.036961    1.476003
  C     -2.516068   -0.765488    2.384513
  C     -2.734579   -2.194521    1.871789
  C     -1.409048   -2.766569    1.351828
  N     -0.595918   -1.809553    0.580403
  C     -1.330964   -0.592421    0.019401
  H      0.967405    1.776265    0.006031
  H      0.773097   -0.414777   -0.681343
  H      0.653147   -0.744706    2.164114
  H     -1.586895    1.049969    1.560014
  H     -2.121684   -0.772857    3.409762
  H     -3.468367   -0.225299    2.425715
  H     -3.169037   -2.844753    2.638201
  H     -3.452818   -2.165413    1.043317
  H     -0.783569   -3.118152    2.182885
  H     -1.596351   -3.637727    0.713251
  H     -2.050601   -0.674507   -0.797480

 Total Charge           Charge          ....    0
 Multiplicity           Mult            ....    1
 Number of Electrons    NEL             ....   68
 Basis Dimension        Dim             ....  345

ORBITAL ENERGIES
----------------

  NO   OCC          E(Eh)            E(eV)
   0   2.0000     -20.561307      -559.5016
   1   2.0000     -15.548109      -423.0855
   2   2.0000     -11.283003      -307.0261
   3   2.0000     -11.264885      -306.5331
   4   2.0000     -11.262056      -306.4561
   5   2.0000     -11.240331      -305.8650
   6   2.0000     -11.229406      -305.5677
   7   2.0000     -11.218918      -305.2823
   8   2.0000     -11.217059      -305.2317
   9   2.0000      -1.374748       -37.4088
  10   2.0000      -1.279169       -34.8080
  11   2.0000      -1.069992       -29.1160
  12   2.0000      -1.038317       -28.2540
  13   2.0000      -0.908250       -24.7147
  14   2.0000      -0.869532       -23.6612
  15   2.0000      -0.851816       -23.1791
  16   2.0000      -0.806825       -21.9548
  17   2.0000      -0.703028       -19.1304
  18   2.0000      -0.686075       -18.6691
  19   2.0000      -0.673698       -18.3323
  20   2.0000      -0.652286       -17.7496
  21   2.0000      -0.614426       -16.7194
  22   2.0000      -0.590065       -16.0565
  23   2.0000      -0.582451       -15.8493
  24   2.0000      -0.555516       -15.1164
  25   2.0000      -0.530933       -14.4474
  26   2.0000      -0.502207       -13.6658
  27   2.0000      -0.492917       -13.4130
  28   2.0000      -0.471083       -12.8188
  29   2.0000      -0.455865       -12.4047
  30   2.0000      -0.442128       -12.0309
  31   2.0000      -0.422253       -11.4901
  32   2.0000      -0.415374       -11.3029
  33   2.0000      -0.352254        -9.5853
  34   0.0000       0.136779         3.7219
  35   0.0000       0.140407         3.8207
  36   0.0000       0.164906         4.4873
  37   0.0000       0.172099         4.6831
  38   0.0000       0.189334         5.1521

MULLIKEN ATOMIC CHARGES
-----------------------
   0 O :   -0.465624
   1 C :    0.006366
   2 C :   -0.014363
   3 C :   -0.127099
   4 C :   -0.231843
   5 C :   -0.231644
   6 C :   -0.190259
   7 N :   -0.250765
   8 C :   -0.015467
   9 H :    0.324784
  10 H :    0.098137
  11 H :    0.133617
  12 H :    0.126167
  13 H :    0.108567
  14 H :    0.120695
  15 H :    0.122439
  16 H :    0.112527
  17 H :    0.113051
  18 H :    0.125138
  19 H :    0.135576
Sum of atomic charges:   -0.0000000

LOEWDIN ATOMIC CHARGES
----------------------
   0 O :   -0.005817
   1 C :   -0.302125
   2 C :   -0.183849
   3 C :   -0.184128
   4 C :   -0.249594
   5 C :   -0.270849
   6 C :   -0.291323
   7 N :    0.126290
   8 C :   -0.159546
   9 H :    0.180158
  10 H :    0.131831
  11 H :    0.120997
  12 H :    0.146507
  13 H :    0.140022
  14 H :    0.138562
  15 H :    0.134822
  16 H :    0.138393
  17 H :    0.133289
  18 H :    0.131632
  19 H :    0.124729

  Mayer bond orders larger than 0.1
B(  0-O ,  1-C ) :   1.1663 B(  0-O ,  2-C ) :  -0.1281 B(  0-O ,  8-C ) :  -0.1269
B(  0-O ,  9-H ) :   0.8416 B(  1-C ,  2-C ) :   0.8565 B(  1-C ,  8-C ) :   0.8993
B(  1-C , 10-H ) :   0.9607 B(  2-C ,  3-C ) :   0.8760 B(  2-C ,  7-N ) :   0.8102
B(  2-C , 11-H ) :   0.8829 B(  3-C ,  4-C ) :   0.9264 B(  3-C ,  8-C ) :   0.8798
B(  3-C , 12-H ) :   0.8906 B(  4-C ,  5-C ) :   0.9419 B(  4-C , 13-H ) :   0.9257
B(  4-C , 14-H ) :   0.9315 B(  5-C ,  6-C ) :   0.9272 B(  5-C , 15-H ) :   0.9288
B(  5-C , 16-H ) :   0.9278 B(  6-C ,  7-N ) :   0.9458 B(  6-C , 17-H ) :   0.9359
B(  6-C , 18-H ) :   0.9346 B(  7-N ,  8-C ) :   0.8212 B(  8-C , 19-H ) :   0.8782

MP2 TOTAL ENERGY:     -402.400989978 Eh
FINAL SINGLE POINT ENERGY      -402.400989977746

DIPOLE MOMENT
-------------
                                X             Y             Z
Electronic contribution:      3.56702       3.11595      -3.16108
Nuclear contribution   :     -3.45073      -3.05856       3.62385
                        -----------------------------------------
Total Dipole Moment    :      0.11630       0.05739       0.46276
                        -----------------------------------------
Magnitude (a.u.)       :      0.48059
Magnitude (Debye)      :      1.22157

                             ****ORCA TERMINATED NORMALLY****
TOTAL RUN TIME: 0 days 0 hours 18 minutes 33 seconds 648 msec
