                         Program Version 3.0.3 - RELEASE   -
|  1> ! RI-MP2 RIJK def2-TZVP def2-TZVP/C def2-TZVP/JK TIGHTSCF
|  2> % maxcore 2000
|  3> % mp2 density relaxed end
|  4> *xyz 0 1
|  5>  O       -0.0620043726     1.5166155067     0.0060531233
|  6>  C        0.0125496363     0.1150215357     0.0279509049
|  7>  C       -0.0301932904    -0.6381133278     1.4006923466
|  8>  C       -1.5041062987    -0.1548710251     1.5305469547
|  9>  C       -1.3529020793    -0.6133495786     0.0484365904
| 10>  C       -0.5893957837    -1.8677261774     0.6045266623
| 11>  C        0.2789423755    -2.6460648463    -0.2565491991
| 12>  C        0.9841528494    -3.3271260658    -0.9542080796
| 13>  H        0.8316689089     1.8653741277     0.0744410809
| 14>  H        0.7428224042    -0.2633331697    -0.6946330804
| 15>  H        0.7379011457    -0.6723418755     2.1747230738
| 16>  H       -2.1608430807    -0.7580488470     2.1628043910
| 17>  H       -1.6469038823     0.9120520444     1.6876663611
| 18>  H       -2.1105795984    -0.6164733054    -0.7354479749
| 19>  H       -1.2221143305    -2.5231824136     1.2093411697
| 20>  H        1.6074807567    -3.9231468324    -1.5736295548
| 21> *
| 22>
| 23>                          ****END OF INPUT****

CARTESIAN COORDINATES (ANGSTROEM)
---------------------------------
  O     -0.062004    1.516616    0.006053
  C      0.012550    0.115022    0.027951
  C     -0.030193   -0.638113    1.400692
  C     -1.504106   -0.154871    1.530547
  C     -1.352902   -0.613350    0.048437
  C     -0.589396   -1.867726    0.604527
  C      0.278942   -2.646065   -0.256549
  C      0.984153   -3.327126   -0.954208
  H      0.831669    1.865374    0.074441
  H      0.742822   -0.263333   -0.694633
  H      0.737901   -0.672342    2.174723
  H     -2.160843   -0.758049    2.162804
  H     -1.646904    0.912052    1.687666
  H     -2.110580   -0.616473   -0.735448
  H     -1.222114   -2.523182    1.209341
  H      1.607481   -3.923147   -1.573630

 Total Charge           Charge          ....    0
 Multiplicity           Mult            ....    1
 Number of Electrons    NEL             ....   58
 Basis Dimension        Dim             ....  296

ORBITAL ENERGIES
----------------

  NO   OCC          E(Eh)            E(eV)
   0   2.0000     -20.561803      -559.5151
   1   2.0000     -11.289812      -307.2114
   2   2.0000     -11.262426      -306.4662
   3   2.0000     -11.251996      -306.1824
   4   2.0000     -11.251773      -306.1763
   5   2.0000     -11.233370      -305.6755
   6   2.0000     -11.231316      -305.6196
   7   2.0000     -11.221720      -305.3585
   8   2.0000      -1.373885       -37.3853
   9   2.0000      -1.213567       -33.0228
  10   2.0000      -1.037491       -28.2316
  11   2.0000      -0.923581       -25.1319
  12   2.0000      -0.904078       -24.6012
  13   2.0000      -0.867282       -23.5999
  14   2.0000      -0.765020       -20.8173
  15   2.0000      -0.711710       -19.3666
  16   2.0000      -0.700180       -19.0529
  17   2.0000      -0.683053       -18.5868
  18   2.0000      -0.660101       -17.9623
  19   2.0000      -0.602909       -16.4060
  20   2.0000      -0.548885       -14.9359
  21   2.0000      -0.532116       -14.4796
  22   2.0000      -0.496621       -13.5137
  23   2.0000      -0.487815       -13.2741
  24   2.0000      -0.458687       -12.4815
  25   2.0000      -0.453263       -12.3339
  26   2.0000      -0.423444       -11.5225
  27   2.0000      -0.383468       -10.4347
  28   2.0000      -0.373941       -10.1755
  29   0.0000       0.138995         3.7823
  30   0.0000       0.155723         4.2374
  31   0.0000       0.159020         4.3272
  32   0.0000       0.161294         4.3890
  33   0.0000       0.179584         4.8867

MULLIKEN ATOMIC CHARGES
-----------------------
   0 O :   -0.468419
   1 C :   -0.018634
   2 C :   -0.061635
   3 C :   -0.235246
   4 C :   -0.050663
   5 C :   -0.340006
   6 C :   -0.005199
   7 C :   -0.116182
   8 H :    0.323642
   9 H :    0.119532
  10 H :    0.143559
  11 H :    0.114351
  12 H :    0.139056
  13 H :    0.138113
  14 H :    0.127162
  15 H :    0.190568
Sum of atomic charges:   -0.0000000

LOEWDIN ATOMIC CHARGES
----------------------
   0 O :   -0.005831
   1 C :   -0.288550
   2 C :   -0.141223
   3 C :   -0.192523
   4 C :   -0.129569
   5 C :   -0.173239
   6 C :   -0.094192
   7 C :   -0.100146
   8 H :    0.179141
   9 H :    0.137065
  10 H :    0.125780
  11 H :    0.127741
  12 H :    0.134222
  13 H :    0.129350
  14 H :    0.165697
  15 H :    0.126278

  Mayer bond orders larger than 0.1
B(  0-O ,  1-C ) :   1.1255 B(  0-O ,  2-C ) :  -0.1151 B(  0-O ,  4-C ) :  -0.1042
B(  0-O ,  8-H ) :   0.8415 B(  1-C ,  2-C ) :   0.8467 B(  1-C ,  4-C ) :   0.8932
B(  1-C ,  9-H ) :   0.9598 B(  2-C ,  3-C ) :   0.9114 B(  2-C ,  5-C ) :   0.8425
B(  2-C , 10-H ) :   0.8856 B(  3-C ,  4-C ) :   0.9188 B(  3-C , 11-H ) :   0.9356
B(  3-C , 12-H ) :   0.9088 B(  4-C ,  5-C ) :   0.8616 B(  4-C , 13-H ) :   0.8902
B(  5-C ,  6-C ) :   1.1762 B(  5-C ,  7-C ) :  -0.1623 B(  5-C , 14-H ) :   0.9263
B(  6-C ,  7-C ) :   2.6118 B(  7-C , 15-H ) :   0.8810

MP2 TOTAL ENERGY:     -345.906844576 Eh
FINAL SINGLE POINT ENERGY      -345.906844576245

DIPOLE MOMENT
-------------
                                X             Y             Z
Electronic contribution:      1.32136      -0.78784      -1.56914
Nuclear contribution   :     -0.88927       0.77252       1.72487
                        -----------------------------------------
Total Dipole Moment    :      0.43210      -0.01531       0.15573
                        -----------------------------------------
Magnitude (a.u.)       :      0.45956
Magnitude (Debye)      :      1.16810

                             ****ORCA TERMINATED NORMALLY****
TOTAL RUN TIME: 0 days 0 hours 11 minutes 13 seconds 955 msec
