                         Program Version 3.0.3 - RELEASE   -
|  1> ! RI-MP2 RIJK def2-TZVP def2-TZVP/C def2-TZVP/JK TIGHTSCF
|  2> % maxcore 2000
|  3> % mp2 density relaxed end
|  4> *xyz 0 1
|  5>  C       -0.0095895404     1.5887338735    -0.0279580927
|  6>  C       -0.0040142181     0.0454007865     0.0221845405
|  7>  O        0.7576649605    -0.3946611031     1.1738807683
|  8>  C        0.1959521304    -0.2608248988     2.3983446090
|  9>  N        0.9101744574    -0.4377250926     3.4229343831
| 10>  C       -1.3812157742    -0.4780446646     0.0390929929
| 11>  C       -2.5142931483    -0.8765543452     0.0418074748
| 12>  C        0.7052067975    -0.4937714981    -1.1442936268
| 13>  C        1.2774625463    -0.8951805553    -2.1192031531
| 14>  H        1.0221355913     1.9458232819    -0.0203684166
| 15>  H       -0.5078816981     1.9331880730    -0.9362502446
| 16>  H       -0.5396138026     1.9887680866     0.8399048442
| 17>  H       -0.8739946669    -0.0288010945     2.3758677541
| 18>  H        0.3407947579    -0.3371898397     4.2611615055
| 19>  H       -3.5107819258    -1.2457717331     0.0375571088
| 20>  H        1.7860542931    -1.2660325666    -2.9751006974
| 21> *
| 22>
| 23>                          ****END OF INPUT****

CARTESIAN COORDINATES (ANGSTROEM)
---------------------------------
  C     -0.009590    1.588734   -0.027958
  C     -0.004014    0.045401    0.022185
  O      0.757665   -0.394661    1.173881
  C      0.195952   -0.260825    2.398345
  N      0.910174   -0.437725    3.422934
  C     -1.381216   -0.478045    0.039093
  C     -2.514293   -0.876554    0.041807
  C      0.705207   -0.493771   -1.144294
  C      1.277463   -0.895181   -2.119203
  H      1.022136    1.945823   -0.020368
  H     -0.507882    1.933188   -0.936250
  H     -0.539614    1.988768    0.839905
  H     -0.873995   -0.028801    2.375868
  H      0.340795   -0.337190    4.261162
  H     -3.510782   -1.245772    0.037557
  H      1.786054   -1.266033   -2.975101

 Total Charge           Charge          ....    0
 Multiplicity           Mult            ....    1
 Number of Electrons    NEL             ....   64
 Basis Dimension        Dim             ....  321

ORBITAL ENERGIES
----------------

  NO   OCC          E(Eh)            E(eV)
   0   2.0000     -20.602575      -560.6246
   1   2.0000     -15.542750      -422.9397
   2   2.0000     -11.370921      -309.4185
   3   2.0000     -11.339673      -308.5682
   4   2.0000     -11.259292      -306.3809
   5   2.0000     -11.253590      -306.2258
   6   2.0000     -11.248829      -306.0962
   7   2.0000     -11.248218      -306.0796
   8   2.0000     -11.242344      -305.9197
   9   2.0000      -1.437074       -39.1048
  10   2.0000      -1.205851       -32.8129
  11   2.0000      -1.118499       -30.4359
  12   2.0000      -1.042638       -28.3716
  13   2.0000      -1.011751       -27.5311
  14   2.0000      -0.921882       -25.0857
  15   2.0000      -0.842356       -22.9217
  16   2.0000      -0.768430       -20.9100
  17   2.0000      -0.752881       -20.4869
  18   2.0000      -0.719791       -19.5865
  19   2.0000      -0.696468       -18.9518
  20   2.0000      -0.665362       -18.1054
  21   2.0000      -0.645633       -17.5686
  22   2.0000      -0.584401       -15.9024
  23   2.0000      -0.571350       -15.5472
  24   2.0000      -0.549619       -14.9559
  25   2.0000      -0.542820       -14.7709
  26   2.0000      -0.452508       -12.3134
  27   2.0000      -0.425265       -11.5721
  28   2.0000      -0.420628       -11.4459
  29   2.0000      -0.411767       -11.2047
  30   2.0000      -0.405482       -11.0337
  31   2.0000      -0.400174       -10.8893
  32   0.0000       0.129684         3.5289
  33   0.0000       0.134828         3.6689
  34   0.0000       0.144306         3.9268
  35   0.0000       0.150334         4.0908
  36   0.0000       0.157058         4.2738

MULLIKEN ATOMIC CHARGES
-----------------------
   0 C :   -0.379214
   1 C :   -0.020969
   2 O :   -0.202313
   3 C :    0.046753
   4 N :   -0.327205
   5 C :   -0.089949
   6 C :   -0.115766
   7 C :   -0.010795
   8 C :   -0.081820
   9 H :    0.160273
  10 H :    0.149456
  11 H :    0.139309
  12 H :    0.103854
  13 H :    0.226197
  14 H :    0.201913
  15 H :    0.200275
Sum of atomic charges:    0.0000000

LOEWDIN ATOMIC CHARGES
----------------------
   0 C :   -0.226080
   1 C :   -0.335285
   2 O :    0.289846
   3 C :   -0.391396
   4 N :   -0.073930
   5 C :   -0.059230
   6 C :   -0.063042
   7 C :   -0.042857
   8 C :   -0.056897
   9 H :    0.139044
  10 H :    0.138206
  11 H :    0.131154
  12 H :    0.118603
  13 H :    0.168619
  14 H :    0.131899
  15 H :    0.131346

  Mayer bond orders larger than 0.1
B(  0-C ,  1-C ) :   0.9392 B(  0-C ,  9-H ) :   0.9329 B(  0-C , 10-H ) :   0.9254
B(  0-C , 11-H ) :   0.9178 B(  1-C ,  2-O ) :   0.9433 B(  1-C ,  5-C ) :   1.1696
B(  1-C ,  7-C ) :   1.1465 B(  1-C ,  8-C ) :  -0.1355 B(  2-O ,  3-C ) :   1.0310
B(  3-C ,  4-N ) :   1.9747 B(  3-C , 12-H ) :   0.9223 B(  4-N , 13-H ) :   0.8497
B(  5-C ,  6-C ) :   2.5550 B(  6-C , 14-H ) :   0.8844 B(  7-C ,  8-C ) :   2.5713
B(  8-C , 15-H ) :   0.8801

MP2 TOTAL ENERGY:     -399.953556911 Eh
FINAL SINGLE POINT ENERGY      -399.953556911042

DIPOLE MOMENT
-------------
                                X             Y             Z
Electronic contribution:      0.94229      -3.69152      -0.61142
Nuclear contribution   :     -2.22293       4.20475       0.08855
                        -----------------------------------------
Total Dipole Moment    :     -1.28064       0.51323      -0.52287
                        -----------------------------------------
Magnitude (a.u.)       :      1.47541
Magnitude (Debye)      :      3.75020

                             ****ORCA TERMINATED NORMALLY****
TOTAL RUN TIME: 0 days 0 hours 16 minutes 15 seconds 144 msec
