                         Program Version 3.0.3 - RELEASE   -
|  1> ! RI-MP2 RIJK def2-TZVP def2-TZVP/C def2-TZVP/JK TIGHTSCF
|  2> % maxcore 2000
|  3> % mp2 density relaxed end
|  4> *xyz 0 1
|  5>  C       -0.3186335881     1.5123215126     0.0834052296
|  6>  C        0.0927064639     0.0431575431    -0.0423614888
|  7>  C        0.6464568085    -0.5355013452     1.2635265040
|  8>  C        1.0608519220    -2.0131997328     1.1304788439
|  9>  C        1.5973917769    -2.5846135425     2.4042552709
| 10>  N        2.8620427603    -2.8730457119     2.5715398362
| 11>  O        2.9808701986    -3.3468758808     3.8493741123
| 12>  N        1.7752379417    -3.3561702649     4.4893521701
| 13>  C        0.9199698550    -2.8931665827     3.6223196707
| 14>  H        0.5321652612     2.1380972349     0.3740712735
| 15>  H       -0.7076070207     1.8983444076    -0.8636239547
| 16>  H       -1.0987109191     1.6424377231     0.8416458253
| 17>  H       -0.7695184180    -0.5545697609    -0.3666249881
| 18>  H        0.8483829553    -0.0613622113    -0.8317737392
| 19>  H        1.5149074940     0.0496072662     1.5903895722
| 20>  H       -0.1061134756    -0.4353936546     2.0570235327
| 21>  H        0.1965325100    -2.6063250863     0.8068404375
| 22>  H        1.8284114777    -2.1176096722     0.3578165810
| 23>  H       -0.1252496334    -2.7964224514     3.8729051209
| 24> *
| 25>
| 26>                          ****END OF INPUT****

CARTESIAN COORDINATES (ANGSTROEM)
---------------------------------
  C     -0.318634    1.512322    0.083405
  C      0.092706    0.043158   -0.042361
  C      0.646457   -0.535501    1.263527
  C      1.060852   -2.013200    1.130479
  C      1.597392   -2.584614    2.404255
  N      2.862043   -2.873046    2.571540
  O      2.980870   -3.346876    3.849374
  N      1.775238   -3.356170    4.489352
  C      0.919970   -2.893167    3.622320
  H      0.532165    2.138097    0.374071
  H     -0.707607    1.898344   -0.863624
  H     -1.098711    1.642438    0.841646
  H     -0.769518   -0.554570   -0.366625
  H      0.848383   -0.061362   -0.831774
  H      1.514907    0.049607    1.590390
  H     -0.106113   -0.435394    2.057024
  H      0.196533   -2.606325    0.806840
  H      1.828411   -2.117610    0.357817
  H     -0.125250   -2.796422    3.872905

 Total Charge           Charge          ....    0
 Multiplicity           Mult            ....    1
 Number of Electrons    NEL             ....   68
 Basis Dimension        Dim             ....  339

ORBITAL ENERGIES
----------------

  NO   OCC          E(Eh)            E(eV)
   0   2.0000     -20.674007      -562.5683
   1   2.0000     -15.656033      -426.0223
   2   2.0000     -15.646055      -425.7508
   3   2.0000     -11.295904      -307.3772
   4   2.0000     -11.290933      -307.2419
   5   2.0000     -11.256052      -306.2928
   6   2.0000     -11.241978      -305.9098
   7   2.0000     -11.234932      -305.7180
   8   2.0000     -11.223969      -305.4197
   9   2.0000      -1.539373       -41.8885
  10   2.0000      -1.211273       -32.9604
  11   2.0000      -1.180562       -32.1247
  12   2.0000      -1.091072       -29.6896
  13   2.0000      -1.012243       -27.5445
  14   2.0000      -0.905199       -24.6317
  15   2.0000      -0.864632       -23.5278
  16   2.0000      -0.820059       -22.3149
  17   2.0000      -0.808432       -21.9985
  18   2.0000      -0.722605       -19.6631
  19   2.0000      -0.685623       -18.6567
  20   2.0000      -0.660143       -17.9634
  21   2.0000      -0.631181       -17.1753
  22   2.0000      -0.603063       -16.4102
  23   2.0000      -0.594859       -16.1869
  24   2.0000      -0.578023       -15.7288
  25   2.0000      -0.547974       -14.9111
  26   2.0000      -0.530798       -14.4438
  27   2.0000      -0.506642       -13.7864
  28   2.0000      -0.498496       -13.5648
  29   2.0000      -0.487109       -13.2549
  30   2.0000      -0.486226       -13.2309
  31   2.0000      -0.482354       -13.1255
  32   2.0000      -0.432352       -11.7649
  33   2.0000      -0.414694       -11.2844
  34   0.0000       0.095811         2.6071
  35   0.0000       0.121285         3.3003
  36   0.0000       0.145538         3.9603
  37   0.0000       0.152510         4.1500
  38   0.0000       0.170820         4.6482

MULLIKEN ATOMIC CHARGES
-----------------------
   0 C :   -0.384416
   1 C :   -0.188370
   2 C :   -0.258875
   3 C :   -0.250124
   4 C :    0.107451
   5 N :   -0.098809
   6 O :   -0.009560
   7 N :   -0.094787
   8 C :   -0.115230
   9 H :    0.127078
  10 H :    0.137034
  11 H :    0.123286
  12 H :    0.106720
  13 H :    0.112425
  14 H :    0.130895
  15 H :    0.111396
  16 H :    0.137242
  17 H :    0.145495
  18 H :    0.161146
Sum of atomic charges:   -0.0000000

LOEWDIN ATOMIC CHARGES
----------------------
   0 C :   -0.318940
   1 C :   -0.295807
   2 C :   -0.260579
   3 C :   -0.225706
   4 C :   -0.293702
   5 N :    0.052037
   6 O :    0.203090
   7 N :    0.022911
   8 C :   -0.253190
   9 H :    0.121966
  10 H :    0.122159
  11 H :    0.120787
  12 H :    0.135025
  13 H :    0.136806
  14 H :    0.142760
  15 H :    0.137511
  16 H :    0.151252
  17 H :    0.154964
  18 H :    0.146658

  Mayer bond orders larger than 0.1
B(  0-C ,  1-C ) :   0.9248 B(  0-C ,  9-H ) :   0.9390 B(  0-C , 10-H ) :   0.9419
B(  0-C , 11-H ) :   0.9388 B(  1-C ,  2-C ) :   0.9257 B(  1-C , 12-H ) :   0.9325
B(  1-C , 13-H ) :   0.9326 B(  2-C ,  3-C ) :   0.9156 B(  2-C , 14-H ) :   0.9279
B(  2-C , 15-H ) :   0.9306 B(  3-C ,  4-C ) :   0.9004 B(  3-C , 16-H ) :   0.9316
B(  3-C , 17-H ) :   0.9288 B(  4-C ,  5-N ) :   1.5812 B(  4-C ,  8-C ) :   1.2099
B(  5-N ,  6-O ) :   0.9303 B(  5-N ,  7-N ) :   0.1230 B(  6-O ,  7-N ) :   0.9583
B(  7-N ,  8-C ) :   1.5826 B(  8-C , 18-H ) :   0.9186

MP2 TOTAL ENERGY:     -418.466826310 Eh
FINAL SINGLE POINT ENERGY      -418.466826310208

DIPOLE MOMENT
-------------
                                X             Y             Z
Electronic contribution:      8.88434     -13.13645      11.86122
Nuclear contribution   :    -10.08800      13.75752     -12.68544
                        -----------------------------------------
Total Dipole Moment    :     -1.20366       0.62108      -0.82422
                        -----------------------------------------
Magnitude (a.u.)       :      1.58552
Magnitude (Debye)      :      4.03007

                             ****ORCA TERMINATED NORMALLY****
TOTAL RUN TIME: 0 days 0 hours 19 minutes 30 seconds 701 msec
