                         Program Version 3.0.3 - RELEASE   -
|  1> ! RI-MP2 RIJK def2-TZVP def2-TZVP/C def2-TZVP/JK TIGHTSCF
|  2> % maxcore 2000
|  3> % mp2 density relaxed end
|  4> *xyz 0 1
|  5>  C        0.2302477320     1.3911843193     0.1249210474
|  6>  O       -0.0803110847     0.0354251934    -0.0783056323
|  7>  C        0.6957659583    -0.5601839059    -1.0958814258
|  8>  C        0.2835666719    -2.0224796478    -1.2307503230
|  9>  C        1.0694132917    -2.7332451253    -2.3126797089
| 10>  C        2.4335941205    -3.3325698449    -2.0342249871
| 11>  C        1.2680182935    -4.2348820760    -2.3734136223
| 12>  C        0.7003786557    -5.1317203420    -1.2885476519
| 13>  C        1.2547029519    -4.8714829110    -3.7517293954
| 14>  H        1.2810149789     1.5313317423     0.4266251050
| 15>  H        0.0543967859     1.9932107908    -0.7814217378
| 16>  H       -0.4173227121     1.7613567156     0.9238594413
| 17>  H        0.5460083473    -0.0288101331    -2.0526186281
| 18>  H        1.7704310802    -0.4877830863    -0.8551768329
| 19>  H        0.4236847888    -2.5056693648    -0.2587507487
| 20>  H       -0.7913857282    -2.0601959736    -1.4473362202
| 21>  H        0.9693041977    -2.2627720758    -3.2898597596
| 22>  H        3.2242245853    -3.2009352821    -2.7660685909
| 23>  H        2.7796542412    -3.3237291453    -1.0045322529
| 24>  H        0.7603532378    -4.6778336590    -0.2965194534
| 25>  H       -0.3517817853    -5.3724834022    -1.4828563741
| 26>  H        1.2518059245    -6.0786071461    -1.2494522513
| 27>  H        1.8415289567    -5.7979708374    -3.7634889777
| 28>  H        0.2333199327    -5.1236693816    -4.0616994211
| 29>  H        1.6764232577    -4.2012858712    -4.5074348583
| 30> *
| 31>
| 32>                          ****END OF INPUT****

CARTESIAN COORDINATES (ANGSTROEM)
---------------------------------
  C      0.230248    1.391184    0.124921
  O     -0.080311    0.035425   -0.078306
  C      0.695766   -0.560184   -1.095881
  C      0.283567   -2.022480   -1.230750
  C      1.069413   -2.733245   -2.312680
  C      2.433594   -3.332570   -2.034225
  C      1.268018   -4.234882   -2.373414
  C      0.700379   -5.131720   -1.288548
  C      1.254703   -4.871483   -3.751729
  H      1.281015    1.531332    0.426625
  H      0.054397    1.993211   -0.781422
  H     -0.417323    1.761357    0.923859
  H      0.546008   -0.028810   -2.052619
  H      1.770431   -0.487783   -0.855177
  H      0.423685   -2.505669   -0.258751
  H     -0.791386   -2.060196   -1.447336
  H      0.969304   -2.262772   -3.289860
  H      3.224225   -3.200935   -2.766069
  H      2.779654   -3.323729   -1.004532
  H      0.760353   -4.677834   -0.296519
  H     -0.351782   -5.372483   -1.482856
  H      1.251806   -6.078607   -1.249452
  H      1.841529   -5.797971   -3.763489
  H      0.233320   -5.123669   -4.061699
  H      1.676423   -4.201286   -4.507435

 Total Charge           Charge          ....    0
 Multiplicity           Mult            ....    1
 Number of Electrons    NEL             ....   72
 Basis Dimension        Dim             ....  375

ORBITAL ENERGIES
----------------

  NO   OCC          E(Eh)            E(eV)
   0   2.0000     -20.550345      -559.2033
   1   2.0000     -11.268550      -306.6328
   2   2.0000     -11.267159      -306.5950
   3   2.0000     -11.233720      -305.6851
   4   2.0000     -11.224531      -305.4350
   5   2.0000     -11.216811      -305.2250
   6   2.0000     -11.215745      -305.1959
   7   2.0000     -11.213297      -305.1293
   8   2.0000     -11.212743      -305.1143
   9   2.0000      -1.371670       -37.3250
  10   2.0000      -1.155652       -31.4469
  11   2.0000      -1.032410       -28.0933
  12   2.0000      -0.970742       -26.4152
  13   2.0000      -0.933799       -25.4100
  14   2.0000      -0.914391       -24.8818
  15   2.0000      -0.842021       -22.9126
  16   2.0000      -0.783887       -21.3307
  17   2.0000      -0.729148       -19.8411
  18   2.0000      -0.670878       -18.2555
  19   2.0000      -0.650387       -17.6979
  20   2.0000      -0.642537       -17.4843
  21   2.0000      -0.619799       -16.8656
  22   2.0000      -0.603964       -16.4347
  23   2.0000      -0.585243       -15.9253
  24   2.0000      -0.577316       -15.7096
  25   2.0000      -0.547014       -14.8850
  26   2.0000      -0.534246       -14.5376
  27   2.0000      -0.524478       -14.2718
  28   2.0000      -0.512137       -13.9360
  29   2.0000      -0.500121       -13.6090
  30   2.0000      -0.490773       -13.3546
  31   2.0000      -0.474641       -12.9156
  32   2.0000      -0.467990       -12.7347
  33   2.0000      -0.418885       -11.3984
  34   2.0000      -0.394761       -10.7420
  35   2.0000      -0.382147       -10.3988
  36   0.0000       0.135861         3.6970
  37   0.0000       0.148482         4.0404
  38   0.0000       0.166730         4.5370
  39   0.0000       0.175877         4.7859
  40   0.0000       0.179198         4.8762

MULLIKEN ATOMIC CHARGES
-----------------------
   0 C :   -0.212346
   1 O :   -0.301406
   2 C :   -0.060291
   3 C :   -0.167377
   4 C :   -0.176844
   5 C :   -0.323610
   6 C :    0.151226
   7 C :   -0.389967
   8 C :   -0.405719
   9 H :    0.108922
  10 H :    0.108980
  11 H :    0.137378
  12 H :    0.085652
  13 H :    0.096458
  14 H :    0.102508
  15 H :    0.118802
  16 H :    0.108761
  17 H :    0.128112
  18 H :    0.124413
  19 H :    0.125505
  20 H :    0.128252
  21 H :    0.131388
  22 H :    0.128138
  23 H :    0.128250
  24 H :    0.124815
Sum of atomic charges:   -0.0000000

LOEWDIN ATOMIC CHARGES
----------------------
   0 C :   -0.365099
   1 O :    0.132615
   2 C :   -0.325844
   3 C :   -0.246445
   4 C :   -0.194758
   5 C :   -0.195075
   6 C :   -0.280464
   7 C :   -0.266946
   8 C :   -0.268095
   9 H :    0.100256
  10 H :    0.100203
  11 H :    0.112649
  12 H :    0.117563
  13 H :    0.119644
  14 H :    0.142491
  15 H :    0.143471
  16 H :    0.150513
  17 H :    0.131176
  18 H :    0.135313
  19 H :    0.124765
  20 H :    0.127033
  21 H :    0.127512
  22 H :    0.125323
  23 H :    0.125860
  24 H :    0.126340

  Mayer bond orders larger than 0.1
B(  0-C ,  1-O ) :   0.9232 B(  0-C ,  9-H ) :   0.9367 B(  0-C , 10-H ) :   0.9377
B(  0-C , 11-H ) :   0.9397 B(  1-O ,  2-C ) :   0.9608 B(  2-C ,  3-C ) :   0.9473
B(  2-C , 12-H ) :   0.9254 B(  2-C , 13-H ) :   0.9249 B(  3-C ,  4-C ) :   0.8974
B(  3-C , 14-H ) :   0.9292 B(  3-C , 15-H ) :   0.9247 B(  4-C ,  5-C ) :   0.9018
B(  4-C ,  6-C ) :   0.8457 B(  4-C , 16-H ) :   0.9259 B(  5-C ,  6-C ) :   0.8788
B(  5-C , 17-H ) :   0.9245 B(  5-C , 18-H ) :   0.9224 B(  6-C ,  7-C ) :   0.9239
B(  6-C ,  8-C ) :   0.9048 B(  7-C , 19-H ) :   0.9326 B(  7-C , 20-H ) :   0.9377
B(  7-C , 21-H ) :   0.9370 B(  8-C , 22-H ) :   0.9401 B(  8-C , 23-H ) :   0.9404
B(  8-C , 24-H ) :   0.9307

MP2 TOTAL ENERGY:     -388.794981938 Eh
FINAL SINGLE POINT ENERGY      -388.794981938059

DIPOLE MOMENT
-------------
                                X             Y             Z
Electronic contribution:     -1.20602       2.63111       1.66189
Nuclear contribution   :      1.48639      -2.47678      -1.90530
                        -----------------------------------------
Total Dipole Moment    :      0.28037       0.15433      -0.24341
                        -----------------------------------------
Magnitude (a.u.)       :      0.40208
Magnitude (Debye)      :      1.02202

                             ****ORCA TERMINATED NORMALLY****
TOTAL RUN TIME: 0 days 0 hours 18 minutes 13 seconds 179 msec
