                         Program Version 3.0.3 - RELEASE   -
|  1> ! RI-MP2 RIJK def2-TZVP def2-TZVP/C def2-TZVP/JK TIGHTSCF
|  2> % maxcore 2000
|  3> % mp2 density relaxed end
|  4> *xyz 0 1
|  5>  C       -0.0331177257     1.2875089979     0.1286032111
|  6>  N       -0.3262663550    -0.0922808786    -0.2427321476
|  7>  C        0.5279115645    -0.6979841649    -1.1732290085
|  8>  C        0.9758192999    -1.9863376575    -1.1499106919
|  9>  O        0.8274860184    -2.9472715749    -0.2230064537
| 10>  C        0.0906751384    -4.0995326818    -0.6523041369
| 11>  O        1.7327650604    -2.2650952268    -2.2550597762
| 12>  C        1.7742335098    -1.1202402356    -2.9885474501
| 13>  C        1.0673874256    -0.1319225243    -2.3823965435
| 14>  H        0.9856913792     1.4400667454     0.5195624145
| 15>  H       -0.1622148896     1.9418197763    -0.7390581139
| 16>  H       -0.7503755977     1.6086436618     0.8885269357
| 17>  H       -0.4249461031    -0.6837883805     0.5727481319
| 18>  H       -0.9114650574    -3.8143321007    -0.9937105048
| 19>  H        0.6160817439    -4.6179636822    -1.4607255647
| 20>  H        0.0140093732    -4.7577449515     0.2149314591
| 21>  H        2.3397825362    -1.1699475204    -3.9037056721
| 22>  H        0.9342020789     0.8735466582    -2.7487491782
| 23> *
| 24>
| 25>                          ****END OF INPUT****

CARTESIAN COORDINATES (ANGSTROEM)
---------------------------------
  C     -0.033118    1.287509    0.128603
  N     -0.326266   -0.092281   -0.242732
  C      0.527912   -0.697984   -1.173229
  C      0.975819   -1.986338   -1.149911
  O      0.827486   -2.947272   -0.223006
  C      0.090675   -4.099533   -0.652304
  O      1.732765   -2.265095   -2.255060
  C      1.774234   -1.120240   -2.988547
  C      1.067387   -0.131923   -2.382397
  H      0.985691    1.440067    0.519562
  H     -0.162215    1.941820   -0.739058
  H     -0.750376    1.608644    0.888527
  H     -0.424946   -0.683788    0.572748
  H     -0.911465   -3.814332   -0.993711
  H      0.616082   -4.617964   -1.460726
  H      0.014009   -4.757745    0.214931
  H      2.339783   -1.169948   -3.903706
  H      0.934202    0.873547   -2.748749

 Total Charge           Charge          ....    0
 Multiplicity           Mult            ....    1
 Number of Electrons    NEL             ....   68
 Basis Dimension        Dim             ....  333

ORBITAL ENERGIES
----------------

  NO   OCC          E(Eh)            E(eV)
   0   2.0000     -20.613527      -560.9226
   1   2.0000     -20.586042      -560.1747
   2   2.0000     -15.556414      -423.3115
   3   2.0000     -11.319877      -308.0295
   4   2.0000     -11.282866      -307.0224
   5   2.0000     -11.281958      -306.9977
   6   2.0000     -11.254691      -306.2557
   7   2.0000     -11.251098      -306.1579
   8   2.0000     -11.225539      -305.4625
   9   2.0000      -1.466821       -39.9142
  10   2.0000      -1.393131       -37.9090
  11   2.0000      -1.223152       -33.2837
  12   2.0000      -1.064959       -28.9790
  13   2.0000      -1.001529       -27.2530
  14   2.0000      -0.937032       -25.4979
  15   2.0000      -0.905456       -24.6387
  16   2.0000      -0.801717       -21.8158
  17   2.0000      -0.772325       -21.0160
  18   2.0000      -0.732857       -19.9420
  19   2.0000      -0.667936       -18.1755
  20   2.0000      -0.662429       -18.0256
  21   2.0000      -0.646364       -17.5885
  22   2.0000      -0.623906       -16.9773
  23   2.0000      -0.607476       -16.5303
  24   2.0000      -0.599672       -16.3179
  25   2.0000      -0.584498       -15.9050
  26   2.0000      -0.566834       -15.4243
  27   2.0000      -0.541596       -14.7376
  28   2.0000      -0.527269       -14.3477
  29   2.0000      -0.519744       -14.1429
  30   2.0000      -0.469093       -12.7647
  31   2.0000      -0.449560       -12.2332
  32   2.0000      -0.358312        -9.7502
  33   2.0000      -0.280095        -7.6218
  34   0.0000       0.141436         3.8487
  35   0.0000       0.151051         4.1103
  36   0.0000       0.161348         4.3905
  37   0.0000       0.170060         4.6276
  38   0.0000       0.187388         5.0991

MULLIKEN ATOMIC CHARGES
-----------------------
   0 C :   -0.275893
   1 N :   -0.329464
   2 C :    0.094363
   3 C :    0.232146
   4 O :   -0.320314
   5 C :   -0.201030
   6 O :   -0.214536
   7 C :    0.002947
   8 C :   -0.289471
   9 H :    0.121235
  10 H :    0.129067
  11 H :    0.136191
  12 H :    0.222550
  13 H :    0.127488
  14 H :    0.141260
  15 H :    0.141934
  16 H :    0.146673
  17 H :    0.134853
Sum of atomic charges:    0.0000000

LOEWDIN ATOMIC CHARGES
----------------------
   0 C :   -0.331658
   1 N :    0.020547
   2 C :   -0.248403
   3 C :   -0.380228
   4 O :    0.209993
   5 C :   -0.313562
   6 O :    0.341104
   7 C :   -0.253901
   8 C :   -0.170549
   9 H :    0.104222
  10 H :    0.116030
  11 H :    0.116766
  12 H :    0.181795
  13 H :    0.109062
  14 H :    0.110197
  15 H :    0.113961
  16 H :    0.130973
  17 H :    0.143650

  Mayer bond orders larger than 0.1
B(  0-C ,  1-N ) :   0.9169 B(  0-C ,  9-H ) :   0.9266 B(  0-C , 10-H ) :   0.9405
B(  0-C , 11-H ) :   0.9382 B(  1-N ,  2-C ) :   1.0969 B(  1-N , 12-H ) :   0.8778
B(  2-C ,  3-C ) :   1.4674 B(  2-C ,  8-C ) :   1.1740 B(  3-C ,  4-O ) :   1.0749
B(  3-C ,  6-O ) :   1.0280 B(  4-O ,  5-C ) :   0.8475 B(  5-C , 13-H ) :   0.9285
B(  5-C , 14-H ) :   0.9391 B(  5-C , 15-H ) :   0.9375 B(  6-O ,  7-C ) :   1.0323
B(  7-C ,  8-C ) :   1.5642 B(  7-C , 16-H ) :   0.9353 B(  8-C , 17-H ) :   0.9180

MP2 TOTAL ENERGY:     -438.353279788 Eh
FINAL SINGLE POINT ENERGY      -438.353279788039

DIPOLE MOMENT
-------------
                                X             Y             Z
Electronic contribution:      3.34764      -2.95184      -2.65052
Nuclear contribution   :     -3.61733       2.97994       2.75182
                        -----------------------------------------
Total Dipole Moment    :     -0.26969       0.02810       0.10130
                        -----------------------------------------
Magnitude (a.u.)       :      0.28945
Magnitude (Debye)      :      0.73574

                             ****ORCA TERMINATED NORMALLY****
TOTAL RUN TIME: 0 days 0 hours 14 minutes 47 seconds 616 msec
