                         Program Version 3.0.3 - RELEASE   -
|  1> ! RI-MP2 RIJK def2-TZVP def2-TZVP/C def2-TZVP/JK TIGHTSCF
|  2> % maxcore 2000
|  3> % mp2 density relaxed end
|  4> *xyz 0 1
|  5>  C        0.2290173324     1.7070099981     0.4481666024
|  6>  O        0.0486158905     0.3121438417     0.2149730905
|  7>  C        0.8247342900    -0.5297337269     0.9279045718
|  8>  C        0.5290200675    -1.9654460154     0.5822598534
|  9>  N        1.6726391405    -0.0914436215     1.7642146019
| 10>  C        2.4873556158    -1.0325294201     2.5103828405
| 11>  C        3.4629428152    -0.3540740340     3.4804175316
| 12>  N        3.4016532655     0.9991938572     3.4812891905
| 13>  O        4.2130353544    -1.0143562458     4.1743873686
| 14>  H        1.2530742133     2.0122563828     0.2135451924
| 15>  H       -0.4779747204     2.2105128072    -0.2124108183
| 16>  H        0.0196772166     1.9579995560     1.4922449657
| 17>  H       -0.2510134810    -2.0245355086    -0.1762426612
| 18>  H        1.4315181282    -2.4608081038     0.2100354091
| 19>  H        0.2062133606    -2.5125594551     1.4738699287
| 20>  H        1.8825837239    -1.7204036392     3.1180092506
| 21>  H        3.1010160426    -1.6668242430     1.8552498549
| 22>  H        2.7466846250     1.4552711142     2.8676559179
| 23>  H        4.0105116794     1.5193300162     4.0890679890
| 24> *
| 25>
| 26>                          ****END OF INPUT****

CARTESIAN COORDINATES (ANGSTROEM)
---------------------------------
  C      0.229017    1.707010    0.448167
  O      0.048616    0.312144    0.214973
  C      0.824734   -0.529734    0.927905
  C      0.529020   -1.965446    0.582260
  N      1.672639   -0.091444    1.764215
  C      2.487356   -1.032529    2.510383
  C      3.462943   -0.354074    3.480418
  N      3.401653    0.999194    3.481289
  O      4.213035   -1.014356    4.174387
  H      1.253074    2.012256    0.213545
  H     -0.477975    2.210513   -0.212411
  H      0.019677    1.958000    1.492245
  H     -0.251013   -2.024536   -0.176243
  H      1.431518   -2.460808    0.210035
  H      0.206213   -2.512559    1.473870
  H      1.882584   -1.720404    3.118009
  H      3.101016   -1.666824    1.855250
  H      2.746685    1.455271    2.867656
  H      4.010512    1.519330    4.089068

 Total Charge           Charge          ....    0
 Multiplicity           Mult            ....    1
 Number of Electrons    NEL             ....   70
 Basis Dimension        Dim             ....  339

ORBITAL ENERGIES
----------------

  NO   OCC          E(Eh)            E(eV)
   0   2.0000     -20.602400      -560.6198
   1   2.0000     -20.503374      -557.9252
   2   2.0000     -15.568872      -423.6505
   3   2.0000     -15.550444      -423.1491
   4   2.0000     -11.352909      -308.9284
   5   2.0000     -11.339560      -308.5651
   6   2.0000     -11.287951      -307.1608
   7   2.0000     -11.268461      -306.6304
   8   2.0000     -11.248418      -306.0850
   9   2.0000      -1.437922       -39.1279
  10   2.0000      -1.368931       -37.2505
  11   2.0000      -1.235810       -33.6281
  12   2.0000      -1.196435       -32.5567
  13   2.0000      -1.036524       -28.2052
  14   2.0000      -0.974142       -26.5077
  15   2.0000      -0.949402       -25.8345
  16   2.0000      -0.795311       -21.6415
  17   2.0000      -0.762465       -20.7477
  18   2.0000      -0.729897       -19.8615
  19   2.0000      -0.694460       -18.8972
  20   2.0000      -0.677629       -18.4392
  21   2.0000      -0.670727       -18.2514
  22   2.0000      -0.633960       -17.2509
  23   2.0000      -0.630025       -17.1438
  24   2.0000      -0.590223       -16.0608
  25   2.0000      -0.589520       -16.0417
  26   2.0000      -0.572201       -15.5704
  27   2.0000      -0.561488       -15.2789
  28   2.0000      -0.529574       -14.4105
  29   2.0000      -0.527449       -14.3526
  30   2.0000      -0.506977       -13.7955
  31   2.0000      -0.438445       -11.9307
  32   2.0000      -0.409944       -11.1551
  33   2.0000      -0.405714       -11.0401
  34   2.0000      -0.390668       -10.6306
  35   0.0000       0.125032         3.4023
  36   0.0000       0.140544         3.8244
  37   0.0000       0.160551         4.3688
  38   0.0000       0.165685         4.5085
  39   0.0000       0.177559         4.8316

MULLIKEN ATOMIC CHARGES
-----------------------
   0 C :   -0.215520
   1 O :   -0.260945
   2 C :    0.241639
   3 C :   -0.401990
   4 N :   -0.329738
   5 C :   -0.116333
   6 C :    0.247405
   7 N :   -0.465348
   8 O :   -0.368874
   9 H :    0.132227
  10 H :    0.149182
  11 H :    0.132215
  12 H :    0.162622
  13 H :    0.150306
  14 H :    0.150414
  15 H :    0.133005
  16 H :    0.133074
  17 H :    0.275131
  18 H :    0.251528
Sum of atomic charges:    0.0000000

LOEWDIN ATOMIC CHARGES
----------------------
   0 C :   -0.323494
   1 O :    0.231904
   2 C :   -0.401153
   3 C :   -0.269507
   4 N :    0.070348
   5 C :   -0.260612
   6 C :   -0.490524
   7 N :   -0.008605
   8 O :    0.066405
   9 H :    0.110119
  10 H :    0.114728
  11 H :    0.110117
  12 H :    0.136963
  13 H :    0.139229
  14 H :    0.139285
  15 H :    0.146160
  16 H :    0.146148
  17 H :    0.171918
  18 H :    0.170571

  Mayer bond orders larger than 0.1
B(  0-C ,  1-O ) :   0.8507 B(  0-C ,  9-H ) :   0.9352 B(  0-C , 10-H ) :   0.9341
B(  0-C , 11-H ) :   0.9352 B(  1-O ,  2-C ) :   1.1240 B(  2-C ,  3-C ) :   0.9231
B(  2-C ,  4-N ) :   1.7591 B(  3-C , 12-H ) :   0.9311 B(  3-C , 13-H ) :   0.9219
B(  3-C , 14-H ) :   0.9219 B(  4-N ,  5-C ) :   0.8473 B(  5-C ,  6-C ) :   0.9182
B(  5-C , 15-H ) :   0.9076 B(  5-C , 16-H ) :   0.9077 B(  6-C ,  7-N ) :   1.1950
B(  6-C ,  8-O ) :   1.9854 B(  7-N , 17-H ) :   0.8448 B(  7-N , 18-H ) :   0.8626

MP2 TOTAL ENERGY:     -455.647977136 Eh
FINAL SINGLE POINT ENERGY      -455.647977136309

DIPOLE MOMENT
-------------
                                X             Y             Z
Electronic contribution:      3.47680       0.01391       3.35173
Nuclear contribution   :     -4.49596       0.71458      -4.30371
                        -----------------------------------------
Total Dipole Moment    :     -1.01916       0.72849      -0.95198
                        -----------------------------------------
Magnitude (a.u.)       :      1.57342
Magnitude (Debye)      :      3.99932

                             ****ORCA TERMINATED NORMALLY****
TOTAL RUN TIME: 0 days 0 hours 14 minutes 20 seconds 147 msec
