                         Program Version 3.0.3 - RELEASE   -
|  1> ! RI-MP2 RIJK def2-TZVP def2-TZVP/C def2-TZVP/JK TIGHTSCF
|  2> % maxcore 2000
|  3> % mp2 density relaxed end
|  4> *xyz 0 1
|  5>  C       -0.2995073025     1.2908523059    -0.3215880371
|  6>  C       -0.1413785862    -0.1767733186    -0.7053293346
|  7>  N        1.2253358302    -0.6339796340    -0.4402643991
|  8>  C        1.4694171076    -2.0052996813    -0.8305423992
|  9>  C        1.5601191707    -2.2302498146    -2.3404579410
| 10>  O        1.6988972847    -1.3543670700    -3.1580204141
| 11>  O        1.5048738775    -3.5405609977    -2.6431013080
| 12>  C        1.6428493253    -3.8596012884    -4.0346909276
| 13>  H       -0.0314331959     1.4473630433     0.7272937457
| 14>  H        0.3473827947     1.9278460992    -0.9356215342
| 15>  H       -1.3307821037     1.6228824452    -0.4736586084
| 16>  H       -0.8184507918    -0.7923765285    -0.0983081444
| 17>  H       -0.4392303634    -0.3166882862    -1.7582073846
| 18>  H        1.8691765412    -0.0379543671    -0.9535620372
| 19>  H        2.4190825391    -2.3552830917    -0.4032481355
| 20>  H        0.6940235434    -2.6601433453    -0.4195988348
| 21>  H        0.8441958129    -3.3933401455    -4.6169816701
| 22>  H        2.6052828570    -3.5097759694    -4.4166773596
| 23>  H        1.5783454791    -4.9457682254    -4.0988715462
| 24> *
| 25>
| 26>                          ****END OF INPUT****

CARTESIAN COORDINATES (ANGSTROEM)
---------------------------------
  C     -0.299507    1.290852   -0.321588
  C     -0.141379   -0.176773   -0.705329
  N      1.225336   -0.633980   -0.440264
  C      1.469417   -2.005300   -0.830542
  C      1.560119   -2.230250   -2.340458
  O      1.698897   -1.354367   -3.158020
  O      1.504874   -3.540561   -2.643101
  C      1.642849   -3.859601   -4.034691
  H     -0.031433    1.447363    0.727294
  H      0.347383    1.927846   -0.935622
  H     -1.330782    1.622882   -0.473659
  H     -0.818451   -0.792377   -0.098308
  H     -0.439230   -0.316688   -1.758207
  H      1.869177   -0.037954   -0.953562
  H      2.419083   -2.355283   -0.403248
  H      0.694024   -2.660143   -0.419599
  H      0.844196   -3.393340   -4.616982
  H      2.605283   -3.509776   -4.416677
  H      1.578345   -4.945768   -4.098872

 Total Charge           Charge          ....    0
 Multiplicity           Mult            ....    1
 Number of Electrons    NEL             ....   64
 Basis Dimension        Dim             ....  314

ORBITAL ENERGIES
----------------

  NO   OCC          E(Eh)            E(eV)
   0   2.0000     -20.606151      -560.7219
   1   2.0000     -20.545599      -559.0742
   2   2.0000     -15.545035      -423.0019
   3   2.0000     -11.377032      -309.5848
   4   2.0000     -11.288480      -307.1752
   5   2.0000     -11.269283      -306.6528
   6   2.0000     -11.246595      -306.0354
   7   2.0000     -11.211583      -305.0827
   8   2.0000      -1.463240       -39.8168
   9   2.0000      -1.362970       -37.0883
  10   2.0000      -1.212760       -33.0009
  11   2.0000      -1.028774       -27.9944
  12   2.0000      -0.984748       -26.7963
  13   2.0000      -0.913659       -24.8619
  14   2.0000      -0.827388       -22.5144
  15   2.0000      -0.777219       -21.1492
  16   2.0000      -0.716184       -19.4884
  17   2.0000      -0.682619       -18.5750
  18   2.0000      -0.680190       -18.5089
  19   2.0000      -0.644405       -17.5351
  20   2.0000      -0.620128       -16.8745
  21   2.0000      -0.607951       -16.5432
  22   2.0000      -0.587627       -15.9901
  23   2.0000      -0.557838       -15.1795
  24   2.0000      -0.533675       -14.5220
  25   2.0000      -0.529548       -14.4097
  26   2.0000      -0.508337       -13.8326
  27   2.0000      -0.494599       -13.4587
  28   2.0000      -0.491707       -13.3800
  29   2.0000      -0.467135       -12.7114
  30   2.0000      -0.458076       -12.4649
  31   2.0000      -0.378565       -10.3013
  32   0.0000       0.138914         3.7800
  33   0.0000       0.154203         4.1961
  34   0.0000       0.164328         4.4716
  35   0.0000       0.165580         4.5057
  36   0.0000       0.183560         4.9949

MULLIKEN ATOMIC CHARGES
-----------------------
   0 C :   -0.384538
   1 C :   -0.127325
   2 N :   -0.324019
   3 C :   -0.144417
   4 C :    0.286046
   5 O :   -0.344482
   6 O :   -0.258531
   7 C :   -0.218102
   8 H :    0.130597
   9 H :    0.123232
  10 H :    0.125968
  11 H :    0.103996
  12 H :    0.106277
  13 H :    0.205537
  14 H :    0.152186
  15 H :    0.141778
  16 H :    0.140569
  17 H :    0.139958
  18 H :    0.145271
Sum of atomic charges:   -0.0000000

LOEWDIN ATOMIC CHARGES
----------------------
   0 C :   -0.321401
   1 C :   -0.336082
   2 N :   -0.019746
   3 C :   -0.291471
   4 C :   -0.492411
   5 O :    0.115981
   6 O :    0.226382
   7 C :   -0.309142
   8 H :    0.122714
   9 H :    0.120583
  10 H :    0.122608
  11 H :    0.127458
  12 H :    0.118415
  13 H :    0.175299
  14 H :    0.150273
  15 H :    0.147701
  16 H :    0.114126
  17 H :    0.113853
  18 H :    0.114859

  Mayer bond orders larger than 0.1
B(  0-C ,  1-C ) :   0.9412 B(  0-C ,  8-H ) :   0.9366 B(  0-C ,  9-H ) :   0.9380
B(  0-C , 10-H ) :   0.9378 B(  1-C ,  2-N ) :   0.9425 B(  1-C , 11-H ) :   0.9227
B(  1-C , 12-H ) :   0.9192 B(  2-N ,  3-C ) :   0.9988 B(  2-N , 13-H ) :   0.8761
B(  3-C ,  4-C ) :   0.8998 B(  3-C , 14-H ) :   0.9095 B(  3-C , 15-H ) :   0.9347
B(  4-C ,  5-O ) :   1.9109 B(  4-C ,  6-O ) :   1.1283 B(  6-O ,  7-C ) :   0.8386
B(  7-C , 16-H ) :   0.9393 B(  7-C , 17-H ) :   0.9396 B(  7-C , 18-H ) :   0.9335

MP2 TOTAL ENERGY:     -401.572487250 Eh
FINAL SINGLE POINT ENERGY      -401.572487250013

DIPOLE MOMENT
-------------
                                X             Y             Z
Electronic contribution:      3.80996      -4.58059      -2.82501
Nuclear contribution   :     -3.91644       3.99390       2.58701
                        -----------------------------------------
Total Dipole Moment    :     -0.10648      -0.58669      -0.23800
                        -----------------------------------------
Magnitude (a.u.)       :      0.64202
Magnitude (Debye)      :      1.63188

                             ****ORCA TERMINATED NORMALLY****
TOTAL RUN TIME: 0 days 0 hours 11 minutes 19 seconds 271 msec
