                         Program Version 3.0.3 - RELEASE   -
|  1> ! RI-MP2 RIJK def2-TZVP def2-TZVP/C def2-TZVP/JK TIGHTSCF
|  2> % maxcore 2000
|  3> % mp2 density relaxed end
|  4> *xyz 0 1
|  5>  O       -0.2977349064     1.3949929013    -0.1844993178
|  6>  C       -0.0457604830    -0.0001275460    -0.1555404135
|  7>  C       -1.3888999741    -0.6966224431     0.0336025290
|  8>  C       -1.2619366624    -2.2038745906     0.1873194396
|  9>  O       -2.5214555699    -2.8263404585     0.3843680010
| 10>  C       -2.8929697843    -3.4701809262    -0.8153168842
| 11>  C       -1.6230090171    -3.5163188951    -1.6525124899
| 12>  O       -1.4245786115    -4.0630800297    -2.6942405309
| 13>  O       -0.6875623472    -2.7871493509    -0.9878900795
| 14>  H        0.5297659031     1.8459436827    -0.3756583957
| 15>  H        0.4236513260    -0.3478856533    -1.0866408012
| 16>  H        0.6311770893    -0.2675667105     0.6734319104
| 17>  H       -1.8747676014    -0.3070882226     0.9343895981
| 18>  H       -2.0436694840    -0.4727109751    -0.8159348875
| 19>  H       -0.6149354536    -2.4688855417     1.0322607614
| 20>  H       -3.2551943497    -4.4814387606    -0.6076832425
| 21>  H       -3.6758991039    -2.9245587802    -1.3603409366
| 22> *
| 23>
| 24>                          ****END OF INPUT****

CARTESIAN COORDINATES (ANGSTROEM)
---------------------------------
  O     -0.297735    1.394993   -0.184499
  C     -0.045760   -0.000128   -0.155540
  C     -1.388900   -0.696622    0.033603
  C     -1.261937   -2.203875    0.187319
  O     -2.521456   -2.826340    0.384368
  C     -2.892970   -3.470181   -0.815317
  C     -1.623009   -3.516319   -1.652512
  O     -1.424579   -4.063080   -2.694241
  O     -0.687562   -2.787149   -0.987890
  H      0.529766    1.845944   -0.375658
  H      0.423651   -0.347886   -1.086641
  H      0.631177   -0.267567    0.673432
  H     -1.874768   -0.307088    0.934390
  H     -2.043669   -0.472711   -0.815935
  H     -0.614935   -2.468886    1.032261
  H     -3.255194   -4.481439   -0.607683
  H     -3.675899   -2.924559   -1.360341

 Total Charge           Charge          ....    0
 Multiplicity           Mult            ....    1
 Number of Electrons    NEL             ....   70
 Basis Dimension        Dim             ....  327

ORBITAL ENERGIES
----------------

  NO   OCC          E(Eh)            E(eV)
   0   2.0000     -20.620531      -561.1132
   1   2.0000     -20.595700      -560.4375
   2   2.0000     -20.567313      -559.6650
   3   2.0000     -20.558155      -559.4158
   4   2.0000     -11.395819      -310.0960
   5   2.0000     -11.368066      -309.3408
   6   2.0000     -11.317377      -307.9615
   7   2.0000     -11.290472      -307.2294
   8   2.0000     -11.240785      -305.8773
   9   2.0000      -1.500780       -40.8383
  10   2.0000      -1.414615       -38.4936
  11   2.0000      -1.372074       -37.3360
  12   2.0000      -1.367731       -37.2179
  13   2.0000      -1.084514       -29.5111
  14   2.0000      -1.007192       -27.4071
  15   2.0000      -0.910269       -24.7697
  16   2.0000      -0.852732       -23.2040
  17   2.0000      -0.819870       -22.3098
  18   2.0000      -0.743047       -20.2193
  19   2.0000      -0.727422       -19.7942
  20   2.0000      -0.694024       -18.8854
  21   2.0000      -0.676942       -18.4205
  22   2.0000      -0.655983       -17.8502
  23   2.0000      -0.632481       -17.2107
  24   2.0000      -0.620813       -16.8932
  25   2.0000      -0.606815       -16.5123
  26   2.0000      -0.581734       -15.8298
  27   2.0000      -0.577111       -15.7040
  28   2.0000      -0.561473       -15.2785
  29   2.0000      -0.537234       -14.6189
  30   2.0000      -0.504950       -13.7404
  31   2.0000      -0.480207       -13.0671
  32   2.0000      -0.458272       -12.4702
  33   2.0000      -0.455852       -12.4044
  34   2.0000      -0.447519       -12.1776
  35   0.0000       0.128740         3.5032
  36   0.0000       0.135186         3.6786
  37   0.0000       0.153128         4.1668
  38   0.0000       0.156569         4.2604
  39   0.0000       0.176187         4.7943

MULLIKEN ATOMIC CHARGES
-----------------------
   0 O :   -0.461635
   1 C :   -0.087332
   2 C :   -0.170840
   3 C :    0.199182
   4 O :   -0.318304
   5 C :   -0.061742
   6 C :    0.233330
   7 O :   -0.275283
   8 O :   -0.234050
   9 H :    0.319361
  10 H :    0.121246
  11 H :    0.092994
  12 H :    0.130785
  13 H :    0.115898
  14 H :    0.120532
  15 H :    0.145803
  16 H :    0.130054
Sum of atomic charges:   -0.0000000

LOEWDIN ATOMIC CHARGES
----------------------
   0 O :   -0.047298
   1 C :   -0.348283
   2 C :   -0.249085
   3 C :   -0.348005
   4 O :    0.179786
   5 C :   -0.277236
   6 C :   -0.470621
   7 O :    0.149748
   8 O :    0.276766
   9 H :    0.174777
  10 H :    0.120726
  11 H :    0.116446
  12 H :    0.152530
  13 H :    0.147276
  14 H :    0.138916
  15 H :    0.143796
  16 H :    0.139764

  Mayer bond orders larger than 0.1
B(  0-O ,  1-C ) :   1.0134 B(  0-O ,  9-H ) :   0.8466 B(  1-C ,  2-C ) :   0.9262
B(  1-C , 10-H ) :   0.9271 B(  1-C , 11-H ) :   0.9291 B(  2-C ,  3-C ) :   0.9480
B(  2-C , 12-H ) :   0.9212 B(  2-C , 13-H ) :   0.8986 B(  3-C ,  4-O ) :   0.9138
B(  3-C ,  8-O ) :   0.8787 B(  3-C , 14-H ) :   0.9282 B(  4-O ,  5-C ) :   0.9453
B(  5-C ,  6-C ) :   0.9367 B(  5-C , 15-H ) :   0.9119 B(  5-C , 16-H ) :   0.9046
B(  6-C ,  7-O ) :   2.0451 B(  6-C ,  8-O ) :   1.0860

MP2 TOTAL ENERGY:     -495.369668308 Eh
FINAL SINGLE POINT ENERGY      -495.369668307630

DIPOLE MOMENT
-------------
                                X             Y             Z
Electronic contribution:     -0.53407      -5.52056      -2.68125
Nuclear contribution   :      0.70586       5.96589       3.37650
                        -----------------------------------------
Total Dipole Moment    :      0.17180       0.44533       0.69525
                        -----------------------------------------
Magnitude (a.u.)       :      0.84333
Magnitude (Debye)      :      2.14358

                             ****ORCA TERMINATED NORMALLY****
TOTAL RUN TIME: 0 days 0 hours 13 minutes 37 seconds 227 msec
