                         Program Version 3.0.3 - RELEASE   -
|  1> ! RI-MP2 RIJK def2-TZVP def2-TZVP/C def2-TZVP/JK TIGHTSCF
|  2> % maxcore 2000
|  3> % mp2 density relaxed end
|  4> *xyz 0 1
|  5>  C       -0.0476741502     1.3597699455    -0.1729177003
|  6>  O       -0.1113237577    -0.0634281773    -0.0856605975
|  7>  C       -1.3886791931    -0.5957450356     0.0886987723
|  8>  O       -2.2695865883    -0.2689820945    -0.9704180530
|  9>  C       -2.6103305966    -1.4428797835    -1.7134253357
| 10>  C       -1.9699854230    -2.5730039897    -0.9655727176
| 11>  C       -1.2916823728    -2.1045568294     0.0723280557
| 12>  C       -1.9937218888    -0.0806707869     1.3560769358
| 13>  N       -2.4441933177     0.2884645477     2.3537880409
| 14>  H        1.0055350233     1.6059367593    -0.3141044005
| 15>  H       -0.6308469641     1.7264954877    -1.0233853929
| 16>  H       -0.4110681425     1.8315869103     0.7484190092
| 17>  H       -3.7039884928    -1.5263631266    -1.7582857031
| 18>  H       -2.2377564796    -1.3584449449    -2.7439395711
| 19>  H       -2.0595413640    -3.6081882322    -1.2681776279
| 20>  H       -0.7110081622    -2.6448363798     0.8053687757
| 21> *
| 22>
| 23>                          ****END OF INPUT****

CARTESIAN COORDINATES (ANGSTROEM)
---------------------------------
  C     -0.047674    1.359770   -0.172918
  O     -0.111324   -0.063428   -0.085661
  C     -1.388679   -0.595745    0.088699
  O     -2.269587   -0.268982   -0.970418
  C     -2.610331   -1.442880   -1.713425
  C     -1.969985   -2.573004   -0.965573
  C     -1.291682   -2.104557    0.072328
  C     -1.993722   -0.080671    1.356077
  N     -2.444193    0.288465    2.353788
  H      1.005535    1.605937   -0.314104
  H     -0.630847    1.726495   -1.023385
  H     -0.411068    1.831587    0.748419
  H     -3.703988   -1.526363   -1.758286
  H     -2.237756   -1.358445   -2.743940
  H     -2.059541   -3.608188   -1.268178
  H     -0.711008   -2.644836    0.805369

 Total Charge           Charge          ....    0
 Multiplicity           Mult            ....    1
 Number of Electrons    NEL             ....   66
 Basis Dimension        Dim             ....  321

ORBITAL ENERGIES
----------------

  NO   OCC          E(Eh)            E(eV)
   0   2.0000     -20.590382      -560.2928
   1   2.0000     -20.587671      -560.2190
   2   2.0000     -15.578609      -423.9155
   3   2.0000     -11.401550      -310.2520
   4   2.0000     -11.307980      -307.7058
   5   2.0000     -11.282006      -306.9990
   6   2.0000     -11.274719      -306.8007
   7   2.0000     -11.265750      -306.5566
   8   2.0000     -11.259406      -306.3840
   9   2.0000      -1.453515       -39.5521
  10   2.0000      -1.379463       -37.5371
  11   2.0000      -1.221564       -33.2405
  12   2.0000      -1.107912       -30.1478
  13   2.0000      -1.038569       -28.2609
  14   2.0000      -0.941089       -25.6083
  15   2.0000      -0.876985       -23.8640
  16   2.0000      -0.812270       -22.1030
  17   2.0000      -0.758140       -20.6300
  18   2.0000      -0.728740       -19.8300
  19   2.0000      -0.671789       -18.2803
  20   2.0000      -0.652088       -17.7442
  21   2.0000      -0.644909       -17.5489
  22   2.0000      -0.617774       -16.8105
  23   2.0000      -0.591220       -16.0879
  24   2.0000      -0.568674       -15.4744
  25   2.0000      -0.543014       -14.7762
  26   2.0000      -0.541989       -14.7483
  27   2.0000      -0.522035       -14.2053
  28   2.0000      -0.482499       -13.1295
  29   2.0000      -0.475000       -12.9254
  30   2.0000      -0.471856       -12.8399
  31   2.0000      -0.459746       -12.5103
  32   2.0000      -0.396102       -10.7785
  33   0.0000       0.118540         3.2256
  34   0.0000       0.138049         3.7565
  35   0.0000       0.161146         4.3850
  36   0.0000       0.168542         4.5863
  37   0.0000       0.173838         4.7304

MULLIKEN ATOMIC CHARGES
-----------------------
   0 C :   -0.241079
   1 O :   -0.279875
   2 C :    0.507587
   3 O :   -0.324855
   4 C :    0.002430
   5 C :   -0.176936
   6 C :   -0.184812
   7 C :   -0.236767
   8 N :   -0.054683
   9 H :    0.146676
  10 H :    0.142910
  11 H :    0.134456
  12 H :    0.131138
  13 H :    0.121911
  14 H :    0.152079
  15 H :    0.159820
Sum of atomic charges:    0.0000000

LOEWDIN ATOMIC CHARGES
----------------------
   0 C :   -0.326306
   1 O :    0.203153
   2 C :   -0.442111
   3 O :    0.218824
   4 C :   -0.265057
   5 C :   -0.136880
   6 C :   -0.097991
   7 C :   -0.138355
   8 N :    0.074544
   9 H :    0.116816
  10 H :    0.110659
  11 H :    0.113169
  12 H :    0.135880
  13 H :    0.134334
  14 H :    0.147257
  15 H :    0.152064

  Mayer bond orders larger than 0.1
B(  0-C ,  1-O ) :   0.8719 B(  0-C ,  9-H ) :   0.9362 B(  0-C , 10-H ) :   0.9375
B(  0-C , 11-H ) :   0.9254 B(  1-O ,  2-C ) :   1.0561 B(  2-C ,  3-O ) :   0.9540
B(  2-C ,  6-C ) :   0.9122 B(  2-C ,  7-C ) :   0.8650 B(  3-O ,  4-C ) :   0.9208
B(  4-C ,  5-C ) :   0.9853 B(  4-C , 12-H ) :   0.9105 B(  4-C , 13-H ) :   0.9140
B(  5-C ,  6-C ) :   1.7969 B(  5-C , 14-H ) :   0.9130 B(  6-C , 15-H ) :   0.9088
B(  7-C ,  8-N ) :   2.8543

MP2 TOTAL ENERGY:     -437.159413419 Eh
FINAL SINGLE POINT ENERGY      -437.159413419409

DIPOLE MOMENT
-------------
                                X             Y             Z
Electronic contribution:     -1.61232      -0.76403       3.62469
Nuclear contribution   :      1.92051      -0.00688      -4.92014
                        -----------------------------------------
Total Dipole Moment    :      0.30819      -0.77092      -1.29545
                        -----------------------------------------
Magnitude (a.u.)       :      1.53866
Magnitude (Debye)      :      3.91096

                             ****ORCA TERMINATED NORMALLY****
TOTAL RUN TIME: 0 days 0 hours 15 minutes 44 seconds 359 msec
