                         Program Version 3.0.3 - RELEASE   -
|  1> ! RI-MP2 RIJK def2-TZVP def2-TZVP/C def2-TZVP/JK TIGHTSCF
|  2> % maxcore 2000
|  3> % mp2 density relaxed end
|  4> *xyz 0 1
|  5>  C       -0.0720052854     1.4165998178     0.0049637069
|  6>  O        0.0144284283     0.0136085757    -0.0032452223
|  7>  C       -1.2522262866    -0.6151153795     0.0244265750
|  8>  C       -1.0722205000    -2.1452395277     0.0377342731
|  9>  C       -0.3375468481    -2.5713431315    -1.2469621108
| 10>  C       -0.2464040754    -2.5445572220     1.2743152984
| 11>  C       -2.5001120654    -2.7659590892     0.0740112353
| 12>  C       -2.5483394673    -4.2924405234    -0.0192026027
| 13>  O       -3.2445268737    -2.3159430907     1.2080327263
| 14>  H        0.9478296091     1.8097638277    -0.0073528846
| 15>  H       -0.6105432175     1.7990832539    -0.8771008333
| 16>  H       -0.5868267223     1.7895403365     0.9047698762
| 17>  H       -1.8192900527    -0.2992425021     0.9115138591
| 18>  H       -1.8385548714    -0.3174892786    -0.8631731391
| 19>  H        0.5690396937    -1.9746581790    -1.3704297996
| 20>  H       -0.0500246001    -3.6261580078    -1.2200285547
| 21>  H       -0.9651592689    -2.4142331919    -2.1323971330
| 22>  H       -0.7580592925    -2.2692331334     2.2035121127
| 23>  H       -0.0434174025    -3.6196078001     1.2983672096
| 24>  H        0.7110598699    -2.0195620142     1.2664865663
| 25>  H       -3.0506735242    -2.3552837110    -0.7828574212
| 26>  H       -2.0096647176    -4.7635120809     0.8112150010
| 27>  H       -3.5901682050    -4.6213213433     0.0255623513
| 28>  H       -2.1128894683    -4.6599685299    -0.9516329395
| 29>  H       -2.9196126461    -2.7928497655     1.9788449899
| 30> *
| 31>
| 32>                          ****END OF INPUT****

CARTESIAN COORDINATES (ANGSTROEM)
---------------------------------
  C     -0.072005    1.416600    0.004964
  O      0.014428    0.013609   -0.003245
  C     -1.252226   -0.615115    0.024427
  C     -1.072221   -2.145240    0.037734
  C     -0.337547   -2.571343   -1.246962
  C     -0.246404   -2.544557    1.274315
  C     -2.500112   -2.765959    0.074011
  C     -2.548339   -4.292441   -0.019203
  O     -3.244527   -2.315943    1.208033
  H      0.947830    1.809764   -0.007353
  H     -0.610543    1.799083   -0.877101
  H     -0.586827    1.789540    0.904770
  H     -1.819290   -0.299243    0.911514
  H     -1.838555   -0.317489   -0.863173
  H      0.569040   -1.974658   -1.370430
  H     -0.050025   -3.626158   -1.220029
  H     -0.965159   -2.414233   -2.132397
  H     -0.758059   -2.269233    2.203512
  H     -0.043417   -3.619608    1.298367
  H      0.711060   -2.019562    1.266487
  H     -3.050674   -2.355284   -0.782857
  H     -2.009665   -4.763512    0.811215
  H     -3.590168   -4.621321    0.025562
  H     -2.112889   -4.659969   -0.951633
  H     -2.919613   -2.792850    1.978845

 Total Charge           Charge          ....    0
 Multiplicity           Mult            ....    1
 Number of Electrons    NEL             ....   74
 Basis Dimension        Dim             ....  375

ORBITAL ENERGIES
----------------

  NO   OCC          E(Eh)            E(eV)
   0   2.0000     -20.551085      -559.2234
   1   2.0000     -20.549911      -559.1915
   2   2.0000     -11.278325      -306.8988
   3   2.0000     -11.267511      -306.6046
   4   2.0000     -11.263820      -306.5041
   5   2.0000     -11.233098      -305.6681
   6   2.0000     -11.217236      -305.2365
   7   2.0000     -11.209055      -305.0139
   8   2.0000     -11.208080      -304.9874
   9   2.0000      -1.372279       -37.3416
  10   2.0000      -1.357854       -36.9491
  11   2.0000      -1.097137       -29.8546
  12   2.0000      -0.996450       -27.1148
  13   2.0000      -0.947412       -25.7804
  14   2.0000      -0.929393       -25.2901
  15   2.0000      -0.892582       -24.2884
  16   2.0000      -0.839179       -22.8352
  17   2.0000      -0.745908       -20.2972
  18   2.0000      -0.677438       -18.4340
  19   2.0000      -0.663638       -18.0585
  20   2.0000      -0.651007       -17.7148
  21   2.0000      -0.631332       -17.1794
  22   2.0000      -0.623127       -16.9562
  23   2.0000      -0.598755       -16.2930
  24   2.0000      -0.578637       -15.7455
  25   2.0000      -0.573816       -15.6143
  26   2.0000      -0.540701       -14.7132
  27   2.0000      -0.533882       -14.5277
  28   2.0000      -0.528413       -14.3788
  29   2.0000      -0.522204       -14.2099
  30   2.0000      -0.511484       -13.9182
  31   2.0000      -0.487531       -13.2664
  32   2.0000      -0.481962       -13.1149
  33   2.0000      -0.464429       -12.6378
  34   2.0000      -0.442421       -12.0389
  35   2.0000      -0.422478       -11.4962
  36   2.0000      -0.414999       -11.2927
  37   0.0000       0.129712         3.5296
  38   0.0000       0.152873         4.1599
  39   0.0000       0.163775         4.4566
  40   0.0000       0.176894         4.8135
  41   0.0000       0.185462         5.0467

MULLIKEN ATOMIC CHARGES
-----------------------
   0 C :   -0.218253
   1 O :   -0.313394
   2 C :   -0.051727
   3 C :    0.148693
   4 C :   -0.470370
   5 C :   -0.504165
   6 C :    0.086089
   7 C :   -0.430722
   8 O :   -0.472597
   9 H :    0.136497
  10 H :    0.109778
  11 H :    0.111025
  12 H :    0.120092
  13 H :    0.089331
  14 H :    0.159530
  15 H :    0.134891
  16 H :    0.126023
  17 H :    0.117443
  18 H :    0.135781
  19 H :    0.160847
  20 H :    0.097239
  21 H :    0.124775
  22 H :    0.151585
  23 H :    0.139040
  24 H :    0.312568
Sum of atomic charges:   -0.0000000

LOEWDIN ATOMIC CHARGES
----------------------
   0 C :   -0.363980
   1 O :    0.137981
   2 C :   -0.286793
   3 C :   -0.317374
   4 C :   -0.269255
   5 C :   -0.276068
   6 C :   -0.328041
   7 C :   -0.301250
   8 O :   -0.018982
   9 H :    0.112229
  10 H :    0.101276
  11 H :    0.101786
  12 H :    0.128513
  13 H :    0.124163
  14 H :    0.132279
  15 H :    0.122932
  16 H :    0.126052
  17 H :    0.121198
  18 H :    0.122298
  19 H :    0.134234
  20 H :    0.148298
  21 H :    0.121717
  22 H :    0.127895
  23 H :    0.127681
  24 H :    0.171212

  Mayer bond orders larger than 0.1
B(  0-C ,  1-O ) :   0.9247 B(  0-C ,  9-H ) :   0.9401 B(  0-C , 10-H ) :   0.9370
B(  0-C , 11-H ) :   0.9365 B(  1-O ,  2-C ) :   0.9305 B(  2-C ,  3-C ) :   0.9194
B(  2-C , 12-H ) :   0.9196 B(  2-C , 13-H ) :   0.9196 B(  3-C ,  4-C ) :   0.8922
B(  3-C ,  5-C ) :   0.8815 B(  3-C ,  6-C ) :   0.8834 B(  4-C , 14-H ) :   0.9298
B(  4-C , 15-H ) :   0.9377 B(  4-C , 16-H ) :   0.9323 B(  5-C , 17-H ) :   0.9377
B(  5-C , 18-H ) :   0.9369 B(  5-C , 19-H ) :   0.9309 B(  6-C ,  7-C ) :   0.9281
B(  6-C ,  8-O ) :   0.9100 B(  6-C , 20-H ) :   0.9199 B(  7-C , 21-H ) :   0.9245
B(  7-C , 22-H ) :   0.9437 B(  7-C , 23-H ) :   0.9348 B(  8-O , 24-H ) :   0.8441

MP2 TOTAL ENERGY:     -425.923547199 Eh
FINAL SINGLE POINT ENERGY      -425.923547198725

DIPOLE MOMENT
-------------
                                X             Y             Z
Electronic contribution:     -1.76486       2.19285       1.40625
Nuclear contribution   :      1.87514      -2.35214      -1.39476
                        -----------------------------------------
Total Dipole Moment    :      0.11027      -0.15929       0.01149
                        -----------------------------------------
Magnitude (a.u.)       :      0.19408
Magnitude (Debye)      :      0.49330

                             ****ORCA TERMINATED NORMALLY****
TOTAL RUN TIME: 0 days 0 hours 20 minutes 48 seconds 831 msec
