                         Program Version 3.0.3 - RELEASE   -
|  1> ! RI-MP2 RIJK def2-TZVP def2-TZVP/C def2-TZVP/JK TIGHTSCF
|  2> % maxcore 2000
|  3> % mp2 density relaxed end
|  4> *xyz 0 1
|  5>  C       -0.0885664243    -1.2159289636    -0.2260022292
|  6>  C       -0.0313347874    -0.0247795645    -0.0667143746
|  7>  C        0.0469603875     1.4084047327     0.0861960418
|  8>  C       -0.4180794382     2.2745103913    -1.1263863620
|  9>  N        0.7857667981     3.1450694713    -1.0097037507
| 10>  C        1.3542549229     2.2909271865     0.0594228207
| 11>  C        0.9535024970     2.8029019437     1.4574875650
| 12>  N       -0.2537614211     1.9281401779     1.4423191958
| 13>  H       -0.1401816845    -2.2693399159    -0.3493814447
| 14>  H       -0.4700913139     1.6964450996    -2.0551502346
| 15>  H       -1.3681222674     2.8044675687    -0.9869022708
| 16>  H        1.3460257383     3.1396686556    -1.8532443151
| 17>  H        2.3588358600     1.8985141642    -0.1007154932
| 18>  H        1.6330120766     2.5381518532     2.2756366317
| 19>  H        0.7665260292     3.8810992118     1.4715756312
| 20>  H       -1.1458107527     2.4048703875     1.5224649986
| 21> *
| 22>
| 23>                          ****END OF INPUT****

CARTESIAN COORDINATES (ANGSTROEM)
---------------------------------
  C     -0.088566   -1.215929   -0.226002
  C     -0.031335   -0.024780   -0.066714
  C      0.046960    1.408405    0.086196
  C     -0.418079    2.274510   -1.126386
  N      0.785767    3.145069   -1.009704
  C      1.354255    2.290927    0.059423
  C      0.953502    2.802902    1.457488
  N     -0.253761    1.928140    1.442319
  H     -0.140182   -2.269340   -0.349381
  H     -0.470091    1.696445   -2.055150
  H     -1.368122    2.804468   -0.986902
  H      1.346026    3.139669   -1.853244
  H      2.358836    1.898514   -0.100715
  H      1.633012    2.538152    2.275637
  H      0.766526    3.881099    1.471576
  H     -1.145811    2.404870    1.522465

 Total Charge           Charge          ....    0
 Multiplicity           Mult            ....    1
 Number of Electrons    NEL             ....   58
 Basis Dimension        Dim             ....  296

ORBITAL ENERGIES
----------------

  NO   OCC          E(Eh)            E(eV)
   0   2.0000     -15.550519      -423.1511
   1   2.0000     -15.548758      -423.1032
   2   2.0000     -11.286769      -307.1286
   3   2.0000     -11.269723      -306.6648
   4   2.0000     -11.263974      -306.5083
   5   2.0000     -11.251021      -306.1559
   6   2.0000     -11.231904      -305.6357
   7   2.0000     -11.224239      -305.4271
   8   2.0000      -1.279935       -34.8288
   9   2.0000      -1.177028       -32.0286
  10   2.0000      -1.043029       -28.3822
  11   2.0000      -0.968568       -26.3561
  12   2.0000      -0.937103       -25.4999
  13   2.0000      -0.868050       -23.6208
  14   2.0000      -0.781783       -21.2734
  15   2.0000      -0.718192       -19.5430
  16   2.0000      -0.701248       -19.0819
  17   2.0000      -0.680204       -18.5093
  18   2.0000      -0.635437       -17.2911
  19   2.0000      -0.591675       -16.1003
  20   2.0000      -0.562497       -15.3063
  21   2.0000      -0.534855       -14.5542
  22   2.0000      -0.531578       -14.4650
  23   2.0000      -0.503437       -13.6992
  24   2.0000      -0.464848       -12.6492
  25   2.0000      -0.403006       -10.9663
  26   2.0000      -0.382248       -10.4015
  27   2.0000      -0.376799       -10.2532
  28   2.0000      -0.363064        -9.8795
  29   0.0000       0.137386         3.7385
  30   0.0000       0.138931         3.7805
  31   0.0000       0.161846         4.4040
  32   0.0000       0.164531         4.4771
  33   0.0000       0.174116         4.7379

MULLIKEN ATOMIC CHARGES
-----------------------
   0 C :   -0.110010
   1 C :    0.017750
   2 C :   -0.146467
   3 C :   -0.135063
   4 N :   -0.345134
   5 C :   -0.005119
   6 C :   -0.153257
   7 N :   -0.303322
   8 H :    0.192495
   9 H :    0.126141
  10 H :    0.095850
  11 H :    0.209215
  12 H :    0.130407
  13 H :    0.103825
  14 H :    0.117147
  15 H :    0.205542
Sum of atomic charges:   -0.0000000

LOEWDIN ATOMIC CHARGES
----------------------
   0 C :   -0.085697
   1 C :   -0.072107
   2 C :   -0.266045
   3 C :   -0.214693
   4 N :   -0.017039
   5 C :   -0.198942
   6 C :   -0.246747
   7 N :    0.031991
   8 H :    0.127076
   9 H :    0.127592
  10 H :    0.121357
  11 H :    0.160520
  12 H :    0.129965
  13 H :    0.121200
  14 H :    0.122888
  15 H :    0.158681

  Mayer bond orders larger than 0.1
B(  0-C ,  1-C ) :   2.5979 B(  0-C ,  2-C ) :  -0.1691 B(  0-C ,  8-H ) :   0.8837
B(  1-C ,  2-C ) :   1.1814 B(  2-C ,  3-C ) :   0.9453 B(  2-C ,  5-C ) :   0.8661
B(  2-C ,  7-N ) :   1.0544 B(  3-C ,  4-N ) :   0.9680 B(  3-C ,  9-H ) :   0.9129
B(  3-C , 10-H ) :   0.9005 B(  4-N ,  5-C ) :   1.0178 B(  4-N , 11-H ) :   0.8766
B(  5-C ,  6-C ) :   0.8729 B(  5-C , 12-H ) :   0.9035 B(  6-C ,  7-N ) :   0.9814
B(  6-C , 13-H ) :   0.9187 B(  6-C , 14-H ) :   0.9142 B(  7-N , 15-H ) :   0.8694

MP2 TOTAL ENERGY:     -342.076195939 Eh
FINAL SINGLE POINT ENERGY      -342.076195938598

DIPOLE MOMENT
-------------
                                X             Y             Z
Electronic contribution:     -0.40346      -2.70696       0.10272
Nuclear contribution   :      0.55552       2.76916      -0.63813
                        -----------------------------------------
Total Dipole Moment    :      0.15207       0.06220      -0.53541
                        -----------------------------------------
Magnitude (a.u.)       :      0.56005
Magnitude (Debye)      :      1.42353

                             ****ORCA TERMINATED NORMALLY****
TOTAL RUN TIME: 0 days 0 hours 13 minutes 1 seconds 367 msec
