                         Program Version 3.0.3 - RELEASE   -
|  1> ! RI-MP2 RIJK def2-TZVP def2-TZVP/C def2-TZVP/JK TIGHTSCF
|  2> % maxcore 2000
|  3> % mp2 density relaxed end
|  4> *xyz 0 1
|  5>  C        0.0244020498     1.4340223942     0.0373085113
|  6>  N       -0.0279733530    -0.0149403086     0.0184906902
|  7>  C       -0.0086118409    -0.7913451817    -1.1100932610
|  8>  C       -0.0022602047    -2.1284332202    -0.7380494274
|  9>  N       -0.0693092337    -3.2382077978    -1.5934264908
| 10>  C       -0.0122366486    -2.1608852970     0.6744274643
| 11>  C       -0.0241464246    -0.8433484070     1.1185297581
| 12>  C       -0.0348282294    -0.3404200894     2.4354783636
| 13>  N       -0.0431282234     0.0852414483     3.5152104190
| 14>  H        1.0168106397     1.7987722344    -0.2489526240
| 15>  H       -0.7170063879     1.8441233399    -0.6538449352
| 16>  H       -0.2009049789     1.7867931541     1.0443847199
| 17>  H       -0.0086645316    -0.3385117119    -2.0890359730
| 18>  H        0.3272537234    -3.0604447892    -2.5067645423
| 19>  H        0.3643518080    -4.0616272190    -1.1973769059
| 20>  H       -0.0260113942    -3.0335350092     1.3084768932
| 21> *
| 22>
| 23>                          ****END OF INPUT****

CARTESIAN COORDINATES (ANGSTROEM)
---------------------------------
  C      0.024402    1.434022    0.037309
  N     -0.027973   -0.014940    0.018491
  C     -0.008612   -0.791345   -1.110093
  C     -0.002260   -2.128433   -0.738049
  N     -0.069309   -3.238208   -1.593426
  C     -0.012237   -2.160885    0.674427
  C     -0.024146   -0.843348    1.118530
  C     -0.034828   -0.340420    2.435478
  N     -0.043128    0.085241    3.515210
  H      1.016811    1.798772   -0.248953
  H     -0.717006    1.844123   -0.653845
  H     -0.200905    1.786793    1.044385
  H     -0.008665   -0.338512   -2.089036
  H      0.327254   -3.060445   -2.506765
  H      0.364352   -4.061627   -1.197377
  H     -0.026011   -3.033535    1.308477

 Total Charge           Charge          ....    0
 Multiplicity           Mult            ....    1
 Number of Electrons    NEL             ....   64
 Basis Dimension        Dim             ....  321

ORBITAL ENERGIES
----------------

  NO   OCC          E(Eh)            E(eV)
   0   2.0000     -15.632568      -425.3838
   1   2.0000     -15.572114      -423.7388
   2   2.0000     -15.568070      -423.6287
   3   2.0000     -11.296758      -307.4004
   4   2.0000     -11.284468      -307.0660
   5   2.0000     -11.277875      -306.8866
   6   2.0000     -11.272857      -306.7500
   7   2.0000     -11.265493      -306.5496
   8   2.0000     -11.239989      -305.8556
   9   2.0000      -1.329587       -36.1799
  10   2.0000      -1.217518       -33.1303
  11   2.0000      -1.212153       -32.9844
  12   2.0000      -1.084946       -29.5229
  13   2.0000      -1.019706       -27.7476
  14   2.0000      -0.948458       -25.8088
  15   2.0000      -0.846745       -23.0411
  16   2.0000      -0.795753       -21.6535
  17   2.0000      -0.745033       -20.2734
  18   2.0000      -0.683989       -18.6123
  19   2.0000      -0.656610       -17.8673
  20   2.0000      -0.648064       -17.6347
  21   2.0000      -0.627820       -17.0838
  22   2.0000      -0.602078       -16.3834
  23   2.0000      -0.568533       -15.4706
  24   2.0000      -0.561423       -15.2771
  25   2.0000      -0.559309       -15.2196
  26   2.0000      -0.547148       -14.8886
  27   2.0000      -0.504340       -13.7238
  28   2.0000      -0.469118       -12.7654
  29   2.0000      -0.464988       -12.6530
  30   2.0000      -0.341085        -9.2814
  31   2.0000      -0.297131        -8.0853
  32   0.0000       0.098844         2.6897
  33   0.0000       0.124442         3.3862
  34   0.0000       0.135561         3.6888
  35   0.0000       0.164536         4.4773
  36   0.0000       0.171826         4.6756

MULLIKEN ATOMIC CHARGES
-----------------------
   0 C :   -0.340827
   1 N :   -0.029516
   2 C :   -0.211572
   3 C :    0.206128
   4 N :   -0.517754
   5 C :   -0.327355
   6 C :    0.221958
   7 C :   -0.217272
   8 N :   -0.053476
   9 H :    0.155891
  10 H :    0.154209
  11 H :    0.175379
  12 H :    0.145893
  13 H :    0.244001
  14 H :    0.249797
  15 H :    0.144518
Sum of atomic charges:   -0.0000000

LOEWDIN ATOMIC CHARGES
----------------------
   0 C :   -0.258137
   1 N :    0.263819
   2 C :   -0.196723
   3 C :   -0.269848
   4 N :   -0.090411
   5 C :   -0.125694
   6 C :   -0.223022
   7 C :   -0.174605
   8 N :    0.063096
   9 H :    0.125351
  10 H :    0.127313
  11 H :    0.138038
  12 H :    0.137629
  13 H :    0.166961
  14 H :    0.169059
  15 H :    0.147174

  Mayer bond orders larger than 0.1
B(  0-C ,  1-N ) :   0.8583 B(  0-C ,  9-H ) :   0.9256 B(  0-C , 10-H ) :   0.9295
B(  0-C , 11-H ) :   0.9256 B(  1-N ,  2-C ) :   1.1519 B(  1-N ,  6-C ) :   1.1592
B(  2-C ,  3-C ) :   1.3937 B(  2-C , 12-H ) :   0.9140 B(  3-C ,  4-N ) :   1.0034
B(  3-C ,  5-C ) :   1.3322 B(  4-N , 13-H ) :   0.8796 B(  4-N , 14-H ) :   0.8794
B(  5-C ,  6-C ) :   1.3546 B(  5-C , 15-H ) :   0.9169 B(  6-C ,  7-C ) :   0.8948
B(  7-C ,  8-N ) :   2.8560

MP2 TOTAL ENERGY:     -396.281340758 Eh
FINAL SINGLE POINT ENERGY      -396.281340757996

DIPOLE MOMENT
-------------
                                X             Y             Z
Electronic contribution:     -0.32658      -1.05936       5.00806
Nuclear contribution   :      0.81146       1.07330      -6.88113
                        -----------------------------------------
Total Dipole Moment    :      0.48488       0.01394      -1.87306
                        -----------------------------------------
Magnitude (a.u.)       :      1.93486
Magnitude (Debye)      :      4.91802

                             ****ORCA TERMINATED NORMALLY****
TOTAL RUN TIME: 0 days 0 hours 16 minutes 22 seconds 515 msec
