                         Program Version 3.0.3 - RELEASE   -
|  1> ! RI-MP2 RIJK def2-TZVP def2-TZVP/C def2-TZVP/JK TIGHTSCF
|  2> % maxcore 2000
|  3> % mp2 density relaxed end
|  4> *xyz 0 1
|  5>  C       -0.0377499854     1.5325909302    -0.0052510037
|  6>  C        0.0364167369     0.0065128841     0.0231421832
|  7>  O        0.7831907583    -0.4616981199    -1.1005931490
|  8>  C        1.8450619601    -1.2448609440    -0.6716416278
|  9>  N        2.6735001153    -1.8000956095    -1.4539646521
| 10>  C        1.8151024809    -1.2908164431     0.7818568933
| 11>  C        0.7656930017    -0.5714752454     1.2185597134
| 12>  N        0.2798532946    -0.3829985292     2.4866208088
| 13>  H        0.9624989337     1.9652548483     0.0840674646
| 14>  H       -0.4797287975     1.8635705217    -0.9482489641
| 15>  H       -0.6636903876     1.9143264390     0.8089982091
| 16>  H       -0.9789884390    -0.4120605731    -0.0380005527
| 17>  H        2.4393769693    -1.5873683219    -2.4242815212
| 18>  H        2.5422993167    -1.8359389060     1.3639448406
| 19>  H        0.9021030098    -0.6079304027     3.2478738853
| 20>  H       -0.2617900278     0.4514907314     2.6502749224
| 21> *
| 22>
| 23>                          ****END OF INPUT****

CARTESIAN COORDINATES (ANGSTROEM)
---------------------------------
  C     -0.037750    1.532591   -0.005251
  C      0.036417    0.006513    0.023142
  O      0.783191   -0.461698   -1.100593
  C      1.845062   -1.244861   -0.671642
  N      2.673500   -1.800096   -1.453965
  C      1.815102   -1.290816    0.781857
  C      0.765693   -0.571475    1.218560
  N      0.279853   -0.382999    2.486621
  H      0.962499    1.965255    0.084067
  H     -0.479729    1.863571   -0.948249
  H     -0.663690    1.914326    0.808998
  H     -0.978988   -0.412061   -0.038001
  H      2.439377   -1.587368   -2.424282
  H      2.542299   -1.835939    1.363945
  H      0.902103   -0.607930    3.247874
  H     -0.261790    0.451491    2.650275

 Total Charge           Charge          ....    0
 Multiplicity           Mult            ....    1
 Number of Electrons    NEL             ....   60
 Basis Dimension        Dim             ....  296

ORBITAL ENERGIES
----------------

  NO   OCC          E(Eh)            E(eV)
   0   2.0000     -20.583794      -560.1135
   1   2.0000     -15.596208      -424.3944
   2   2.0000     -15.510420      -422.0600
   3   2.0000     -11.324911      -308.1665
   4   2.0000     -11.311012      -307.7883
   5   2.0000     -11.303526      -307.5846
   6   2.0000     -11.239867      -305.8523
   7   2.0000     -11.219918      -305.3095
   8   2.0000      -1.422296       -38.7026
   9   2.0000      -1.250290       -34.0221
  10   2.0000      -1.177544       -32.0426
  11   2.0000      -1.066539       -29.0220
  12   2.0000      -1.029848       -28.0236
  13   2.0000      -0.892812       -24.2946
  14   2.0000      -0.802330       -21.8325
  15   2.0000      -0.785486       -21.3742
  16   2.0000      -0.713506       -19.4155
  17   2.0000      -0.698915       -19.0184
  18   2.0000      -0.677604       -18.4385
  19   2.0000      -0.634120       -17.2553
  20   2.0000      -0.605190       -16.4681
  21   2.0000      -0.590002       -16.0548
  22   2.0000      -0.563222       -15.3260
  23   2.0000      -0.530937       -14.4475
  24   2.0000      -0.529894       -14.4191
  25   2.0000      -0.507470       -13.8090
  26   2.0000      -0.503702       -13.7064
  27   2.0000      -0.421599       -11.4723
  28   2.0000      -0.407923       -11.1002
  29   2.0000      -0.323200        -8.7947
  30   0.0000       0.111806         3.0424
  31   0.0000       0.129412         3.5215
  32   0.0000       0.153926         4.1885
  33   0.0000       0.174226         4.7409
  34   0.0000       0.179152         4.8750

MULLIKEN ATOMIC CHARGES
-----------------------
   0 C :   -0.398659
   1 C :    0.107468
   2 O :   -0.283577
   3 C :    0.164743
   4 N :   -0.391449
   5 C :   -0.256072
   6 C :    0.171863
   7 N :   -0.515473
   8 H :    0.144514
   9 H :    0.152155
  10 H :    0.111634
  11 H :    0.117514
  12 H :    0.219470
  13 H :    0.138444
  14 H :    0.260484
  15 H :    0.256940
Sum of atomic charges:    0.0000000

LOEWDIN ATOMIC CHARGES
----------------------
   0 C :   -0.284213
   1 C :   -0.273787
   2 O :    0.246748
   3 C :   -0.397455
   4 N :   -0.076988
   5 C :   -0.137991
   6 C :   -0.239901
   7 N :   -0.035303
   8 H :    0.131800
   9 H :    0.132365
  10 H :    0.121744
  11 H :    0.151618
  12 H :    0.165282
  13 H :    0.148319
  14 H :    0.176044
  15 H :    0.171719

  Mayer bond orders larger than 0.1
B(  0-C ,  1-C ) :   0.8915 B(  0-C ,  8-H ) :   0.9317 B(  0-C ,  9-H ) :   0.9329
B(  0-C , 10-H ) :   0.9273 B(  1-C ,  2-O ) :   0.9086 B(  1-C ,  6-C ) :   0.9613
B(  1-C , 11-H ) :   0.9133 B(  2-O ,  3-C ) :   1.0307 B(  3-C ,  4-N ) :   2.0179
B(  3-C ,  5-C ) :   1.0524 B(  4-N , 12-H ) :   0.8582 B(  5-C ,  6-C ) :   1.6205
B(  5-C , 13-H ) :   0.9288 B(  6-C ,  7-N ) :   1.0858 B(  7-N , 14-H ) :   0.8753
B(  7-N , 15-H ) :   0.8738

MP2 TOTAL ENERGY:     -379.315625708 Eh
FINAL SINGLE POINT ENERGY      -379.315625708394

DIPOLE MOMENT
-------------
                                X             Y             Z
Electronic contribution:      2.24908      -4.18366      -1.85876
Nuclear contribution   :     -3.27730       5.32050       3.24429
                        -----------------------------------------
Total Dipole Moment    :     -1.02822       1.13684       1.38553
                        -----------------------------------------
Magnitude (a.u.)       :      2.06624
Magnitude (Debye)      :      5.25196

                             ****ORCA TERMINATED NORMALLY****
TOTAL RUN TIME: 0 days 0 hours 10 minutes 56 seconds 615 msec
