                         Program Version 3.0.3 - RELEASE   -
|  1> ! RI-MP2 RIJK def2-TZVP def2-TZVP/C def2-TZVP/JK TIGHTSCF
|  2> % maxcore 2000
|  3> % mp2 density relaxed end
|  4> *xyz 0 1
|  5>  O        0.0901862536     1.3788949786     0.1360865684
|  6>  C        0.0440808180    -0.0399605194     0.0828876058
|  7>  C       -1.4194273633    -0.4678618894    -0.0362493496
|  8>  C       -1.5141744901    -1.9870938307    -0.2925996206
|  9>  C       -2.9234746850    -2.5382106886    -0.1045631658
| 10>  N       -3.1879574013    -3.2077229234     1.1878825814
| 11>  C       -3.8089254435    -1.8890307208     0.8923766122
| 12>  C       -3.2851852795    -0.7047537034     1.6176180888
| 13>  C       -2.2093875884    -0.0486380369     1.1835282145
| 14>  H        0.9954926565     1.6449675399     0.3198478350
| 15>  H        0.6091063374    -0.4226560789    -0.7824330607
| 16>  H        0.4825247903    -0.4879040232     0.9891989237
| 17>  H       -1.8229505612     0.0706147402    -0.9073722694
| 18>  H       -1.1520651428    -2.2129603767    -1.3017959327
| 19>  H       -0.8545434514    -2.5073058577     0.4110914285
| 20>  H       -3.3936479934    -2.9645996176    -0.9870337896
| 21>  H       -3.8841247644    -3.9388474542     1.0549477581
| 22>  H       -4.8803451486    -1.8901668626     0.6998294471
| 23>  H       -3.8183682948    -0.3728215363     2.5047951327
| 24>  H       -1.8558876183     0.8399582112     1.6980203624
| 25> *
| 26>
| 27>                          ****END OF INPUT****

CARTESIAN COORDINATES (ANGSTROEM)
---------------------------------
  O      0.090186    1.378895    0.136087
  C      0.044081   -0.039961    0.082888
  C     -1.419427   -0.467862   -0.036249
  C     -1.514174   -1.987094   -0.292600
  C     -2.923475   -2.538211   -0.104563
  N     -3.187957   -3.207723    1.187883
  C     -3.808925   -1.889031    0.892377
  C     -3.285185   -0.704754    1.617618
  C     -2.209388   -0.048638    1.183528
  H      0.995493    1.644968    0.319848
  H      0.609106   -0.422656   -0.782433
  H      0.482525   -0.487904    0.989199
  H     -1.822951    0.070615   -0.907372
  H     -1.152065   -2.212960   -1.301796
  H     -0.854543   -2.507306    0.411091
  H     -3.393648   -2.964600   -0.987034
  H     -3.884125   -3.938847    1.054948
  H     -4.880345   -1.890167    0.699829
  H     -3.818368   -0.372822    2.504795
  H     -1.855888    0.839958    1.698020

 Total Charge           Charge          ....    0
 Multiplicity           Mult            ....    1
 Number of Electrons    NEL             ....   68
 Basis Dimension        Dim             ....  345

ORBITAL ENERGIES
----------------

  NO   OCC          E(Eh)            E(eV)
   0   2.0000     -20.557366      -559.3944
   1   2.0000     -15.553315      -423.2272
   2   2.0000     -11.276214      -306.8414
   3   2.0000     -11.256385      -306.3018
   4   2.0000     -11.255529      -306.2785
   5   2.0000     -11.229699      -305.5756
   6   2.0000     -11.222955      -305.3921
   7   2.0000     -11.220927      -305.3369
   8   2.0000     -11.217874      -305.2539
   9   2.0000      -1.361894       -37.0590
  10   2.0000      -1.258068       -34.2338
  11   2.0000      -1.096554       -29.8388
  12   2.0000      -1.017925       -27.6991
  13   2.0000      -0.952308       -25.9136
  14   2.0000      -0.883461       -24.0402
  15   2.0000      -0.814238       -22.1565
  16   2.0000      -0.809235       -22.0204
  17   2.0000      -0.715789       -19.4776
  18   2.0000      -0.700234       -19.0543
  19   2.0000      -0.687935       -18.7197
  20   2.0000      -0.639767       -17.4090
  21   2.0000      -0.633263       -17.2320
  22   2.0000      -0.591154       -16.0861
  23   2.0000      -0.579630       -15.7725
  24   2.0000      -0.556689       -15.1483
  25   2.0000      -0.531395       -14.4600
  26   2.0000      -0.520096       -14.1525
  27   2.0000      -0.484072       -13.1723
  28   2.0000      -0.473647       -12.8886
  29   2.0000      -0.461674       -12.5628
  30   2.0000      -0.447494       -12.1769
  31   2.0000      -0.441242       -12.0068
  32   2.0000      -0.385293       -10.4843
  33   2.0000      -0.341022        -9.2797
  34   0.0000       0.132298         3.6000
  35   0.0000       0.136823         3.7231
  36   0.0000       0.147503         4.0138
  37   0.0000       0.175409         4.7731
  38   0.0000       0.180113         4.9011

MULLIKEN ATOMIC CHARGES
-----------------------
   0 O :   -0.472413
   1 C :   -0.102568
   2 C :    0.089327
   3 C :   -0.287039
   4 C :    0.000591
   5 N :   -0.400241
   6 C :   -0.027296
   7 C :   -0.138003
   8 C :   -0.249629
   9 H :    0.317221
  10 H :    0.100275
  11 H :    0.106652
  12 H :    0.098113
  13 H :    0.119366
  14 H :    0.126033
  15 H :    0.128140
  16 H :    0.212690
  17 H :    0.124113
  18 H :    0.122864
  19 H :    0.131803
Sum of atomic charges:    0.0000000

LOEWDIN ATOMIC CHARGES
----------------------
   0 O :   -0.046182
   1 C :   -0.327032
   2 C :   -0.240563
   3 C :   -0.212676
   4 C :   -0.244409
   5 N :   -0.000582
   6 C :   -0.243880
   7 C :   -0.154067
   8 C :   -0.127996
   9 H :    0.172781
  10 H :    0.118215
  11 H :    0.119927
  12 H :    0.164216
  13 H :    0.139728
  14 H :    0.150806
  15 H :    0.134957
  16 H :    0.163799
  17 H :    0.140021
  18 H :    0.143460
  19 H :    0.149476

  Mayer bond orders larger than 0.1
B(  0-O ,  1-C ) :   1.0143 B(  0-O ,  9-H ) :   0.8472 B(  1-C ,  2-C ) :   0.9126
B(  1-C , 10-H ) :   0.9276 B(  1-C , 11-H ) :   0.9228 B(  2-C ,  3-C ) :   0.9420
B(  2-C ,  8-C ) :   0.9115 B(  2-C , 12-H ) :   0.9024 B(  3-C ,  4-C ) :   0.9131
B(  3-C , 13-H ) :   0.9297 B(  3-C , 14-H ) :   0.9126 B(  4-C ,  5-N ) :   0.9288
B(  4-C ,  6-C ) :   0.9333 B(  4-C , 15-H ) :   0.9242 B(  5-N ,  6-C ) :   0.9200
B(  5-N , 16-H ) :   0.8684 B(  6-C ,  7-C ) :   0.9419 B(  6-C , 17-H ) :   0.9223
B(  7-C ,  8-C ) :   1.7721 B(  7-C , 18-H ) :   0.9330 B(  8-C , 19-H ) :   0.9314

MP2 TOTAL ENERGY:     -402.436908720 Eh
FINAL SINGLE POINT ENERGY      -402.436908720154

DIPOLE MOMENT
-------------
                                X             Y             Z
Electronic contribution:     -1.66765       0.75310       1.25093
Nuclear contribution   :      1.81756      -0.95777      -1.70040
                        -----------------------------------------
Total Dipole Moment    :      0.14991      -0.20466      -0.44947
                        -----------------------------------------
Magnitude (a.u.)       :      0.51613
Magnitude (Debye)      :      1.31189

                             ****ORCA TERMINATED NORMALLY****
TOTAL RUN TIME: 0 days 0 hours 29 minutes 30 seconds 660 msec
