                         Program Version 3.0.3 - RELEASE   -
|  1> ! RI-MP2 RIJK def2-TZVP def2-TZVP/C def2-TZVP/JK TIGHTSCF
|  2> % maxcore 2000
|  3> % mp2 density relaxed end
|  4> *xyz 0 1
|  5>  C       -0.0627508169     1.5018422501     0.0098535188
|  6>  C        0.0488128916    -0.0145269659     0.0032239675
|  7>  O        1.1232817295    -0.5789058588    -0.0082469864
|  8>  C       -1.2042820297    -0.7900281263     0.0109959492
|  9>  C       -1.3967074723    -2.1641616700     0.0075107691
| 10>  C       -2.7891638977    -2.3341364799     0.0187614901
| 11>  N       -3.4324481695    -1.1617772431     0.0287019903
| 12>  N       -2.4576786286    -0.2472238865     0.0237108131
| 13>  H        0.9390512703     1.9312993640     0.0030631065
| 14>  H       -0.6130173336     1.8565950589    -0.8695347187
| 15>  H       -0.5982246808     1.8499775129     0.9009341083
| 16>  H       -0.6193584148    -2.9095320473    -0.0019063005
| 17>  H       -3.3579417343    -3.2518860835     0.0202036946
| 18>  H       -2.7081634031     0.7274993555     0.0293799281
| 19> *
| 20>
| 21>                          ****END OF INPUT****

CARTESIAN COORDINATES (ANGSTROEM)
---------------------------------
  C     -0.062751    1.501842    0.009854
  C      0.048813   -0.014527    0.003224
  O      1.123282   -0.578906   -0.008247
  C     -1.204282   -0.790028    0.010996
  C     -1.396707   -2.164162    0.007511
  C     -2.789164   -2.334136    0.018761
  N     -3.432448   -1.161777    0.028702
  N     -2.457679   -0.247224    0.023711
  H      0.939051    1.931299    0.003063
  H     -0.613017    1.856595   -0.869535
  H     -0.598225    1.849978    0.900934
  H     -0.619358   -2.909532   -0.001906
  H     -3.357942   -3.251886    0.020204
  H     -2.708163    0.727499    0.029380

 Total Charge           Charge          ....    0
 Multiplicity           Mult            ....    1
 Number of Electrons    NEL             ....   58
 Basis Dimension        Dim             ....  284

ORBITAL ENERGIES
----------------

  NO   OCC          E(Eh)            E(eV)
   0   2.0000     -20.557722      -559.4041
   1   2.0000     -15.659031      -426.1039
   2   2.0000     -15.608479      -424.7283
   3   2.0000     -11.353699      -308.9499
   4   2.0000     -11.288158      -307.1664
   5   2.0000     -11.264288      -306.5169
   6   2.0000     -11.253473      -306.2226
   7   2.0000     -11.239744      -305.8490
   8   2.0000      -1.404337       -38.2140
   9   2.0000      -1.390989       -37.8507
  10   2.0000      -1.121453       -30.5163
  11   2.0000      -1.076589       -29.2955
  12   2.0000      -1.021749       -27.8032
  13   2.0000      -0.874649       -23.8004
  14   2.0000      -0.824174       -22.4269
  15   2.0000      -0.804121       -21.8812
  16   2.0000      -0.710772       -19.3411
  17   2.0000      -0.642058       -17.4713
  18   2.0000      -0.641166       -17.4470
  19   2.0000      -0.633880       -17.2488
  20   2.0000      -0.616545       -16.7770
  21   2.0000      -0.604771       -16.4566
  22   2.0000      -0.590614       -16.0714
  23   2.0000      -0.560698       -15.2574
  24   2.0000      -0.519673       -14.1410
  25   2.0000      -0.480400       -13.0723
  26   2.0000      -0.437591       -11.9074
  27   2.0000      -0.379095       -10.3157
  28   2.0000      -0.357851        -9.7376
  29   0.0000       0.076713         2.0875
  30   0.0000       0.113460         3.0874
  31   0.0000       0.168072         4.5735
  32   0.0000       0.179071         4.8728
  33   0.0000       0.183883         5.0037

MULLIKEN ATOMIC CHARGES
-----------------------
   0 C :   -0.441832
   1 C :    0.179526
   2 O :   -0.286317
   3 C :    0.077412
   4 C :   -0.165287
   5 C :   -0.078313
   6 N :   -0.230223
   7 N :   -0.089912
   8 H :    0.165872
   9 H :    0.150243
  10 H :    0.150226
  11 H :    0.162390
  12 H :    0.143010
  13 H :    0.263204
Sum of atomic charges:   -0.0000000

LOEWDIN ATOMIC CHARGES
----------------------
   0 C :   -0.277808
   1 C :   -0.334934
   2 O :    0.155352
   3 C :   -0.221603
   4 C :   -0.141791
   5 C :   -0.257851
   6 N :    0.030600
   7 N :    0.157771
   8 H :    0.138829
   9 H :    0.135413
  10 H :    0.135401
  11 H :    0.151896
  12 H :    0.136492
  13 H :    0.192233

  Mayer bond orders larger than 0.1
B(  0-C ,  1-C ) :   0.9401 B(  0-C ,  3-C ) :  -0.1099 B(  0-C ,  8-H ) :   0.9343
B(  0-C ,  9-H ) :   0.9154 B(  0-C , 10-H ) :   0.9154 B(  1-C ,  2-O ) :   2.0141
B(  1-C ,  3-C ) :   0.8884 B(  2-O ,  3-C ) :  -0.1074 B(  3-C ,  4-C ) :   1.3581
B(  3-C ,  6-N ) :   0.1101 B(  3-C ,  7-N ) :   1.1448 B(  4-C ,  5-C ) :   1.3290
B(  4-C , 11-H ) :   0.9175 B(  5-C ,  6-N ) :   1.4717 B(  5-C , 12-H ) :   0.9361
B(  6-N ,  7-N ) :   1.0870 B(  7-N , 13-H ) :   0.8636

MP2 TOTAL ENERGY:     -378.123851343 Eh
FINAL SINGLE POINT ENERGY      -378.123851343057

DIPOLE MOMENT
-------------
                                X             Y             Z
Electronic contribution:     -0.80798      -3.16122      -0.00493
Nuclear contribution   :      0.46406       3.99811       0.01100
                        -----------------------------------------
Total Dipole Moment    :     -0.34392       0.83689       0.00607
                        -----------------------------------------
Magnitude (a.u.)       :      0.90482
Magnitude (Debye)      :      2.29987

                             ****ORCA TERMINATED NORMALLY****
TOTAL RUN TIME: 0 days 0 hours 10 minutes 19 seconds 701 msec
