                         Program Version 3.0.3 - RELEASE   -
|  1> ! RI-MP2 RIJK def2-TZVP def2-TZVP/C def2-TZVP/JK TIGHTSCF
|  2> % maxcore 2000
|  3> % mp2 density relaxed end
|  4> *xyz 0 1
|  5>  C        0.6722177390     1.4765917836     0.0729807162
|  6>  C       -0.1855728512     0.2209300771    -0.1304065902
|  7>  C        0.2603009448    -0.5665746854    -1.3393854206
|  8>  O        1.4984684210    -1.2889675346    -1.2429726997
|  9>  C        0.2944141191    -2.0366248118    -1.4591428410
| 10>  C       -0.1274975060    -2.9638181728    -0.3417541548
| 11>  C        0.1741727079    -2.6251124057    -2.8693698896
| 12>  C        0.9330230021    -3.8574705374    -3.0559306332
| 13>  C        1.5573644213    -4.8744728109    -3.1982765771
| 14>  H        1.7211803324     1.2031198406     0.2196705921
| 15>  H        0.6173342189     2.1405101386    -0.7966840464
| 16>  H        0.3398829242     2.0427679985     0.9478921521
| 17>  H       -0.1414898146    -0.4037132468     0.7657807238
| 18>  H       -1.2370219476     0.5040437573    -0.2713972521
| 19>  H        0.1653265919    -0.0089950070    -2.2766326677
| 20>  H        0.0561857222    -2.5193715960     0.6366644852
| 21>  H       -1.1925838255    -3.2078217226    -0.4232150380
| 22>  H        0.4362801674    -3.8990461546    -0.4047832060
| 23>  H       -0.8864800902    -2.8135673157    -3.0847950545
| 24>  H        0.5146615994    -1.8733711028    -3.5898814655
| 25>  H        2.1148349633    -5.7680996716    -3.3322336931
| 26> *
| 27>
| 28>                          ****END OF INPUT****

CARTESIAN COORDINATES (ANGSTROEM)
---------------------------------
  C      0.672218    1.476592    0.072981
  C     -0.185573    0.220930   -0.130407
  C      0.260301   -0.566575   -1.339385
  O      1.498468   -1.288968   -1.242973
  C      0.294414   -2.036625   -1.459143
  C     -0.127498   -2.963818   -0.341754
  C      0.174173   -2.625112   -2.869370
  C      0.933023   -3.857471   -3.055931
  C      1.557364   -4.874473   -3.198277
  H      1.721180    1.203120    0.219671
  H      0.617334    2.140510   -0.796684
  H      0.339883    2.042768    0.947892
  H     -0.141490   -0.403713    0.765781
  H     -1.237022    0.504044   -0.271397
  H      0.165327   -0.008995   -2.276633
  H      0.056186   -2.519372    0.636664
  H     -1.192584   -3.207822   -0.423215
  H      0.436280   -3.899046   -0.404783
  H     -0.886480   -2.813567   -3.084795
  H      0.514662   -1.873371   -3.589881
  H      2.114835   -5.768100   -3.332234

 Total Charge           Charge          ....    0
 Multiplicity           Mult            ....    1
 Number of Electrons    NEL             ....   68
 Basis Dimension        Dim             ....  351

ORBITAL ENERGIES
----------------

  NO   OCC          E(Eh)            E(eV)
   0   2.0000     -20.560618      -559.4829
   1   2.0000     -11.298003      -307.4343
   2   2.0000     -11.284541      -307.0680
   3   2.0000     -11.258577      -306.3615
   4   2.0000     -11.233720      -305.6851
   5   2.0000     -11.231493      -305.6245
   6   2.0000     -11.222366      -305.3761
   7   2.0000     -11.220182      -305.3167
   8   2.0000     -11.217792      -305.2516
   9   2.0000      -1.408257       -38.3206
  10   2.0000      -1.082712       -29.4621
  11   2.0000      -1.053262       -28.6607
  12   2.0000      -1.009491       -27.4696
  13   2.0000      -0.957117       -26.0445
  14   2.0000      -0.913382       -24.8544
  15   2.0000      -0.828776       -22.5521
  16   2.0000      -0.768681       -20.9169
  17   2.0000      -0.719837       -19.5878
  18   2.0000      -0.682024       -18.5588
  19   2.0000      -0.654080       -17.7984
  20   2.0000      -0.635290       -17.2871
  21   2.0000      -0.608831       -16.5671
  22   2.0000      -0.598953       -16.2983
  23   2.0000      -0.567802       -15.4507
  24   2.0000      -0.563218       -15.3259
  25   2.0000      -0.540626       -14.7112
  26   2.0000      -0.527417       -14.3517
  27   2.0000      -0.518474       -14.1084
  28   2.0000      -0.491757       -13.3814
  29   2.0000      -0.485205       -13.2031
  30   2.0000      -0.441774       -12.0213
  31   2.0000      -0.419805       -11.4235
  32   2.0000      -0.385953       -10.5023
  33   2.0000      -0.384538       -10.4638
  34   0.0000       0.132124         3.5953
  35   0.0000       0.150499         4.0953
  36   0.0000       0.158779         4.3206
  37   0.0000       0.168672         4.5898
  38   0.0000       0.177182         4.8214

MULLIKEN ATOMIC CHARGES
-----------------------
   0 C :   -0.399291
   1 C :   -0.182038
   2 C :    0.039008
   3 O :   -0.342565
   4 C :    0.184547
   5 C :   -0.424026
   6 C :   -0.325426
   7 C :   -0.040417
   8 C :   -0.146330
   9 H :    0.145011
  10 H :    0.122409
  11 H :    0.134425
  12 H :    0.110472
  13 H :    0.108069
  14 H :    0.103596
  15 H :    0.134825
  16 H :    0.131357
  17 H :    0.163570
  18 H :    0.144209
  19 H :    0.149205
  20 H :    0.189391
Sum of atomic charges:    0.0000000

LOEWDIN ATOMIC CHARGES
----------------------
   0 C :   -0.311685
   1 C :   -0.275321
   2 C :   -0.250752
   3 O :    0.183319
   4 C :   -0.315976
   5 C :   -0.260448
   6 C :   -0.207999
   7 C :   -0.105575
   8 C :   -0.102988
   9 H :    0.127487
  10 H :    0.121124
  11 H :    0.121197
  12 H :    0.140005
  13 H :    0.142552
  14 H :    0.139468
  15 H :    0.128464
  16 H :    0.132654
  17 H :    0.138648
  18 H :    0.163794
  19 H :    0.165618
  20 H :    0.126414

  Mayer bond orders larger than 0.1
B(  0-C ,  1-C ) :   0.9226 B(  0-C ,  9-H ) :   0.9365 B(  0-C , 10-H ) :   0.9376
B(  0-C , 11-H ) :   0.9400 B(  1-C ,  2-C ) :   0.9099 B(  1-C , 12-H ) :   0.9362
B(  1-C , 13-H ) :   0.9246 B(  2-C ,  3-O ) :   0.8404 B(  2-C ,  4-C ) :   0.9699
B(  2-C , 14-H ) :   0.8980 B(  3-O ,  4-C ) :   0.9205 B(  4-C ,  5-C ) :   0.8871
B(  4-C ,  6-C ) :   0.8757 B(  5-C , 15-H ) :   0.9393 B(  5-C , 16-H ) :   0.9281
B(  5-C , 17-H ) :   0.9358 B(  6-C ,  7-C ) :   1.1077 B(  6-C , 18-H ) :   0.9332
B(  6-C , 19-H ) :   0.9186 B(  7-C ,  8-C ) :   2.6055 B(  8-C , 20-H ) :   0.9056

MP2 TOTAL ENERGY:     -386.362636282 Eh
FINAL SINGLE POINT ENERGY      -386.362636282145

DIPOLE MOMENT
-------------
                                X             Y             Z
Electronic contribution:      3.12028      -5.90790      -5.30201
Nuclear contribution   :     -3.93218       6.09029       5.39139
                        -----------------------------------------
Total Dipole Moment    :     -0.81191       0.18238       0.08938
                        -----------------------------------------
Magnitude (a.u.)       :      0.83692
Magnitude (Debye)      :      2.12729

                             ****ORCA TERMINATED NORMALLY****
TOTAL RUN TIME: 0 days 0 hours 31 minutes 13 seconds 415 msec
