                         Program Version 3.0.3 - RELEASE   -
|  1> ! RI-MP2 RIJK def2-TZVP def2-TZVP/C def2-TZVP/JK TIGHTSCF
|  2> % maxcore 2000
|  3> % mp2 density relaxed end
|  4> *xyz 0 1
|  5>  C        0.0794442163     1.4710969278     0.2802418000
|  6>  N        1.3218275651     2.2014548124    -0.0182657349
|  7>  C        2.4074740495     1.5723592591     0.1218594267
|  8>  N        2.4768576246     0.1689040190     0.4988882408
|  9>  C        2.1627829521    -0.0173693569     1.8745850085
| 10>  N        1.1578494976    -0.7490817097     2.1567899427
| 11>  C        0.5723311543    -1.1235096988     0.8899547485
| 12>  C        0.1006542698    -0.0164771502    -0.0646727946
| 13>  C        1.4679859849    -0.6224140819    -0.2133715743
| 14>  H       -0.1243966289     1.6183555135     1.3489142135
| 15>  H       -0.7280945952     1.9663342181    -0.2636893939
| 16>  H        3.3618814396     2.0700616804    -0.0400691019
| 17>  H        2.7764616413     0.4846056987     2.6152303147
| 18>  H        0.0587004503    -2.0750141704     0.8533613891
| 19>  H       -0.6509644061    -0.3482561717    -0.7730511093
| 20>  H        1.8076782049    -1.1648776192    -1.0871613058
| 21> *
| 22>
| 23>                          ****END OF INPUT****

CARTESIAN COORDINATES (ANGSTROEM)
---------------------------------
  C      0.079444    1.471097    0.280242
  N      1.321828    2.201455   -0.018266
  C      2.407474    1.572359    0.121859
  N      2.476858    0.168904    0.498888
  C      2.162783   -0.017369    1.874585
  N      1.157849   -0.749082    2.156790
  C      0.572331   -1.123510    0.889955
  C      0.100654   -0.016477   -0.064673
  C      1.467986   -0.622414   -0.213372
  H     -0.124397    1.618356    1.348914
  H     -0.728095    1.966334   -0.263689
  H      3.361881    2.070062   -0.040069
  H      2.776462    0.484606    2.615230
  H      0.058700   -2.075014    0.853361
  H     -0.650964   -0.348256   -0.773051
  H      1.807678   -1.164878   -1.087161

 Total Charge           Charge          ....    0
 Multiplicity           Mult            ....    1
 Number of Electrons    NEL             ....   64
 Basis Dimension        Dim             ....  321

ORBITAL ENERGIES
----------------

  NO   OCC          E(Eh)            E(eV)
   0   2.0000     -15.593532      -424.3216
   1   2.0000     -15.570157      -423.6855
   2   2.0000     -15.562366      -423.4735
   3   2.0000     -11.317319      -307.9599
   4   2.0000     -11.315228      -307.9030
   5   2.0000     -11.274476      -306.7941
   6   2.0000     -11.273542      -306.7687
   7   2.0000     -11.266070      -306.5654
   8   2.0000     -11.248830      -306.0962
   9   2.0000      -1.347666       -36.6719
  10   2.0000      -1.247145       -33.9365
  11   2.0000      -1.160430       -31.5769
  12   2.0000      -1.127720       -30.6868
  13   2.0000      -0.973852       -26.4999
  14   2.0000      -0.863743       -23.5036
  15   2.0000      -0.848705       -23.0944
  16   2.0000      -0.812239       -22.1021
  17   2.0000      -0.747045       -20.3281
  18   2.0000      -0.700158       -19.0523
  19   2.0000      -0.692754       -18.8508
  20   2.0000      -0.643296       -17.5050
  21   2.0000      -0.609418       -16.5831
  22   2.0000      -0.601405       -16.3651
  23   2.0000      -0.575898       -15.6710
  24   2.0000      -0.554657       -15.0930
  25   2.0000      -0.512675       -13.9506
  26   2.0000      -0.494807       -13.4644
  27   2.0000      -0.481608       -13.1052
  28   2.0000      -0.433558       -11.7977
  29   2.0000      -0.419053       -11.4030
  30   2.0000      -0.390257       -10.6194
  31   2.0000      -0.356884        -9.7113
  32   0.0000       0.129118         3.5135
  33   0.0000       0.140647         3.8272
  34   0.0000       0.148049         4.0286
  35   0.0000       0.171372         4.6633
  36   0.0000       0.174428         4.7464

MULLIKEN ATOMIC CHARGES
-----------------------
   0 C :   -0.128487
   1 N :   -0.182600
   2 C :   -0.038962
   3 N :   -0.130229
   4 C :   -0.001441
   5 N :   -0.244353
   6 C :   -0.048491
   7 C :   -0.178058
   8 C :   -0.051476
   9 H :    0.154727
  10 H :    0.142725
  11 H :    0.145138
  12 H :    0.146025
  13 H :    0.138908
  14 H :    0.135458
  15 H :    0.141117
Sum of atomic charges:   -0.0000000

LOEWDIN ATOMIC CHARGES
----------------------
   0 C :   -0.257619
   1 N :    0.111537
   2 C :   -0.260874
   3 N :    0.150689
   4 C :   -0.262494
   5 N :    0.111299
   6 C :   -0.215468
   7 C :   -0.188105
   8 C :   -0.191701
   9 H :    0.150946
  10 H :    0.140828
  11 H :    0.133858
  12 H :    0.138182
  13 H :    0.144454
  14 H :    0.154839
  15 H :    0.139628

  Mayer bond orders larger than 0.1
B(  0-C ,  1-N ) :   0.9167 B(  0-C ,  7-C ) :   0.9328 B(  0-C ,  9-H ) :   0.9117
B(  0-C , 10-H ) :   0.9322 B(  1-N ,  2-C ) :   1.8909 B(  2-C ,  3-N ) :   0.9364
B(  2-C , 11-H ) :   0.9258 B(  3-N ,  4-C ) :   1.0143 B(  3-N ,  8-C ) :   0.9240
B(  4-C ,  5-N ) :   1.8027 B(  4-C , 12-H ) :   0.9208 B(  5-N ,  6-C ) :   0.9567
B(  6-C ,  7-C ) :   0.8431 B(  6-C ,  8-C ) :   0.8871 B(  6-C , 13-H ) :   0.9391
B(  7-C ,  8-C ) :   0.8492 B(  7-C , 14-H ) :   0.9228 B(  8-C , 15-H ) :   0.9264

MP2 TOTAL ENERGY:     -396.216946747 Eh
FINAL SINGLE POINT ENERGY      -396.216946747203

DIPOLE MOMENT
-------------
                                X             Y             Z
Electronic contribution:      2.40717      -0.40099       1.01634
Nuclear contribution   :     -2.43531       0.20359      -1.53462
                        -----------------------------------------
Total Dipole Moment    :     -0.02814      -0.19741      -0.51828
                        -----------------------------------------
Magnitude (a.u.)       :      0.55531
Magnitude (Debye)      :      1.41149

                             ****ORCA TERMINATED NORMALLY****
TOTAL RUN TIME: 0 days 0 hours 19 minutes 12 seconds 872 msec
