                         Program Version 3.0.3 - RELEASE   -
|  1> ! RI-MP2 RIJK def2-TZVP def2-TZVP/C def2-TZVP/JK TIGHTSCF
|  2> % maxcore 2000
|  3> % mp2 density relaxed end
|  4> *xyz 0 1
|  5>  O       -0.3543802921     1.5171404000     0.3137937483
|  6>  C        0.0384067585     0.1690799509     0.1777950372
|  7>  C        0.9705878124    -0.1671414469    -1.0408939413
|  8>  C        1.9052560524    -0.8930859479    -0.0608233636
|  9>  O        2.8288595839    -1.6405229024    -0.1975661814
| 10>  C        1.1466497585    -0.3512101282     1.1598161833
| 11>  C       -1.2159301564    -0.6770816368     0.2104564009
| 12>  C       -2.3831058196    -0.2829080873     1.0329724468
| 13>  N       -2.4424995879    -0.2083556863    -0.4423554056
| 14>  H        0.4160127040     2.0817990309     0.2017658493
| 15>  H        0.5517085153    -0.7589284532    -1.8583877552
| 16>  H        1.4460223978     0.7246325243    -1.4671019775
| 17>  H        1.6868325272     0.4682737996     1.6476767475
| 18>  H        0.8544711207    -1.0773703933     1.9225681605
| 19>  H       -1.0171238367    -1.7380711184     0.0664012922
| 20>  H       -3.0122610789    -1.0474888454     1.4794058082
| 21>  H       -2.3153130463     0.6474675701     1.5870823771
| 22>  H       -2.3024157828     0.7634118604    -0.7128666168
| 23> *
| 24>
| 25>                          ****END OF INPUT****

CARTESIAN COORDINATES (ANGSTROEM)
---------------------------------
  O     -0.354380    1.517140    0.313794
  C      0.038407    0.169080    0.177795
  C      0.970588   -0.167141   -1.040894
  C      1.905256   -0.893086   -0.060823
  O      2.828860   -1.640523   -0.197566
  C      1.146650   -0.351210    1.159816
  C     -1.215930   -0.677082    0.210456
  C     -2.383106   -0.282908    1.032972
  N     -2.442500   -0.208356   -0.442355
  H      0.416013    2.081799    0.201766
  H      0.551709   -0.758928   -1.858388
  H      1.446022    0.724633   -1.467102
  H      1.686833    0.468274    1.647677
  H      0.854471   -1.077370    1.922568
  H     -1.017124   -1.738071    0.066401
  H     -3.012261   -1.047489    1.479406
  H     -2.315313    0.647468    1.587082
  H     -2.302416    0.763412   -0.712867

 Total Charge           Charge          ....    0
 Multiplicity           Mult            ....    1
 Number of Electrons    NEL             ....   68
 Basis Dimension        Dim             ....  333

ORBITAL ENERGIES
----------------

  NO   OCC          E(Eh)            E(eV)
   0   2.0000     -20.586898      -560.1980
   1   2.0000     -20.563021      -559.5482
   2   2.0000     -15.558181      -423.3596
   3   2.0000     -11.344356      -308.6956
   4   2.0000     -11.320398      -308.0437
   5   2.0000     -11.268246      -306.6246
   6   2.0000     -11.255782      -306.2854
   7   2.0000     -11.252233      -306.1888
   8   2.0000     -11.252200      -306.1879
   9   2.0000      -1.406985       -38.2860
  10   2.0000      -1.398833       -38.0642
  11   2.0000      -1.262305       -34.3491
  12   2.0000      -1.140470       -31.0338
  13   2.0000      -0.951623       -25.8950
  14   2.0000      -0.934778       -25.4366
  15   2.0000      -0.878812       -23.9137
  16   2.0000      -0.802184       -21.8285
  17   2.0000      -0.747598       -20.3432
  18   2.0000      -0.718084       -19.5401
  19   2.0000      -0.696799       -18.9609
  20   2.0000      -0.652484       -17.7550
  21   2.0000      -0.645330       -17.5603
  22   2.0000      -0.635133       -17.2828
  23   2.0000      -0.619252       -16.8507
  24   2.0000      -0.586318       -15.9545
  25   2.0000      -0.581927       -15.8350
  26   2.0000      -0.548225       -14.9179
  27   2.0000      -0.518523       -14.1097
  28   2.0000      -0.507638       -13.8135
  29   2.0000      -0.492869       -13.4117
  30   2.0000      -0.465532       -12.6678
  31   2.0000      -0.446576       -12.1520
  32   2.0000      -0.411135       -11.1876
  33   2.0000      -0.388322       -10.5668
  34   0.0000       0.108530         2.9532
  35   0.0000       0.121714         3.3120
  36   0.0000       0.151322         4.1177
  37   0.0000       0.163012         4.4358
  38   0.0000       0.174267         4.7420

MULLIKEN ATOMIC CHARGES
-----------------------
   0 O :   -0.467555
   1 C :    0.183680
   2 C :   -0.232444
   3 C :    0.086926
   4 O :   -0.242106
   5 C :   -0.217472
   6 C :   -0.108533
   7 C :   -0.177881
   8 N :   -0.372183
   9 H :    0.321169
  10 H :    0.159136
  11 H :    0.135445
  12 H :    0.135532
  13 H :    0.152202
  14 H :    0.140891
  15 H :    0.124238
  16 H :    0.144171
  17 H :    0.234784
Sum of atomic charges:   -0.0000000

LOEWDIN ATOMIC CHARGES
----------------------
   0 O :    0.020884
   1 C :   -0.345267
   2 C :   -0.175745
   3 C :   -0.314037
   4 O :    0.166401
   5 C :   -0.173172
   6 C :   -0.257376
   7 C :   -0.257533
   8 N :   -0.011649
   9 H :    0.179077
  10 H :    0.148952
  11 H :    0.148729
  12 H :    0.150544
  13 H :    0.147367
  14 H :    0.151807
  15 H :    0.123807
  16 H :    0.127265
  17 H :    0.169944

  Mayer bond orders larger than 0.1
B(  0-O ,  1-C ) :   0.9953 B(  0-O ,  9-H ) :   0.8371 B(  1-C ,  2-C ) :   0.8973
B(  1-C ,  5-C ) :   0.8867 B(  1-C ,  6-C ) :   0.9193 B(  2-C ,  3-C ) :   0.9099
B(  2-C ,  5-C ) :  -0.1430 B(  2-C , 10-H ) :   0.8890 B(  2-C , 11-H ) :   0.9039
B(  3-C ,  4-O ) :   2.0360 B(  3-C ,  5-C ) :   0.9066 B(  5-C , 12-H ) :   0.8962
B(  5-C , 13-H ) :   0.8922 B(  6-C ,  7-C ) :   0.9577 B(  6-C ,  8-N ) :   0.9549
B(  6-C , 14-H ) :   0.9052 B(  7-C ,  8-N ) :   0.9156 B(  7-C , 15-H ) :   0.9229
B(  7-C , 16-H ) :   0.9125 B(  8-N , 17-H ) :   0.8722

MP2 TOTAL ENERGY:     -438.335878964 Eh
FINAL SINGLE POINT ENERGY      -438.335878963642

DIPOLE MOMENT
-------------
                                X             Y             Z
Electronic contribution:      4.07318      -1.17025      -1.18861
Nuclear contribution   :     -3.92100       2.14280       1.60022
                        -----------------------------------------
Total Dipole Moment    :      0.15218       0.97255       0.41161
                        -----------------------------------------
Magnitude (a.u.)       :      1.06697
Magnitude (Debye)      :      2.71203

                             ****ORCA TERMINATED NORMALLY****
TOTAL RUN TIME: 0 days 0 hours 16 minutes 1 seconds 370 msec
