                         Program Version 3.0.3 - RELEASE   -
|  1> ! RI-MP2 RIJK def2-TZVP def2-TZVP/C def2-TZVP/JK TIGHTSCF
|  2> % maxcore 2000
|  3> % mp2 density relaxed end
|  4> *xyz 0 1
|  5>  O       -0.1247123172    -0.0376425587    -0.0291169121
|  6>  C       -0.0303427909     1.1657589491    -0.0765693457
|  7>  C        1.2451647853     1.9086770758    -0.0380314094
|  8>  C        1.7029322710     2.9550892604     1.0805997005
|  9>  C        2.9789797839     2.0928857372     1.2854637473
| 10>  C        2.6927802815     1.3593924293    -0.0436258371
| 11>  O        3.0384947855     2.1827860080    -1.1849777521
| 12>  C        1.8078391546     2.9244025996    -1.0952321899
| 13>  C        1.8721401074     4.0316560604    -0.0217853578
| 14>  H       -0.9388990632     1.8085805176    -0.1453360111
| 15>  H        1.1025838211     3.2011013354     1.9557421568
| 16>  H        3.9381477618     2.6104142291     1.3673954955
| 17>  H        2.8538993065     1.4110191676     2.1325629761
| 18>  H        2.9857548577     0.3183802590    -0.1783346550
| 19>  H        1.3781110395     3.1351954195    -2.0766787340
| 20>  H        0.9873441597     4.6744127837    -0.0805989209
| 21>  H        2.7719198857     4.6521257869    -0.0060212511
| 22> *
| 23>
| 24>                          ****END OF INPUT****

CARTESIAN COORDINATES (ANGSTROEM)
---------------------------------
  O     -0.124712   -0.037643   -0.029117
  C     -0.030343    1.165759   -0.076569
  C      1.245165    1.908677   -0.038031
  C      1.702932    2.955089    1.080600
  C      2.978980    2.092886    1.285464
  C      2.692780    1.359392   -0.043626
  O      3.038495    2.182786   -1.184978
  C      1.807839    2.924403   -1.095232
  C      1.872140    4.031656   -0.021785
  H     -0.938899    1.808581   -0.145336
  H      1.102584    3.201101    1.955742
  H      3.938148    2.610414    1.367395
  H      2.853899    1.411019    2.132563
  H      2.985755    0.318380   -0.178335
  H      1.378111    3.135195   -2.076679
  H      0.987344    4.674413   -0.080599
  H      2.771920    4.652126   -0.006021

 Total Charge           Charge          ....    0
 Multiplicity           Mult            ....    1
 Number of Electrons    NEL             ....   66
 Basis Dimension        Dim             ....  327

ORBITAL ENERGIES
----------------

  NO   OCC          E(Eh)            E(eV)
   0   2.0000     -20.563043      -559.5489
   1   2.0000     -20.560088      -559.4684
   2   2.0000     -11.340144      -308.5810
   3   2.0000     -11.303968      -307.5966
   4   2.0000     -11.293816      -307.3204
   5   2.0000     -11.259544      -306.3878
   6   2.0000     -11.254375      -306.2471
   7   2.0000     -11.241284      -305.8909
   8   2.0000     -11.238076      -305.8036
   9   2.0000      -1.403654       -38.1954
  10   2.0000      -1.395289       -37.9677
  11   2.0000      -1.157945       -31.5093
  12   2.0000      -1.031970       -28.0813
  13   2.0000      -0.972952       -26.4754
  14   2.0000      -0.865969       -23.5642
  15   2.0000      -0.843124       -22.9426
  16   2.0000      -0.826752       -22.4971
  17   2.0000      -0.726789       -19.7769
  18   2.0000      -0.710242       -19.3267
  19   2.0000      -0.665704       -18.1147
  20   2.0000      -0.644962       -17.5503
  21   2.0000      -0.637211       -17.3394
  22   2.0000      -0.608524       -16.5588
  23   2.0000      -0.588820       -16.0226
  24   2.0000      -0.569036       -15.4842
  25   2.0000      -0.545745       -14.8505
  26   2.0000      -0.541446       -14.7335
  27   2.0000      -0.499328       -13.5874
  28   2.0000      -0.480933       -13.0868
  29   2.0000      -0.437175       -11.8961
  30   2.0000      -0.425892       -11.5891
  31   2.0000      -0.419328       -11.4105
  32   2.0000      -0.399792       -10.8789
  33   0.0000       0.111768         3.0414
  34   0.0000       0.137305         3.7362
  35   0.0000       0.154612         4.2072
  36   0.0000       0.162800         4.4300
  37   0.0000       0.172434         4.6922

MULLIKEN ATOMIC CHARGES
-----------------------
   0 O :   -0.258348
   1 C :    0.065131
   2 C :    0.131258
   3 C :   -0.100737
   4 C :   -0.247067
   5 C :    0.022999
   6 O :   -0.318958
   7 C :   -0.006601
   8 C :   -0.233410
   9 H :    0.075946
  10 H :    0.131065
  11 H :    0.120423
  12 H :    0.127307
  13 H :    0.128297
  14 H :    0.120199
  15 H :    0.121267
  16 H :    0.121228
Sum of atomic charges:   -0.0000000

LOEWDIN ATOMIC CHARGES
----------------------
   0 O :    0.137355
   1 C :   -0.271781
   2 C :   -0.148881
   3 C :   -0.144557
   4 C :   -0.196272
   5 C :   -0.198829
   6 O :    0.166395
   7 C :   -0.204813
   8 C :   -0.201824
   9 H :    0.115947
  10 H :    0.134201
  11 H :    0.131785
  12 H :    0.145199
  13 H :    0.132851
  14 H :    0.128965
  15 H :    0.142605
  16 H :    0.131655

  Mayer bond orders larger than 0.1
B(  0-O ,  1-C ) :   2.0239 B(  0-O ,  2-C ) :  -0.1139 B(  1-C ,  2-C ) :   0.7783
B(  1-C ,  9-H ) :   0.9711 B(  2-C ,  3-C ) :   0.8720 B(  2-C ,  5-C ) :   0.9118
B(  2-C ,  7-C ) :   0.8870 B(  3-C ,  4-C ) :   0.9460 B(  3-C ,  8-C ) :   0.9432
B(  3-C , 10-H ) :   0.9228 B(  4-C ,  5-C ) :   0.9423 B(  4-C , 11-H ) :   0.9107
B(  4-C , 12-H ) :   0.9124 B(  5-C ,  6-O ) :   0.9379 B(  5-C , 13-H ) :   0.9161
B(  6-O ,  7-C ) :   0.9631 B(  7-C ,  8-C ) :   0.9188 B(  7-C , 14-H ) :   0.9294
B(  8-C , 15-H ) :   0.9138 B(  8-C , 16-H ) :   0.9093

MP2 TOTAL ENERGY:     -421.069239170 Eh
FINAL SINGLE POINT ENERGY      -421.069239170323

DIPOLE MOMENT
-------------
                                X             Y             Z
Electronic contribution:     -1.63136      -4.03666      -2.48356
Nuclear contribution   :      1.49255       5.09293       2.96936
                        -----------------------------------------
Total Dipole Moment    :     -0.13881       1.05628       0.48580
                        -----------------------------------------
Magnitude (a.u.)       :      1.17089
Magnitude (Debye)      :      2.97617

                             ****ORCA TERMINATED NORMALLY****
TOTAL RUN TIME: 0 days 0 hours 18 minutes 37 seconds 53 msec
