                         Program Version 3.0.3 - RELEASE   -
|  1> ! RI-MP2 RIJK def2-TZVP def2-TZVP/C def2-TZVP/JK TIGHTSCF
|  2> % maxcore 2000
|  3> % mp2 density relaxed end
|  4> *xyz 0 1
|  5>  N        0.2201133171     1.4741567806     0.2188376374
|  6>  C        0.0443277036     0.0529295874     0.0451550871
|  7>  C       -1.3649102442    -0.5704215588     0.2249552597
|  8>  C       -2.5668121792     0.3520905982     0.2287590552
|  9>  O       -3.7674412699    -0.3747445411     0.0671736398
| 10>  O       -1.2351535705    -1.2278965163    -1.0895448410
| 11>  C       -0.0432366264    -0.5924447763    -1.3571545609
| 12>  O        0.5727488345    -0.5974605387    -2.3731968867
| 13>  H        1.2046453708     1.7081374522     0.2708753558
| 14>  H       -0.1656029377     1.9969588205    -0.5601449466
| 15>  H        0.7840560797    -0.4749246094     0.6529933253
| 16>  H       -1.4598576841    -1.3331563951     1.0013670312
| 17>  H       -2.6261242314     0.8679700607     1.1917634806
| 18>  H       -2.4515758065     1.1201781858    -0.5525618471
| 19>  H       -3.6886057956    -0.8685269696    -0.7574620098
| 20> *
| 21>
| 22>                          ****END OF INPUT****

CARTESIAN COORDINATES (ANGSTROEM)
---------------------------------
  N      0.220113    1.474157    0.218838
  C      0.044328    0.052930    0.045155
  C     -1.364910   -0.570422    0.224955
  C     -2.566812    0.352091    0.228759
  O     -3.767441   -0.374745    0.067174
  O     -1.235154   -1.227897   -1.089545
  C     -0.043237   -0.592445   -1.357155
  O      0.572749   -0.597461   -2.373197
  H      1.204645    1.708137    0.270875
  H     -0.165603    1.996959   -0.560145
  H      0.784056   -0.474925    0.652993
  H     -1.459858   -1.333156    1.001367
  H     -2.626124    0.867970    1.191763
  H     -2.451576    1.120178   -0.552562
  H     -3.688606   -0.868527   -0.757462

 Total Charge           Charge          ....    0
 Multiplicity           Mult            ....    1
 Number of Electrons    NEL             ....   62
 Basis Dimension        Dim             ....  290

ORBITAL ENERGIES
----------------

  NO   OCC          E(Eh)            E(eV)
   0   2.0000     -20.610384      -560.8371
   1   2.0000     -20.569728      -559.7308
   2   2.0000     -20.564938      -559.6004
   3   2.0000     -15.582049      -424.0091
   4   2.0000     -11.390246      -309.9443
   5   2.0000     -11.314881      -307.8936
   6   2.0000     -11.307852      -307.7023
   7   2.0000     -11.296407      -307.3909
   8   2.0000      -1.472549       -40.0701
   9   2.0000      -1.392744       -37.8985
  10   2.0000      -1.372930       -37.3593
  11   2.0000      -1.223563       -33.2948
  12   2.0000      -1.040877       -28.3237
  13   2.0000      -0.973058       -26.4783
  14   2.0000      -0.864007       -23.5108
  15   2.0000      -0.770589       -20.9688
  16   2.0000      -0.738269       -20.0893
  17   2.0000      -0.709581       -19.3087
  18   2.0000      -0.700088       -19.0504
  19   2.0000      -0.682330       -18.5671
  20   2.0000      -0.659647       -17.9499
  21   2.0000      -0.616464       -16.7748
  22   2.0000      -0.613202       -16.6861
  23   2.0000      -0.587333       -15.9821
  24   2.0000      -0.568930       -15.4814
  25   2.0000      -0.527367       -14.3504
  26   2.0000      -0.519135       -14.1264
  27   2.0000      -0.488524       -13.2934
  28   2.0000      -0.484689       -13.1891
  29   2.0000      -0.451922       -12.2974
  30   2.0000      -0.413861       -11.2617
  31   0.0000       0.107646         2.9292
  32   0.0000       0.138765         3.7760
  33   0.0000       0.150678         4.1002
  34   0.0000       0.165792         4.5114
  35   0.0000       0.178173         4.8483

MULLIKEN ATOMIC CHARGES
-----------------------
   0 N :   -0.525177
   1 C :   -0.096438
   2 C :    0.088366
   3 C :   -0.015214
   4 O :   -0.468792
   5 O :   -0.261286
   6 C :    0.236368
   7 O :   -0.256868
   8 H :    0.248671
   9 H :    0.244110
  10 H :    0.139861
  11 H :    0.118563
  12 H :    0.130966
  13 H :    0.088331
  14 H :    0.328541
Sum of atomic charges:   -0.0000000

LOEWDIN ATOMIC CHARGES
----------------------
   0 N :   -0.129920
   1 C :   -0.275516
   2 C :   -0.240893
   3 C :   -0.331300
   4 O :   -0.035376
   5 O :    0.234542
   6 C :   -0.450349
   7 O :    0.156729
   8 H :    0.165165
   9 H :    0.162386
  10 H :    0.160161
  11 H :    0.142353
  12 H :    0.141032
  13 H :    0.120689
  14 H :    0.180299

  Mayer bond orders larger than 0.1
B(  0-N ,  1-C ) :   1.0324 B(  0-N ,  8-H ) :   0.8868 B(  0-N ,  9-H ) :   0.8835
B(  1-C ,  2-C ) :   0.8534 B(  1-C ,  6-C ) :   0.9381 B(  1-C , 10-H ) :   0.9075
B(  2-C ,  3-C ) :   0.9480 B(  2-C ,  5-O ) :   0.8604 B(  2-C , 11-H ) :   0.9132
B(  3-C ,  4-O ) :   0.9253 B(  3-C , 12-H ) :   0.9200 B(  3-C , 13-H ) :   0.9068
B(  4-O , 14-H ) :   0.8346 B(  5-O ,  6-C ) :   1.0821 B(  6-C ,  7-O ) :   2.0626

MP2 TOTAL ENERGY:     -436.274654976 Eh
FINAL SINGLE POINT ENERGY      -436.274654975781

DIPOLE MOMENT
-------------
                                X             Y             Z
Electronic contribution:      1.45154      -3.44893      -3.84365
Nuclear contribution   :     -0.97097       3.97046       4.52877
                        -----------------------------------------
Total Dipole Moment    :      0.48057       0.52153       0.68512
                        -----------------------------------------
Magnitude (a.u.)       :      0.98607
Magnitude (Debye)      :      2.50638

                             ****ORCA TERMINATED NORMALLY****
TOTAL RUN TIME: 0 days 0 hours 10 minutes 29 seconds 602 msec
