                         Program Version 3.0.3 - RELEASE   -
|  1> ! RI-MP2 RIJK def2-TZVP def2-TZVP/C def2-TZVP/JK TIGHTSCF
|  2> % maxcore 2000
|  3> % mp2 density relaxed end
|  4> *xyz 0 1
|  5>  C       -0.0576581102     1.5468194323     0.0262448861
|  6>  C       -0.1930043871     0.0213438007    -0.0578299936
|  7>  C        0.6483800383    -0.5753523085    -1.1550650650
|  8>  C        0.3391033275    -0.3302930759    -2.6536727815
|  9>  C        0.5741612044    -1.8454582372    -2.9428672230
| 10>  C        0.8932875744    -2.0895370392    -1.4348826304
| 11>  C        2.3220283906    -1.7643220498    -1.0815984455
| 12>  N        3.3820043405    -2.4282583575    -0.9806303634
| 13>  O        2.0933037736    -0.4119423482    -0.8987845416
| 14>  H        0.9829732413     1.8312032878     0.2053895924
| 15>  H       -0.3829087202     2.0273079081    -0.9025105721
| 16>  H       -0.6668283815     1.9478611172     0.8410619689
| 17>  H        0.0988421721    -0.4351724440     0.8954658430
| 18>  H       -1.2390489644    -0.2577078908    -0.2361567614
| 19>  H       -0.6879826380    -0.0049695736    -2.8380356138
| 20>  H        1.0234573784     0.3694771288    -3.1363122002
| 21>  H       -0.3314809110    -2.3634905931    -3.2632698776
| 22>  H        1.3812187825    -2.0960530678    -3.6331533409
| 23>  H        0.4118894791    -2.9168810811    -0.9171124956
| 24>  H        4.1696480995    -1.8293209982    -0.7258655949
| 25> *
| 26>
| 27>                          ****END OF INPUT****

CARTESIAN COORDINATES (ANGSTROEM)
---------------------------------
  C     -0.057658    1.546819    0.026245
  C     -0.193004    0.021344   -0.057830
  C      0.648380   -0.575352   -1.155065
  C      0.339103   -0.330293   -2.653673
  C      0.574161   -1.845458   -2.942867
  C      0.893288   -2.089537   -1.434883
  C      2.322028   -1.764322   -1.081598
  N      3.382004   -2.428258   -0.980630
  O      2.093304   -0.411942   -0.898785
  H      0.982973    1.831203    0.205390
  H     -0.382909    2.027308   -0.902511
  H     -0.666828    1.947861    0.841062
  H      0.098842   -0.435172    0.895466
  H     -1.239049   -0.257708   -0.236157
  H     -0.687983   -0.004970   -2.838036
  H      1.023457    0.369477   -3.136312
  H     -0.331481   -2.363491   -3.263270
  H      1.381219   -2.096053   -3.633153
  H      0.411889   -2.916881   -0.917112
  H      4.169648   -1.829321   -0.725866

 Total Charge           Charge          ....    0
 Multiplicity           Mult            ....    1
 Number of Electrons    NEL             ....   68
 Basis Dimension        Dim             ....  345

ORBITAL ENERGIES
----------------

  NO   OCC          E(Eh)            E(eV)
   0   2.0000     -20.583456      -560.1043
   1   2.0000     -15.531456      -422.6324
   2   2.0000     -11.333650      -308.4043
   3   2.0000     -11.303830      -307.5929
   4   2.0000     -11.247980      -306.0731
   5   2.0000     -11.242734      -305.9303
   6   2.0000     -11.236765      -305.7679
   7   2.0000     -11.236693      -305.7660
   8   2.0000     -11.222706      -305.3853
   9   2.0000      -1.427783       -38.8520
  10   2.0000      -1.191508       -32.4226
  11   2.0000      -1.132133       -30.8069
  12   2.0000      -1.051690       -28.6179
  13   2.0000      -0.954233       -25.9660
  14   2.0000      -0.912745       -24.8371
  15   2.0000      -0.847400       -23.0589
  16   2.0000      -0.786209       -21.3938
  17   2.0000      -0.714700       -19.4480
  18   2.0000      -0.706010       -19.2115
  19   2.0000      -0.667749       -18.1704
  20   2.0000      -0.662774       -18.0350
  21   2.0000      -0.622986       -16.9523
  22   2.0000      -0.596273       -16.2254
  23   2.0000      -0.574799       -15.6411
  24   2.0000      -0.557752       -15.1772
  25   2.0000      -0.540679       -14.7126
  26   2.0000      -0.528415       -14.3789
  27   2.0000      -0.505636       -13.7591
  28   2.0000      -0.486036       -13.2257
  29   2.0000      -0.476408       -12.9637
  30   2.0000      -0.465169       -12.6579
  31   2.0000      -0.436338       -11.8734
  32   2.0000      -0.427341       -11.6285
  33   2.0000      -0.391339       -10.6489
  34   0.0000       0.125646         3.4190
  35   0.0000       0.144333         3.9275
  36   0.0000       0.158869         4.3230
  37   0.0000       0.170819         4.6482
  38   0.0000       0.180681         4.9166

MULLIKEN ATOMIC CHARGES
-----------------------
   0 C :   -0.410280
   1 C :   -0.206980
   2 C :    0.237907
   3 C :   -0.279307
   4 C :   -0.236971
   5 C :   -0.045788
   6 C :    0.063929
   7 N :   -0.360291
   8 O :   -0.286182
   9 H :    0.147791
  10 H :    0.127078
  11 H :    0.138687
  12 H :    0.121005
  13 H :    0.113036
  14 H :    0.121228
  15 H :    0.129863
  16 H :    0.126221
  17 H :    0.136974
  18 H :    0.135430
  19 H :    0.226651
Sum of atomic charges:   -0.0000000

LOEWDIN ATOMIC CHARGES
----------------------
   0 C :   -0.307144
   1 C :   -0.256209
   2 C :   -0.247852
   3 C :   -0.194083
   4 C :   -0.201062
   5 C :   -0.129519
   6 C :   -0.381774
   7 N :   -0.056990
   8 O :    0.244599
   9 H :    0.128111
  10 H :    0.122530
  11 H :    0.122901
  12 H :    0.147069
  13 H :    0.145902
  14 H :    0.136611
  15 H :    0.137596
  16 H :    0.134991
  17 H :    0.135424
  18 H :    0.147188
  19 H :    0.171712

  Mayer bond orders larger than 0.1
B(  0-C ,  1-C ) :   0.9266 B(  0-C ,  9-H ) :   0.9360 B(  0-C , 10-H ) :   0.9352
B(  0-C , 11-H ) :   0.9382 B(  1-C ,  2-C ) :   0.9266 B(  1-C , 12-H ) :   0.9259
B(  1-C , 13-H ) :   0.9238 B(  2-C ,  3-C ) :   0.9168 B(  2-C ,  5-C ) :   0.8624
B(  2-C ,  8-O ) :   0.8484 B(  3-C ,  4-C ) :   0.9713 B(  3-C , 14-H ) :   0.9138
B(  3-C , 15-H ) :   0.9042 B(  4-C ,  5-C ) :   0.8991 B(  4-C , 16-H ) :   0.9230
B(  4-C , 17-H ) :   0.9225 B(  5-C ,  6-C ) :   0.9181 B(  5-C , 18-H ) :   0.9081
B(  6-C ,  7-N ) :   2.1086 B(  6-C ,  8-O ) :   1.0641 B(  7-N , 19-H ) :   0.8464

MP2 TOTAL ENERGY:     -402.448695152 Eh
FINAL SINGLE POINT ENERGY      -402.448695152166

DIPOLE MOMENT
-------------
                                X             Y             Z
Electronic contribution:      5.98727      -4.59967       0.06057
Nuclear contribution   :     -7.05227       5.14544      -0.19004
                        -----------------------------------------
Total Dipole Moment    :     -1.06500       0.54577      -0.12946
                        -----------------------------------------
Magnitude (a.u.)       :      1.20368
Magnitude (Debye)      :      3.05952

                             ****ORCA TERMINATED NORMALLY****
TOTAL RUN TIME: 0 days 0 hours 18 minutes 51 seconds 513 msec
