                         Program Version 3.0.3 - RELEASE   -
|  1> ! RI-MP2 RIJK def2-TZVP def2-TZVP/C def2-TZVP/JK TIGHTSCF
|  2> % maxcore 2000
|  3> % mp2 density relaxed end
|  4> *xyz 0 1
|  5>  C       -0.4306129430     1.5207669334    -0.0118405592
|  6>  C        0.0203800874     0.0654327642    -0.0795866215
|  7>  C       -1.1116528603    -0.8989746247     0.2436534986
|  8>  C        0.8956600756    -0.2884845275    -1.3092600877
|  9>  C        2.0633127295    -0.3527724721    -0.3012253548
| 10>  O        1.1558847338    -0.1565431779     0.8110894080
| 11>  C        2.8536945804    -1.6226545532    -0.1997077126
| 12>  C        4.1634003456    -1.7449127327    -0.9431603489
| 13>  C        4.1563105495    -1.6394710919     0.5593028220
| 14>  H        0.3998021968     2.1970745767    -0.2352654411
| 15>  H       -1.2354959457     1.7149641172    -0.7294685332
| 16>  H       -0.8006056098     1.7569388434     0.9910919162
| 17>  H       -1.9327431515    -0.7884108932    -0.4733485572
| 18>  H       -0.7596181395    -1.9337590388     0.2120431426
| 19>  H       -1.5048918503    -0.7034636256     1.2467885634
| 20>  H        0.6556813980    -1.2506001683    -1.7678077112
| 21>  H        0.9662921408     0.4737200647    -2.0873839129
| 22>  H        2.7564798776     0.4984617844    -0.3862330961
| 23>  H        2.2443045613    -2.5203158441    -0.1358546531
| 24>  H        4.4061603281    -2.6994660944    -1.3960670257
| 25>  H        4.5068387083    -0.8861409408    -1.5112077159
| 26>  H        4.4905291628    -0.7086601264     1.0054091568
| 27>  H        4.3967500644    -2.5220749223     1.1410150235
| 28> *
| 29>
| 30>                          ****END OF INPUT****

CARTESIAN COORDINATES (ANGSTROEM)
---------------------------------
  C     -0.430613    1.520767   -0.011841
  C      0.020380    0.065433   -0.079587
  C     -1.111653   -0.898975    0.243653
  C      0.895660   -0.288485   -1.309260
  C      2.063313   -0.352772   -0.301225
  O      1.155885   -0.156543    0.811089
  C      2.853695   -1.622655   -0.199708
  C      4.163400   -1.744913   -0.943160
  C      4.156311   -1.639471    0.559303
  H      0.399802    2.197075   -0.235265
  H     -1.235496    1.714964   -0.729469
  H     -0.800606    1.756939    0.991092
  H     -1.932743   -0.788411   -0.473349
  H     -0.759618   -1.933759    0.212043
  H     -1.504892   -0.703464    1.246789
  H      0.655681   -1.250600   -1.767808
  H      0.966292    0.473720   -2.087384
  H      2.756480    0.498462   -0.386233
  H      2.244305   -2.520316   -0.135855
  H      4.406160   -2.699466   -1.396067
  H      4.506839   -0.886141   -1.511208
  H      4.490529   -0.708660    1.005409
  H      4.396750   -2.522075    1.141015

 Total Charge           Charge          ....    0
 Multiplicity           Mult            ....    1
 Number of Electrons    NEL             ....   70
 Basis Dimension        Dim             ....  363

ORBITAL ENERGIES
----------------

  NO   OCC          E(Eh)            E(eV)
   0   2.0000     -20.533669      -558.7495
   1   2.0000     -11.283316      -307.0346
   2   2.0000     -11.278083      -306.8923
   3   2.0000     -11.227305      -305.5105
   4   2.0000     -11.226144      -305.4789
   5   2.0000     -11.223220      -305.3994
   6   2.0000     -11.221495      -305.3524
   7   2.0000     -11.212692      -305.1129
   8   2.0000     -11.212176      -305.0988
   9   2.0000      -1.367056       -37.1995
  10   2.0000      -1.142345       -31.0848
  11   2.0000      -1.049305       -28.5530
  12   2.0000      -0.993835       -27.0436
  13   2.0000      -0.937266       -25.5043
  14   2.0000      -0.882410       -24.0116
  15   2.0000      -0.821204       -22.3461
  16   2.0000      -0.778609       -21.1870
  17   2.0000      -0.726684       -19.7741
  18   2.0000      -0.673359       -18.3230
  19   2.0000      -0.659025       -17.9330
  20   2.0000      -0.630542       -17.1579
  21   2.0000      -0.625696       -17.0260
  22   2.0000      -0.591197       -16.0873
  23   2.0000      -0.570725       -15.5302
  24   2.0000      -0.553188       -15.0530
  25   2.0000      -0.532566       -14.4919
  26   2.0000      -0.526156       -14.3174
  27   2.0000      -0.513655       -13.9773
  28   2.0000      -0.512205       -13.9378
  29   2.0000      -0.492096       -13.3906
  30   2.0000      -0.464373       -12.6362
  31   2.0000      -0.443522       -12.0688
  32   2.0000      -0.421643       -11.4735
  33   2.0000      -0.403396       -10.9770
  34   2.0000      -0.397140       -10.8067
  35   0.0000       0.136475         3.7137
  36   0.0000       0.150393         4.0924
  37   0.0000       0.160822         4.3762
  38   0.0000       0.172469         4.6931
  39   0.0000       0.188455         5.1281

MULLIKEN ATOMIC CHARGES
-----------------------
   0 C :   -0.422925
   1 C :    0.255766
   2 C :   -0.404201
   3 C :   -0.279830
   4 C :    0.064107
   5 O :   -0.341633
   6 C :   -0.077841
   7 C :   -0.272430
   8 C :   -0.267861
   9 H :    0.131471
  10 H :    0.124401
  11 H :    0.133877
  12 H :    0.125733
  13 H :    0.128235
  14 H :    0.133833
  15 H :    0.120740
  16 H :    0.128403
  17 H :    0.082821
  18 H :    0.117204
  19 H :    0.130901
  20 H :    0.126020
  21 H :    0.132053
  22 H :    0.131157
Sum of atomic charges:    0.0000000

LOEWDIN ATOMIC CHARGES
----------------------
   0 C :   -0.273224
   1 C :   -0.363180
   2 C :   -0.273566
   3 C :   -0.181136
   4 C :   -0.269695
   5 O :    0.173557
   6 C :   -0.216523
   7 C :   -0.226679
   8 C :   -0.222070
   9 H :    0.127159
  10 H :    0.126651
  11 H :    0.129031
  12 H :    0.127587
  13 H :    0.125392
  14 H :    0.129567
  15 H :    0.136778
  16 H :    0.131672
  17 H :    0.138960
  18 H :    0.148900
  19 H :    0.131110
  20 H :    0.132527
  21 H :    0.135061
  22 H :    0.132122

  Mayer bond orders larger than 0.1
B(  0-C ,  1-C ) :   0.9217 B(  0-C ,  9-H ) :   0.9353 B(  0-C , 10-H ) :   0.9319
B(  0-C , 11-H ) :   0.9364 B(  1-C ,  2-C ) :   0.9030 B(  1-C ,  3-C ) :   0.9017
B(  1-C ,  5-O ) :   0.8917 B(  2-C , 12-H ) :   0.9322 B(  2-C , 13-H ) :   0.9379
B(  2-C , 14-H ) :   0.9366 B(  3-C ,  4-C ) :   0.9264 B(  3-C , 15-H ) :   0.9277
B(  3-C , 16-H ) :   0.9264 B(  4-C ,  5-O ) :   0.9440 B(  4-C ,  6-C ) :   0.9474
B(  4-C , 17-H ) :   0.9037 B(  6-C ,  7-C ) :   0.8592 B(  6-C ,  8-C ) :   0.8786
B(  6-C , 18-H ) :   0.9198 B(  7-C ,  8-C ) :   0.9105 B(  7-C , 19-H ) :   0.9275
B(  7-C , 20-H ) :   0.9267 B(  8-C , 21-H ) :   0.9291 B(  8-C , 22-H ) :   0.9297

MP2 TOTAL ENERGY:     -387.595087872 Eh
FINAL SINGLE POINT ENERGY      -387.595087872303

DIPOLE MOMENT
-------------
                                X             Y             Z
Electronic contribution:      2.10978      -0.37514       1.58194
Nuclear contribution   :     -2.20378       0.32559      -2.22260
                        -----------------------------------------
Total Dipole Moment    :     -0.09401      -0.04955      -0.64066
                        -----------------------------------------
Magnitude (a.u.)       :      0.64941
Magnitude (Debye)      :      1.65068

                             ****ORCA TERMINATED NORMALLY****
TOTAL RUN TIME: 0 days 0 hours 20 minutes 30 seconds 486 msec
