                         Program Version 3.0.3 - RELEASE   -
|  1> ! RI-MP2 RIJK def2-TZVP def2-TZVP/C def2-TZVP/JK TIGHTSCF
|  2> % maxcore 2000
|  3> % mp2 density relaxed end
|  4> *xyz 0 1
|  5>  C       -0.0212757846     1.4772293760     0.0799654371
|  6>  C        0.0359313006    -0.0223767652    -0.0094891727
|  7>  C       -0.0279089545    -0.6882836555    -1.2205152431
|  8>  C        0.0349589983    -2.0944002945    -1.1819577569
|  9>  N        0.0210182522    -2.8482840401    -2.3202695349
| 10>  N        0.1471412017    -2.7644893369    -0.0297745614
| 11>  C        0.2030003393    -2.0118018192     1.0620794546
| 12>  O        0.3188483612    -2.6904399240     2.2157280224
| 13>  N        0.1541936936    -0.6844028554     1.1564585043
| 14>  H        0.8854804348     1.8592067285     0.5598729771
| 15>  H       -0.1225681996     1.9402397748    -0.9040345274
| 16>  H       -0.8651097132     1.7843279853     0.7059991119
| 17>  H       -0.1167303218    -0.1528705483    -2.1578316238
| 18>  H       -0.3334945849    -2.4429958678    -3.1694344290
| 19>  H       -0.1267997984    -3.8365347878    -2.1906492056
| 20>  H        0.3436429753    -2.0172807101     2.9093876473
| 21> *
| 22>
| 23>                          ****END OF INPUT****

CARTESIAN COORDINATES (ANGSTROEM)
---------------------------------
  C     -0.021276    1.477229    0.079965
  C      0.035931   -0.022377   -0.009489
  C     -0.027909   -0.688284   -1.220515
  C      0.034959   -2.094400   -1.181958
  N      0.021018   -2.848284   -2.320270
  N      0.147141   -2.764489   -0.029775
  C      0.203000   -2.011802    1.062079
  O      0.318848   -2.690440    2.215728
  N      0.154194   -0.684403    1.156459
  H      0.885480    1.859207    0.559873
  H     -0.122568    1.940240   -0.904035
  H     -0.865110    1.784328    0.705999
  H     -0.116730   -0.152871   -2.157832
  H     -0.333495   -2.442996   -3.169434
  H     -0.126800   -3.836535   -2.190649
  H      0.343643   -2.017281    2.909388

 Total Charge           Charge          ....    0
 Multiplicity           Mult            ....    1
 Number of Electrons    NEL             ....   66
 Basis Dimension        Dim             ....  321

ORBITAL ENERGIES
----------------

  NO   OCC          E(Eh)            E(eV)
   0   2.0000     -20.590303      -560.2906
   1   2.0000     -15.583593      -424.0511
   2   2.0000     -15.545438      -423.0129
   3   2.0000     -15.544036      -422.9747
   4   2.0000     -11.367272      -309.3192
   5   2.0000     -11.337299      -308.5036
   6   2.0000     -11.300277      -307.4962
   7   2.0000     -11.232151      -305.6424
   8   2.0000     -11.221032      -305.3398
   9   2.0000      -1.431980       -38.9662
  10   2.0000      -1.302528       -35.4436
  11   2.0000      -1.237905       -33.6851
  12   2.0000      -1.169062       -31.8118
  13   2.0000      -1.056447       -28.7474
  14   2.0000      -0.980443       -26.6792
  15   2.0000      -0.881574       -23.9889
  16   2.0000      -0.839837       -22.8531
  17   2.0000      -0.760835       -20.7034
  18   2.0000      -0.741485       -20.1768
  19   2.0000      -0.669353       -18.2140
  20   2.0000      -0.652106       -17.7447
  21   2.0000      -0.639519       -17.4022
  22   2.0000      -0.630970       -17.1696
  23   2.0000      -0.604070       -16.4376
  24   2.0000      -0.580465       -15.7953
  25   2.0000      -0.549000       -14.9390
  26   2.0000      -0.547685       -14.9033
  27   2.0000      -0.545467       -14.8429
  28   2.0000      -0.478440       -13.0190
  29   2.0000      -0.466902       -12.7051
  30   2.0000      -0.410646       -11.1743
  31   2.0000      -0.387096       -10.5334
  32   2.0000      -0.335103        -9.1186
  33   0.0000       0.121195         3.2979
  34   0.0000       0.129609         3.5268
  35   0.0000       0.147871         4.0238
  36   0.0000       0.156028         4.2457
  37   0.0000       0.166692         4.5359

MULLIKEN ATOMIC CHARGES
-----------------------
   0 C :   -0.416599
   1 C :    0.170659
   2 C :   -0.304611
   3 C :    0.329698
   4 N :   -0.490449
   5 N :   -0.292275
   6 C :    0.327061
   7 O :   -0.393406
   8 N :   -0.338343
   9 H :    0.147342
  10 H :    0.129160
  11 H :    0.146667
  12 H :    0.126542
  13 H :    0.254693
  14 H :    0.265903
  15 H :    0.337959
Sum of atomic charges:   -0.0000000

LOEWDIN ATOMIC CHARGES
----------------------
   0 C :   -0.261750
   1 C :   -0.245500
   2 C :   -0.143136
   3 C :   -0.319698
   4 N :   -0.018157
   5 N :    0.144400
   6 C :   -0.461000
   7 O :    0.095487
   8 N :    0.114808
   9 H :    0.136744
  10 H :    0.126450
  11 H :    0.136434
  12 H :    0.148676
  13 H :    0.170921
  14 H :    0.177136
  15 H :    0.198185

  Mayer bond orders larger than 0.1
B(  0-C ,  1-C ) :   0.8843 B(  0-C ,  9-H ) :   0.9277 B(  0-C , 10-H ) :   0.9528
B(  0-C , 11-H ) :   0.9277 B(  1-C ,  2-C ) :   1.4647 B(  1-C ,  8-N ) :   1.3450
B(  2-C ,  3-C ) :   1.2400 B(  2-C , 12-H ) :   0.8911 B(  3-C ,  4-N ) :   1.1337
B(  3-C ,  5-N ) :   1.3702 B(  4-N , 13-H ) :   0.8754 B(  4-N , 14-H ) :   0.8584
B(  5-N ,  6-C ) :   1.4416 B(  6-C ,  7-O ) :   1.1540 B(  6-C ,  8-N ) :   1.3828
B(  7-O , 15-H ) :   0.8138

MP2 TOTAL ENERGY:     -433.431827823 Eh
FINAL SINGLE POINT ENERGY      -433.431827822643

DIPOLE MOMENT
-------------
                                X             Y             Z
Electronic contribution:      0.56295      -5.78269       2.82524
Nuclear contribution   :     -0.93993       6.42555      -3.91562
                        -----------------------------------------
Total Dipole Moment    :     -0.37699       0.64286      -1.09037
                        -----------------------------------------
Magnitude (a.u.)       :      1.32072
Magnitude (Debye)      :      3.35701

                             ****ORCA TERMINATED NORMALLY****
TOTAL RUN TIME: 0 days 0 hours 14 minutes 40 seconds 32 msec
