                         Program Version 3.0.3 - RELEASE   -
|  1> ! RI-MP2 RIJK def2-TZVP def2-TZVP/C def2-TZVP/JK TIGHTSCF
|  2> % maxcore 2000
|  3> % mp2 density relaxed end
|  4> *xyz 0 1
|  5>  C        0.0054952221     1.7009387396    -0.0733894529
|  6>  C        0.0841668906     0.1724536883    -0.2010315782
|  7>  O        0.8138854974    -0.2154154435    -1.3654975994
|  8>  C        0.6304889102    -0.4435417473     1.0126278382
|  9>  C        1.1287388745    -0.9276342921     1.9991932178
| 10>  C        1.6830546472    -1.5394505801     3.1893911061
| 11>  C        0.8567109135    -1.5053353800     4.5182595292
| 12>  C        1.3521902998    -2.9444814478     4.8168317821
| 13>  C        1.7029145406    -3.0991020995     3.3138541819
| 14>  H        1.0009597179     2.1210688250     0.1031101435
| 15>  H       -0.3963984237     2.1233900356    -0.9981668554
| 16>  H       -0.6382403147     1.9898297233     0.7626650836
| 17>  H       -0.9271536119    -0.2155447023    -0.3750778132
| 18>  H        1.7469643416    -0.0621193774    -1.1800128800
| 19>  H        2.6887194658    -1.1471374852     3.3793171711
| 20>  H        1.0951616141    -0.7134518427     5.2314206066
| 21>  H       -0.2145828471    -1.4801175241     4.3043284418
| 22>  H        2.2480872878    -2.9430212828     5.4445411637
| 23>  H        0.6328452752    -3.6471568361     5.2418532343
| 24>  H        0.8802691342    -3.5406179360     2.7462127473
| 25>  H        2.6317259252    -3.6071404146     3.0460141718
| 26> *
| 27>
| 28>                          ****END OF INPUT****

CARTESIAN COORDINATES (ANGSTROEM)
---------------------------------
  C      0.005495    1.700939   -0.073389
  C      0.084167    0.172454   -0.201032
  O      0.813885   -0.215415   -1.365498
  C      0.630489   -0.443542    1.012628
  C      1.128739   -0.927634    1.999193
  C      1.683055   -1.539451    3.189391
  C      0.856711   -1.505335    4.518260
  C      1.352190   -2.944481    4.816832
  C      1.702915   -3.099102    3.313854
  H      1.000960    2.121069    0.103110
  H     -0.396398    2.123390   -0.998167
  H     -0.638240    1.989830    0.762665
  H     -0.927154   -0.215545   -0.375078
  H      1.746964   -0.062119   -1.180013
  H      2.688719   -1.147137    3.379317
  H      1.095162   -0.713452    5.231421
  H     -0.214583   -1.480118    4.304328
  H      2.248087   -2.943021    5.444541
  H      0.632845   -3.647157    5.241853
  H      0.880269   -3.540618    2.746213
  H      2.631726   -3.607140    3.046014

 Total Charge           Charge          ....    0
 Multiplicity           Mult            ....    1
 Number of Electrons    NEL             ....   68
 Basis Dimension        Dim             ....  351

ORBITAL ENERGIES
----------------

  NO   OCC          E(Eh)            E(eV)
   0   2.0000     -20.556800      -559.3790
   1   2.0000     -11.304106      -307.6004
   2   2.0000     -11.252875      -306.2063
   3   2.0000     -11.230757      -305.6044
   4   2.0000     -11.229592      -305.5727
   5   2.0000     -11.226683      -305.4936
   6   2.0000     -11.225309      -305.4562
   7   2.0000     -11.221452      -305.3512
   8   2.0000     -11.217469      -305.2428
   9   2.0000      -1.363101       -37.0919
  10   2.0000      -1.142397       -31.0862
  11   2.0000      -1.057399       -28.7733
  12   2.0000      -1.000865       -27.2349
  13   2.0000      -0.918657       -24.9979
  14   2.0000      -0.903892       -24.5962
  15   2.0000      -0.858970       -23.3737
  16   2.0000      -0.774336       -21.0708
  17   2.0000      -0.724922       -19.7261
  18   2.0000      -0.679262       -18.4837
  19   2.0000      -0.656798       -17.8724
  20   2.0000      -0.636271       -17.3138
  21   2.0000      -0.610553       -16.6140
  22   2.0000      -0.569500       -15.4969
  23   2.0000      -0.562161       -15.2972
  24   2.0000      -0.547108       -14.8876
  25   2.0000      -0.534078       -14.5330
  26   2.0000      -0.516792       -14.0626
  27   2.0000      -0.507549       -13.8111
  28   2.0000      -0.479411       -13.0454
  29   2.0000      -0.469106       -12.7650
  30   2.0000      -0.457067       -12.4374
  31   2.0000      -0.454254       -12.3609
  32   2.0000      -0.370328       -10.0771
  33   2.0000      -0.364187        -9.9100
  34   0.0000       0.127859         3.4792
  35   0.0000       0.146253         3.9797
  36   0.0000       0.157982         4.2989
  37   0.0000       0.160542         4.3686
  38   0.0000       0.174343         4.7441

MULLIKEN ATOMIC CHARGES
-----------------------
   0 C :   -0.343325
   1 C :    0.062323
   2 O :   -0.456380
   3 C :   -0.032389
   4 C :   -0.029823
   5 C :   -0.196515
   6 C :   -0.222327
   7 C :   -0.204003
   8 C :   -0.218839
   9 H :    0.113491
  10 H :    0.139285
  11 H :    0.127277
  12 H :    0.110597
  13 H :    0.316105
  14 H :    0.118874
  15 H :    0.118833
  16 H :    0.121424
  17 H :    0.112723
  18 H :    0.119779
  19 H :    0.123754
  20 H :    0.119136
Sum of atomic charges:    0.0000000

LOEWDIN ATOMIC CHARGES
----------------------
   0 C :   -0.286176
   1 C :   -0.363242
   2 O :   -0.017305
   3 C :   -0.063657
   4 C :   -0.055135
   5 C :   -0.221995
   6 C :   -0.203994
   7 C :   -0.245053
   8 C :   -0.203826
   9 H :    0.123129
  10 H :    0.125634
  11 H :    0.128006
  12 H :    0.157586
  13 H :    0.176659
  14 H :    0.165880
  15 H :    0.124101
  16 H :    0.138749
  17 H :    0.133323
  18 H :    0.123575
  19 H :    0.139447
  20 H :    0.124295

  Mayer bond orders larger than 0.1
B(  0-C ,  1-C ) :   0.9771 B(  0-C ,  9-H ) :   0.9212 B(  0-C , 10-H ) :   0.9405
B(  0-C , 11-H ) :   0.9277 B(  1-C ,  2-O ) :   0.9406 B(  1-C ,  3-C ) :   0.9468
B(  1-C , 12-H ) :   0.9062 B(  2-O , 13-H ) :   0.8403 B(  3-C ,  4-C ) :   2.6637
B(  3-C ,  5-C ) :  -0.1471 B(  4-C ,  5-C ) :   1.0985 B(  5-C ,  6-C ) :   0.9181
B(  5-C ,  8-C ) :   0.9155 B(  5-C , 14-H ) :   0.9056 B(  6-C ,  7-C ) :   0.9393
B(  6-C , 15-H ) :   0.9276 B(  6-C , 16-H ) :   0.9281 B(  7-C ,  8-C ) :   0.9386
B(  7-C , 17-H ) :   0.9265 B(  7-C , 18-H ) :   0.9245 B(  8-C , 19-H ) :   0.9277
B(  8-C , 20-H ) :   0.9281

MP2 TOTAL ENERGY:     -386.366968242 Eh
FINAL SINGLE POINT ENERGY      -386.366968241639

DIPOLE MOMENT
-------------
                                X             Y             Z
Electronic contribution:      0.45532      -0.11118      -4.42986
Nuclear contribution   :     -0.18571       0.25458       5.16763
                        -----------------------------------------
Total Dipole Moment    :      0.26962       0.14340       0.73777
                        -----------------------------------------
Magnitude (a.u.)       :      0.79848
Magnitude (Debye)      :      2.02957

                             ****ORCA TERMINATED NORMALLY****
TOTAL RUN TIME: 0 days 0 hours 17 minutes 28 seconds 138 msec
