                         Program Version 3.0.3 - RELEASE   -
|  1> ! RI-MP2 RIJK def2-TZVP def2-TZVP/C def2-TZVP/JK TIGHTSCF
|  2> % maxcore 2000
|  3> % mp2 density relaxed end
|  4> *xyz 0 1
|  5>  O       -0.1711385417    -0.0781416567     0.3982157229
|  6>  C       -0.1131881752     1.1030792164     0.1379355784
|  7>  N        1.0266213425     1.7942995890    -0.1521905348
|  8>  C        2.3314129939     1.1909937755    -0.1861835338
|  9>  C        3.2881602828     1.5355390532    -1.3378742474
| 10>  C        3.7089997867     2.9165800770    -0.7371977146
| 11>  C        5.1670992715     2.4862350987    -0.8278843452
| 12>  N        4.5086221168     1.1589712894    -0.4548734591
| 13>  C        3.5155565442     1.9274704790     0.4584438363
| 14>  H       -1.0045856630     1.7610983728     0.1081864486
| 15>  H        0.9401388068     2.7786389685    -0.3530507927
| 16>  H        2.2334531559     0.1332568284     0.0568076452
| 17>  H        3.2547988996     1.2456804706    -2.3896022242
| 18>  H        3.2500863109     3.8999242361    -0.8937042853
| 19>  H        5.6437068871     2.4733205610    -1.8132805448
| 20>  H        5.8646305656     2.8540878607    -0.0686290675
| 21>  H        3.7486220157     2.0968295704     1.5111920880
| 22> *
| 23>
| 24>                          ****END OF INPUT****

CARTESIAN COORDINATES (ANGSTROEM)
---------------------------------
  O     -0.171139   -0.078142    0.398216
  C     -0.113188    1.103079    0.137936
  N      1.026621    1.794300   -0.152191
  C      2.331413    1.190994   -0.186184
  C      3.288160    1.535539   -1.337874
  C      3.709000    2.916580   -0.737198
  C      5.167099    2.486235   -0.827884
  N      4.508622    1.158971   -0.454873
  C      3.515557    1.927470    0.458444
  H     -1.004586    1.761098    0.108186
  H      0.940139    2.778639   -0.353051
  H      2.233453    0.133257    0.056808
  H      3.254799    1.245680   -2.389602
  H      3.250086    3.899924   -0.893704
  H      5.643707    2.473321   -1.813281
  H      5.864631    2.854088   -0.068629
  H      3.748622    2.096830    1.511192

 Total Charge           Charge          ....    0
 Multiplicity           Mult            ....    1
 Number of Electrons    NEL             ....   66
 Basis Dimension        Dim             ....  327

ORBITAL ENERGIES
----------------

  NO   OCC          E(Eh)            E(eV)
   0   2.0000     -20.527197      -558.5734
   1   2.0000     -15.597578      -424.4317
   2   2.0000     -15.576753      -423.8650
   3   2.0000     -11.355005      -308.9854
   4   2.0000     -11.283003      -307.0261
   5   2.0000     -11.282823      -307.0212
   6   2.0000     -11.281434      -306.9834
   7   2.0000     -11.264630      -306.5262
   8   2.0000     -11.262505      -306.4683
   9   2.0000      -1.388745       -37.7897
  10   2.0000      -1.331859       -36.2417
  11   2.0000      -1.239943       -33.7406
  12   2.0000      -1.035240       -28.1703
  13   2.0000      -0.944525       -25.7018
  14   2.0000      -0.893656       -24.3176
  15   2.0000      -0.884435       -24.0667
  16   2.0000      -0.811405       -22.0794
  17   2.0000      -0.755676       -20.5630
  18   2.0000      -0.710602       -19.3365
  19   2.0000      -0.680614       -18.5204
  20   2.0000      -0.664793       -18.0899
  21   2.0000      -0.630466       -17.1559
  22   2.0000      -0.630049       -17.1445
  23   2.0000      -0.593377       -16.1466
  24   2.0000      -0.583886       -15.8884
  25   2.0000      -0.515286       -14.0216
  26   2.0000      -0.501192       -13.6381
  27   2.0000      -0.474472       -12.9110
  28   2.0000      -0.453595       -12.3429
  29   2.0000      -0.452786       -12.3209
  30   2.0000      -0.435083       -11.8392
  31   2.0000      -0.390442       -10.6245
  32   2.0000      -0.385667       -10.4945
  33   0.0000       0.119479         3.2512
  34   0.0000       0.147949         4.0259
  35   0.0000       0.165776         4.5110
  36   0.0000       0.171707         4.6724
  37   0.0000       0.175176         4.7668

MULLIKEN ATOMIC CHARGES
-----------------------
   0 O :   -0.354770
   1 C :    0.189046
   2 N :   -0.329030
   3 C :    0.010062
   4 C :   -0.073234
   5 C :   -0.126721
   6 C :   -0.155862
   7 N :   -0.196190
   8 C :   -0.073557
   9 H :    0.080888
  10 H :    0.238743
  11 H :    0.161688
  12 H :    0.138582
  13 H :    0.110444
  14 H :    0.120691
  15 H :    0.120673
  16 H :    0.138546
Sum of atomic charges:   -0.0000000

LOEWDIN ATOMIC CHARGES
----------------------
   0 O :    0.063553
   1 C :   -0.431344
   2 N :    0.106627
   3 C :   -0.221884
   4 C :   -0.156775
   5 C :   -0.183443
   6 C :   -0.238393
   7 N :    0.135540
   8 C :   -0.156865
   9 H :    0.109969
  10 H :    0.188446
  11 H :    0.161323
  12 H :    0.128581
  13 H :    0.118690
  14 H :    0.123706
  15 H :    0.123697
  16 H :    0.128572

  Mayer bond orders larger than 0.1
B(  0-O ,  1-C ) :   1.8952 B(  1-C ,  2-N ) :   1.1449 B(  1-C ,  9-H ) :   0.9294
B(  2-N ,  3-C ) :   0.8365 B(  2-N , 10-H ) :   0.8710 B(  3-C ,  4-C ) :   0.8970
B(  3-C ,  8-C ) :   0.8968 B(  3-C , 11-H ) :   0.9104 B(  4-C ,  5-C ) :   0.8879
B(  4-C ,  7-N ) :   0.9234 B(  4-C , 12-H ) :   0.8938 B(  5-C ,  6-C ) :   0.9607
B(  5-C ,  8-C ) :   0.8879 B(  5-C , 13-H ) :   0.9275 B(  6-C ,  7-N ) :   0.9196
B(  6-C , 14-H ) :   0.9261 B(  6-C , 15-H ) :   0.9261 B(  7-N ,  8-C ) :   0.9235
B(  8-C , 16-H ) :   0.8937

MP2 TOTAL ENERGY:     -417.218393283 Eh
FINAL SINGLE POINT ENERGY      -417.218393283112

DIPOLE MOMENT
-------------
                                X             Y             Z
Electronic contribution:     -3.13771      -2.66481       0.97264
Nuclear contribution   :      3.43699       4.57212      -1.42135
                        -----------------------------------------
Total Dipole Moment    :      0.29928       1.90731      -0.44870
                        -----------------------------------------
Magnitude (a.u.)       :      1.98211
Magnitude (Debye)      :      5.03812

                             ****ORCA TERMINATED NORMALLY****
TOTAL RUN TIME: 0 days 0 hours 15 minutes 32 seconds 925 msec
