                         Program Version 3.0.3 - RELEASE   -
|  1> ! RI-MP2 RIJK def2-TZVP def2-TZVP/C def2-TZVP/JK TIGHTSCF
|  2> % maxcore 2000
|  3> % mp2 density relaxed end
|  4> *xyz 0 1
|  5>  C       -0.0599135347     1.6058242769    -0.1461141544
|  6>  C       -0.0299827330     0.0842215362    -0.0914000420
|  7>  C       -1.4151740408    -0.5168472641     0.2234699183
|  8>  O       -1.8866415117    -0.1085129350     1.4885468643
|  9>  C        0.7205617831    -0.6678412934    -1.2162607203
| 10>  N        2.0956283813    -0.1730157351    -1.2016556153
| 11>  C        1.7140365664    -1.2774753284    -0.2537947525
| 12>  C        0.9743038710    -0.6188560857     0.8763370987
| 13>  O        0.9404397683    -0.7898196979     2.0669344030
| 14>  H        0.9362444523     2.0113535951    -0.3305703174
| 15>  H       -0.7279756269     1.9436720635    -0.9470417615
| 16>  H       -0.4437789698     2.0026454133     0.7965919855
| 17>  H       -2.1445950965    -0.1623273234    -0.5145742053
| 18>  H       -1.3714622444    -1.6162885211     0.1404711668
| 19>  H       -1.2073014534    -0.3520028973     2.1327828089
| 20>  H        0.2857590964    -1.1438681323    -2.0865256118
| 21>  H        2.6057435183    -0.6275560265    -1.9596947391
| 22>  H        2.2323740141    -2.2275920546    -0.2729120757
| 23> *
| 24>
| 25>                          ****END OF INPUT****

CARTESIAN COORDINATES (ANGSTROEM)
---------------------------------
  C     -0.059914    1.605824   -0.146114
  C     -0.029983    0.084222   -0.091400
  C     -1.415174   -0.516847    0.223470
  O     -1.886642   -0.108513    1.488547
  C      0.720562   -0.667841   -1.216261
  N      2.095628   -0.173016   -1.201656
  C      1.714037   -1.277475   -0.253795
  C      0.974304   -0.618856    0.876337
  O      0.940440   -0.789820    2.066934
  H      0.936244    2.011354   -0.330570
  H     -0.727976    1.943672   -0.947042
  H     -0.443779    2.002645    0.796592
  H     -2.144595   -0.162327   -0.514574
  H     -1.371462   -1.616289    0.140471
  H     -1.207301   -0.352003    2.132783
  H      0.285759   -1.143868   -2.086526
  H      2.605744   -0.627556   -1.959695
  H      2.232374   -2.227592   -0.272912

 Total Charge           Charge          ....    0
 Multiplicity           Mult            ....    1
 Number of Electrons    NEL             ....   68
 Basis Dimension        Dim             ....  333

ORBITAL ENERGIES
----------------

  NO   OCC          E(Eh)            E(eV)
   0   2.0000     -20.565453      -559.6144
   1   2.0000     -20.552180      -559.2533
   2   2.0000     -15.598359      -424.4529
   3   2.0000     -11.347988      -308.7945
   4   2.0000     -11.296945      -307.4055
   5   2.0000     -11.290420      -307.2279
   6   2.0000     -11.288469      -307.1748
   7   2.0000     -11.262523      -306.4688
   8   2.0000     -11.220160      -305.3161
   9   2.0000      -1.410537       -38.3827
  10   2.0000      -1.360634       -37.0247
  11   2.0000      -1.311095       -35.6767
  12   2.0000      -1.095644       -29.8140
  13   2.0000      -0.980122       -26.6705
  14   2.0000      -0.929619       -25.2962
  15   2.0000      -0.873368       -23.7656
  16   2.0000      -0.828137       -22.5348
  17   2.0000      -0.742637       -20.2082
  18   2.0000      -0.716158       -19.4876
  19   2.0000      -0.682695       -18.5771
  20   2.0000      -0.665765       -18.1164
  21   2.0000      -0.639043       -17.3892
  22   2.0000      -0.618681       -16.8352
  23   2.0000      -0.594297       -16.1716
  24   2.0000      -0.578655       -15.7460
  25   2.0000      -0.548776       -14.9330
  26   2.0000      -0.544435       -14.8148
  27   2.0000      -0.527728       -14.3602
  28   2.0000      -0.524772       -14.2798
  29   2.0000      -0.502254       -13.6670
  30   2.0000      -0.484194       -13.1756
  31   2.0000      -0.441474       -12.0131
  32   2.0000      -0.408635       -11.1195
  33   2.0000      -0.388946       -10.5838
  34   0.0000       0.114806         3.1240
  35   0.0000       0.133214         3.6249
  36   0.0000       0.152388         4.1467
  37   0.0000       0.163338         4.4447
  38   0.0000       0.171697         4.6721

MULLIKEN ATOMIC CHARGES
-----------------------
   0 C :   -0.421320
   1 C :    0.111420
   2 C :   -0.042536
   3 O :   -0.471236
   4 C :   -0.114606
   5 N :   -0.360424
   6 C :   -0.115558
   7 C :    0.179623
   8 O :   -0.297715
   9 H :    0.159179
  10 H :    0.124810
  11 H :    0.152571
  12 H :    0.114877
  13 H :    0.110343
  14 H :    0.331354
  15 H :    0.159079
  16 H :    0.226173
  17 H :    0.153965
Sum of atomic charges:    0.0000000

LOEWDIN ATOMIC CHARGES
----------------------
   0 C :   -0.261647
   1 C :   -0.245609
   2 C :   -0.299719
   3 O :   -0.031259
   4 C :   -0.185691
   5 N :    0.023888
   6 C :   -0.175667
   7 C :   -0.263541
   8 O :    0.151894
   9 H :    0.132826
  10 H :    0.128966
  11 H :    0.135598
  12 H :    0.133771
  13 H :    0.124940
  14 H :    0.178776
  15 H :    0.137619
  16 H :    0.178308
  17 H :    0.136545

  Mayer bond orders larger than 0.1
B(  0-C ,  1-C ) :   0.8910 B(  0-C ,  9-H ) :   0.9316 B(  0-C , 10-H ) :   0.9306
B(  0-C , 11-H ) :   0.9265 B(  1-C ,  2-C ) :   0.9020 B(  1-C ,  4-C ) :   0.8680
B(  1-C ,  6-C ) :  -0.1070 B(  1-C ,  7-C ) :   0.8835 B(  2-C ,  3-O ) :   0.9492
B(  2-C , 12-H ) :   0.9301 B(  2-C , 13-H ) :   0.9104 B(  3-O , 14-H ) :   0.8215
B(  4-C ,  5-N ) :   0.9799 B(  4-C ,  6-C ) :   0.8730 B(  4-C , 15-H ) :   0.9067
B(  5-N ,  6-C ) :   0.8975 B(  5-N , 16-H ) :   0.8659 B(  6-C ,  7-C ) :   0.9367
B(  6-C , 17-H ) :   0.9108 B(  7-C ,  8-O ) :   1.9337

MP2 TOTAL ENERGY:     -438.332147938 Eh
FINAL SINGLE POINT ENERGY      -438.332147938346

DIPOLE MOMENT
-------------
                                X             Y             Z
Electronic contribution:      2.77030      -2.75849       3.31641
Nuclear contribution   :     -2.33160       2.07016      -4.78718
                        -----------------------------------------
Total Dipole Moment    :      0.43870      -0.68833      -1.47076
                        -----------------------------------------
Magnitude (a.u.)       :      1.68208
Magnitude (Debye)      :      4.27551

                             ****ORCA TERMINATED NORMALLY****
TOTAL RUN TIME: 0 days 0 hours 18 minutes 31 seconds 616 msec
