                         Program Version 3.0.3 - RELEASE   -
|  1> ! RI-MP2 RIJK def2-TZVP def2-TZVP/C def2-TZVP/JK TIGHTSCF
|  2> % maxcore 2000
|  3> % mp2 density relaxed end
|  4> *xyz 0 1
|  5>  O        0.0102331212    -0.0414427991     0.2181223916
|  6>  C       -0.0450211821     1.1590661136     0.0327036125
|  7>  C       -1.3242489040     1.8970274498    -0.0391553769
|  8>  C       -1.3580377453     3.1886877696    -0.4042836503
|  9>  C       -0.1524253931     3.9390631962    -0.8142596705
| 10>  C        1.0660804635     4.2058797046     0.0823830592
| 11>  C        1.2698004287     3.0967377400     1.1067686949
| 12>  C        1.1962025003     2.0304432883    -0.0539311794
| 13>  C        1.1378075054     3.2091867954    -1.0599564489
| 14>  H       -2.2229383488     1.3402174832     0.2043351614
| 15>  H       -2.3084746180     3.7164934624    -0.4427202483
| 16>  H       -0.3381147471     4.7687634496    -1.4897408261
| 17>  H        1.4665733019     5.2106202971     0.1449373454
| 18>  H        2.2739514767     3.1209970480     1.5344297230
| 19>  H        0.5390858428     3.0073661517     1.9161657494
| 20>  H        2.0813573725     1.4003086555    -0.1269549406
| 21>  H        1.6687098155     3.2617118641    -2.0026175465
| 22> *
| 23>
| 24>                          ****END OF INPUT****

CARTESIAN COORDINATES (ANGSTROEM)
---------------------------------
  O      0.010233   -0.041443    0.218122
  C     -0.045021    1.159066    0.032704
  C     -1.324249    1.897027   -0.039155
  C     -1.358038    3.188688   -0.404284
  C     -0.152425    3.939063   -0.814260
  C      1.066080    4.205880    0.082383
  C      1.269800    3.096738    1.106769
  C      1.196203    2.030443   -0.053931
  C      1.137808    3.209187   -1.059956
  H     -2.222938    1.340217    0.204335
  H     -2.308475    3.716493   -0.442720
  H     -0.338115    4.768763   -1.489741
  H      1.466573    5.210620    0.144937
  H      2.273951    3.120997    1.534430
  H      0.539086    3.007366    1.916166
  H      2.081357    1.400309   -0.126955
  H      1.668710    3.261712   -2.002618

 Total Charge           Charge          ....    0
 Multiplicity           Mult            ....    1
 Number of Electrons    NEL             ....   64
 Basis Dimension        Dim             ....  327

ORBITAL ENERGIES
----------------

  NO   OCC          E(Eh)            E(eV)
   0   2.0000     -20.534705      -558.7777
   1   2.0000     -11.321361      -308.0699
   2   2.0000     -11.264144      -306.5129
   3   2.0000     -11.255899      -306.2886
   4   2.0000     -11.255216      -306.2700
   5   2.0000     -11.252951      -306.2084
   6   2.0000     -11.246953      -306.0452
   7   2.0000     -11.244187      -305.9699
   8   2.0000     -11.233755      -305.6860
   9   2.0000      -1.375075       -37.4177
  10   2.0000      -1.220687       -33.2166
  11   2.0000      -1.075760       -29.2729
  12   2.0000      -1.023853       -27.8604
  13   2.0000      -0.924993       -25.1704
  14   2.0000      -0.873342       -23.7648
  15   2.0000      -0.817212       -22.2375
  16   2.0000      -0.756785       -20.5932
  17   2.0000      -0.720603       -19.6086
  18   2.0000      -0.680162       -18.5082
  19   2.0000      -0.662081       -18.0161
  20   2.0000      -0.645331       -17.5604
  21   2.0000      -0.609246       -16.5784
  22   2.0000      -0.574309       -15.6277
  23   2.0000      -0.559693       -15.2300
  24   2.0000      -0.548457       -14.9243
  25   2.0000      -0.533359       -14.5134
  26   2.0000      -0.500958       -13.6318
  27   2.0000      -0.467395       -12.7185
  28   2.0000      -0.452616       -12.3163
  29   2.0000      -0.430497       -11.7144
  30   2.0000      -0.381515       -10.3816
  31   2.0000      -0.357415        -9.7258
  32   0.0000       0.088298         2.4027
  33   0.0000       0.136829         3.7233
  34   0.0000       0.157321         4.2809
  35   0.0000       0.162827         4.4308
  36   0.0000       0.167512         4.5582

MULLIKEN ATOMIC CHARGES
-----------------------
   0 O :   -0.289055
   1 C :    0.132669
   2 C :   -0.185659
   3 C :   -0.152941
   4 C :   -0.064892
   5 C :   -0.139873
   6 C :   -0.243996
   7 C :    0.026175
   8 C :   -0.157901
   9 H :    0.135518
  10 H :    0.132625
  11 H :    0.133113
  12 H :    0.136636
  13 H :    0.133394
  14 H :    0.128799
  15 H :    0.130188
  16 H :    0.145199
Sum of atomic charges:   -0.0000000

LOEWDIN ATOMIC CHARGES
----------------------
   0 O :    0.142396
   1 C :   -0.310724
   2 C :   -0.128630
   3 C :   -0.104977
   4 C :   -0.173999
   5 C :   -0.149892
   6 C :   -0.176000
   7 C :   -0.144551
   8 C :   -0.124884
   9 H :    0.151359
  10 H :    0.148871
  11 H :    0.162034
  12 H :    0.137104
  13 H :    0.143645
  14 H :    0.134429
  15 H :    0.155208
  16 H :    0.138614

  Mayer bond orders larger than 0.1
B(  0-O ,  1-C ) :   1.9442 B(  1-C ,  2-C ) :   1.0023 B(  1-C ,  7-C ) :   0.9005
B(  2-C ,  3-C ) :   1.6756 B(  2-C ,  9-H ) :   0.9256 B(  3-C ,  4-C ) :   0.9692
B(  3-C , 10-H ) :   0.9230 B(  4-C ,  5-C ) :   0.8065 B(  4-C ,  8-C ) :   0.8840
B(  4-C , 11-H ) :   0.9307 B(  5-C ,  6-C ) :   0.9636 B(  5-C ,  8-C ) :   0.8551
B(  5-C , 12-H ) :   0.9219 B(  6-C ,  7-C ) :   0.9156 B(  6-C , 13-H ) :   0.9251
B(  6-C , 14-H ) :   0.9103 B(  7-C ,  8-C ) :   0.8600 B(  7-C , 15-H ) :   0.9257
B(  8-C , 16-H ) :   0.9160

MP2 TOTAL ENERGY:     -384.006135002 Eh
FINAL SINGLE POINT ENERGY      -384.006135002352

DIPOLE MOMENT
-------------
                                X             Y             Z
Electronic contribution:     -1.27690      -4.08643      -0.63174
Nuclear contribution   :      1.40953       5.55663       0.41971
                        -----------------------------------------
Total Dipole Moment    :      0.13264       1.47020      -0.21203
                        -----------------------------------------
Magnitude (a.u.)       :      1.49132
Magnitude (Debye)      :      3.79064

                             ****ORCA TERMINATED NORMALLY****
TOTAL RUN TIME: 0 days 0 hours 19 minutes 44 seconds 755 msec
