                         Program Version 3.0.3 - RELEASE   -
|  1> ! RI-MP2 RIJK def2-TZVP def2-TZVP/C def2-TZVP/JK TIGHTSCF
|  2> % maxcore 2000
|  3> % mp2 density relaxed end
|  4> *xyz 0 1
|  5>  O       -0.1771461264     0.2668665802     0.9281528523
|  6>  C       -0.1120178968     1.2558616489     0.2364341016
|  7>  C       -1.3526420713     1.8894239940    -0.4143629839
|  8>  N       -1.2616603560     3.3281131630    -0.6995752798
|  9>  C       -0.2605230218     3.9834373893     0.1534290018
| 10>  C        1.1065753180     3.3661166394    -0.0782139536
| 11>  C        1.8534094586     2.5989380606     0.9722941757
| 12>  N        1.0899152789     1.9062793891    -0.0548815505
| 13>  H       -1.5833777572     1.3436488390    -1.3352028136
| 14>  H       -2.1762928326     1.6894207658     0.2810868827
| 15>  H       -1.0033369022     3.4693012649    -1.6704697414
| 16>  H       -0.2544912813     5.0563990829    -0.0569497442
| 17>  H       -0.5689481568     3.8557661676     1.1987374302
| 18>  H        1.6819310700     3.7883752338    -0.9017827987
| 19>  H        2.9327315406     2.5026022591     0.9021139580
| 20>  H        1.4530740962     2.5781483322     1.9827771432
| 21> *
| 22>
| 23>                          ****END OF INPUT****

CARTESIAN COORDINATES (ANGSTROEM)
---------------------------------
  O     -0.177146    0.266867    0.928153
  C     -0.112018    1.255862    0.236434
  C     -1.352642    1.889424   -0.414363
  N     -1.261660    3.328113   -0.699575
  C     -0.260523    3.983437    0.153429
  C      1.106575    3.366117   -0.078214
  C      1.853409    2.598938    0.972294
  N      1.089915    1.906279   -0.054882
  H     -1.583378    1.343649   -1.335203
  H     -2.176293    1.689421    0.281087
  H     -1.003337    3.469301   -1.670470
  H     -0.254491    5.056399   -0.056950
  H     -0.568948    3.855766    1.198737
  H      1.681931    3.788375   -0.901783
  H      2.932732    2.502602    0.902114
  H      1.453074    2.578148    1.982777

 Total Charge           Charge          ....    0
 Multiplicity           Mult            ....    1
 Number of Electrons    NEL             ....   60
 Basis Dimension        Dim             ....  296

ORBITAL ENERGIES
----------------

  NO   OCC          E(Eh)            E(eV)
   0   2.0000     -20.533455      -558.7437
   1   2.0000     -15.585324      -424.0982
   2   2.0000     -15.565275      -423.5527
   3   2.0000     -11.352552      -308.9186
   4   2.0000     -11.284965      -307.0795
   5   2.0000     -11.283933      -307.0514
   6   2.0000     -11.275656      -306.8262
   7   2.0000     -11.270519      -306.6864
   8   2.0000      -1.395999       -37.9871
   9   2.0000      -1.304383       -35.4941
  10   2.0000      -1.218800       -33.1652
  11   2.0000      -1.030980       -28.0544
  12   2.0000      -0.945272       -25.7222
  13   2.0000      -0.920048       -25.0358
  14   2.0000      -0.837416       -22.7872
  15   2.0000      -0.740196       -20.1418
  16   2.0000      -0.704418       -19.1682
  17   2.0000      -0.684162       -18.6170
  18   2.0000      -0.666561       -18.1380
  19   2.0000      -0.646919       -17.6035
  20   2.0000      -0.604666       -16.4538
  21   2.0000      -0.569682       -15.5018
  22   2.0000      -0.556501       -15.1432
  23   2.0000      -0.538141       -14.6436
  24   2.0000      -0.522688       -14.2231
  25   2.0000      -0.515839       -14.0367
  26   2.0000      -0.489206       -13.3120
  27   2.0000      -0.445913       -12.1339
  28   2.0000      -0.400253       -10.8914
  29   2.0000      -0.375639       -10.2217
  30   0.0000       0.123354         3.3566
  31   0.0000       0.146631         3.9900
  32   0.0000       0.154805         4.2125
  33   0.0000       0.162224         4.4143
  34   0.0000       0.178921         4.8687

MULLIKEN ATOMIC CHARGES
-----------------------
   0 O :   -0.297326
   1 C :    0.184895
   2 C :   -0.176669
   3 N :   -0.322393
   4 C :   -0.148231
   5 C :   -0.101707
   6 C :   -0.167898
   7 N :   -0.148859
   8 H :    0.148169
   9 H :    0.138359
  10 H :    0.209068
  11 H :    0.140568
  12 H :    0.132211
  13 H :    0.132749
  14 H :    0.138709
  15 H :    0.138356
Sum of atomic charges:   -0.0000000

LOEWDIN ATOMIC CHARGES
----------------------
   0 O :    0.128079
   1 C :   -0.429831
   2 C :   -0.270122
   3 N :   -0.020817
   4 C :   -0.289324
   5 C :   -0.247080
   6 C :   -0.209589
   7 N :    0.185362
   8 H :    0.147683
   9 H :    0.147426
  10 H :    0.169816
  11 H :    0.138828
  12 H :    0.143278
  13 H :    0.141645
  14 H :    0.131216
  15 H :    0.133429

  Mayer bond orders larger than 0.1
B(  0-O ,  1-C ) :   2.0265 B(  1-C ,  2-C ) :   0.8996 B(  1-C ,  7-N ) :   1.0277
B(  2-C ,  3-N ) :   0.9611 B(  2-C ,  8-H ) :   0.9115 B(  2-C ,  9-H ) :   0.9247
B(  3-N ,  4-C ) :   0.9468 B(  3-N , 10-H ) :   0.8839 B(  4-C ,  5-C ) :   0.9431
B(  4-C , 11-H ) :   0.9361 B(  4-C , 12-H ) :   0.9283 B(  5-C ,  6-C ) :   0.9440
B(  5-C ,  7-N ) :   0.8478 B(  5-C , 13-H ) :   0.9105 B(  6-C ,  7-N ) :   0.8766
B(  6-C , 14-H ) :   0.9226 B(  6-C , 15-H ) :   0.9096

MP2 TOTAL ENERGY:     -379.278438687 Eh
FINAL SINGLE POINT ENERGY      -379.278438687449

DIPOLE MOMENT
-------------
                                X             Y             Z
Electronic contribution:      0.62741      -4.09290       0.21558
Nuclear contribution   :     -0.22881       5.39720      -0.63105
                        -----------------------------------------
Total Dipole Moment    :      0.39860       1.30429      -0.41547
                        -----------------------------------------
Magnitude (a.u.)       :      1.42572
Magnitude (Debye)      :      3.62390

                             ****ORCA TERMINATED NORMALLY****
TOTAL RUN TIME: 0 days 0 hours 12 minutes 53 seconds 647 msec
