                         Program Version 3.0.3 - RELEASE   -
|  1> ! RI-MP2 RIJK def2-TZVP def2-TZVP/C def2-TZVP/JK TIGHTSCF
|  2> % maxcore 2000
|  3> % mp2 density relaxed end
|  4> *xyz 0 1
|  5>  C        0.8734955501    -0.3123840056    -1.3656145239
|  6>  C       -0.0263447161    -0.1563419433    -0.1394552756
|  7>  C        0.6321261636    -0.6301897366     1.1784734900
|  8>  C       -0.2672128174    -0.3205742173     2.4020158660
|  9>  C       -0.4097460079     1.1654723885     2.6478602071
| 10>  O       -1.4482064851     1.7376942924     2.8514209331
| 11>  C        0.9635334905    -2.0527217736     1.1387120264
| 12>  C        1.2094226372    -3.2293247048     1.1121366306
| 13>  H        1.1582748650    -1.3581392524    -1.5125667067
| 14>  H        0.3620391076     0.0313283497    -2.2693524571
| 15>  H        1.7932607435     0.2737723097    -1.2598611815
| 16>  H       -0.3112328398     0.8961227726    -0.0187758417
| 17>  H       -0.9584198527    -0.7158256676    -0.2810553710
| 18>  H        1.5710635368    -0.0692664198     1.3048972934
| 19>  H       -1.2595479481    -0.7654409282     2.2899213073
| 20>  H        0.1968896710    -0.7527008566     3.2988140323
| 21>  H        0.5590431997     1.7216415332     2.6441045114
| 22>  H        1.4392881521    -4.2658358603     1.0877846100
| 23> *
| 24>
| 25>                          ****END OF INPUT****

CARTESIAN COORDINATES (ANGSTROEM)
---------------------------------
  C      0.873496   -0.312384   -1.365615
  C     -0.026345   -0.156342   -0.139455
  C      0.632126   -0.630190    1.178473
  C     -0.267213   -0.320574    2.402016
  C     -0.409746    1.165472    2.647860
  O     -1.448206    1.737694    2.851421
  C      0.963533   -2.052722    1.138712
  C      1.209423   -3.229325    1.112137
  H      1.158275   -1.358139   -1.512567
  H      0.362039    0.031328   -2.269352
  H      1.793261    0.273772   -1.259861
  H     -0.311233    0.896123   -0.018776
  H     -0.958420   -0.715826   -0.281055
  H      1.571064   -0.069266    1.304897
  H     -1.259548   -0.765441    2.289921
  H      0.196890   -0.752701    3.298814
  H      0.559043    1.721642    2.644105
  H      1.439288   -4.265836    1.087785

 Total Charge           Charge          ....    0
 Multiplicity           Mult            ....    1
 Number of Electrons    NEL             ....   60
 Basis Dimension        Dim             ....  308

ORBITAL ENERGIES
----------------

  NO   OCC          E(Eh)            E(eV)
   0   2.0000     -20.562473      -559.5333
   1   2.0000     -11.337951      -308.5213
   2   2.0000     -11.276014      -306.8359
   3   2.0000     -11.251110      -306.1583
   4   2.0000     -11.241539      -305.8978
   5   2.0000     -11.240773      -305.8770
   6   2.0000     -11.230304      -305.5921
   7   2.0000     -11.221936      -305.3644
   8   2.0000      -1.401547       -38.1380
   9   2.0000      -1.130284       -30.7566
  10   2.0000      -1.025798       -27.9134
  11   2.0000      -1.021889       -27.8070
  12   2.0000      -0.920699       -25.0535
  13   2.0000      -0.838899       -22.8276
  14   2.0000      -0.800119       -21.7723
  15   2.0000      -0.727640       -19.8001
  16   2.0000      -0.676932       -18.4203
  17   2.0000      -0.671443       -18.2709
  18   2.0000      -0.627948       -17.0873
  19   2.0000      -0.625768       -17.0280
  20   2.0000      -0.599698       -16.3186
  21   2.0000      -0.581121       -15.8131
  22   2.0000      -0.541432       -14.7331
  23   2.0000      -0.528945       -14.3933
  24   2.0000      -0.505747       -13.7621
  25   2.0000      -0.494489       -13.4557
  26   2.0000      -0.486408       -13.2358
  27   2.0000      -0.431656       -11.7460
  28   2.0000      -0.394973       -10.7478
  29   2.0000      -0.392098       -10.6695
  30   0.0000       0.121540         3.3073
  31   0.0000       0.135210         3.6793
  32   0.0000       0.152568         4.1516
  33   0.0000       0.156657         4.2629
  34   0.0000       0.162614         4.4250

MULLIKEN ATOMIC CHARGES
-----------------------
   0 C :   -0.404673
   1 C :   -0.196612
   2 C :   -0.251575
   3 C :   -0.112723
   4 C :    0.072692
   5 O :   -0.254682
   6 C :   -0.031767
   7 C :   -0.132309
   8 H :    0.146939
   9 H :    0.138879
  10 H :    0.121666
  11 H :    0.123355
  12 H :    0.120524
  13 H :    0.119127
  14 H :    0.128616
  15 H :    0.146493
  16 H :    0.073243
  17 H :    0.192806
Sum of atomic charges:   -0.0000000

LOEWDIN ATOMIC CHARGES
----------------------
   0 C :   -0.311342
   1 C :   -0.252243
   2 C :   -0.245487
   3 C :   -0.222236
   4 C :   -0.299794
   5 O :    0.136370
   6 C :   -0.089914
   7 C :   -0.097084
   8 H :    0.128014
   9 H :    0.123725
  10 H :    0.121991
  11 H :    0.142013
  12 H :    0.144334
  13 H :    0.171473
  14 H :    0.151756
  15 H :    0.160629
  16 H :    0.110221
  17 H :    0.127576

  Mayer bond orders larger than 0.1
B(  0-C ,  1-C ) :   0.9265 B(  0-C ,  8-H ) :   0.9361 B(  0-C ,  9-H ) :   0.9400
B(  0-C , 10-H ) :   0.9351 B(  1-C ,  2-C ) :   0.9136 B(  1-C , 11-H ) :   0.9291
B(  1-C , 12-H ) :   0.9185 B(  2-C ,  3-C ) :   0.9012 B(  2-C ,  6-C ) :   1.1222
B(  2-C ,  7-C ) :  -0.1058 B(  2-C , 13-H ) :   0.9296 B(  3-C ,  4-C ) :   0.8506
B(  3-C , 14-H ) :   0.8919 B(  3-C , 15-H ) :   0.9149 B(  4-C ,  5-O ) :   2.0127
B(  4-C , 16-H ) :   0.9382 B(  6-C ,  7-C ) :   2.6123 B(  7-C , 17-H ) :   0.8911

MP2 TOTAL ENERGY:     -347.167833387 Eh
FINAL SINGLE POINT ENERGY      -347.167833386713

DIPOLE MOMENT
-------------
                                X             Y             Z
Electronic contribution:     -2.07143       0.46970       6.19495
Nuclear contribution   :      2.78469      -0.93842      -6.49185
                        -----------------------------------------
Total Dipole Moment    :      0.71326      -0.46873      -0.29690
                        -----------------------------------------
Magnitude (a.u.)       :      0.90366
Magnitude (Debye)      :      2.29692

                             ****ORCA TERMINATED NORMALLY****
TOTAL RUN TIME: 0 days 0 hours 12 minutes 12 seconds 104 msec
