                         Program Version 3.0.3 - RELEASE   -
|  1> ! RI-MP2 RIJK def2-TZVP def2-TZVP/C def2-TZVP/JK TIGHTSCF
|  2> % maxcore 2000
|  3> % mp2 density relaxed end
|  4> *xyz 0 1
|  5>  C        0.1997520560     1.3835385291     0.4185288499
|  6>  C       -0.2626610471     0.0675412791    -0.2162967009
|  7>  C        0.6510510405    -0.3908047633    -1.3406507909
|  8>  N        0.6249006964     0.4849803066    -2.4799385404
|  9>  C        1.9594570763    -1.0426691246    -1.0069558170
| 10>  C        0.8223496530    -1.9167176327    -1.5343234927
| 11>  O        0.1546390684    -2.7698554728    -0.6548746850
| 12>  C        0.9173072968    -2.3974374661    -2.8933826307
| 13>  N        0.9870836506    -2.7732651247    -3.9862153564
| 14>  H        1.1805724106     1.2696519066     0.8924893458
| 15>  H        0.2825723614     2.1700492938    -0.3353163195
| 16>  H       -0.5072631054     1.7101897280     1.1868242825
| 17>  H       -0.3310464101    -0.7226439802     0.5345281638
| 18>  H       -1.2741884921     0.1887759972    -0.6261736783
| 19>  H        1.3028289708     0.2153529958    -3.1845527235
| 20>  H       -0.2889922272     0.4644370213    -2.9245310591
| 21>  H        2.8163571152    -0.8691718602    -1.6497938504
| 22>  H        2.1965442271    -1.1880322566     0.0417433650
| 23>  H        0.7327028187    -3.5154290362    -0.4532893120
| 24> *
| 25>
| 26>                          ****END OF INPUT****

CARTESIAN COORDINATES (ANGSTROEM)
---------------------------------
  C      0.199752    1.383539    0.418529
  C     -0.262661    0.067541   -0.216297
  C      0.651051   -0.390805   -1.340651
  N      0.624901    0.484980   -2.479939
  C      1.959457   -1.042669   -1.006956
  C      0.822350   -1.916718   -1.534323
  O      0.154639   -2.769855   -0.654875
  C      0.917307   -2.397437   -2.893383
  N      0.987084   -2.773265   -3.986215
  H      1.180572    1.269652    0.892489
  H      0.282572    2.170049   -0.335316
  H     -0.507263    1.710190    1.186824
  H     -0.331046   -0.722644    0.534528
  H     -1.274188    0.188776   -0.626174
  H      1.302829    0.215353   -3.184553
  H     -0.288992    0.464437   -2.924531
  H      2.816357   -0.869172   -1.649794
  H      2.196544   -1.188032    0.041743
  H      0.732703   -3.515429   -0.453289

 Total Charge           Charge          ....    0
 Multiplicity           Mult            ....    1
 Number of Electrons    NEL             ....   68
 Basis Dimension        Dim             ....  339

ORBITAL ENERGIES
----------------

  NO   OCC          E(Eh)            E(eV)
   0   2.0000     -20.596297      -560.4537
   1   2.0000     -15.576376      -423.8547
   2   2.0000     -15.562186      -423.4686
   3   2.0000     -11.336495      -308.4817
   4   2.0000     -11.298610      -307.4508
   5   2.0000     -11.278192      -306.8952
   6   2.0000     -11.258820      -306.3681
   7   2.0000     -11.234324      -305.7015
   8   2.0000     -11.217384      -305.2405
   9   2.0000      -1.409611       -38.3575
  10   2.0000      -1.241216       -33.7752
  11   2.0000      -1.216604       -33.1055
  12   2.0000      -1.113836       -30.3090
  13   2.0000      -1.037548       -28.2331
  14   2.0000      -0.912394       -24.8275
  15   2.0000      -0.885200       -24.0875
  16   2.0000      -0.784225       -21.3398
  17   2.0000      -0.764464       -20.8021
  18   2.0000      -0.704539       -19.1715
  19   2.0000      -0.680998       -18.5309
  20   2.0000      -0.646392       -17.5892
  21   2.0000      -0.632400       -17.2085
  22   2.0000      -0.587469       -15.9859
  23   2.0000      -0.576771       -15.6947
  24   2.0000      -0.571068       -15.5396
  25   2.0000      -0.552973       -15.0472
  26   2.0000      -0.541854       -14.7446
  27   2.0000      -0.514509       -14.0005
  28   2.0000      -0.504707       -13.7338
  29   2.0000      -0.495001       -13.4697
  30   2.0000      -0.477103       -12.9826
  31   2.0000      -0.459958       -12.5161
  32   2.0000      -0.432964       -11.7815
  33   2.0000      -0.377316       -10.2673
  34   0.0000       0.116339         3.1657
  35   0.0000       0.135313         3.6821
  36   0.0000       0.147950         4.0259
  37   0.0000       0.158708         4.3187
  38   0.0000       0.180149         4.9021

MULLIKEN ATOMIC CHARGES
-----------------------
   0 C :   -0.389026
   1 C :   -0.237120
   2 C :    0.156324
   3 N :   -0.507234
   4 C :   -0.323355
   5 C :    0.293816
   6 O :   -0.450377
   7 C :   -0.272192
   8 N :   -0.045899
   9 H :    0.120023
  10 H :    0.145139
  11 H :    0.134984
  12 H :    0.143082
  13 H :    0.112506
  14 H :    0.237786
  15 H :    0.240921
  16 H :    0.149126
  17 H :    0.157477
  18 H :    0.334018
Sum of atomic charges:   -0.0000000

LOEWDIN ATOMIC CHARGES
----------------------
   0 C :   -0.308792
   1 C :   -0.242938
   2 C :   -0.296216
   3 N :   -0.083625
   4 C :   -0.152457
   5 C :   -0.332210
   6 O :    0.049514
   7 C :   -0.170221
   8 N :    0.064664
   9 H :    0.120575
  10 H :    0.126455
  11 H :    0.121581
  12 H :    0.147732
  13 H :    0.144006
  14 H :    0.162986
  15 H :    0.167043
  16 H :    0.144345
  17 H :    0.147576
  18 H :    0.189982

  Mayer bond orders larger than 0.1
B(  0-C ,  1-C ) :   0.9227 B(  0-C ,  9-H ) :   0.9389 B(  0-C , 10-H ) :   0.9327
B(  0-C , 11-H ) :   0.9396 B(  1-C ,  2-C ) :   0.9100 B(  1-C , 12-H ) :   0.9320
B(  1-C , 13-H ) :   0.9263 B(  2-C ,  3-N ) :   1.0205 B(  2-C ,  4-C ) :   0.8874
B(  2-C ,  5-C ) :   0.7659 B(  3-N , 14-H ) :   0.8862 B(  3-N , 15-H ) :   0.8803
B(  4-C ,  5-C ) :   0.8325 B(  4-C , 16-H ) :   0.9066 B(  4-C , 17-H ) :   0.9235
B(  5-C ,  6-O ) :   0.9850 B(  5-C ,  7-C ) :   0.9606 B(  6-O , 18-H ) :   0.8296
B(  7-C ,  8-N ) :   2.8474

MP2 TOTAL ENERGY:     -418.500027538 Eh
FINAL SINGLE POINT ENERGY      -418.500027537651

DIPOLE MOMENT
-------------
                                X             Y             Z
Electronic contribution:      0.75542      -9.01851      -6.66459
Nuclear contribution   :     -0.42384       9.25035       7.75184
                        -----------------------------------------
Total Dipole Moment    :      0.33159       0.23185       1.08725
                        -----------------------------------------
Magnitude (a.u.)       :      1.16009
Magnitude (Debye)      :      2.94872

                             ****ORCA TERMINATED NORMALLY****
TOTAL RUN TIME: 0 days 0 hours 18 minutes 19 seconds 343 msec
