                         Program Version 3.0.3 - RELEASE   -
|  1> ! RI-MP2 RIJK def2-TZVP def2-TZVP/C def2-TZVP/JK TIGHTSCF
|  2> % maxcore 2000
|  3> % mp2 density relaxed end
|  4> *xyz 0 1
|  5>  C        0.4690094502    -0.6500737305     1.1908609452
|  6>  O       -0.0140619959    -0.1783484341    -0.0469718457
|  7>  C        0.7379629047    -0.5052479854    -1.2372490806
|  8>  C        0.7380466403    -2.0200014482    -1.4889747478
|  9>  C       -0.0961851061     0.1959132323    -2.3292151174
| 10>  O       -1.4519496484    -0.1937576464    -2.2685257687
| 11>  C        2.1718274553     0.0109364669    -1.1411974022
| 12>  C        2.8332343909     0.8498213612    -2.2131536771
| 13>  C        2.4855555454     1.4637152698    -0.8841019064
| 14>  H        0.4650218712    -1.7466667980     1.2574756209
| 15>  H        1.4835999225    -0.2882571264     1.4027620767
| 16>  H       -0.2048443174    -0.2579193211     1.9571835244
| 17>  H       -0.2856021787    -2.3813760603    -1.6062610508
| 18>  H        1.2922159222    -2.2400997399    -2.4067399746
| 19>  H        1.2217283230    -2.5682695851    -0.6756172319
| 20>  H        0.0025320463     1.2871575889    -2.2212171693
| 21>  H        0.2761144924    -0.0839983304    -3.3186016400
| 22>  H       -1.6875042066    -0.1243633860    -1.3342289351
| 23>  H        2.8422725176    -0.6930528297    -0.6552953709
| 24>  H        3.8753198281     0.6476360962    -2.4349190059
| 25>  H        2.2536039659     1.1519010430    -3.0773051868
| 26>  H        1.6537542892     2.1581436291    -0.8479032958
| 27>  H        3.2875878580     1.6972579944    -0.1925922902
| 28> *
| 29>
| 30>                          ****END OF INPUT****

CARTESIAN COORDINATES (ANGSTROEM)
---------------------------------
  C      0.469009   -0.650074    1.190861
  O     -0.014062   -0.178348   -0.046972
  C      0.737963   -0.505248   -1.237249
  C      0.738047   -2.020001   -1.488975
  C     -0.096185    0.195913   -2.329215
  O     -1.451950   -0.193758   -2.268526
  C      2.171827    0.010936   -1.141197
  C      2.833234    0.849821   -2.213154
  C      2.485556    1.463715   -0.884102
  H      0.465022   -1.746667    1.257476
  H      1.483600   -0.288257    1.402762
  H     -0.204844   -0.257919    1.957184
  H     -0.285602   -2.381376   -1.606261
  H      1.292216   -2.240100   -2.406740
  H      1.221728   -2.568270   -0.675617
  H      0.002532    1.287158   -2.221217
  H      0.276114   -0.083998   -3.318602
  H     -1.687504   -0.124363   -1.334229
  H      2.842273   -0.693053   -0.655295
  H      3.875320    0.647636   -2.434919
  H      2.253604    1.151901   -3.077305
  H      1.653754    2.158144   -0.847903
  H      3.287588    1.697258   -0.192592

 Total Charge           Charge          ....    0
 Multiplicity           Mult            ....    1
 Number of Electrons    NEL             ....   72
 Basis Dimension        Dim             ....  363

ORBITAL ENERGIES
----------------

  NO   OCC          E(Eh)            E(eV)
   0   2.0000     -20.556091      -559.3597
   1   2.0000     -20.541207      -558.9547
   2   2.0000     -11.291481      -307.2568
   3   2.0000     -11.271475      -306.7124
   4   2.0000     -11.267968      -306.6170
   5   2.0000     -11.235888      -305.7441
   6   2.0000     -11.232812      -305.6604
   7   2.0000     -11.229061      -305.5583
   8   2.0000     -11.213695      -305.1401
   9   2.0000      -1.381478       -37.5919
  10   2.0000      -1.342404       -36.5287
  11   2.0000      -1.150116       -31.2963
  12   2.0000      -1.041925       -28.3522
  13   2.0000      -0.940909       -25.6034
  14   2.0000      -0.907748       -24.7011
  15   2.0000      -0.854877       -23.2624
  16   2.0000      -0.827490       -22.5172
  17   2.0000      -0.752562       -20.4782
  18   2.0000      -0.690009       -18.7761
  19   2.0000      -0.681564       -18.5463
  20   2.0000      -0.658168       -17.9097
  21   2.0000      -0.649180       -17.6651
  22   2.0000      -0.631810       -17.1924
  23   2.0000      -0.596221       -16.2240
  24   2.0000      -0.571336       -15.5468
  25   2.0000      -0.566454       -15.4140
  26   2.0000      -0.547863       -14.9081
  27   2.0000      -0.536088       -14.5877
  28   2.0000      -0.530625       -14.4390
  29   2.0000      -0.517291       -14.0762
  30   2.0000      -0.484123       -13.1737
  31   2.0000      -0.469083       -12.7644
  32   2.0000      -0.440257       -11.9800
  33   2.0000      -0.429190       -11.6788
  34   2.0000      -0.418868       -11.3980
  35   2.0000      -0.408587       -11.1182
  36   0.0000       0.136545         3.7156
  37   0.0000       0.156162         4.2494
  38   0.0000       0.161063         4.3828
  39   0.0000       0.162302         4.4165
  40   0.0000       0.185365         5.0440

MULLIKEN ATOMIC CHARGES
-----------------------
   0 C :   -0.239505
   1 O :   -0.347960
   2 C :    0.230224
   3 C :   -0.440569
   4 C :   -0.021356
   5 O :   -0.482906
   6 C :   -0.207355
   7 C :   -0.258462
   8 C :   -0.246485
   9 H :    0.118345
  10 H :    0.125159
  11 H :    0.142311
  12 H :    0.155006
  13 H :    0.136796
  14 H :    0.130460
  15 H :    0.106907
  16 H :    0.107071
  17 H :    0.328561
  18 H :    0.126953
  19 H :    0.129742
  20 H :    0.139451
  21 H :    0.136172
  22 H :    0.131440
Sum of atomic charges:    0.0000000

LOEWDIN ATOMIC CHARGES
----------------------
   0 C :   -0.356696
   1 O :    0.156417
   2 C :   -0.365369
   3 C :   -0.269741
   4 C :   -0.308897
   5 O :   -0.040850
   6 C :   -0.198590
   7 C :   -0.220807
   8 C :   -0.223890
   9 H :    0.102270
  10 H :    0.106821
  11 H :    0.114559
  12 H :    0.132243
  13 H :    0.132909
  14 H :    0.122222
  15 H :    0.122329
  16 H :    0.132374
  17 H :    0.177163
  18 H :    0.152424
  19 H :    0.131526
  20 H :    0.134745
  21 H :    0.135764
  22 H :    0.131074

  Mayer bond orders larger than 0.1
B(  0-C ,  1-O ) :   0.9165 B(  0-C ,  9-H ) :   0.9318 B(  0-C , 10-H ) :   0.9343
B(  0-C , 11-H ) :   0.9414 B(  1-O ,  2-C ) :   0.8732 B(  2-C ,  3-C ) :   0.9224
B(  2-C ,  4-C ) :   0.8696 B(  2-C ,  6-C ) :   0.8903 B(  3-C , 12-H ) :   0.9357
B(  3-C , 13-H ) :   0.9323 B(  3-C , 14-H ) :   0.9277 B(  4-C ,  5-O ) :   0.9534
B(  4-C , 15-H ) :   0.9379 B(  4-C , 16-H ) :   0.9212 B(  5-O , 17-H ) :   0.8206
B(  6-C ,  7-C ) :   0.9027 B(  6-C ,  8-C ) :   0.8605 B(  6-C , 18-H ) :   0.9210
B(  7-C ,  8-C ) :   0.9135 B(  7-C , 19-H ) :   0.9309 B(  7-C , 20-H ) :   0.9258
B(  8-C , 21-H ) :   0.9268 B(  8-C , 22-H ) :   0.9306

MP2 TOTAL ENERGY:     -424.697660512 Eh
FINAL SINGLE POINT ENERGY      -424.697660512401

DIPOLE MOMENT
-------------
                                X             Y             Z
Electronic contribution:     -3.91033       1.38225      -1.12493
Nuclear contribution   :      4.78503      -1.48639       1.71721
                        -----------------------------------------
Total Dipole Moment    :      0.87470      -0.10415       0.59228
                        -----------------------------------------
Magnitude (a.u.)       :      1.06148
Magnitude (Debye)      :      2.69807

                             ****ORCA TERMINATED NORMALLY****
TOTAL RUN TIME: 0 days 0 hours 19 minutes 45 seconds 349 msec
