                         Program Version 3.0.3 - RELEASE   -
|  1> ! RI-MP2 RIJK def2-TZVP def2-TZVP/C def2-TZVP/JK TIGHTSCF
|  2> % maxcore 2000
|  3> % mp2 density relaxed end
|  4> *xyz 0 1
|  5>  O        0.1101621484     1.3165994458     0.0630376958
|  6>  C        0.0704969117    -0.0224558802     0.0520850109
|  7>  N        0.0760395830    -0.6306700998    -1.1266758175
|  8>  C        0.0356714480    -1.9736003296    -1.1083110725
|  9>  N       -0.0092444611    -2.7487116057    -0.0200554503
| 10>  C       -0.0134338725    -2.1001151111     1.1512817611
| 11>  C        0.0253733433    -0.7222250331     1.2622497352
| 12>  C        0.0416008256    -2.6328823216    -2.3810997923
| 13>  C        0.0466085515    -3.1848500150    -3.4490217365
| 14>  H        0.1371054483     1.5966706723    -0.8638850807
| 15>  H       -0.0498503028    -2.7230708241     2.0416433930
| 16>  H        0.0216324442    -0.2070370713     2.2133214779
| 17>  H        0.0508933625    -3.6757894668    -4.3909748740
| 18> *
| 19>
| 20>                          ****END OF INPUT****

CARTESIAN COORDINATES (ANGSTROEM)
---------------------------------
  O      0.110162    1.316599    0.063038
  C      0.070497   -0.022456    0.052085
  N      0.076040   -0.630670   -1.126676
  C      0.035671   -1.973600   -1.108311
  N     -0.009244   -2.748712   -0.020055
  C     -0.013434   -2.100115    1.151282
  C      0.025373   -0.722225    1.262250
  C      0.041601   -2.632882   -2.381100
  C      0.046609   -3.184850   -3.449022
  H      0.137105    1.596671   -0.863885
  H     -0.049850   -2.723071    2.041643
  H      0.021632   -0.207037    2.213321
  H      0.050893   -3.675789   -4.390975

 Total Charge           Charge          ....    0
 Multiplicity           Mult            ....    1
 Number of Electrons    NEL             ....   62
 Basis Dimension        Dim             ....  303

ORBITAL ENERGIES
----------------

  NO   OCC          E(Eh)            E(eV)
   0   2.0000     -20.617385      -561.0276
   1   2.0000     -15.580787      -423.9748
   2   2.0000     -15.574231      -423.7964
   3   2.0000     -11.370466      -309.4061
   4   2.0000     -11.353279      -308.9384
   5   2.0000     -11.305994      -307.6517
   6   2.0000     -11.249916      -306.1258
   7   2.0000     -11.248821      -306.0960
   8   2.0000     -11.244869      -305.9884
   9   2.0000      -1.452208       -39.5166
  10   2.0000      -1.321453       -35.9586
  11   2.0000      -1.201140       -32.6847
  12   2.0000      -1.098313       -29.8866
  13   2.0000      -1.035376       -28.1740
  14   2.0000      -0.925397       -25.1813
  15   2.0000      -0.900829       -24.5128
  16   2.0000      -0.791571       -21.5397
  17   2.0000      -0.768450       -20.9106
  18   2.0000      -0.721487       -19.6327
  19   2.0000      -0.672041       -18.2872
  20   2.0000      -0.665403       -18.1065
  21   2.0000      -0.641558       -17.4577
  22   2.0000      -0.626275       -17.0418
  23   2.0000      -0.586385       -15.9563
  24   2.0000      -0.565272       -15.3818
  25   2.0000      -0.496009       -13.4971
  26   2.0000      -0.442989       -12.0543
  27   2.0000      -0.433495       -11.7960
  28   2.0000      -0.415817       -11.3150
  29   2.0000      -0.411579       -11.1996
  30   2.0000      -0.355146        -9.6640
  31   0.0000       0.070455         1.9172
  32   0.0000       0.107820         2.9339
  33   0.0000       0.147296         4.0081
  34   0.0000       0.157983         4.2989
  35   0.0000       0.162906         4.4329

MULLIKEN ATOMIC CHARGES
-----------------------
   0 O :   -0.401102
   1 C :    0.292677
   2 N :   -0.282732
   3 C :    0.019494
   4 N :   -0.250080
   5 C :   -0.024271
   6 C :   -0.179277
   7 C :    0.068889
   8 C :   -0.081342
   9 H :    0.345399
  10 H :    0.139029
  11 H :    0.154153
  12 H :    0.199162
Sum of atomic charges:   -0.0000000

LOEWDIN ATOMIC CHARGES
----------------------
   0 O :    0.105556
   1 C :   -0.360968
   2 N :    0.170847
   3 C :   -0.295478
   4 N :    0.162756
   5 C :   -0.191830
   6 C :   -0.120550
   7 C :   -0.052369
   8 C :   -0.054732
   9 H :    0.204208
  10 H :    0.144834
  11 H :    0.157609
  12 H :    0.130115

  Mayer bond orders larger than 0.1
B(  0-O ,  1-C ) :   1.1502 B(  0-O ,  9-H ) :   0.8062 B(  1-C ,  2-N ) :   1.3713
B(  1-C ,  6-C ) :   1.2929 B(  2-N ,  3-C ) :   1.3726 B(  3-C ,  4-N ) :   1.4326
B(  3-C ,  7-C ) :   1.1854 B(  3-C ,  8-C ) :  -0.1635 B(  4-N ,  5-C ) :   1.3645
B(  5-C ,  6-C ) :   1.3748 B(  5-C , 10-H ) :   0.9463 B(  6-C , 11-H ) :   0.9048
B(  7-C ,  8-C ) :   2.5970 B(  8-C , 12-H ) :   0.8755

MP2 TOTAL ENERGY:     -414.915759461 Eh
FINAL SINGLE POINT ENERGY      -414.915759461212

DIPOLE MOMENT
-------------
                                X             Y             Z
Electronic contribution:      0.02544       0.17169      -1.01414
Nuclear contribution   :     -0.01600       0.30544       1.25186
                        -----------------------------------------
Total Dipole Moment    :      0.00944       0.47713       0.23771
                        -----------------------------------------
Magnitude (a.u.)       :      0.53315
Magnitude (Debye)      :      1.35516

                             ****ORCA TERMINATED NORMALLY****
TOTAL RUN TIME: 0 days 0 hours 14 minutes 14 seconds 826 msec
