                         Program Version 3.0.3 - RELEASE   -
|  1> ! RI-MP2 RIJK def2-TZVP def2-TZVP/C def2-TZVP/JK TIGHTSCF
|  2> % maxcore 2000
|  3> % mp2 density relaxed end
|  4> *xyz 0 1
|  5>  C        0.0051150839     1.4470710788    -0.0365941706
|  6>  C       -0.0042169212    -0.0604179179     0.0395103611
|  7>  C       -1.2627005867    -0.8318953590    -0.3811978627
|  8>  C       -1.1664250357    -2.1472173865     0.4470277111
|  9>  N        0.2505143524    -2.2098499815     0.8869990002
| 10>  C        0.6632397424    -0.8013341171     1.1384404873
| 11>  C        1.3807256853    -0.7639172788    -0.2043440896
| 12>  C        1.1037556760    -2.2238689763    -0.3013778915
| 13>  O        1.3933589766    -3.1322753647    -1.0211960055
| 14>  H        0.9404035630     1.8637387398     0.3498789971
| 15>  H       -0.1126150147     1.7913627917    -1.0693628007
| 16>  H       -0.8192663884     1.8667017349     0.5503339975
| 17>  H       -2.1588383867    -0.2562744501    -0.1279931185
| 18>  H       -1.2873156638    -1.0210734592    -1.4589337876
| 19>  H       -1.8109018534    -2.1140721432     1.3297755723
| 20>  H       -1.4068897422    -3.0452836677    -0.1248406336
| 21>  H        0.9907466407    -0.4590460158     2.1105559220
| 22>  H        2.2413695125    -0.1954270975    -0.5346946484
| 23> *
| 24>
| 25>                          ****END OF INPUT****

CARTESIAN COORDINATES (ANGSTROEM)
---------------------------------
  C      0.005115    1.447071   -0.036594
  C     -0.004217   -0.060418    0.039510
  C     -1.262701   -0.831895   -0.381198
  C     -1.166425   -2.147217    0.447028
  N      0.250514   -2.209850    0.886999
  C      0.663240   -0.801334    1.138440
  C      1.380726   -0.763917   -0.204344
  C      1.103756   -2.223869   -0.301378
  O      1.393359   -3.132275   -1.021196
  H      0.940404    1.863739    0.349879
  H     -0.112615    1.791363   -1.069363
  H     -0.819266    1.866702    0.550334
  H     -2.158838   -0.256274   -0.127993
  H     -1.287316   -1.021073   -1.458934
  H     -1.810902   -2.114072    1.329776
  H     -1.406890   -3.045284   -0.124841
  H      0.990747   -0.459046    2.110556
  H      2.241370   -0.195427   -0.534695

 Total Charge           Charge          ....    0
 Multiplicity           Mult            ....    1
 Number of Electrons    NEL             ....   66
 Basis Dimension        Dim             ....  333

ORBITAL ENERGIES
----------------

  NO   OCC          E(Eh)            E(eV)
   0   2.0000     -20.543418      -559.0148
   1   2.0000     -15.575127      -423.8207
   2   2.0000     -11.354045      -308.9593
   3   2.0000     -11.280548      -306.9593
   4   2.0000     -11.275158      -306.8126
   5   2.0000     -11.266925      -306.5886
   6   2.0000     -11.258248      -306.3525
   7   2.0000     -11.242430      -305.9221
   8   2.0000     -11.241026      -305.8839
   9   2.0000      -1.402181       -38.1553
  10   2.0000      -1.306033       -35.5390
  11   2.0000      -1.112134       -30.2627
  12   2.0000      -1.052914       -28.6513
  13   2.0000      -0.964891       -26.2560
  14   2.0000      -0.891964       -24.2716
  15   2.0000      -0.858180       -23.3523
  16   2.0000      -0.775873       -21.1126
  17   2.0000      -0.708205       -19.2712
  18   2.0000      -0.694932       -18.9101
  19   2.0000      -0.678088       -18.4517
  20   2.0000      -0.640664       -17.4334
  21   2.0000      -0.620553       -16.8861
  22   2.0000      -0.599093       -16.3022
  23   2.0000      -0.579528       -15.7698
  24   2.0000      -0.564805       -15.3691
  25   2.0000      -0.551480       -15.0065
  26   2.0000      -0.526749       -14.3336
  27   2.0000      -0.516954       -14.0670
  28   2.0000      -0.498134       -13.5549
  29   2.0000      -0.442405       -12.0385
  30   2.0000      -0.428997       -11.6736
  31   2.0000      -0.417644       -11.3647
  32   2.0000      -0.385103       -10.4792
  33   0.0000       0.126709         3.4479
  34   0.0000       0.153033         4.1642
  35   0.0000       0.154744         4.2108
  36   0.0000       0.164164         4.4671
  37   0.0000       0.175732         4.7819

MULLIKEN ATOMIC CHARGES
-----------------------
   0 C :   -0.444427
   1 C :    0.067607
   2 C :   -0.213373
   3 C :   -0.161221
   4 N :   -0.122210
   5 C :   -0.059229
   6 C :   -0.240704
   7 C :    0.182992
   8 O :   -0.265076
   9 H :    0.140375
  10 H :    0.148570
  11 H :    0.142184
  12 H :    0.124306
  13 H :    0.128450
  14 H :    0.123925
  15 H :    0.141944
  16 H :    0.154955
  17 H :    0.150930
Sum of atomic charges:   -0.0000000

LOEWDIN ATOMIC CHARGES
----------------------
   0 C :   -0.259668
   1 C :   -0.210826
   2 C :   -0.209421
   3 C :   -0.247650
   4 N :    0.164219
   5 C :   -0.155647
   6 C :   -0.104365
   7 C :   -0.369896
   8 O :    0.154610
   9 H :    0.133027
  10 H :    0.133006
  11 H :    0.132138
  12 H :    0.141390
  13 H :    0.142242
  14 H :    0.132553
  15 H :    0.138108
  16 H :    0.140989
  17 H :    0.145192

  Mayer bond orders larger than 0.1
B(  0-C ,  1-C ) :   0.8885 B(  0-C ,  9-H ) :   0.9333 B(  0-C , 10-H ) :   0.9386
B(  0-C , 11-H ) :   0.9377 B(  1-C ,  2-C ) :   0.9138 B(  1-C ,  5-C ) :   0.8780
B(  1-C ,  6-C ) :   0.7965 B(  2-C ,  3-C ) :   0.9614 B(  2-C , 12-H ) :   0.9198
B(  2-C , 13-H ) :   0.9103 B(  3-C ,  4-N ) :   0.8905 B(  3-C , 14-H ) :   0.9295
B(  3-C , 15-H ) :   0.9312 B(  4-N ,  5-C ) :   0.9605 B(  4-N ,  7-C ) :   0.9787
B(  5-C ,  6-C ) :   0.7957 B(  5-C , 16-H ) :   0.9112 B(  6-C ,  7-C ) :   0.9714
B(  6-C , 17-H ) :   0.9030 B(  7-C ,  8-O ) :   2.0487

MP2 TOTAL ENERGY:     -401.256346522 Eh
FINAL SINGLE POINT ENERGY      -401.256346521523

DIPOLE MOMENT
-------------
                                X             Y             Z
Electronic contribution:      4.65458      -7.00915      -0.21270
Nuclear contribution   :     -5.31965       8.59151       0.57012
                        -----------------------------------------
Total Dipole Moment    :     -0.66507       1.58235       0.35741
                        -----------------------------------------
Magnitude (a.u.)       :      1.75326
Magnitude (Debye)      :      4.45642

                             ****ORCA TERMINATED NORMALLY****
TOTAL RUN TIME: 0 days 0 hours 20 minutes 18 seconds 584 msec
