                         Program Version 3.0.3 - RELEASE   -
|  1> ! RI-MP2 RIJK def2-TZVP def2-TZVP/C def2-TZVP/JK TIGHTSCF
|  2> % maxcore 2000
|  3> % mp2 density relaxed end
|  4> *xyz 0 1
|  5>  C       -0.1767534850     1.5236527499     0.0124358222
|  6>  C        0.0202934513     0.0151370425     0.0303606871
|  7>  C        1.1610953443    -0.6149811261    -0.8155258533
|  8>  C        2.1555796874    -0.2355028196     0.3013722143
|  9>  C        0.9102866304    -0.6047404763     1.1838427062
| 10>  C        0.7809883875    -2.0578899083     0.8067620004
| 11>  N        0.5604183633    -3.0656556676     1.5279798930
| 12>  O        0.9573409692    -2.0394471457    -0.5660822899
| 13>  H        0.7475193542     2.0851060048     0.1690074365
| 14>  H       -0.6003946293     1.8413073745    -0.9465261735
| 15>  H       -0.8806341835     1.8206299743     0.7965841295
| 16>  H       -0.9415579198    -0.4868087489    -0.1136786130
| 17>  H        1.3164828821    -0.4523606491    -1.8804602350
| 18>  H        3.0495680892    -0.8547724688     0.3969281457
| 19>  H        2.4144328756     0.8214974151     0.3347473645
| 20>  H        0.8081618659    -0.3502829938     2.2351913105
| 21>  H        0.5237888071    -3.9130476470     0.9575977550
| 22> *
| 23>
| 24>                          ****END OF INPUT****

CARTESIAN COORDINATES (ANGSTROEM)
---------------------------------
  C     -0.176753    1.523653    0.012436
  C      0.020293    0.015137    0.030361
  C      1.161095   -0.614981   -0.815526
  C      2.155580   -0.235503    0.301372
  C      0.910287   -0.604740    1.183843
  C      0.780988   -2.057890    0.806762
  N      0.560418   -3.065656    1.527980
  O      0.957341   -2.039447   -0.566082
  H      0.747519    2.085106    0.169007
  H     -0.600395    1.841307   -0.946526
  H     -0.880634    1.820630    0.796584
  H     -0.941558   -0.486809   -0.113679
  H      1.316483   -0.452361   -1.880460
  H      3.049568   -0.854772    0.396928
  H      2.414433    0.821497    0.334747
  H      0.808162   -0.350283    2.235191
  H      0.523789   -3.913048    0.957598

 Total Charge           Charge          ....    0
 Multiplicity           Mult            ....    1
 Number of Electrons    NEL             ....   60
 Basis Dimension        Dim             ....  302

ORBITAL ENERGIES
----------------

  NO   OCC          E(Eh)            E(eV)
   0   2.0000     -20.585890      -560.1705
   1   2.0000     -15.529206      -422.5712
   2   2.0000     -11.330920      -308.3300
   3   2.0000     -11.305423      -307.6362
   4   2.0000     -11.257028      -306.3193
   5   2.0000     -11.254816      -306.2591
   6   2.0000     -11.246743      -306.0394
   7   2.0000     -11.234263      -305.6998
   8   2.0000      -1.429348       -38.8945
   9   2.0000      -1.190278       -32.3891
  10   2.0000      -1.151348       -31.3298
  11   2.0000      -1.002676       -27.2842
  12   2.0000      -0.939945       -25.5772
  13   2.0000      -0.889252       -24.1978
  14   2.0000      -0.781325       -21.2609
  15   2.0000      -0.751526       -20.4501
  16   2.0000      -0.709408       -19.3040
  17   2.0000      -0.678354       -18.4590
  18   2.0000      -0.633341       -17.2341
  19   2.0000      -0.629214       -17.1218
  20   2.0000      -0.586577       -15.9616
  21   2.0000      -0.561722       -15.2852
  22   2.0000      -0.538453       -14.6520
  23   2.0000      -0.529135       -14.3985
  24   2.0000      -0.514895       -14.0110
  25   2.0000      -0.504219       -13.7205
  26   2.0000      -0.465290       -12.6612
  27   2.0000      -0.452879       -12.3235
  28   2.0000      -0.419723       -11.4213
  29   2.0000      -0.387759       -10.5514
  30   0.0000       0.132107         3.5948
  31   0.0000       0.160399         4.3647
  32   0.0000       0.166429         4.5288
  33   0.0000       0.174385         4.7452
  34   0.0000       0.185006         5.0343

MULLIKEN ATOMIC CHARGES
-----------------------
   0 C :   -0.413603
   1 C :   -0.108736
   2 C :    0.077506
   3 C :   -0.275691
   4 C :   -0.012583
   5 C :    0.065644
   6 N :   -0.363550
   7 O :   -0.277349
   8 H :    0.126619
   9 H :    0.140955
  10 H :    0.143203
  11 H :    0.122441
  12 H :    0.138802
  13 H :    0.133138
  14 H :    0.133670
  15 H :    0.144445
  16 H :    0.225090
Sum of atomic charges:   -0.0000000

LOEWDIN ATOMIC CHARGES
----------------------
   0 C :   -0.288899
   1 C :   -0.200631
   2 C :   -0.219294
   3 C :   -0.187529
   4 C :   -0.146311
   5 C :   -0.386698
   6 N :   -0.056404
   7 O :    0.230039
   8 H :    0.123529
   9 H :    0.129122
  10 H :    0.130444
  11 H :    0.152597
  12 H :    0.132135
  13 H :    0.135359
  14 H :    0.136752
  15 H :    0.145696
  16 H :    0.170092

  Mayer bond orders larger than 0.1
B(  0-C ,  1-C ) :   0.9167 B(  0-C ,  8-H ) :   0.9330 B(  0-C ,  9-H ) :   0.9381
B(  0-C , 10-H ) :   0.9352 B(  1-C ,  2-C ) :   0.9156 B(  1-C ,  4-C ) :   0.8768
B(  1-C , 11-H ) :   0.9140 B(  2-C ,  3-C ) :   0.9355 B(  2-C ,  7-O ) :   0.8536
B(  2-C , 12-H ) :   0.9105 B(  3-C ,  4-C ) :   0.9066 B(  3-C , 13-H ) :   0.9140
B(  3-C , 14-H ) :   0.9328 B(  4-C ,  5-C ) :   0.9225 B(  4-C , 15-H ) :   0.9054
B(  5-C ,  6-N ) :   2.1002 B(  5-C ,  7-O ) :   1.0697 B(  6-N , 16-H ) :   0.8526

MP2 TOTAL ENERGY:     -363.236603453 Eh
FINAL SINGLE POINT ENERGY      -363.236603452771

DIPOLE MOMENT
-------------
                                X             Y             Z
Electronic contribution:      0.77287      -6.81040       0.04942
Nuclear contribution   :     -0.63918       7.95404      -0.65048
                        -----------------------------------------
Total Dipole Moment    :      0.13370       1.14364      -0.60106
                        -----------------------------------------
Magnitude (a.u.)       :      1.29887
Magnitude (Debye)      :      3.30147

                             ****ORCA TERMINATED NORMALLY****
TOTAL RUN TIME: 0 days 0 hours 13 minutes 9 seconds 205 msec
