                         Program Version 3.0.3 - RELEASE   -
|  1> ! RI-MP2 RIJK def2-TZVP def2-TZVP/C def2-TZVP/JK TIGHTSCF
|  2> % maxcore 2000
|  3> % mp2 density relaxed end
|  4> *xyz 0 1
|  5>  C        0.1380820859     1.6265612904    -0.2176921030
|  6>  C       -0.0011991403     0.1274915845     0.0687745510
|  7>  C        0.6053519991    -0.7337279589    -1.0555957193
|  8>  C        0.5940038532    -0.2616495442     1.3905387713
|  9>  N        1.2768696932     0.5577611697     2.1451544092
| 10>  O        1.6303065694    -0.2313119294     3.2520381644
| 11>  C        1.1124881045    -1.4473552671     3.0332110623
| 12>  C        1.3347054769    -2.4977059019     4.0610786331
| 13>  N        0.4651481318    -1.5363732694     1.9118152423
| 14>  H        1.1908342243     1.9159337588    -0.2865096787
| 15>  H       -0.3469129059     1.8711740746    -1.1673219579
| 16>  H       -0.3189801553     2.2296350967     0.5708436664
| 17>  H       -1.0684291258    -0.1242640678     0.1346523335
| 18>  H        1.6702895065    -0.5111260652    -1.1816927660
| 19>  H        0.5013782360    -1.7983489617    -0.8330044787
| 20>  H        0.1008179559    -0.5250858679    -2.0038315096
| 21>  H        2.4043178040    -2.6857854497     4.1949398667
| 22>  H        0.9311307609    -2.1826717466     5.0279919998
| 23>  H        0.8433154257    -3.4179421749     3.7462823333
| 24> *
| 25>
| 26>                          ****END OF INPUT****

CARTESIAN COORDINATES (ANGSTROEM)
---------------------------------
  C      0.138082    1.626561   -0.217692
  C     -0.001199    0.127492    0.068775
  C      0.605352   -0.733728   -1.055596
  C      0.594004   -0.261650    1.390539
  N      1.276870    0.557761    2.145154
  O      1.630307   -0.231312    3.252038
  C      1.112488   -1.447355    3.033211
  C      1.334705   -2.497706    4.061079
  N      0.465148   -1.536373    1.911815
  H      1.190834    1.915934   -0.286510
  H     -0.346913    1.871174   -1.167322
  H     -0.318980    2.229635    0.570844
  H     -1.068429   -0.124264    0.134652
  H      1.670290   -0.511126   -1.181693
  H      0.501378   -1.798349   -0.833004
  H      0.100818   -0.525086   -2.003832
  H      2.404318   -2.685785    4.194940
  H      0.931131   -2.182672    5.027992
  H      0.843315   -3.417942    3.746282

 Total Charge           Charge          ....    0
 Multiplicity           Mult            ....    1
 Number of Electrons    NEL             ....   68
 Basis Dimension        Dim             ....  339

ORBITAL ENERGIES
----------------

  NO   OCC          E(Eh)            E(eV)
   0   2.0000     -20.646795      -561.8278
   1   2.0000     -15.614081      -424.8807
   2   2.0000     -15.564829      -423.5405
   3   2.0000     -11.358631      -309.0841
   4   2.0000     -11.306194      -307.6572
   5   2.0000     -11.256270      -306.2987
   6   2.0000     -11.248125      -306.0770
   7   2.0000     -11.221006      -305.3391
   8   2.0000     -11.215702      -305.1948
   9   2.0000      -1.510303       -41.0974
  10   2.0000      -1.248724       -33.9795
  11   2.0000      -1.169692       -31.8289
  12   2.0000      -1.071235       -29.1498
  13   2.0000      -1.012420       -27.5493
  14   2.0000      -0.934893       -25.4397
  15   2.0000      -0.875009       -23.8102
  16   2.0000      -0.820495       -22.3268
  17   2.0000      -0.769203       -20.9311
  18   2.0000      -0.696956       -18.9651
  19   2.0000      -0.682918       -18.5831
  20   2.0000      -0.629393       -17.1267
  21   2.0000      -0.603673       -16.4268
  22   2.0000      -0.594189       -16.1687
  23   2.0000      -0.586390       -15.9565
  24   2.0000      -0.584359       -15.9012
  25   2.0000      -0.554439       -15.0870
  26   2.0000      -0.539898       -14.6914
  27   2.0000      -0.509046       -13.8518
  28   2.0000      -0.502493       -13.6735
  29   2.0000      -0.494774       -13.4635
  30   2.0000      -0.488427       -13.2908
  31   2.0000      -0.457543       -12.4504
  32   2.0000      -0.447019       -12.1640
  33   2.0000      -0.390931       -10.6378
  34   0.0000       0.127552         3.4709
  35   0.0000       0.135896         3.6979
  36   0.0000       0.144345         3.9278
  37   0.0000       0.180583         4.9139
  38   0.0000       0.183024         4.9803

MULLIKEN ATOMIC CHARGES
-----------------------
   0 C :   -0.386342
   1 C :   -0.019182
   2 C :   -0.410799
   3 C :    0.145596
   4 N :   -0.133788
   5 O :   -0.107794
   6 C :    0.253142
   7 C :   -0.432145
   8 N :   -0.318819
   9 H :    0.133960
  10 H :    0.132118
  11 H :    0.141304
  12 H :    0.102857
  13 H :    0.127514
  14 H :    0.151757
  15 H :    0.132215
  16 H :    0.160166
  17 H :    0.160098
  18 H :    0.168140
Sum of atomic charges:   -0.0000000

LOEWDIN ATOMIC CHARGES
----------------------
   0 C :   -0.284745
   1 C :   -0.272149
   2 C :   -0.280533
   3 C :   -0.331248
   4 N :    0.057527
   5 O :    0.280371
   6 C :   -0.389451
   7 C :   -0.262391
   8 N :    0.129995
   9 H :    0.128240
  10 H :    0.124036
  11 H :    0.127658
  12 H :    0.165388
  13 H :    0.125834
  14 H :    0.128544
  15 H :    0.124148
  16 H :    0.142009
  17 H :    0.141909
  18 H :    0.144857

  Mayer bond orders larger than 0.1
B(  0-C ,  1-C ) :   0.9401 B(  0-C ,  9-H ) :   0.9248 B(  0-C , 10-H ) :   0.9367
B(  0-C , 11-H ) :   0.9366 B(  1-C ,  2-C ) :   0.8998 B(  1-C ,  3-C ) :   0.9336
B(  1-C , 12-H ) :   0.9216 B(  2-C , 13-H ) :   0.9310 B(  2-C , 14-H ) :   0.9341
B(  2-C , 15-H ) :   0.9358 B(  3-C ,  4-N ) :   1.6431 B(  3-C ,  8-N ) :   1.1810
B(  4-N ,  5-O ) :   0.8614 B(  5-O ,  6-C ) :   1.1573 B(  6-C ,  7-C ) :   0.8526
B(  6-C ,  8-N ) :   1.6460 B(  7-C , 16-H ) :   0.9291 B(  7-C , 17-H ) :   0.9291
B(  7-C , 18-H ) :   0.9496

MP2 TOTAL ENERGY:     -418.522250165 Eh
FINAL SINGLE POINT ENERGY      -418.522250165080

DIPOLE MOMENT
-------------
                                X             Y             Z
Electronic contribution:      1.91200      -0.19333       7.60828
Nuclear contribution   :     -2.02099      -0.36905      -7.48871
                        -----------------------------------------
Total Dipole Moment    :     -0.10899      -0.56238       0.11957
                        -----------------------------------------
Magnitude (a.u.)       :      0.58519
Magnitude (Debye)      :      1.48743

                             ****ORCA TERMINATED NORMALLY****
TOTAL RUN TIME: 0 days 0 hours 17 minutes 5 seconds 518 msec
