                         Program Version 3.0.3 - RELEASE   -
|  1> ! RI-MP2 RIJK def2-TZVP def2-TZVP/C def2-TZVP/JK TIGHTSCF
|  2> % maxcore 2000
|  3> % mp2 density relaxed end
|  4> *xyz 0 1
|  5>  C       -0.0847514511     1.5790601922     0.1229698704
|  6>  C        0.0300474924     0.0447219098     0.0153863812
|  7>  C        0.7310312472    -0.4201633934    -1.2852662116
|  8>  C       -0.0291359614    -0.0646697691    -2.5661823977
|  9>  C        0.6295118308    -0.6442712732    -3.8118542471
| 10>  O       -0.1360624995    -0.2414901027    -4.9374564993
| 11>  C        0.7234398079    -0.4991500851     1.1830114753
| 12>  C        1.3145058507    -0.9369908686     2.1342939879
| 13>  H        0.9070181345     2.0411719676     0.0929247558
| 14>  H       -0.6814489457     1.9855461778    -0.6976615068
| 15>  H       -0.5610498815     1.8636035933     1.0645740190
| 16>  H       -0.9883780672    -0.3701025695     0.0077681756
| 17>  H        1.7399961939     0.0109960405    -1.3115011993
| 18>  H        0.8637390618    -1.5070772100    -1.2293723716
| 19>  H       -1.0588019287    -0.4405293259    -2.5124667038
| 20>  H       -0.0978432431     1.0208562667    -2.6950257508
| 21>  H        1.6682533775    -0.2817059003    -3.8853727594
| 22>  H        0.6748080971    -1.7429082146    -3.7320024341
| 23>  H        0.2726574479    -0.6087804476    -5.7264654660
| 24>  H        1.8252080865    -1.3287842682     2.9786523622
| 25> *
| 26>
| 27>                          ****END OF INPUT****

CARTESIAN COORDINATES (ANGSTROEM)
---------------------------------
  C     -0.084751    1.579060    0.122970
  C      0.030047    0.044722    0.015386
  C      0.731031   -0.420163   -1.285266
  C     -0.029136   -0.064670   -2.566182
  C      0.629512   -0.644271   -3.811854
  O     -0.136062   -0.241490   -4.937456
  C      0.723440   -0.499150    1.183011
  C      1.314506   -0.936991    2.134294
  H      0.907018    2.041172    0.092925
  H     -0.681449    1.985546   -0.697662
  H     -0.561050    1.863604    1.064574
  H     -0.988378   -0.370103    0.007768
  H      1.739996    0.010996   -1.311501
  H      0.863739   -1.507077   -1.229372
  H     -1.058802   -0.440529   -2.512467
  H     -0.097843    1.020856   -2.695026
  H      1.668253   -0.281706   -3.885373
  H      0.674808   -1.742908   -3.732002
  H      0.272657   -0.608780   -5.726465
  H      1.825208   -1.328784    2.978652

 Total Charge           Charge          ....    0
 Multiplicity           Mult            ....    1
 Number of Electrons    NEL             ....   62
 Basis Dimension        Dim             ....  320

ORBITAL ENERGIES
----------------

  NO   OCC          E(Eh)            E(eV)
   0   2.0000     -20.556216      -559.3631
   1   2.0000     -11.276863      -306.8591
   2   2.0000     -11.256754      -306.3119
   3   2.0000     -11.229835      -305.5794
   4   2.0000     -11.228449      -305.5416
   5   2.0000     -11.221756      -305.3595
   6   2.0000     -11.221348      -305.3484
   7   2.0000     -11.216338      -305.2121
   8   2.0000      -1.360228       -37.0137
   9   2.0000      -1.110765       -30.2255
  10   2.0000      -1.039049       -28.2740
  11   2.0000      -0.991085       -26.9688
  12   2.0000      -0.922921       -25.1140
  13   2.0000      -0.852185       -23.1891
  14   2.0000      -0.798292       -21.7226
  15   2.0000      -0.714069       -19.4308
  16   2.0000      -0.694627       -18.9018
  17   2.0000      -0.663418       -18.0525
  18   2.0000      -0.646498       -17.5921
  19   2.0000      -0.619570       -16.8594
  20   2.0000      -0.583225       -15.8704
  21   2.0000      -0.560967       -15.2647
  22   2.0000      -0.552781       -15.0419
  23   2.0000      -0.516861       -14.0645
  24   2.0000      -0.505472       -13.7546
  25   2.0000      -0.494691       -13.4612
  26   2.0000      -0.479734       -13.0542
  27   2.0000      -0.472051       -12.8452
  28   2.0000      -0.444788       -12.1033
  29   2.0000      -0.382038       -10.3958
  30   2.0000      -0.381063       -10.3692
  31   0.0000       0.132742         3.6121
  32   0.0000       0.139537         3.7970
  33   0.0000       0.162843         4.4312
  34   0.0000       0.166268         4.5244
  35   0.0000       0.167748         4.5647

MULLIKEN ATOMIC CHARGES
-----------------------
   0 C :   -0.405555
   1 C :   -0.162217
   2 C :   -0.246176
   3 C :   -0.175941
   4 C :   -0.068325
   5 O :   -0.464709
   6 C :   -0.018957
   7 C :   -0.140501
   8 H :    0.128655
   9 H :    0.140188
  10 H :    0.143622
  11 H :    0.110732
  12 H :    0.116889
  13 H :    0.123931
  14 H :    0.111162
  15 H :    0.116731
  16 H :    0.092842
  17 H :    0.094079
  18 H :    0.315194
  19 H :    0.188357
Sum of atomic charges:    0.0000000

LOEWDIN ATOMIC CHARGES
----------------------
   0 C :   -0.272714
   1 C :   -0.267108
   2 C :   -0.230715
   3 C :   -0.270090
   4 C :   -0.352881
   5 O :   -0.052479
   6 C :   -0.089908
   7 C :   -0.106901
   8 H :    0.127507
   9 H :    0.123149
  10 H :    0.128418
  11 H :    0.169102
  12 H :    0.142608
  13 H :    0.145105
  14 H :    0.140868
  15 H :    0.139823
  16 H :    0.114600
  17 H :    0.114276
  18 H :    0.171767
  19 H :    0.125574

  Mayer bond orders larger than 0.1
B(  0-C ,  1-C ) :   0.9085 B(  0-C ,  8-H ) :   0.9295 B(  0-C ,  9-H ) :   0.9375
B(  0-C , 10-H ) :   0.9368 B(  1-C ,  2-C ) :   0.9469 B(  1-C ,  6-C ) :   1.1394
B(  1-C ,  7-C ) :  -0.1004 B(  1-C , 11-H ) :   0.9194 B(  2-C ,  3-C ) :   0.9036
B(  2-C , 12-H ) :   0.9159 B(  2-C , 13-H ) :   0.9288 B(  3-C ,  4-C ) :   0.9382
B(  3-C ,  5-O ) :  -0.1020 B(  3-C , 14-H ) :   0.9205 B(  3-C , 15-H ) :   0.9277
B(  4-C ,  5-O ) :   1.0249 B(  4-C , 16-H ) :   0.9310 B(  4-C , 17-H ) :   0.9354
B(  5-O , 18-H ) :   0.8494 B(  6-C ,  7-C ) :   2.6003 B(  7-C , 19-H ) :   0.8926

MP2 TOTAL ENERGY:     -348.362294168 Eh
FINAL SINGLE POINT ENERGY      -348.362294167689

DIPOLE MOMENT
-------------
                                X             Y             Z
Electronic contribution:      0.35299      -2.30687       1.54883
Nuclear contribution   :      0.03539       2.05863      -1.82293
                        -----------------------------------------
Total Dipole Moment    :      0.38838      -0.24824      -0.27410
                        -----------------------------------------
Magnitude (a.u.)       :      0.53627
Magnitude (Debye)      :      1.36310

                             ****ORCA TERMINATED NORMALLY****
TOTAL RUN TIME: 0 days 0 hours 11 minutes 14 seconds 33 msec
