                         Program Version 3.0.3 - RELEASE   -
|  1> ! RI-MP2 RIJK def2-TZVP def2-TZVP/C def2-TZVP/JK TIGHTSCF
|  2> % maxcore 2000
|  3> % mp2 density relaxed end
|  4> *xyz 0 1
|  5>  C       -0.1386955431     1.4491836040     0.0130715424
|  6>  C        1.2520609961     0.8554373369    -0.0123592187
|  7>  C        0.0544679800    -0.0467986369     0.0134223888
|  8>  C       -0.3457859283    -0.8914295648     1.2138004884
|  9>  C       -1.5812038220    -1.6034307855     0.6561487151
| 10>  O       -1.2759696127    -1.8716325584    -0.7092486757
| 11>  C       -0.3568859276    -0.8913629560    -1.1920658354
| 12>  H       -0.4743309357     1.9253343060     0.9289877280
| 13>  H       -0.5080820648     1.9173294894    -0.8940266016
| 14>  H        1.8191543969     0.9269057626    -0.9355134747
| 15>  H        1.8584734159     0.9294416167     0.8846737262
| 16>  H        0.4345396136    -1.6228484783     1.4558172448
| 17>  H       -0.5540622404    -0.3004371533     2.1095134160
| 18>  H       -1.8047637928    -2.5567534404     1.1440361387
| 19>  H       -2.4700502157    -0.9569766156     0.7374243782
| 20>  H       -0.8268233645    -0.2826704013    -1.9776167771
| 21>  H        0.4981931552    -1.4173261250    -1.6384581736
| 22> *
| 23>
| 24>                          ****END OF INPUT****

CARTESIAN COORDINATES (ANGSTROEM)
---------------------------------
  C     -0.138696    1.449184    0.013072
  C      1.252061    0.855437   -0.012359
  C      0.054468   -0.046799    0.013422
  C     -0.345786   -0.891430    1.213800
  C     -1.581204   -1.603431    0.656149
  O     -1.275970   -1.871633   -0.709249
  C     -0.356886   -0.891363   -1.192066
  H     -0.474331    1.925334    0.928988
  H     -0.508082    1.917329   -0.894027
  H      1.819154    0.926906   -0.935513
  H      1.858473    0.929442    0.884674
  H      0.434540   -1.622848    1.455817
  H     -0.554062   -0.300437    2.109513
  H     -1.804764   -2.556753    1.144036
  H     -2.470050   -0.956977    0.737424
  H     -0.826823   -0.282670   -1.977617
  H      0.498193   -1.417326   -1.638458

 Total Charge           Charge          ....    0
 Multiplicity           Mult            ....    1
 Number of Electrons    NEL             ....   54
 Basis Dimension        Dim             ....  277

ORBITAL ENERGIES
----------------

  NO   OCC          E(Eh)            E(eV)
   0   2.0000     -20.544847      -559.0537
   1   2.0000     -11.270456      -306.6847
   2   2.0000     -11.269763      -306.6658
   3   2.0000     -11.239200      -305.8342
   4   2.0000     -11.228838      -305.5522
   5   2.0000     -11.227394      -305.5129
   6   2.0000     -11.225839      -305.4706
   7   2.0000      -1.368373       -37.2353
   8   2.0000      -1.152873       -31.3713
   9   2.0000      -1.016106       -27.6497
  10   2.0000      -0.955369       -25.9969
  11   2.0000      -0.830078       -22.5876
  12   2.0000      -0.817686       -22.2504
  13   2.0000      -0.753056       -20.4917
  14   2.0000      -0.674296       -18.3485
  15   2.0000      -0.669932       -18.2298
  16   2.0000      -0.641145       -17.4464
  17   2.0000      -0.603749       -16.4289
  18   2.0000      -0.578596       -15.7444
  19   2.0000      -0.548972       -14.9383
  20   2.0000      -0.538816       -14.6619
  21   2.0000      -0.516386       -14.0516
  22   2.0000      -0.499447       -13.5906
  23   2.0000      -0.454612       -12.3706
  24   2.0000      -0.421186       -11.4610
  25   2.0000      -0.415665       -11.3108
  26   2.0000      -0.395016       -10.7489
  27   0.0000       0.141097         3.8394
  28   0.0000       0.158371         4.3095
  29   0.0000       0.168548         4.5864
  30   0.0000       0.171677         4.6716
  31   0.0000       0.199529         5.4295

MULLIKEN ATOMIC CHARGES
-----------------------
   0 C :   -0.303620
   1 C :   -0.272521
   2 C :    0.048727
   3 C :   -0.233976
   4 C :   -0.027877
   5 O :   -0.322603
   6 C :   -0.025889
   7 H :    0.124551
   8 H :    0.130860
   9 H :    0.132378
  10 H :    0.130174
  11 H :    0.112042
  12 H :    0.120550
  13 H :    0.112387
  14 H :    0.083621
  15 H :    0.092365
  16 H :    0.098834
Sum of atomic charges:   -0.0000000

LOEWDIN ATOMIC CHARGES
----------------------
   0 C :   -0.207855
   1 C :   -0.207894
   2 C :   -0.253800
   3 C :   -0.221063
   4 C :   -0.301578
   5 O :    0.139067
   6 C :   -0.254504
   7 H :    0.131899
   8 H :    0.132095
   9 H :    0.134987
  10 H :    0.134716
  11 H :    0.141709
  12 H :    0.140377
  13 H :    0.123977
  14 H :    0.119010
  15 H :    0.124041
  16 H :    0.124817

  Mayer bond orders larger than 0.1
B(  0-C ,  1-C ) :   0.9195 B(  0-C ,  2-C ) :   0.8747 B(  0-C ,  7-H ) :   0.9224
B(  0-C ,  8-H ) :   0.9245 B(  1-C ,  2-C ) :   0.8486 B(  1-C ,  9-H ) :   0.9266
B(  1-C , 10-H ) :   0.9231 B(  2-C ,  3-C ) :   0.9084 B(  2-C ,  6-C ) :   0.9265
B(  3-C ,  4-C ) :   0.9713 B(  3-C , 11-H ) :   0.9230 B(  3-C , 12-H ) :   0.9161
B(  4-C ,  5-O ) :   0.9368 B(  4-C , 13-H ) :   0.9268 B(  4-C , 14-H ) :   0.9193
B(  5-O ,  6-C ) :   0.9534 B(  6-C , 15-H ) :   0.9143 B(  6-C , 16-H ) :   0.9279

MP2 TOTAL ENERGY:     -309.170239441 Eh
FINAL SINGLE POINT ENERGY      -309.170239441456

DIPOLE MOMENT
-------------
                                X             Y             Z
Electronic contribution:     -1.23930      -2.46066      -1.40432
Nuclear contribution   :      1.51232       2.92651       1.80762
                        -----------------------------------------
Total Dipole Moment    :      0.27302       0.46585       0.40330
                        -----------------------------------------
Magnitude (a.u.)       :      0.67395
Magnitude (Debye)      :      1.71304

                             ****ORCA TERMINATED NORMALLY****
TOTAL RUN TIME: 0 days 0 hours 8 minutes 54 seconds 8 msec
