                         Program Version 3.0.3 - RELEASE   -
|  1> ! RI-MP2 RIJK def2-TZVP def2-TZVP/C def2-TZVP/JK TIGHTSCF
|  2> % maxcore 2000
|  3> % mp2 density relaxed end
|  4> *xyz 0 1
|  5>  O       -0.2257864581     1.3510169041    -0.1211670464
|  6>  C       -0.0414510949    -0.0318584500    -0.0517086817
|  7>  C        0.4342311118    -0.7751748805     1.2241000907
|  8>  C       -0.3719145223    -1.9224730327     0.6110758482
|  9>  N        0.0444958437    -2.1413806680    -0.8812553269
| 10>  C       -1.3858030621    -1.7883102557    -1.2615297768
| 11>  C       -1.3719641224    -0.9112951582    -0.0167685400
| 12>  O       -2.4550681059    -0.3289320118     0.6123975401
| 13>  C        0.7070754227    -0.8186813460    -1.1354874036
| 14>  H        0.4258523675     1.7869457585     0.4364252402
| 15>  H        1.5086143787    -0.8793000320     1.4015110472
| 16>  H       -0.0773048340    -0.4171820702     2.1216678549
| 17>  H       -0.6296701015    -2.8474190093     1.1209200681
| 18>  H       -1.5060331196    -1.3599408355    -2.2616450829
| 19>  H       -2.0301632895    -2.6644502072    -1.1489416421
| 20>  H       -2.3310504985     0.6284943381     0.5463522970
| 21>  H        0.5150063634    -0.4789098816    -2.1553133026
| 22>  H        1.7877544111    -0.8782074122    -0.9762976835
| 23> *
| 24>
| 25>                          ****END OF INPUT****

CARTESIAN COORDINATES (ANGSTROEM)
---------------------------------
  O     -0.225786    1.351017   -0.121167
  C     -0.041451   -0.031858   -0.051709
  C      0.434231   -0.775175    1.224100
  C     -0.371915   -1.922473    0.611076
  N      0.044496   -2.141381   -0.881255
  C     -1.385803   -1.788310   -1.261530
  C     -1.371964   -0.911295   -0.016769
  O     -2.455068   -0.328932    0.612398
  C      0.707075   -0.818681   -1.135487
  H      0.425852    1.786946    0.436425
  H      1.508614   -0.879300    1.401511
  H     -0.077305   -0.417182    2.121668
  H     -0.629670   -2.847419    1.120920
  H     -1.506033   -1.359941   -2.261645
  H     -2.030163   -2.664450   -1.148942
  H     -2.331050    0.628494    0.546352
  H      0.515006   -0.478910   -2.155313
  H      1.787754   -0.878207   -0.976298

 Total Charge           Charge          ....    0
 Multiplicity           Mult            ....    1
 Number of Electrons    NEL             ....   68
 Basis Dimension        Dim             ....  333

ORBITAL ENERGIES
----------------

  NO   OCC          E(Eh)            E(eV)
   0   2.0000     -20.583591      -560.1080
   1   2.0000     -20.565899      -559.6266
   2   2.0000     -15.562534      -423.4781
   3   2.0000     -11.299804      -307.4833
   4   2.0000     -11.290297      -307.2246
   5   2.0000     -11.263140      -306.4856
   6   2.0000     -11.251580      -306.1711
   7   2.0000     -11.250175      -306.1328
   8   2.0000     -11.237000      -305.7743
   9   2.0000      -1.400955       -38.1219
  10   2.0000      -1.372857       -37.3573
  11   2.0000      -1.280441       -34.8426
  12   2.0000      -1.065838       -29.0029
  13   2.0000      -0.991096       -26.9691
  14   2.0000      -0.929816       -25.3016
  15   2.0000      -0.850907       -23.1544
  16   2.0000      -0.797597       -21.7037
  17   2.0000      -0.751416       -20.4471
  18   2.0000      -0.724833       -19.7237
  19   2.0000      -0.692767       -18.8512
  20   2.0000      -0.656066       -17.8525
  21   2.0000      -0.633813       -17.2469
  22   2.0000      -0.626097       -17.0370
  23   2.0000      -0.610983       -16.6257
  24   2.0000      -0.570931       -15.5358
  25   2.0000      -0.545145       -14.8341
  26   2.0000      -0.531873       -14.4730
  27   2.0000      -0.522578       -14.2201
  28   2.0000      -0.501238       -13.6394
  29   2.0000      -0.475857       -12.9487
  30   2.0000      -0.448289       -12.1986
  31   2.0000      -0.438926       -11.9438
  32   2.0000      -0.404201       -10.9989
  33   2.0000      -0.363533        -9.8922
  34   0.0000       0.122425         3.3314
  35   0.0000       0.156807         4.2669
  36   0.0000       0.167759         4.5650
  37   0.0000       0.177542         4.8312
  38   0.0000       0.190214         5.1760

MULLIKEN ATOMIC CHARGES
-----------------------
   0 O :   -0.473784
   1 C :    0.045143
   2 C :   -0.244669
   3 C :   -0.112928
   4 N :   -0.196773
   5 C :   -0.162546
   6 C :    0.201119
   7 O :   -0.464833
   8 C :   -0.122209
   9 H :    0.337762
  10 H :    0.127876
  11 H :    0.126009
  12 H :    0.136484
  13 H :    0.113590
  14 H :    0.120993
  15 H :    0.336919
  16 H :    0.119752
  17 H :    0.112096
Sum of atomic charges:    0.0000000

LOEWDIN ATOMIC CHARGES
----------------------
   0 O :    0.014117
   1 C :   -0.338410
   2 C :   -0.201375
   3 C :   -0.156592
   4 N :    0.107020
   5 C :   -0.215801
   6 C :   -0.320855
   7 O :    0.031648
   8 C :   -0.229319
   9 H :    0.186260
  10 H :    0.128095
  11 H :    0.149706
  12 H :    0.133704
  13 H :    0.122313
  14 H :    0.136764
  15 H :    0.188709
  16 H :    0.134302
  17 H :    0.129715

  Mayer bond orders larger than 0.1
B(  0-O ,  1-C ) :   1.0247 B(  0-O ,  9-H ) :   0.8311 B(  1-C ,  2-C ) :   0.9473
B(  1-C ,  6-C ) :   0.8395 B(  1-C ,  8-C ) :   0.9514 B(  2-C ,  3-C ) :   0.9381
B(  2-C , 10-H ) :   0.9085 B(  2-C , 11-H ) :   0.8954 B(  3-C ,  4-N ) :   0.9135
B(  3-C ,  6-C ) :   0.8928 B(  3-C , 12-H ) :   0.9036 B(  4-N ,  5-C ) :   0.9226
B(  4-N ,  8-C ) :   0.9238 B(  5-C ,  6-C ) :   0.9803 B(  5-C , 13-H ) :   0.9131
B(  5-C , 14-H ) :   0.9193 B(  6-C ,  7-O ) :   1.0665 B(  7-O , 15-H ) :   0.8169
B(  8-C , 16-H ) :   0.9264 B(  8-C , 17-H ) :   0.9114

MP2 TOTAL ENERGY:     -438.316688718 Eh
FINAL SINGLE POINT ENERGY      -438.316688717703

DIPOLE MOMENT
-------------
                                X             Y             Z
Electronic contribution:     -1.78814       1.01668       0.36449
Nuclear contribution   :      2.36967      -0.27515       0.00913
                        -----------------------------------------
Total Dipole Moment    :      0.58153       0.74154       0.37362
                        -----------------------------------------
Magnitude (a.u.)       :      1.01373
Magnitude (Debye)      :      2.57670

                             ****ORCA TERMINATED NORMALLY****
TOTAL RUN TIME: 0 days 0 hours 19 minutes 4 seconds 501 msec
