                         Program Version 3.0.3 - RELEASE   -
|  1> ! RI-MP2 RIJK def2-TZVP def2-TZVP/C def2-TZVP/JK TIGHTSCF
|  2> % maxcore 2000
|  3> % mp2 density relaxed end
|  4> *xyz 0 1
|  5>  C        0.0120209270     1.5416063450     0.0173916417
|  6>  C        0.0345800040     0.0356685402     0.0481627349
|  7>  C        0.4863341832    -0.7417326976    -1.2146266791
|  8>  C        0.3145880090    -2.2254729891    -0.7231050620
|  9>  C       -0.1928041458    -1.9727639006     0.7148885465
| 10>  C        0.7481805181    -0.8040218923     1.1819720920
| 11>  O        2.1384546772    -0.9565816715     1.1803620133
| 12>  C       -1.1790727473    -0.8225763388     0.4512629208
| 13>  O       -2.3460195583    -0.6235747523     0.6230919674
| 14>  H        1.0227045314     1.9463186398    -0.1044668067
| 15>  H       -0.5995880967     1.9090864676    -0.8134027214
| 16>  H       -0.4072814256     1.9486336362     0.9426700742
| 17>  H       -0.1395975469    -0.5098610237    -2.0800125205
| 18>  H        1.5186952604    -0.4976647674    -1.4879929725
| 19>  H       -0.4055940544    -2.7866465870    -1.3224610407
| 20>  H        1.2522893920    -2.7906895228    -0.7330244463
| 21>  H       -0.4342393391    -2.8266627465     1.3434182199
| 22>  H        0.4830141522    -0.4393656927     2.1765936831
| 23>  H        2.4191631696    -1.3210211964     0.3350907353
| 24> *
| 25>
| 26>                          ****END OF INPUT****

CARTESIAN COORDINATES (ANGSTROEM)
---------------------------------
  C      0.012021    1.541606    0.017392
  C      0.034580    0.035669    0.048163
  C      0.486334   -0.741733   -1.214627
  C      0.314588   -2.225473   -0.723105
  C     -0.192804   -1.972764    0.714889
  C      0.748181   -0.804022    1.181972
  O      2.138455   -0.956582    1.180362
  C     -1.179073   -0.822576    0.451263
  O     -2.346020   -0.623575    0.623092
  H      1.022705    1.946319   -0.104467
  H     -0.599588    1.909086   -0.813403
  H     -0.407281    1.948634    0.942670
  H     -0.139598   -0.509861   -2.080013
  H      1.518695   -0.497665   -1.487993
  H     -0.405594   -2.786647   -1.322461
  H      1.252289   -2.790690   -0.733024
  H     -0.434239   -2.826663    1.343418
  H      0.483014   -0.439366    2.176594
  H      2.419163   -1.321021    0.335091

 Total Charge           Charge          ....    0
 Multiplicity           Mult            ....    1
 Number of Electrons    NEL             ....   68
 Basis Dimension        Dim             ....  339

ORBITAL ENERGIES
----------------

  NO   OCC          E(Eh)            E(eV)
   0   2.0000     -20.575682      -559.8928
   1   2.0000     -20.556531      -559.3716
   2   2.0000     -11.334001      -308.4139
   3   2.0000     -11.303800      -307.5920
   4   2.0000     -11.254982      -306.2636
   5   2.0000     -11.252915      -306.2074
   6   2.0000     -11.251114      -306.1584
   7   2.0000     -11.250444      -306.1401
   8   2.0000     -11.226903      -305.4996
   9   2.0000      -1.400348       -38.1054
  10   2.0000      -1.385523       -37.7020
  11   2.0000      -1.196048       -32.5461
  12   2.0000      -1.023942       -27.8629
  13   2.0000      -0.999167       -27.1887
  14   2.0000      -0.913599       -24.8603
  15   2.0000      -0.855056       -23.2673
  16   2.0000      -0.789404       -21.4808
  17   2.0000      -0.737381       -20.0652
  18   2.0000      -0.687356       -18.7039
  19   2.0000      -0.672544       -18.3009
  20   2.0000      -0.662049       -18.0153
  21   2.0000      -0.642920       -17.4947
  22   2.0000      -0.594380       -16.1739
  23   2.0000      -0.583999       -15.8914
  24   2.0000      -0.567168       -15.4334
  25   2.0000      -0.555667       -15.1205
  26   2.0000      -0.547698       -14.9036
  27   2.0000      -0.528902       -14.3922
  28   2.0000      -0.523062       -14.2333
  29   2.0000      -0.506549       -13.7839
  30   2.0000      -0.490245       -13.3403
  31   2.0000      -0.470390       -12.8000
  32   2.0000      -0.422973       -11.5097
  33   2.0000      -0.377643       -10.2762
  34   0.0000       0.110317         3.0019
  35   0.0000       0.139119         3.7856
  36   0.0000       0.156305         4.2533
  37   0.0000       0.171343         4.6625
  38   0.0000       0.177263         4.8236

MULLIKEN ATOMIC CHARGES
-----------------------
   0 C :   -0.405473
   1 C :    0.151552
   2 C :   -0.327327
   3 C :   -0.328211
   4 C :    0.036647
   5 C :   -0.039136
   6 O :   -0.442457
   7 C :    0.037882
   8 O :   -0.246647
   9 H :    0.143368
  10 H :    0.141056
  11 H :    0.140218
  12 H :    0.136712
  13 H :    0.136607
  14 H :    0.138781
  15 H :    0.133658
  16 H :    0.145792
  17 H :    0.124123
  18 H :    0.322854
Sum of atomic charges:   -0.0000000

LOEWDIN ATOMIC CHARGES
----------------------
   0 C :   -0.268100
   1 C :   -0.227134
   2 C :   -0.200526
   3 C :   -0.221872
   4 C :   -0.163220
   5 C :   -0.260860
   6 O :    0.011226
   7 C :   -0.255698
   8 O :    0.170110
   9 H :    0.132744
  10 H :    0.133578
  11 H :    0.133483
  12 H :    0.141506
  13 H :    0.133056
  14 H :    0.140289
  15 H :    0.130863
  16 H :    0.140566
  17 H :    0.153362
  18 H :    0.176627

  Mayer bond orders larger than 0.1
B(  0-C ,  1-C ) :   0.8621 B(  0-C ,  9-H ) :   0.9416 B(  0-C , 10-H ) :   0.9389
B(  0-C , 11-H ) :   0.9372 B(  1-C ,  2-C ) :   0.8530 B(  1-C ,  4-C ) :  -0.1287
B(  1-C ,  5-C ) :   0.8506 B(  1-C ,  7-C ) :   0.8205 B(  2-C ,  3-C ) :   0.9275
B(  2-C , 12-H ) :   0.9224 B(  2-C , 13-H ) :   0.9363 B(  3-C ,  4-C ) :   0.8414
B(  3-C , 14-H ) :   0.9230 B(  3-C , 15-H ) :   0.9366 B(  4-C ,  5-C ) :   0.8695
B(  4-C ,  7-C ) :   0.8534 B(  4-C , 16-H ) :   0.8996 B(  5-C ,  6-O ) :   0.9964
B(  5-C , 17-H ) :   0.9275 B(  6-O , 18-H ) :   0.8319 B(  7-C ,  8-O ) :   2.0635

MP2 TOTAL ENERGY:     -422.333368258 Eh
FINAL SINGLE POINT ENERGY      -422.333368257734

DIPOLE MOMENT
-------------
                                X             Y             Z
Electronic contribution:     -3.37649      -1.96076       3.35013
Nuclear contribution   :      4.10836       1.70086      -4.05698
                        -----------------------------------------
Total Dipole Moment    :      0.73187      -0.25990      -0.70686
                        -----------------------------------------
Magnitude (a.u.)       :      1.05016
Magnitude (Debye)      :      2.66929

                             ****ORCA TERMINATED NORMALLY****
TOTAL RUN TIME: 0 days 0 hours 19 minutes 12 seconds 440 msec
