                         Program Version 3.0.3 - RELEASE   -
|  1> ! RI-MP2 RIJK def2-TZVP def2-TZVP/C def2-TZVP/JK TIGHTSCF
|  2> % maxcore 2000
|  3> % mp2 density relaxed end
|  4> *xyz 0 1
|  5>  C        0.0062265032     1.4647819472     0.0142406879
|  6>  N       -0.0267138122     0.0167366315     0.0423276752
|  7>  C       -0.1499265987    -0.8357747153    -1.0396263894
|  8>  N       -0.1524989734    -2.1286277065    -0.7309878934
|  9>  C       -0.0243673370    -2.0823546024     0.6123292638
| 10>  C        0.0552413120    -0.8235110395     1.1274298542
| 11>  N        0.1840357120    -0.8461570097     2.4957886603
| 12>  C        0.1752191789    -2.1286260817     2.7357239439
| 13>  O        0.0521071886    -2.9631025375     1.6501789672
| 14>  H        0.9476238404     1.8380068054     0.4274773534
| 15>  H       -0.0833346186     1.7993369606    -1.0208110165
| 16>  H       -0.8218891626     1.8814949247     0.5946389992
| 17>  H       -0.2350008276    -0.4424309374    -2.0417045628
| 18>  H        0.2538612250    -2.6156152096     3.6941681370
| 19> *
| 20>
| 21>                          ****END OF INPUT****

CARTESIAN COORDINATES (ANGSTROEM)
---------------------------------
  C      0.006227    1.464782    0.014241
  N     -0.026714    0.016737    0.042328
  C     -0.149927   -0.835775   -1.039626
  N     -0.152499   -2.128628   -0.730988
  C     -0.024367   -2.082355    0.612329
  C      0.055241   -0.823511    1.127430
  N      0.184036   -0.846157    2.495789
  C      0.175219   -2.128626    2.735724
  O      0.052107   -2.963103    1.650179
  H      0.947624    1.838007    0.427477
  H     -0.083335    1.799337   -1.020811
  H     -0.821889    1.881495    0.594639
  H     -0.235001   -0.442431   -2.041705
  H      0.253861   -2.615615    3.694168

 Total Charge           Charge          ....    0
 Multiplicity           Mult            ....    1
 Number of Electrons    NEL             ....   64
 Basis Dimension        Dim             ....  309

ORBITAL ENERGIES
----------------

  NO   OCC          E(Eh)            E(eV)
   0   2.0000     -20.641634      -561.6874
   1   2.0000     -15.637044      -425.5056
   2   2.0000     -15.585514      -424.1034
   3   2.0000     -15.566418      -423.5838
   4   2.0000     -11.345220      -308.7191
   5   2.0000     -11.313323      -307.8512
   6   2.0000     -11.299455      -307.4738
   7   2.0000     -11.290991      -307.2435
   8   2.0000     -11.280398      -306.9552
   9   2.0000      -1.486429       -40.4478
  10   2.0000      -1.354609       -36.8608
  11   2.0000      -1.247643       -33.9501
  12   2.0000      -1.200234       -32.6600
  13   2.0000      -1.019686       -27.7471
  14   2.0000      -0.979207       -26.6456
  15   2.0000      -0.871766       -23.7220
  16   2.0000      -0.819415       -22.2974
  17   2.0000      -0.808915       -22.0117
  18   2.0000      -0.704194       -19.1621
  19   2.0000      -0.691429       -18.8147
  20   2.0000      -0.686640       -18.6844
  21   2.0000      -0.670611       -18.2482
  22   2.0000      -0.639571       -17.4036
  23   2.0000      -0.599137       -16.3033
  24   2.0000      -0.580100       -15.7853
  25   2.0000      -0.573957       -15.6182
  26   2.0000      -0.549937       -14.9645
  27   2.0000      -0.497593       -13.5402
  28   2.0000      -0.476295       -12.9606
  29   2.0000      -0.442774       -12.0485
  30   2.0000      -0.388550       -10.5730
  31   2.0000      -0.298404        -8.1200
  32   0.0000       0.119203         3.2437
  33   0.0000       0.130522         3.5517
  34   0.0000       0.164245         4.4693
  35   0.0000       0.176421         4.8007
  36   0.0000       0.178589         4.8597

MULLIKEN ATOMIC CHARGES
-----------------------
   0 C :   -0.315470
   1 N :   -0.060296
   2 C :   -0.010102
   3 N :   -0.280731
   4 C :    0.170094
   5 C :    0.110489
   6 N :   -0.285305
   7 C :    0.099414
   8 O :   -0.212015
   9 H :    0.161082
  10 H :    0.150781
  11 H :    0.161081
  12 H :    0.153576
  13 H :    0.157403
Sum of atomic charges:    0.0000000

LOEWDIN ATOMIC CHARGES
----------------------
   0 C :   -0.261492
   1 N :    0.242354
   2 C :   -0.270585
   3 N :    0.110851
   4 C :   -0.340125
   5 C :   -0.297186
   6 N :    0.114708
   7 C :   -0.293654
   8 O :    0.340815
   9 H :    0.128524
  10 H :    0.130203
  11 H :    0.128522
  12 H :    0.134005
  13 H :    0.133061

  Mayer bond orders larger than 0.1
B(  0-C ,  1-N ) :   0.8641 B(  0-C ,  9-H ) :   0.9280 B(  0-C , 10-H ) :   0.9291
B(  0-C , 11-H ) :   0.9280 B(  1-N ,  2-C ) :   1.1660 B(  1-N ,  5-C ) :   1.0911
B(  2-C ,  3-N ) :   1.4972 B(  2-C , 12-H ) :   0.9214 B(  3-N ,  4-C ) :   1.3374
B(  4-C ,  5-C ) :   1.3613 B(  4-C ,  8-O ) :   1.0269 B(  5-C ,  6-N ) :   1.2237
B(  6-N ,  7-C ) :   1.6084 B(  7-C ,  8-O ) :   1.0684 B(  7-C , 13-H ) :   0.9320

MP2 TOTAL ENERGY:     -432.173876723 Eh
FINAL SINGLE POINT ENERGY      -432.173876722727

DIPOLE MOMENT
-------------
                                X             Y             Z
Electronic contribution:      0.03258      -6.31113       1.98477
Nuclear contribution   :     -0.00741       7.59053      -2.05102
                        -----------------------------------------
Total Dipole Moment    :      0.02517       1.27940      -0.06625
                        -----------------------------------------
Magnitude (a.u.)       :      1.28136
Magnitude (Debye)      :      3.25696

                             ****ORCA TERMINATED NORMALLY****
TOTAL RUN TIME: 0 days 0 hours 14 minutes 25 seconds 479 msec
