                         Program Version 3.0.3 - RELEASE   -
|  1> ! RI-MP2 RIJK def2-TZVP def2-TZVP/C def2-TZVP/JK TIGHTSCF
|  2> % maxcore 2000
|  3> % mp2 density relaxed end
|  4> *xyz 0 1
|  5>  C       -0.9151589332     1.1976508924     0.0973302618
|  6>  C       -0.2288200333    -0.1772070267     0.0606380422
|  7>  C        0.5174378015    -0.4599320639    -1.2785144167
|  8>  C        2.0054638120    -0.3101625915    -0.9937599256
|  9>  C        2.4827046804     0.9490845029    -0.3144786134
| 10>  C        2.2025455710    -0.2921446952     0.5029488529
| 11>  C        0.8429494241    -0.4423575618     1.1749426210
| 12>  C        0.7001134647     0.3786844709     2.4507361470
| 13>  O       -0.5448912917     0.0481612880     3.0588921502
| 14>  H       -0.2240077907     2.0325072657    -0.0538328866
| 15>  H       -1.6657771183     1.2559307143    -0.6982175489
| 16>  H       -1.4248874695     1.3453936563     1.0528345038
| 17>  H       -1.0287750204    -0.9127235574     0.1847457316
| 18>  H        0.3251246437    -1.4873717274    -1.6090455313
| 19>  H        0.1674900264     0.1992706290    -2.0817398660
| 20>  H        2.7038635694    -0.8322978974    -1.6391461143
| 21>  H        3.5255408567     1.2158288483    -0.4515294492
| 22>  H        1.8217400389     1.8048472192    -0.2463910109
| 23>  H        3.0484348721    -0.7944281293     0.9615243142
| 24>  H        0.7468987137    -1.4937184964     1.4771065517
| 25>  H        1.5387749281     0.1435479591     3.1252446161
| 26>  H        0.7585542809     1.4533131700     2.2232334274
| 27>  H       -0.6359990962     0.5722388109     3.8599782630
| 28> *
| 29>
| 30>                          ****END OF INPUT****

CARTESIAN COORDINATES (ANGSTROEM)
---------------------------------
  C     -0.915159    1.197651    0.097330
  C     -0.228820   -0.177207    0.060638
  C      0.517438   -0.459932   -1.278514
  C      2.005464   -0.310163   -0.993760
  C      2.482705    0.949085   -0.314479
  C      2.202546   -0.292145    0.502949
  C      0.842949   -0.442358    1.174943
  C      0.700113    0.378684    2.450736
  O     -0.544891    0.048161    3.058892
  H     -0.224008    2.032507   -0.053833
  H     -1.665777    1.255931   -0.698218
  H     -1.424887    1.345394    1.052835
  H     -1.028775   -0.912724    0.184746
  H      0.325125   -1.487372   -1.609046
  H      0.167490    0.199271   -2.081740
  H      2.703864   -0.832298   -1.639146
  H      3.525541    1.215829   -0.451529
  H      1.821740    1.804847   -0.246391
  H      3.048435   -0.794428    0.961524
  H      0.746899   -1.493718    1.477107
  H      1.538775    0.143548    3.125245
  H      0.758554    1.453313    2.223233
  H     -0.635999    0.572239    3.859978

 Total Charge           Charge          ....    0
 Multiplicity           Mult            ....    1
 Number of Electrons    NEL             ....   70
 Basis Dimension        Dim             ....  363

ORBITAL ENERGIES
----------------

  NO   OCC          E(Eh)            E(eV)
   0   2.0000     -20.552185      -559.2534
   1   2.0000     -11.269119      -306.6483
   2   2.0000     -11.222099      -305.3688
   3   2.0000     -11.221302      -305.3471
   4   2.0000     -11.220631      -305.3289
   5   2.0000     -11.219342      -305.2938
   6   2.0000     -11.217882      -305.2541
   7   2.0000     -11.213688      -305.1400
   8   2.0000     -11.202700      -304.8410
   9   2.0000      -1.355409       -36.8826
  10   2.0000      -1.167831       -31.7783
  11   2.0000      -1.048357       -28.5272
  12   2.0000      -0.995018       -27.0758
  13   2.0000      -0.931519       -25.3479
  14   2.0000      -0.868035       -23.6204
  15   2.0000      -0.810773       -22.0622
  16   2.0000      -0.754213       -20.5232
  17   2.0000      -0.729735       -19.8571
  18   2.0000      -0.698851       -19.0167
  19   2.0000      -0.674977       -18.3671
  20   2.0000      -0.636343       -17.3158
  21   2.0000      -0.597876       -16.2690
  22   2.0000      -0.588398       -16.0111
  23   2.0000      -0.566617       -15.4184
  24   2.0000      -0.556072       -15.1315
  25   2.0000      -0.541092       -14.7239
  26   2.0000      -0.528322       -14.3764
  27   2.0000      -0.516937       -14.0666
  28   2.0000      -0.480251       -13.0683
  29   2.0000      -0.463344       -12.6082
  30   2.0000      -0.449573       -12.2335
  31   2.0000      -0.441322       -12.0090
  32   2.0000      -0.428919       -11.6715
  33   2.0000      -0.398347       -10.8396
  34   2.0000      -0.386189       -10.5087
  35   0.0000       0.134825         3.6688
  36   0.0000       0.146276         3.9804
  37   0.0000       0.163666         4.4536
  38   0.0000       0.168522         4.5857
  39   0.0000       0.177789         4.8379

MULLIKEN ATOMIC CHARGES
-----------------------
   0 C :   -0.462805
   1 C :   -0.040586
   2 C :   -0.212130
   3 C :   -0.094883
   4 C :   -0.309868
   5 C :   -0.116915
   6 C :   -0.036264
   7 C :   -0.083950
   8 O :   -0.471075
   9 H :    0.115178
  10 H :    0.132085
  11 H :    0.150374
  12 H :    0.100240
  13 H :    0.116061
  14 H :    0.110397
  15 H :    0.118134
  16 H :    0.128072
  17 H :    0.127402
  18 H :    0.118449
  19 H :    0.091345
  20 H :    0.103741
  21 H :    0.102646
  22 H :    0.314354
Sum of atomic charges:   -0.0000000

LOEWDIN ATOMIC CHARGES
----------------------
   0 C :   -0.300937
   1 C :   -0.224802
   2 C :   -0.210991
   3 C :   -0.200720
   4 C :   -0.207438
   5 C :   -0.180043
   6 C :   -0.210987
   7 C :   -0.325874
   8 O :   -0.049435
   9 H :    0.114683
  10 H :    0.123263
  11 H :    0.126348
  12 H :    0.152980
  13 H :    0.139753
  14 H :    0.137523
  15 H :    0.141136
  16 H :    0.133473
  17 H :    0.129288
  18 H :    0.142675
  19 H :    0.161243
  20 H :    0.119182
  21 H :    0.118659
  22 H :    0.171020

  Mayer bond orders larger than 0.1
B(  0-C ,  1-C ) :   0.9140 B(  0-C ,  9-H ) :   0.9345 B(  0-C , 10-H ) :   0.9369
B(  0-C , 11-H ) :   0.9375 B(  1-C ,  2-C ) :   0.9047 B(  1-C ,  6-C ) :   0.9076
B(  1-C , 12-H ) :   0.9252 B(  2-C ,  3-C ) :   0.9556 B(  2-C , 13-H ) :   0.9263
B(  2-C , 14-H ) :   0.9297 B(  3-C ,  4-C ) :   0.8808 B(  3-C ,  5-C ) :   0.8570
B(  3-C , 15-H ) :   0.9329 B(  4-C ,  5-C ) :   0.8768 B(  4-C , 16-H ) :   0.9321
B(  4-C , 17-H ) :   0.9268 B(  5-C ,  6-C ) :   0.9402 B(  5-C , 18-H ) :   0.9275
B(  6-C ,  7-C ) :   0.9195 B(  6-C , 19-H ) :   0.9160 B(  7-C ,  8-O ) :   1.0091
B(  7-C , 20-H ) :   0.9272 B(  7-C , 21-H ) :   0.9293 B(  8-O , 22-H ) :   0.8484

MP2 TOTAL ENERGY:     -387.617308727 Eh
FINAL SINGLE POINT ENERGY      -387.617308727038

DIPOLE MOMENT
-------------
                                X             Y             Z
Electronic contribution:      0.89269      -2.34599       2.35421
Nuclear contribution   :     -0.57434       2.61577      -2.09511
                        -----------------------------------------
Total Dipole Moment    :      0.31835       0.26979       0.25909
                        -----------------------------------------
Magnitude (a.u.)       :      0.49118
Magnitude (Debye)      :      1.24849

                             ****ORCA TERMINATED NORMALLY****
TOTAL RUN TIME: 0 days 0 hours 34 minutes 45 seconds 419 msec
