                         Program Version 3.0.3 - RELEASE   -
|  1> ! RI-MP2 RIJK def2-TZVP def2-TZVP/C def2-TZVP/JK TIGHTSCF
|  2> % maxcore 2000
|  3> % mp2 density relaxed end
|  4> *xyz 0 1
|  5>  C        0.4241151722     1.4380610357    -0.0199294855
|  6>  C        0.1711756460    -0.0323153218    -0.0623072351
|  7>  C        0.0098479455    -0.9379379412    -1.0859839683
|  8>  C        0.0254875835    -0.7239533484    -2.5776159517
|  9>  C        1.1179490470     0.1284269275    -3.0503282595
| 10>  N        1.9706975657     0.8168868104    -3.4174711458
| 11>  N       -0.2247903155    -2.2037618787    -0.5942015535
| 12>  C       -0.2085895888    -2.0789445006     0.7106930308
| 13>  N        0.0253339363    -0.7895110090     1.0836631191
| 14>  H        1.2302418108     1.6861524095     0.6800709436
| 15>  H        0.7253099179     1.8023455984    -1.0034047335
| 16>  H       -0.4665290997     1.9987865453     0.2897174404
| 17>  H        0.1137709586    -1.7063961450    -3.0517309364
| 18>  H       -0.9180539259    -0.2904617311    -2.9347535081
| 19>  H       -0.3533920687    -2.8731573227     1.4273873413
| 20>  H        0.1036758750    -0.4447008284     2.0264251424
| 21> *
| 22>
| 23>                          ****END OF INPUT****

CARTESIAN COORDINATES (ANGSTROEM)
---------------------------------
  C      0.424115    1.438061   -0.019929
  C      0.171176   -0.032315   -0.062307
  C      0.009848   -0.937938   -1.085984
  C      0.025488   -0.723953   -2.577616
  C      1.117949    0.128427   -3.050328
  N      1.970698    0.816887   -3.417471
  N     -0.224790   -2.203762   -0.594202
  C     -0.208590   -2.078945    0.710693
  N      0.025334   -0.789511    1.083663
  H      1.230242    1.686152    0.680071
  H      0.725310    1.802346   -1.003405
  H     -0.466529    1.998787    0.289717
  H      0.113771   -1.706396   -3.051731
  H     -0.918054   -0.290462   -2.934754
  H     -0.353392   -2.873157    1.427387
  H      0.103676   -0.444701    2.026425

 Total Charge           Charge          ....    0
 Multiplicity           Mult            ....    1
 Number of Electrons    NEL             ....   64
 Basis Dimension        Dim             ....  321

ORBITAL ENERGIES
----------------

  NO   OCC          E(Eh)            E(eV)
   0   2.0000     -15.628090      -425.2619
   1   2.0000     -15.564688      -423.5367
   2   2.0000     -15.555301      -423.2813
   3   2.0000     -11.305150      -307.6288
   4   2.0000     -11.281831      -306.9942
   5   2.0000     -11.278481      -306.9031
   6   2.0000     -11.271640      -306.7169
   7   2.0000     -11.263413      -306.4931
   8   2.0000     -11.244850      -305.9879
   9   2.0000      -1.352832       -36.8124
  10   2.0000      -1.216077       -33.0911
  11   2.0000      -1.182937       -32.1894
  12   2.0000      -1.083062       -29.4716
  13   2.0000      -1.022559       -27.8253
  14   2.0000      -0.939484       -25.5647
  15   2.0000      -0.841715       -22.9042
  16   2.0000      -0.788774       -21.4636
  17   2.0000      -0.736943       -20.0533
  18   2.0000      -0.692999       -18.8575
  19   2.0000      -0.650548       -17.7023
  20   2.0000      -0.621102       -16.9010
  21   2.0000      -0.600108       -16.3298
  22   2.0000      -0.588229       -16.0065
  23   2.0000      -0.579138       -15.7591
  24   2.0000      -0.565669       -15.3926
  25   2.0000      -0.560144       -15.2423
  26   2.0000      -0.549430       -14.9507
  27   2.0000      -0.460017       -12.5177
  28   2.0000      -0.456082       -12.4106
  29   2.0000      -0.446689       -12.1550
  30   2.0000      -0.409297       -11.1375
  31   2.0000      -0.321013        -8.7352
  32   0.0000       0.114364         3.1120
  33   0.0000       0.135762         3.6943
  34   0.0000       0.147523         4.0143
  35   0.0000       0.162633         4.4255
  36   0.0000       0.178012         4.8440

MULLIKEN ATOMIC CHARGES
-----------------------
   0 C :   -0.409280
   1 C :    0.069753
   2 C :    0.027059
   3 C :   -0.139886
   4 C :   -0.177420
   5 N :   -0.073522
   6 N :   -0.296091
   7 C :    0.056284
   8 N :   -0.274792
   9 H :    0.143691
  10 H :    0.171721
  11 H :    0.152071
  12 H :    0.178983
  13 H :    0.167003
  14 H :    0.154042
  15 H :    0.250384
Sum of atomic charges:   -0.0000000

LOEWDIN ATOMIC CHARGES
----------------------
   0 C :   -0.272720
   1 C :   -0.227130
   2 C :   -0.240003
   3 C :   -0.206688
   4 C :   -0.188658
   5 N :    0.050738
   6 N :    0.107797
   7 C :   -0.311391
   8 N :    0.197832
   9 H :    0.134227
  10 H :    0.145296
  11 H :    0.132746
  12 H :    0.179466
  13 H :    0.170960
  14 H :    0.131403
  15 H :    0.196126

  Mayer bond orders larger than 0.1
B(  0-C ,  1-C ) :   0.8322 B(  0-C ,  9-H ) :   0.9319 B(  0-C , 10-H ) :   0.9409
B(  0-C , 11-H ) :   0.9340 B(  1-C ,  2-C ) :   1.5084 B(  1-C ,  8-N ) :   1.1421
B(  2-C ,  3-C ) :   0.8817 B(  2-C ,  6-N ) :   1.3267 B(  3-C ,  4-C ) :   0.9174
B(  3-C , 12-H ) :   0.9184 B(  3-C , 13-H ) :   0.9085 B(  4-C ,  5-N ) :   2.8514
B(  6-N ,  7-C ) :   1.5438 B(  7-C ,  8-N ) :   1.1658 B(  7-C , 14-H ) :   0.9249
B(  8-N , 15-H ) :   0.8663

MP2 TOTAL ENERGY:     -396.298897518 Eh
FINAL SINGLE POINT ENERGY      -396.298897517698

DIPOLE MOMENT
-------------
                                X             Y             Z
Electronic contribution:      1.05220      -3.04083      -2.14985
Nuclear contribution   :     -1.95953       3.23763       3.91810
                        -----------------------------------------
Total Dipole Moment    :     -0.90733       0.19680       1.76826
                        -----------------------------------------
Magnitude (a.u.)       :      1.99718
Magnitude (Debye)      :      5.07642

                             ****ORCA TERMINATED NORMALLY****
TOTAL RUN TIME: 0 days 0 hours 15 minutes 16 seconds 673 msec
