                         Program Version 3.0.3 - RELEASE   -
|  1> ! RI-MP2 RIJK def2-TZVP def2-TZVP/C def2-TZVP/JK TIGHTSCF
|  2> % maxcore 2000
|  3> % mp2 density relaxed end
|  4> *xyz 0 1
|  5>  C       -0.0004731290     1.5906605655     0.0403990794
|  6>  C        0.0278811708     0.0604507044     0.0073507478
|  7>  N        0.6932513210    -0.5209409650     1.1628345246
|  8>  C        2.0299821451    -0.8477972874     1.2274684170
|  9>  C        2.3216919539    -1.2343234699     2.5126607010
| 10>  C        1.1148814335    -1.1531035496     3.2621183945
| 11>  C        0.1293274475    -0.7082727592     2.4066318136
| 12>  N       -1.2334256648    -0.3835505130     2.6095200381
| 13>  H        1.0139957183     1.9962394207     0.0951200694
| 14>  H       -0.4808109821     1.9807841736    -0.8628843357
| 15>  H       -0.5626364369     1.9384562432     0.9103421431
| 16>  H       -0.9927113037    -0.3281617723    -0.0403944514
| 17>  H        0.5520404563    -0.2961336139    -0.8847696234
| 18>  H        2.6483453194    -0.7845275540     0.3459540558
| 19>  H        3.2855705810    -1.5611003046     2.8717417269
| 20>  H        0.9744857332    -1.4062392736     4.3024484013
| 21>  H       -1.3980447691    -0.1634257271     3.5843151756
| 22>  H       -1.8525093643    -1.1529828079     2.3671921426
| 23> *
| 24>
| 25>                          ****END OF INPUT****

CARTESIAN COORDINATES (ANGSTROEM)
---------------------------------
  C     -0.000473    1.590661    0.040399
  C      0.027881    0.060451    0.007351
  N      0.693251   -0.520941    1.162835
  C      2.029982   -0.847797    1.227468
  C      2.321692   -1.234323    2.512661
  C      1.114881   -1.153104    3.262118
  C      0.129327   -0.708273    2.406632
  N     -1.233426   -0.383551    2.609520
  H      1.013996    1.996239    0.095120
  H     -0.480811    1.980784   -0.862884
  H     -0.562636    1.938456    0.910342
  H     -0.992711   -0.328162   -0.040394
  H      0.552040   -0.296134   -0.884770
  H      2.648345   -0.784528    0.345954
  H      3.285571   -1.561100    2.871742
  H      0.974486   -1.406239    4.302448
  H     -1.398045   -0.163426    3.584315
  H     -1.852509   -1.152983    2.367192

 Total Charge           Charge          ....    0
 Multiplicity           Mult            ....    1
 Number of Electrons    NEL             ....   60
 Basis Dimension        Dim             ....  308

ORBITAL ENERGIES
----------------

  NO   OCC          E(Eh)            E(eV)
   0   2.0000     -15.591323      -424.2615
   1   2.0000     -15.560761      -423.4298
   2   2.0000     -11.277066      -306.8646
   3   2.0000     -11.266568      -306.5789
   4   2.0000     -11.236265      -305.7543
   5   2.0000     -11.214840      -305.1713
   6   2.0000     -11.200127      -304.7709
   7   2.0000     -11.195422      -304.6429
   8   2.0000      -1.300236       -35.3812
   9   2.0000      -1.183388       -32.2016
  10   2.0000      -1.077793       -29.3282
  11   2.0000      -0.984028       -26.7768
  12   2.0000      -0.945167       -25.7193
  13   2.0000      -0.858677       -23.3658
  14   2.0000      -0.777860       -21.1666
  15   2.0000      -0.732470       -19.9315
  16   2.0000      -0.699663       -19.0388
  17   2.0000      -0.667495       -18.1635
  18   2.0000      -0.622449       -16.9377
  19   2.0000      -0.604382       -16.4461
  20   2.0000      -0.584001       -15.8915
  21   2.0000      -0.571657       -15.5556
  22   2.0000      -0.546688       -14.8761
  23   2.0000      -0.531665       -14.4673
  24   2.0000      -0.521992       -14.2041
  25   2.0000      -0.501407       -13.6440
  26   2.0000      -0.493503       -13.4289
  27   2.0000      -0.432984       -11.7821
  28   2.0000      -0.329602        -8.9689
  29   2.0000      -0.277663        -7.5556
  30   0.0000       0.129673         3.5286
  31   0.0000       0.152130         4.1397
  32   0.0000       0.172929         4.7056
  33   0.0000       0.174967         4.7611
  34   0.0000       0.179907         4.8955

MULLIKEN ATOMIC CHARGES
-----------------------
   0 C :   -0.396742
   1 C :   -0.111914
   2 N :   -0.006617
   3 C :   -0.171003
   4 C :   -0.157853
   5 C :   -0.266077
   6 C :    0.163232
   7 N :   -0.584522
   8 H :    0.130928
   9 H :    0.125201
  10 H :    0.151844
  11 H :    0.109874
  12 H :    0.132192
  13 H :    0.135181
  14 H :    0.123651
  15 H :    0.117857
  16 H :    0.254031
  17 H :    0.250736
Sum of atomic charges:   -0.0000000

LOEWDIN ATOMIC CHARGES
----------------------
   0 C :   -0.310740
   1 C :   -0.268895
   2 N :    0.262518
   3 C :   -0.228716
   4 C :   -0.206365
   5 C :   -0.198668
   6 C :   -0.317777
   7 N :   -0.117011
   8 H :    0.123183
   9 H :    0.122782
  10 H :    0.127797
  11 H :    0.136551
  12 H :    0.137654
  13 H :    0.132603
  14 H :    0.136404
  15 H :    0.135007
  16 H :    0.169148
  17 H :    0.164527

  Mayer bond orders larger than 0.1
B(  0-C ,  1-C ) :   0.9187 B(  0-C ,  8-H ) :   0.9340 B(  0-C ,  9-H ) :   0.9322
B(  0-C , 10-H ) :   0.9354 B(  1-C ,  2-N ) :   0.8622 B(  1-C , 11-H ) :   0.9238
B(  1-C , 12-H ) :   0.9351 B(  2-N ,  3-C ) :   1.1289 B(  2-N ,  6-C ) :   1.1322
B(  3-C ,  4-C ) :   1.4715 B(  3-C , 13-H ) :   0.9214 B(  4-C ,  5-C ) :   1.2768
B(  4-C , 14-H ) :   0.9353 B(  5-C ,  6-C ) :   1.4588 B(  5-C , 15-H ) :   0.9352
B(  6-C ,  7-N ) :   0.9605 B(  7-N , 16-H ) :   0.8909 B(  7-N , 17-H ) :   0.8753

MP2 TOTAL ENERGY:     -343.410313304 Eh
FINAL SINGLE POINT ENERGY      -343.410313304209

DIPOLE MOMENT
-------------
                                X             Y             Z
Electronic contribution:      1.79039      -3.61429       3.05778
Nuclear contribution   :     -2.40007       3.61290      -3.35526
                        -----------------------------------------
Total Dipole Moment    :     -0.60968      -0.00139      -0.29748
                        -----------------------------------------
Magnitude (a.u.)       :      0.67838
Magnitude (Debye)      :      1.72432

                             ****ORCA TERMINATED NORMALLY****
TOTAL RUN TIME: 0 days 0 hours 13 minutes 58 seconds 323 msec
