                         Program Version 3.0.3 - RELEASE   -
|  1> ! RI-MP2 RIJK def2-TZVP def2-TZVP/C def2-TZVP/JK TIGHTSCF
|  2> % maxcore 2000
|  3> % mp2 density relaxed end
|  4> *xyz 0 1
|  5>  C        0.0335164964     1.5243319326     0.0003195078
|  6>  C       -0.0658846200    -0.0052773326    -0.0197710024
|  7>  C       -1.4879174014    -0.5057929856     0.0022775291
|  8>  C       -2.5714103181    -0.3130917778     1.1131853519
|  9>  C       -3.2555112984    -1.1820667637     0.0230436244
| 10>  C       -2.6290418802    -0.2315743595    -1.0334957094
| 11>  C       -1.9350650388    -2.0181604960    -0.0167379921
| 12>  C       -1.6338686806    -2.8205685356    -1.1908637836
| 13>  N       -1.3797194813    -3.4649733683    -2.1173735114
| 14>  H        1.0784443992     1.8465337087    -0.0189750461
| 15>  H       -0.4682333190     1.9648337315    -0.8672541661
| 16>  H       -0.4283162677     1.9413128910     0.9013045861
| 17>  H        0.4310189353    -0.3992323152    -0.9152762291
| 18>  H        0.4712583755    -0.4242904295     0.8410586554
| 19>  H       -2.3778708974    -0.7872433009     2.0797608970
| 20>  H       -2.9633421742     0.6990618906     1.2339789133
| 21>  H       -4.2644629986    -1.5923176689     0.0344540038
| 22>  H       -3.0248824569     0.7862950890    -1.0559181064
| 23>  H       -2.4888790900    -0.6299494253    -2.0405718979
| 24>  H       -1.7074880738    -2.5831285345     0.8917918557
| 25> *
| 26>
| 27>                          ****END OF INPUT****

CARTESIAN COORDINATES (ANGSTROEM)
---------------------------------
  C      0.033516    1.524332    0.000320
  C     -0.065885   -0.005277   -0.019771
  C     -1.487917   -0.505793    0.002278
  C     -2.571410   -0.313092    1.113185
  C     -3.255511   -1.182067    0.023044
  C     -2.629042   -0.231574   -1.033496
  C     -1.935065   -2.018160   -0.016738
  C     -1.633869   -2.820569   -1.190864
  N     -1.379719   -3.464973   -2.117374
  H      1.078444    1.846534   -0.018975
  H     -0.468233    1.964834   -0.867254
  H     -0.428316    1.941313    0.901305
  H      0.431019   -0.399232   -0.915276
  H      0.471258   -0.424290    0.841059
  H     -2.377871   -0.787243    2.079761
  H     -2.963342    0.699062    1.233979
  H     -4.264463   -1.592318    0.034454
  H     -3.024882    0.786295   -1.055918
  H     -2.488879   -0.629949   -2.040572
  H     -1.707488   -2.583129    0.891792

 Total Charge           Charge          ....    0
 Multiplicity           Mult            ....    1
 Number of Electrons    NEL             ....   66
 Basis Dimension        Dim             ....  345

ORBITAL ENERGIES
----------------

  NO   OCC          E(Eh)            E(eV)
   0   2.0000     -15.563682      -423.5093
   1   2.0000     -11.281585      -306.9875
   2   2.0000     -11.275580      -306.8241
   3   2.0000     -11.270449      -306.6845
   4   2.0000     -11.266691      -306.5822
   5   2.0000     -11.248121      -306.0769
   6   2.0000     -11.243907      -305.9623
   7   2.0000     -11.235220      -305.7259
   8   2.0000     -11.225740      -305.4679
   9   2.0000      -1.243720       -33.8433
  10   2.0000      -1.205521       -32.8039
  11   2.0000      -1.050790       -28.5934
  12   2.0000      -0.975564       -26.5464
  13   2.0000      -0.927306       -25.2333
  14   2.0000      -0.902905       -24.5693
  15   2.0000      -0.817373       -22.2418
  16   2.0000      -0.778755       -21.1910
  17   2.0000      -0.684861       -18.6360
  18   2.0000      -0.662229       -18.0202
  19   2.0000      -0.647539       -17.6204
  20   2.0000      -0.623400       -16.9636
  21   2.0000      -0.573494       -15.6056
  22   2.0000      -0.566365       -15.4116
  23   2.0000      -0.536180       -14.5902
  24   2.0000      -0.535676       -14.5765
  25   2.0000      -0.517205       -14.0739
  26   2.0000      -0.508225       -13.8295
  27   2.0000      -0.491900       -13.3853
  28   2.0000      -0.479214       -13.0401
  29   2.0000      -0.455757       -12.4018
  30   2.0000      -0.450743       -12.2653
  31   2.0000      -0.442476       -12.0404
  32   2.0000      -0.422124       -11.4866
  33   0.0000       0.125157         3.4057
  34   0.0000       0.142017         3.8645
  35   0.0000       0.147521         4.0143
  36   0.0000       0.165121         4.4932
  37   0.0000       0.179973         4.8973

MULLIKEN ATOMIC CHARGES
-----------------------
   0 C :   -0.407653
   1 C :   -0.200913
   2 C :   -0.051681
   3 C :   -0.200309
   4 C :   -0.127257
   5 C :   -0.229344
   6 C :    0.057188
   7 C :   -0.251502
   8 N :   -0.042742
   9 H :    0.142337
  10 H :    0.133053
  11 H :    0.129039
  12 H :    0.132517
  13 H :    0.115442
  14 H :    0.118081
  15 H :    0.128908
  16 H :    0.149775
  17 H :    0.123052
  18 H :    0.144397
  19 H :    0.137613
Sum of atomic charges:    0.0000000

LOEWDIN ATOMIC CHARGES
----------------------
   0 C :   -0.307889
   1 C :   -0.255905
   2 C :   -0.181680
   3 C :   -0.169711
   4 C :   -0.145279
   5 C :   -0.164453
   6 C :   -0.156195
   7 C :   -0.175186
   8 N :    0.059749
   9 H :    0.123952
  10 H :    0.123616
  11 H :    0.122336
  12 H :    0.148834
  13 H :    0.144765
  14 H :    0.130654
  15 H :    0.133323
  16 H :    0.130342
  17 H :    0.132412
  18 H :    0.138175
  19 H :    0.168140

  Mayer bond orders larger than 0.1
B(  0-C ,  1-C ) :   0.9228 B(  0-C ,  9-H ) :   0.9400 B(  0-C , 10-H ) :   0.9377
B(  0-C , 11-H ) :   0.9377 B(  1-C ,  2-C ) :   0.8778 B(  1-C , 12-H ) :   0.9322
B(  1-C , 13-H ) :   0.9310 B(  2-C ,  3-C ) :   0.8816 B(  2-C ,  5-C ) :   0.8985
B(  2-C ,  6-C ) :   0.8200 B(  3-C ,  4-C ) :   0.9003 B(  3-C , 14-H ) :   0.9314
B(  3-C , 15-H ) :   0.9310 B(  4-C ,  5-C ) :   0.9142 B(  4-C ,  6-C ) :   0.8766
B(  4-C , 16-H ) :   0.8955 B(  5-C , 17-H ) :   0.9325 B(  5-C , 18-H ) :   0.9180
B(  6-C ,  7-C ) :   0.9515 B(  6-C , 19-H ) :   0.9037 B(  7-C ,  8-N ) :   2.8823

MP2 TOTAL ENERGY:     -365.329791699 Eh
FINAL SINGLE POINT ENERGY      -365.329791699228

DIPOLE MOMENT
-------------
                                X             Y             Z
Electronic contribution:     -2.31999      -9.35892      -3.42882
Nuclear contribution   :      2.08385      10.49888       4.58785
                        -----------------------------------------
Total Dipole Moment    :     -0.23615       1.13996       1.15904
                        -----------------------------------------
Magnitude (a.u.)       :      1.64275
Magnitude (Debye)      :      4.17554

                             ****ORCA TERMINATED NORMALLY****
TOTAL RUN TIME: 0 days 0 hours 18 minutes 56 seconds 161 msec
