                         Program Version 3.0.3 - RELEASE   -
|  1> ! RI-MP2 RIJK def2-TZVP def2-TZVP/C def2-TZVP/JK TIGHTSCF
|  2> % maxcore 2000
|  3> % mp2 density relaxed end
|  4> *xyz 0 1
|  5>  C       -0.0036000719     1.5146372987    -0.0042727186
|  6>  C        1.2975303267     0.7404561674    -0.0099692744
|  7>  C       -0.0171039658     0.0143909651     0.0132591922
|  8>  C       -0.4720719181    -0.8431108714     1.2084735387
|  9>  C       -1.1322869760    -2.0407222424     0.4438050502
| 10>  O       -0.2649087579    -2.1589865326    -0.6927926131
| 11>  C       -0.4887890851    -0.8337355826    -1.1920127709
| 12>  C       -2.0149007163    -0.7562112580    -1.2128206038
| 13>  C       -2.4155884263    -1.5104363649    -0.1897110523
| 14>  H       -0.2830747141     2.0419203434     0.9022351381
| 15>  H       -0.2964203661     2.0248875084    -0.9171623778
| 16>  H        1.8785165528     0.7248933768    -0.9270217802
| 17>  H        1.8974088539     0.7412922011     0.8945173597
| 18>  H        0.3801709803    -1.1960736295     1.7954341266
| 19>  H       -1.1719818156    -0.3329653988     1.8754509548
| 20>  H       -1.1853375376    -2.9823547090     0.9886451774
| 21>  H        0.0459377001    -0.6706714672    -2.1277368761
| 22>  H       -2.6036289583    -0.1238135653    -1.8626401858
| 23>  H       -3.4130962947    -1.6464121794     0.2051416555
| 24> *
| 25>
| 26>                          ****END OF INPUT****

CARTESIAN COORDINATES (ANGSTROEM)
---------------------------------
  C     -0.003600    1.514637   -0.004273
  C      1.297530    0.740456   -0.009969
  C     -0.017104    0.014391    0.013259
  C     -0.472072   -0.843111    1.208474
  C     -1.132287   -2.040722    0.443805
  O     -0.264909   -2.158987   -0.692793
  C     -0.488789   -0.833736   -1.192013
  C     -2.014901   -0.756211   -1.212821
  C     -2.415588   -1.510436   -0.189711
  H     -0.283075    2.041920    0.902235
  H     -0.296420    2.024888   -0.917162
  H      1.878517    0.724893   -0.927022
  H      1.897409    0.741292    0.894517
  H      0.380171   -1.196074    1.795434
  H     -1.171982   -0.332965    1.875451
  H     -1.185338   -2.982355    0.988645
  H      0.045938   -0.670671   -2.127737
  H     -2.603629   -0.123814   -1.862640
  H     -3.413096   -1.646412    0.205142

 Total Charge           Charge          ....    0
 Multiplicity           Mult            ....    1
 Number of Electrons    NEL             ....   66
 Basis Dimension        Dim             ....  339

ORBITAL ENERGIES
----------------

  NO   OCC          E(Eh)            E(eV)
   0   2.0000     -20.548909      -559.1642
   1   2.0000     -11.284380      -307.0636
   2   2.0000     -11.284252      -307.0601
   3   2.0000     -11.238357      -305.8112
   4   2.0000     -11.229136      -305.5603
   5   2.0000     -11.227350      -305.5117
   6   2.0000     -11.226591      -305.4911
   7   2.0000     -11.225218      -305.4537
   8   2.0000     -11.223154      -305.3975
   9   2.0000      -1.390634       -37.8411
  10   2.0000      -1.148699       -31.2577
  11   2.0000      -1.074358       -29.2348
  12   2.0000      -1.002871       -27.2895
  13   2.0000      -0.950153       -25.8550
  14   2.0000      -0.825166       -22.4539
  15   2.0000      -0.802797       -21.8452
  16   2.0000      -0.762069       -20.7369
  17   2.0000      -0.737940       -20.0804
  18   2.0000      -0.712118       -19.3777
  19   2.0000      -0.669033       -18.2053
  20   2.0000      -0.632041       -17.1987
  21   2.0000      -0.592931       -16.1345
  22   2.0000      -0.579861       -15.7788
  23   2.0000      -0.561802       -15.2874
  24   2.0000      -0.540554       -14.7092
  25   2.0000      -0.522735       -14.2243
  26   2.0000      -0.516058       -14.0426
  27   2.0000      -0.494332       -13.4515
  28   2.0000      -0.471180       -12.8215
  29   2.0000      -0.426120       -11.5953
  30   2.0000      -0.412231       -11.2174
  31   2.0000      -0.399761       -10.8780
  32   2.0000      -0.351452        -9.5635
  33   0.0000       0.135760         3.6942
  34   0.0000       0.145863         3.9691
  35   0.0000       0.165796         4.5115
  36   0.0000       0.169642         4.6162
  37   0.0000       0.173199         4.7130

MULLIKEN ATOMIC CHARGES
-----------------------
   0 C :   -0.311461
   1 C :   -0.277270
   2 C :    0.049605
   3 C :   -0.230748
   4 C :    0.072451
   5 O :   -0.301686
   6 C :    0.142387
   7 C :   -0.231343
   8 C :   -0.197808
   9 H :    0.128705
  10 H :    0.126359
  11 H :    0.127025
  12 H :    0.128772
  13 H :    0.121433
  14 H :    0.113123
  15 H :    0.136229
  16 H :    0.136133
  17 H :    0.134306
  18 H :    0.133789
Sum of atomic charges:   -0.0000000

LOEWDIN ATOMIC CHARGES
----------------------
   0 C :   -0.208881
   1 C :   -0.205224
   2 C :   -0.216041
   3 C :   -0.179953
   4 C :   -0.263528
   5 O :    0.203526
   6 C :   -0.235041
   7 C :   -0.126218
   8 C :   -0.134072
   9 H :    0.133287
  10 H :    0.133444
  11 H :    0.133104
  12 H :    0.132918
  13 H :    0.140511
  14 H :    0.137981
  15 H :    0.138074
  16 H :    0.143329
  17 H :    0.136453
  18 H :    0.136333

  Mayer bond orders larger than 0.1
B(  0-C ,  1-C ) :   0.9200 B(  0-C ,  2-C ) :   0.8399 B(  0-C ,  9-H ) :   0.9184
B(  0-C , 10-H ) :   0.9244 B(  1-C ,  2-C ) :   0.8438 B(  1-C , 11-H ) :   0.9272
B(  1-C , 12-H ) :   0.9247 B(  2-C ,  3-C ) :   0.9284 B(  2-C ,  6-C ) :   0.9132
B(  3-C ,  4-C ) :   0.9355 B(  3-C , 13-H ) :   0.9167 B(  3-C , 14-H ) :   0.9090
B(  4-C ,  5-O ) :   0.9436 B(  4-C ,  8-C ) :   0.9474 B(  4-C , 15-H ) :   0.9078
B(  5-O ,  6-C ) :   0.9775 B(  6-C ,  7-C ) :   0.9393 B(  6-C , 16-H ) :   0.8945
B(  7-C ,  8-C ) :   1.8102 B(  7-C , 17-H ) :   0.9187 B(  8-C , 18-H ) :   0.9237

MP2 TOTAL ENERGY:     -385.192052275 Eh
FINAL SINGLE POINT ENERGY      -385.192052275236

DIPOLE MOMENT
-------------
                                X             Y             Z
Electronic contribution:     -1.38709      -4.31498      -2.11175
Nuclear contribution   :      1.07989       4.83514       2.42533
                        -----------------------------------------
Total Dipole Moment    :     -0.30720       0.52017       0.31357
                        -----------------------------------------
Magnitude (a.u.)       :      0.68064
Magnitude (Debye)      :      1.73005

                             ****ORCA TERMINATED NORMALLY****
TOTAL RUN TIME: 0 days 0 hours 18 minutes 22 seconds 7 msec
