                         Program Version 3.0.3 - RELEASE   -
|  1> ! RI-MP2 RIJK def2-TZVP def2-TZVP/C def2-TZVP/JK TIGHTSCF
|  2> % maxcore 2000
|  3> % mp2 density relaxed end
|  4> *xyz 0 1
|  5>  O        0.0095044896    -0.0641737648    -0.0909798326
|  6>  C       -0.0196583732     1.1202426270    -0.0221376813
|  7>  O        1.1109438609     1.8754928778    -0.1535452795
|  8>  C        0.9830160963     3.2884633810    -0.0475287741
|  9>  C        2.1198002569     3.7824432927     0.8833618331
| 10>  O        1.9941272657     4.7249598457     1.6068513709
| 11>  C        1.1083366286     3.9181879295    -1.3674834284
| 12>  N        1.2300781314     4.4275956817    -2.3969767164
| 13>  H       -0.9231907915     1.7318646103     0.1566485340
| 14>  H        0.0278431439     3.5816204183     0.4047709566
| 15>  H        3.0385304714     3.1681841008     0.8117720077
| 16> *
| 17>
| 18>                          ****END OF INPUT****

CARTESIAN COORDINATES (ANGSTROEM)
---------------------------------
  O      0.009504   -0.064174   -0.090980
  C     -0.019658    1.120243   -0.022138
  O      1.110944    1.875493   -0.153545
  C      0.983016    3.288463   -0.047529
  C      2.119800    3.782443    0.883362
  O      1.994127    4.724960    1.606851
  C      1.108337    3.918188   -1.367483
  N      1.230078    4.427596   -2.396977
  H     -0.923191    1.731865    0.156649
  H      0.027843    3.581620    0.404771
  H      3.038530    3.168184    0.811772

 Total Charge           Charge          ....    0
 Multiplicity           Mult            ....    1
 Number of Electrons    NEL             ....   58
 Basis Dimension        Dim             ....  266

ORBITAL ENERGIES
----------------

  NO   OCC          E(Eh)            E(eV)
   0   2.0000     -20.664001      -562.2960
   1   2.0000     -20.615943      -560.9883
   2   2.0000     -20.593391      -560.3746
   3   2.0000     -15.618205      -424.9930
   4   2.0000     -11.425701      -310.9091
   5   2.0000     -11.399766      -310.2034
   6   2.0000     -11.390155      -309.9419
   7   2.0000     -11.313571      -307.8579
   8   2.0000      -1.513343       -41.1802
   9   2.0000      -1.457317       -39.6556
  10   2.0000      -1.422399       -38.7054
  11   2.0000      -1.259978       -34.2857
  12   2.0000      -1.097628       -29.8680
  13   2.0000      -0.907818       -24.7030
  14   2.0000      -0.882432       -24.0122
  15   2.0000      -0.809660       -22.0320
  16   2.0000      -0.781262       -21.2592
  17   2.0000      -0.727253       -19.7895
  18   2.0000      -0.700627       -19.0650
  19   2.0000      -0.679612       -18.4932
  20   2.0000      -0.652598       -17.7581
  21   2.0000      -0.609540       -16.5864
  22   2.0000      -0.601075       -16.3561
  23   2.0000      -0.576449       -15.6860
  24   2.0000      -0.534906       -14.5555
  25   2.0000      -0.514987       -14.0135
  26   2.0000      -0.510335       -13.8869
  27   2.0000      -0.498020       -13.5518
  28   2.0000      -0.467011       -12.7080
  29   0.0000       0.070640         1.9222
  30   0.0000       0.102477         2.7885
  31   0.0000       0.114407         3.1132
  32   0.0000       0.138107         3.7581
  33   0.0000       0.143818         3.9135

MULLIKEN ATOMIC CHARGES
-----------------------
   0 O :   -0.229747
   1 C :    0.196508
   2 O :   -0.208008
   3 C :    0.181353
   4 C :    0.107409
   5 O :   -0.216846
   6 C :   -0.164853
   7 N :   -0.036799
   8 H :    0.096897
   9 H :    0.146533
  10 H :    0.127553
Sum of atomic charges:    0.0000000

LOEWDIN ATOMIC CHARGES
----------------------
   0 O :    0.158812
   1 C :   -0.420936
   2 O :    0.268524
   3 C :   -0.296778
   4 C :   -0.243643
   5 O :    0.182073
   6 C :   -0.160062
   7 N :    0.103020
   8 H :    0.110328
   9 H :    0.169548
  10 H :    0.129113

  Mayer bond orders larger than 0.1
B(  0-O ,  1-C ) :   2.0520 B(  1-C ,  2-O ) :   1.0132 B(  1-C ,  8-H ) :   0.9100
B(  2-O ,  3-C ) :   0.8762 B(  3-C ,  4-C ) :   0.8255 B(  3-C ,  6-C ) :   0.9045
B(  3-C ,  9-H ) :   0.9122 B(  4-C ,  5-O ) :   2.0069 B(  4-C , 10-H ) :   0.9154
B(  6-C ,  7-N ) :   2.8096

MP2 TOTAL ENERGY:     -433.868151721 Eh
FINAL SINGLE POINT ENERGY      -433.868151721410

DIPOLE MOMENT
-------------
                                X             Y             Z
Electronic contribution:      0.57218       0.13243      -0.95525
Nuclear contribution   :     -0.96535      -0.04292       1.72706
                        -----------------------------------------
Total Dipole Moment    :     -0.39317       0.08952       0.77181
                        -----------------------------------------
Magnitude (a.u.)       :      0.87080
Magnitude (Debye)      :      2.21339

                             ****ORCA TERMINATED NORMALLY****
TOTAL RUN TIME: 0 days 0 hours 7 minutes 1 seconds 970 msec
