                         Program Version 3.0.3 - RELEASE   -
|  1> ! RI-MP2 RIJK def2-TZVP def2-TZVP/C def2-TZVP/JK TIGHTSCF
|  2> % maxcore 2000
|  3> % mp2 density relaxed end
|  4> *xyz 0 1
|  5>  O        0.2647239066     1.0374470614    -0.4025212695
|  6>  C        0.0690341854    -0.2850149797     0.0559854828
|  7>  C       -1.3912949895    -0.7141156495     0.2447971913
|  8>  C       -2.1699986320     0.1972725942     1.1986067348
|  9>  O       -2.2410975622     1.5430785446     0.7313603246
| 10>  O       -2.1822308197    -0.8724333497    -0.9528644024
| 11>  C       -1.8845969859    -0.2472536208    -2.1202826063
| 12>  O       -2.5854743822    -0.3833446334    -3.0800046482
| 13>  H       -0.3967713210     1.5939813710     0.0350767295
| 14>  H        0.5571596789    -0.9532983998    -0.6626037658
| 15>  H        0.5626656509    -0.4462272740     1.0290006649
| 16>  H       -1.3681426867    -1.7173405019     0.6887331327
| 17>  H       -3.1735781337    -0.2150724295     1.3573581566
| 18>  H       -1.6588259193     0.2348749105     2.1659003181
| 19>  H       -2.8614086505     1.5691321275    -0.0058480592
| 20>  H       -0.9798695989     0.3758099291    -2.0760404739
| 21> *
| 22>
| 23>                          ****END OF INPUT****

CARTESIAN COORDINATES (ANGSTROEM)
---------------------------------
  O      0.264724    1.037447   -0.402521
  C      0.069034   -0.285015    0.055985
  C     -1.391295   -0.714116    0.244797
  C     -2.169999    0.197273    1.198607
  O     -2.241098    1.543079    0.731360
  O     -2.182231   -0.872433   -0.952864
  C     -1.884597   -0.247254   -2.120283
  O     -2.585474   -0.383345   -3.080005
  H     -0.396771    1.593981    0.035077
  H      0.557160   -0.953298   -0.662604
  H      0.562666   -0.446227    1.029001
  H     -1.368143   -1.717341    0.688733
  H     -3.173578   -0.215072    1.357358
  H     -1.658826    0.234875    2.165900
  H     -2.861409    1.569132   -0.005848
  H     -0.979870    0.375810   -2.076040

 Total Charge           Charge          ....    0
 Multiplicity           Mult            ....    1
 Number of Electrons    NEL             ....   64
 Basis Dimension        Dim             ....  296

ORBITAL ENERGIES
----------------

  NO   OCC          E(Eh)            E(eV)
   0   2.0000     -20.611233      -560.8602
   1   2.0000     -20.597208      -560.4785
   2   2.0000     -20.570202      -559.7437
   3   2.0000     -20.550248      -559.2007
   4   2.0000     -11.380181      -309.6705
   5   2.0000     -11.323351      -308.1240
   6   2.0000     -11.310986      -307.7876
   7   2.0000     -11.306357      -307.6616
   8   2.0000      -1.462835       -39.8058
   9   2.0000      -1.404359       -38.2145
  10   2.0000      -1.378212       -37.5030
  11   2.0000      -1.368006       -37.2253
  12   2.0000      -1.073431       -29.2095
  13   2.0000      -0.952863       -25.9287
  14   2.0000      -0.891743       -24.2656
  15   2.0000      -0.819142       -22.2900
  16   2.0000      -0.757708       -20.6183
  17   2.0000      -0.735076       -20.0024
  18   2.0000      -0.708683       -19.2842
  19   2.0000      -0.671918       -18.2838
  20   2.0000      -0.657639       -17.8953
  21   2.0000      -0.638879       -17.3848
  22   2.0000      -0.619734       -16.8638
  23   2.0000      -0.610802       -16.6208
  24   2.0000      -0.590870       -16.0784
  25   2.0000      -0.572382       -15.5753
  26   2.0000      -0.555166       -15.1068
  27   2.0000      -0.522503       -14.2180
  28   2.0000      -0.485551       -13.2125
  29   2.0000      -0.474989       -12.9251
  30   2.0000      -0.453608       -12.3433
  31   2.0000      -0.443179       -12.0595
  32   0.0000       0.118444         3.2230
  33   0.0000       0.124856         3.3975
  34   0.0000       0.161834         4.4037
  35   0.0000       0.171840         4.6760
  36   0.0000       0.173942         4.7332

MULLIKEN ATOMIC CHARGES
-----------------------
   0 O :   -0.489575
   1 C :   -0.061519
   2 C :   -0.007338
   3 C :   -0.045782
   4 O :   -0.505803
   5 O :   -0.228500
   6 C :    0.123589
   7 O :   -0.272509
   8 H :    0.343388
   9 H :    0.142019
  10 H :    0.118679
  11 H :    0.123081
  12 H :    0.141148
  13 H :    0.128773
  14 H :    0.342665
  15 H :    0.147686
Sum of atomic charges:    0.0000000

LOEWDIN ATOMIC CHARGES
----------------------
   0 O :   -0.046564
   1 C :   -0.342044
   2 C :   -0.323160
   3 C :   -0.317862
   4 O :   -0.042672
   5 O :    0.243942
   6 C :   -0.458283
   7 O :    0.115042
   8 H :    0.170876
   9 H :    0.136177
  10 H :    0.131700
  11 H :    0.159853
  12 H :    0.130456
  13 H :    0.138410
  14 H :    0.183558
  15 H :    0.120572

  Mayer bond orders larger than 0.1
B(  0-O ,  1-C ) :   0.9141 B(  0-O ,  8-H ) :   0.8046 B(  1-C ,  2-C ) :   0.9398
B(  1-C ,  9-H ) :   0.9444 B(  1-C , 10-H ) :   0.9101 B(  2-C ,  3-C ) :   0.9183
B(  2-C ,  5-O ) :   0.8602 B(  2-C , 11-H ) :   0.9106 B(  3-C ,  4-O ) :   0.8755
B(  3-C , 12-H ) :   0.9297 B(  3-C , 13-H ) :   0.9281 B(  4-O , 14-H ) :   0.8318
B(  5-O ,  6-C ) :   1.0453 B(  6-C ,  7-O ) :   2.0170 B(  6-C , 15-H ) :   0.9056

MP2 TOTAL ENERGY:     -457.334015084 Eh
FINAL SINGLE POINT ENERGY      -457.334015084478

DIPOLE MOMENT
-------------
                                X             Y             Z
Electronic contribution:     -2.40262      -0.12103      -4.86382
Nuclear contribution   :      2.61262      -0.13518       6.36172
                        -----------------------------------------
Total Dipole Moment    :      0.21000      -0.25621       1.49790
                        -----------------------------------------
Magnitude (a.u.)       :      1.53409
Magnitude (Debye)      :      3.89935

                             ****ORCA TERMINATED NORMALLY****
TOTAL RUN TIME: 0 days 0 hours 10 minutes 9 seconds 326 msec
