                         Program Version 3.0.3 - RELEASE   -
|  1> ! RI-MP2 RIJK def2-TZVP def2-TZVP/C def2-TZVP/JK TIGHTSCF
|  2> % maxcore 2000
|  3> % mp2 density relaxed end
|  4> *xyz 0 1
|  5>  C       -0.0830371450     1.5488150361     0.0982909603
|  6>  C        1.4500043650     1.2750161657     0.0680437012
|  7>  C        1.1743421206     0.1242622734     1.0858686160
|  8>  C        0.0526208460     0.0007741132     0.0092566868
|  9>  C        1.1633068363     0.2439449913    -1.0638976877
| 10>  C        0.7923340767     0.6836231128    -2.4987120638
| 11>  C        1.8605874378     0.0164096296    -3.3789500929
| 12>  C        2.2029219813    -1.2194049619    -2.5469113452
| 13>  O        2.1466996015    -0.7758836804    -1.2008459086
| 14>  H       -0.4703644443     1.9309597095     1.0453247794
| 15>  H       -0.5285710479     2.0741043252    -0.7487437689
| 16>  H        2.2566448980     2.0100323493     0.0983995282
| 17>  H        1.9057310583    -0.6803217128     1.1313747018
| 18>  H        0.8447535201     0.4395406999     2.0794552662
| 19>  H       -0.7551217541    -0.7330177910    -0.0302229784
| 20>  H       -0.2051144801     0.3123334758    -2.7590240249
| 21>  H        0.7757008551     1.7692394514    -2.6119519981
| 22>  H        1.5076076524    -0.2223376257    -4.3851960087
| 23>  H        2.7425662984     0.6586977624    -3.4689402691
| 24>  H        1.4739336798    -2.0272076065    -2.7251062223
| 25>  H        3.2048701940    -1.6183917372    -2.7291154311
| 26> *
| 27>
| 28>                          ****END OF INPUT****

CARTESIAN COORDINATES (ANGSTROEM)
---------------------------------
  C     -0.083037    1.548815    0.098291
  C      1.450004    1.275016    0.068044
  C      1.174342    0.124262    1.085869
  C      0.052621    0.000774    0.009257
  C      1.163307    0.243945   -1.063898
  C      0.792334    0.683623   -2.498712
  C      1.860587    0.016410   -3.378950
  C      2.202922   -1.219405   -2.546911
  O      2.146700   -0.775884   -1.200846
  H     -0.470364    1.930960    1.045325
  H     -0.528571    2.074104   -0.748744
  H      2.256645    2.010032    0.098400
  H      1.905731   -0.680322    1.131375
  H      0.844754    0.439541    2.079455
  H     -0.755122   -0.733018   -0.030223
  H     -0.205114    0.312333   -2.759024
  H      0.775701    1.769239   -2.611952
  H      1.507608   -0.222338   -4.385196
  H      2.742566    0.658698   -3.468940
  H      1.473934   -2.027208   -2.725106
  H      3.204870   -1.618392   -2.729115

 Total Charge           Charge          ....    0
 Multiplicity           Mult            ....    1
 Number of Electrons    NEL             ....   68
 Basis Dimension        Dim             ....  351

ORBITAL ENERGIES
----------------

  NO   OCC          E(Eh)            E(eV)
   0   2.0000     -20.544223      -559.0367
   1   2.0000     -11.284686      -307.0719
   2   2.0000     -11.269428      -306.6567
   3   2.0000     -11.234382      -305.7031
   4   2.0000     -11.233862      -305.6889
   5   2.0000     -11.224228      -305.4268
   6   2.0000     -11.223982      -305.4201
   7   2.0000     -11.223063      -305.3951
   8   2.0000     -11.217480      -305.2431
   9   2.0000      -1.375867       -37.4392
  10   2.0000      -1.196503       -32.5585
  11   2.0000      -1.054246       -28.6875
  12   2.0000      -0.963625       -26.2216
  13   2.0000      -0.897213       -24.4144
  14   2.0000      -0.853627       -23.2284
  15   2.0000      -0.824901       -22.4467
  16   2.0000      -0.805405       -21.9162
  17   2.0000      -0.710816       -19.3423
  18   2.0000      -0.673331       -18.3223
  19   2.0000      -0.667184       -18.1550
  20   2.0000      -0.657836       -17.9006
  21   2.0000      -0.602515       -16.3953
  22   2.0000      -0.580476       -15.7956
  23   2.0000      -0.566095       -15.4042
  24   2.0000      -0.544182       -14.8080
  25   2.0000      -0.511743       -13.9252
  26   2.0000      -0.501029       -13.6337
  27   2.0000      -0.473539       -12.8857
  28   2.0000      -0.464037       -12.6271
  29   2.0000      -0.449707       -12.2371
  30   2.0000      -0.442591       -12.0435
  31   2.0000      -0.437560       -11.9066
  32   2.0000      -0.428569       -11.6619
  33   2.0000      -0.382492       -10.4081
  34   0.0000       0.137407         3.7390
  35   0.0000       0.162564         4.4236
  36   0.0000       0.164734         4.4826
  37   0.0000       0.174489         4.7481
  38   0.0000       0.190852         5.1933

MULLIKEN ATOMIC CHARGES
-----------------------
   0 C :   -0.237571
   1 C :   -0.132108
   2 C :   -0.228149
   3 C :   -0.144005
   4 C :    0.205883
   5 C :   -0.293087
   6 C :   -0.222440
   7 C :   -0.041361
   8 O :   -0.322802
   9 H :    0.114248
  10 H :    0.115522
  11 H :    0.125368
  12 H :    0.131532
  13 H :    0.108827
  14 H :    0.127063
  15 H :    0.127840
  16 H :    0.131515
  17 H :    0.126432
  18 H :    0.109270
  19 H :    0.080264
  20 H :    0.117759
Sum of atomic charges:    0.0000000

LOEWDIN ATOMIC CHARGES
----------------------
   0 C :   -0.198274
   1 C :   -0.150699
   2 C :   -0.194223
   3 C :   -0.153985
   4 C :   -0.268950
   5 C :   -0.220026
   6 C :   -0.262547
   7 C :   -0.308596
   8 O :    0.197475
   9 H :    0.129623
  10 H :    0.125557
  11 H :    0.123716
  12 H :    0.131570
  13 H :    0.125936
  14 H :    0.122868
  15 H :    0.143319
  16 H :    0.141267
  17 H :    0.134714
  18 H :    0.137957
  19 H :    0.118335
  20 H :    0.124961

  Mayer bond orders larger than 0.1
B(  0-C ,  1-C ) :   0.9135 B(  0-C ,  3-C ) :   0.9077 B(  0-C ,  9-H ) :   0.9255
B(  0-C , 10-H ) :   0.9278 B(  1-C ,  2-C ) :   0.9331 B(  1-C ,  4-C ) :   0.8998
B(  1-C , 11-H ) :   0.8878 B(  2-C ,  3-C ) :   0.9263 B(  2-C , 12-H ) :   0.9173
B(  2-C , 13-H ) :   0.9314 B(  3-C ,  4-C ) :   0.8695 B(  3-C , 14-H ) :   0.8775
B(  4-C ,  5-C ) :   0.9034 B(  4-C ,  8-O ) :   0.9469 B(  5-C ,  6-C ) :   0.9493
B(  5-C , 15-H ) :   0.9293 B(  5-C , 16-H ) :   0.9228 B(  6-C ,  7-C ) :   0.9586
B(  6-C , 17-H ) :   0.9321 B(  6-C , 18-H ) :   0.9218 B(  7-C ,  8-O ) :   0.9488
B(  7-C , 19-H ) :   0.9210 B(  7-C , 20-H ) :   0.9254

MP2 TOTAL ENERGY:     -386.374843273 Eh
FINAL SINGLE POINT ENERGY      -386.374843273471

DIPOLE MOMENT
-------------
                                X             Y             Z
Electronic contribution:      1.44188      -1.33516       1.55779
Nuclear contribution   :     -1.67965       1.51404      -2.09162
                        -----------------------------------------
Total Dipole Moment    :     -0.23777       0.17888      -0.53383
                        -----------------------------------------
Magnitude (a.u.)       :      0.61115
Magnitude (Debye)      :      1.55342

                             ****ORCA TERMINATED NORMALLY****
TOTAL RUN TIME: 0 days 0 hours 19 minutes 4 seconds 478 msec
