                         Program Version 3.0.3 - RELEASE   -
|  1> ! RI-MP2 RIJK def2-TZVP def2-TZVP/C def2-TZVP/JK TIGHTSCF
|  2> % maxcore 2000
|  3> % mp2 density relaxed end
|  4> *xyz 0 1
|  5>  C       -0.6337308720     1.0946401281     0.1390080839
|  6>  N        0.0264271111    -0.2041012391     0.2103646172
|  7>  C        1.4311022040    -0.2448753352    -0.1815643572
|  8>  C        1.0459101899    -0.4559918420     1.2413277232
|  9>  C        1.3983454855     0.5272141220     2.3423808154
| 10>  C        0.5461422414     0.3117939357     3.5825151220
| 11>  O       -0.8403463222     0.4180041587     3.3676259105
| 12>  C        0.9994020987    -0.6595155719     4.6479870941
| 13>  C        0.9962400829     0.8367031033     4.9078857269
| 14>  H        0.0446366099     1.9568791981     0.2341902152
| 15>  H       -1.1327755956     1.1711730102    -0.8323732915
| 16>  H       -1.3848011892     1.1723657287     0.9289053699
| 17>  H        1.7399759391    -1.0800056317    -0.8055961285
| 18>  H        1.9096972632     0.7035421998    -0.4268782654
| 19>  H        1.0226584422    -1.4894208695     1.5910064034
| 20>  H        2.4540759193     0.3980561381     2.6106698523
| 21>  H        1.2864076982     1.5595158411     1.9951148159
| 22>  H       -1.1105847203    -0.3308960908     2.8234825932
| 23>  H        0.2304909917    -1.2460900989     5.1377549872
| 24>  H        1.9534705028    -1.1625720292     4.5294115806
| 25>  H        1.9470156039     1.3558330420     4.9638308891
| 26>  H        0.2234237357     1.2253009326     5.5605298425
| 27> *
| 28>
| 29>                          ****END OF INPUT****

CARTESIAN COORDINATES (ANGSTROEM)
---------------------------------
  C     -0.633731    1.094640    0.139008
  N      0.026427   -0.204101    0.210365
  C      1.431102   -0.244875   -0.181564
  C      1.045910   -0.455992    1.241328
  C      1.398345    0.527214    2.342381
  C      0.546142    0.311794    3.582515
  O     -0.840346    0.418004    3.367626
  C      0.999402   -0.659516    4.647987
  C      0.996240    0.836703    4.907886
  H      0.044637    1.956879    0.234190
  H     -1.132776    1.171173   -0.832373
  H     -1.384801    1.172366    0.928905
  H      1.739976   -1.080006   -0.805596
  H      1.909697    0.703542   -0.426878
  H      1.022658   -1.489421    1.591006
  H      2.454076    0.398056    2.610670
  H      1.286408    1.559516    1.995115
  H     -1.110585   -0.330896    2.823483
  H      0.230491   -1.246090    5.137755
  H      1.953471   -1.162572    4.529412
  H      1.947016    1.355833    4.963831
  H      0.223424    1.225301    5.560530

 Total Charge           Charge          ....    0
 Multiplicity           Mult            ....    1
 Number of Electrons    NEL             ....   70
 Basis Dimension        Dim             ....  357

ORBITAL ENERGIES
----------------

  NO   OCC          E(Eh)            E(eV)
   0   2.0000     -20.559253      -559.4457
   1   2.0000     -15.557255      -423.3344
   2   2.0000     -11.287921      -307.1599
   3   2.0000     -11.260089      -306.4026
   4   2.0000     -11.251435      -306.1671
   5   2.0000     -11.240827      -305.8784
   6   2.0000     -11.233254      -305.6724
   7   2.0000     -11.225261      -305.4549
   8   2.0000     -11.223822      -305.4157
   9   2.0000      -1.370893       -37.3039
  10   2.0000      -1.269118       -34.5344
  11   2.0000      -1.132310       -30.8117
  12   2.0000      -1.016740       -27.6669
  13   2.0000      -0.971940       -26.4478
  14   2.0000      -0.837813       -22.7981
  15   2.0000      -0.828984       -22.5578
  16   2.0000      -0.803220       -21.8567
  17   2.0000      -0.764479       -20.8025
  18   2.0000      -0.701345       -19.0846
  19   2.0000      -0.660653       -17.9773
  20   2.0000      -0.648190       -17.6381
  21   2.0000      -0.642022       -17.4703
  22   2.0000      -0.617168       -16.7940
  23   2.0000      -0.599146       -16.3036
  24   2.0000      -0.557462       -15.1693
  25   2.0000      -0.548264       -14.9190
  26   2.0000      -0.542405       -14.7596
  27   2.0000      -0.522045       -14.2056
  28   2.0000      -0.509479       -13.8636
  29   2.0000      -0.497907       -13.5487
  30   2.0000      -0.467963       -12.7339
  31   2.0000      -0.443185       -12.0597
  32   2.0000      -0.410450       -11.1689
  33   2.0000      -0.394856       -10.7446
  34   2.0000      -0.366072        -9.9613
  35   0.0000       0.140631         3.8268
  36   0.0000       0.153085         4.1657
  37   0.0000       0.163349         4.4450
  38   0.0000       0.174197         4.7401
  39   0.0000       0.185944         5.0598

MULLIKEN ATOMIC CHARGES
-----------------------
   0 C :   -0.287858
   1 N :   -0.230731
   2 C :   -0.179759
   3 C :   -0.134066
   4 C :   -0.186361
   5 C :    0.209469
   6 O :   -0.468704
   7 C :   -0.302600
   8 C :   -0.279647
   9 H :    0.105001
  10 H :    0.140834
  11 H :    0.137015
  12 H :    0.126246
  13 H :    0.115709
  14 H :    0.126560
  15 H :    0.130702
  16 H :    0.121493
  17 H :    0.333688
  18 H :    0.132385
  19 H :    0.124068
  20 H :    0.129434
  21 H :    0.137120
Sum of atomic charges:    0.0000000

LOEWDIN ATOMIC CHARGES
----------------------
   0 C :   -0.336025
   1 N :    0.077696
   2 C :   -0.249906
   3 C :   -0.261800
   4 C :   -0.218468
   5 C :   -0.369412
   6 O :    0.027580
   7 C :   -0.218538
   8 C :   -0.206260
   9 H :    0.103353
  10 H :    0.118147
  11 H :    0.116783
  12 H :    0.123534
  13 H :    0.124177
  14 H :    0.145292
  15 H :    0.153979
  16 H :    0.147632
  17 H :    0.182859
  18 H :    0.134974
  19 H :    0.131172
  20 H :    0.133359
  21 H :    0.139871

  Mayer bond orders larger than 0.1
B(  0-C ,  1-N ) :   0.8834 B(  0-C ,  9-H ) :   0.9334 B(  0-C , 10-H ) :   0.9322
B(  0-C , 11-H ) :   0.9318 B(  1-N ,  2-C ) :   0.9193 B(  1-N ,  3-C ) :   0.8947
B(  2-C ,  3-C ) :   0.9214 B(  2-C , 12-H ) :   0.9190 B(  2-C , 13-H ) :   0.9245
B(  3-C ,  4-C ) :   0.9007 B(  3-C , 14-H ) :   0.9279 B(  4-C ,  5-C ) :   0.8971
B(  4-C , 15-H ) :   0.9117 B(  4-C , 16-H ) :   0.9184 B(  5-C ,  6-O ) :   0.9807
B(  5-C ,  7-C ) :   0.8948 B(  5-C ,  8-C ) :   0.8764 B(  6-O , 17-H ) :   0.8330
B(  7-C ,  8-C ) :   0.9270 B(  7-C , 18-H ) :   0.9238 B(  7-C , 19-H ) :   0.9164
B(  8-C , 20-H ) :   0.9294 B(  8-C , 21-H ) :   0.9239

MP2 TOTAL ENERGY:     -403.604999950 Eh
FINAL SINGLE POINT ENERGY      -403.604999950017

DIPOLE MOMENT
-------------
                                X             Y             Z
Electronic contribution:     -1.66327      -1.58669       0.77334
Nuclear contribution   :      2.29808       1.57267      -0.83130
                        -----------------------------------------
Total Dipole Moment    :      0.63482      -0.01402      -0.05796
                        -----------------------------------------
Magnitude (a.u.)       :      0.63761
Magnitude (Debye)      :      1.62069

                             ****ORCA TERMINATED NORMALLY****
TOTAL RUN TIME: 0 days 0 hours 17 minutes 35 seconds 687 msec
