                         Program Version 3.0.3 - RELEASE   -
|  1> ! RI-MP2 RIJK def2-TZVP def2-TZVP/C def2-TZVP/JK TIGHTSCF
|  2> % maxcore 2000
|  3> % mp2 density relaxed end
|  4> *xyz 0 1
|  5>  C       -0.0411250356     1.4361115952    -0.2533875951
|  6>  C        0.0820406151    -0.0172868724     0.2476149173
|  7>  C        0.7666263337    -0.0796192537     1.5435309965
|  8>  N        1.2917663419    -0.1280032141     2.5719187615
|  9>  C       -1.2917136759    -0.6694000718     0.3601283291
| 10>  O       -1.9127203880    -1.0167348822    -0.8740379238
| 11>  C       -1.5790289460    -2.0760437749     0.0399389515
| 12>  C       -0.5656949574    -3.0975915655    -0.4062667988
| 13>  H        0.9437758887     1.8944359567    -0.3673626589
| 14>  H       -0.5481923782     1.4353307154    -1.2210541806
| 15>  H       -0.6231590873     2.0408127635     0.4475305437
| 16>  H        0.6810196094    -0.5843280363    -0.4713813750
| 17>  H       -1.9499430886    -0.1662423162     1.0715781593
| 18>  H       -2.4541335814    -2.5025412860     0.5338510640
| 19>  H        0.2890635874    -2.6423214127    -0.9103195047
| 20>  H       -0.2015233476    -3.6686732385     0.4540012424
| 21>  H       -1.0294777703    -3.8013251064    -1.1048050184
| 22> *
| 23>
| 24>                          ****END OF INPUT****

CARTESIAN COORDINATES (ANGSTROEM)
---------------------------------
  C     -0.041125    1.436112   -0.253388
  C      0.082041   -0.017287    0.247615
  C      0.766626   -0.079619    1.543531
  N      1.291766   -0.128003    2.571919
  C     -1.291714   -0.669400    0.360128
  O     -1.912720   -1.016735   -0.874038
  C     -1.579029   -2.076044    0.039939
  C     -0.565695   -3.097592   -0.406267
  H      0.943776    1.894436   -0.367363
  H     -0.548192    1.435331   -1.221054
  H     -0.623159    2.040813    0.447531
  H      0.681020   -0.584328   -0.471381
  H     -1.949943   -0.166242    1.071578
  H     -2.454134   -2.502541    0.533851
  H      0.289064   -2.642321   -0.910320
  H     -0.201523   -3.668673    0.454001
  H     -1.029478   -3.801325   -1.104805

 Total Charge           Charge          ....    0
 Multiplicity           Mult            ....    1
 Number of Electrons    NEL             ....   60
 Basis Dimension        Dim             ....  302

ORBITAL ENERGIES
----------------

  NO   OCC          E(Eh)            E(eV)
   0   2.0000     -20.582978      -560.0913
   1   2.0000     -15.574674      -423.8084
   2   2.0000     -11.310379      -307.7711
   3   2.0000     -11.305666      -307.6428
   4   2.0000     -11.295188      -307.3577
   5   2.0000     -11.276886      -306.8597
   6   2.0000     -11.247167      -306.0510
   7   2.0000     -11.239904      -305.8533
   8   2.0000      -1.429118       -38.8883
   9   2.0000      -1.224748       -33.3271
  10   2.0000      -1.104381       -30.0517
  11   2.0000      -1.027675       -27.9645
  12   2.0000      -0.943281       -25.6680
  13   2.0000      -0.883373       -24.0378
  14   2.0000      -0.821343       -22.3499
  15   2.0000      -0.739503       -20.1229
  16   2.0000      -0.684988       -18.6395
  17   2.0000      -0.664871       -18.0921
  18   2.0000      -0.606459       -16.5026
  19   2.0000      -0.596265       -16.2252
  20   2.0000      -0.581476       -15.8228
  21   2.0000      -0.573995       -15.6192
  22   2.0000      -0.564422       -15.3587
  23   2.0000      -0.547032       -14.8855
  24   2.0000      -0.534300       -14.5390
  25   2.0000      -0.521484       -14.1903
  26   2.0000      -0.476519       -12.9667
  27   2.0000      -0.463624       -12.6159
  28   2.0000      -0.452957       -12.3256
  29   2.0000      -0.440984       -11.9998
  30   0.0000       0.124919         3.3992
  31   0.0000       0.142204         3.8696
  32   0.0000       0.149718         4.0740
  33   0.0000       0.168043         4.5727
  34   0.0000       0.175256         4.7690

MULLIKEN ATOMIC CHARGES
-----------------------
   0 C :   -0.398052
   1 C :    0.076775
   2 C :   -0.231373
   3 N :   -0.056044
   4 C :    0.029289
   5 O :   -0.335095
   6 C :    0.046144
   7 C :   -0.386450
   8 H :    0.152333
   9 H :    0.161178
  10 H :    0.139776
  11 H :    0.127822
  12 H :    0.136523
  13 H :    0.116386
  14 H :    0.129265
  15 H :    0.144414
  16 H :    0.147107
Sum of atomic charges:    0.0000000

LOEWDIN ATOMIC CHARGES
----------------------
   0 C :   -0.258214
   1 C :   -0.251804
   2 C :   -0.165958
   3 N :    0.064246
   4 C :   -0.245118
   5 O :    0.167215
   6 C :   -0.277205
   7 C :   -0.290732
   8 H :    0.131349
   9 H :    0.135000
  10 H :    0.131326
  11 H :    0.177491
  12 H :    0.146767
  13 H :    0.140786
  14 H :    0.125894
  15 H :    0.135894
  16 H :    0.133064

  Mayer bond orders larger than 0.1
B(  0-C ,  1-C ) :   0.9050 B(  0-C ,  8-H ) :   0.9341 B(  0-C ,  9-H ) :   0.9346
B(  0-C , 10-H ) :   0.9267 B(  1-C ,  2-C ) :   0.9071 B(  1-C ,  4-C ) :   0.8736
B(  1-C , 11-H ) :   0.9149 B(  2-C ,  3-N ) :   2.8719 B(  4-C ,  5-O ) :   0.8864
B(  4-C ,  6-C ) :   0.9930 B(  4-C , 12-H ) :   0.8958 B(  5-O ,  6-C ) :   0.8984
B(  6-C ,  7-C ) :   0.8898 B(  6-C , 13-H ) :   0.9189 B(  7-C , 14-H ) :   0.9426
B(  7-C , 15-H ) :   0.9227 B(  7-C , 16-H ) :   0.9324

MP2 TOTAL ENERGY:     -363.242259560 Eh
FINAL SINGLE POINT ENERGY      -363.242259559846

DIPOLE MOMENT
-------------
                                X             Y             Z
Electronic contribution:      0.47090       1.16126       3.63927
Nuclear contribution   :     -0.87864      -1.40783      -4.42878
                        -----------------------------------------
Total Dipole Moment    :     -0.40774      -0.24657      -0.78951
                        -----------------------------------------
Magnitude (a.u.)       :      0.92216
Magnitude (Debye)      :      2.34394

                             ****ORCA TERMINATED NORMALLY****
TOTAL RUN TIME: 0 days 0 hours 12 minutes 15 seconds 724 msec
