                         Program Version 3.0.3 - RELEASE   -
|  1> ! RI-MP2 RIJK def2-TZVP def2-TZVP/C def2-TZVP/JK TIGHTSCF
|  2> % maxcore 2000
|  3> % mp2 density relaxed end
|  4> *xyz 0 1
|  5>  C        0.0332124308     1.8287966865     0.2188388641
|  6>  C       -0.0215861977     0.3067164356     0.0571392689
|  7>  C        0.6921821072    -0.4124364621     1.2138381273
|  8>  C        0.7750645126    -1.9405991298     1.0288695307
|  9>  C        1.4728739073    -2.5965912726     2.1274498560
| 10>  C        2.0520650305    -3.1104877311     3.0470049458
| 11>  N       -1.4090090791    -0.1343534468    -0.0832824958
| 12>  C       -1.8503856911    -0.9168778278    -1.1041457567
| 13>  O       -1.1541931912    -1.3851081492    -1.9808897251
| 14>  H        1.0698276223     2.1730385023     0.2759662825
| 15>  H       -0.4495923080     2.3268165787    -0.6263112265
| 16>  H       -0.4719257644     2.1477089598     1.1388328524
| 17>  H        0.4576295505     0.0229559930    -0.8847241297
| 18>  H        1.7058900148    -0.0073754101     1.3052677996
| 19>  H        0.1827822546    -0.1885594276     2.1598358054
| 20>  H       -0.2364037016    -2.3534812497     0.9384309089
| 21>  H        1.2761577855    -2.1681368303     0.0799404623
| 22>  H        2.5623524915    -3.5796118377     3.8511485356
| 23>  H       -2.0885385045     0.2051124339     0.5806349407
| 24>  H       -2.9439077098    -1.0884275351    -1.0462108666
| 25> *
| 26>
| 27>                          ****END OF INPUT****

CARTESIAN COORDINATES (ANGSTROEM)
---------------------------------
  C      0.033212    1.828797    0.218839
  C     -0.021586    0.306716    0.057139
  C      0.692182   -0.412436    1.213838
  C      0.775065   -1.940599    1.028870
  C      1.472874   -2.596591    2.127450
  C      2.052065   -3.110488    3.047005
  N     -1.409009   -0.134353   -0.083282
  C     -1.850386   -0.916878   -1.104146
  O     -1.154193   -1.385108   -1.980890
  H      1.069828    2.173039    0.275966
  H     -0.449592    2.326817   -0.626311
  H     -0.471926    2.147709    1.138833
  H      0.457630    0.022956   -0.884724
  H      1.705890   -0.007375    1.305268
  H      0.182782   -0.188559    2.159836
  H     -0.236404   -2.353481    0.938431
  H      1.276158   -2.168137    0.079940
  H      2.562352   -3.579612    3.851149
  H     -2.088539    0.205112    0.580635
  H     -2.943908   -1.088428   -1.046211

 Total Charge           Charge          ....    0
 Multiplicity           Mult            ....    1
 Number of Electrons    NEL             ....   68
 Basis Dimension        Dim             ....  345

ORBITAL ENERGIES
----------------

  NO   OCC          E(Eh)            E(eV)
   0   2.0000     -20.525195      -558.5190
   1   2.0000     -15.592023      -424.2805
   2   2.0000     -11.352622      -308.9205
   3   2.0000     -11.278110      -306.8930
   4   2.0000     -11.250293      -306.1360
   5   2.0000     -11.237915      -305.7992
   6   2.0000     -11.231638      -305.6284
   7   2.0000     -11.231336      -305.6202
   8   2.0000     -11.217378      -305.2404
   9   2.0000      -1.385934       -37.7132
  10   2.0000      -1.243721       -33.8434
  11   2.0000      -1.094140       -29.7731
  12   2.0000      -1.042434       -28.3661
  13   2.0000      -0.984149       -26.7800
  14   2.0000      -0.899082       -24.4653
  15   2.0000      -0.854638       -23.2559
  16   2.0000      -0.803305       -21.8590
  17   2.0000      -0.723947       -19.6996
  18   2.0000      -0.717722       -19.5302
  19   2.0000      -0.669915       -18.2293
  20   2.0000      -0.649501       -17.6738
  21   2.0000      -0.622109       -16.9285
  22   2.0000      -0.611469       -16.6389
  23   2.0000      -0.592988       -16.1360
  24   2.0000      -0.581264       -15.8170
  25   2.0000      -0.547891       -14.9089
  26   2.0000      -0.539040       -14.6680
  27   2.0000      -0.516112       -14.0441
  28   2.0000      -0.508204       -13.8289
  29   2.0000      -0.492019       -13.3885
  30   2.0000      -0.433247       -11.7892
  31   2.0000      -0.402409       -10.9501
  32   2.0000      -0.383325       -10.4308
  33   2.0000      -0.379745       -10.3334
  34   0.0000       0.119275         3.2456
  35   0.0000       0.145615         3.9624
  36   0.0000       0.158538         4.3140
  37   0.0000       0.167142         4.5482
  38   0.0000       0.169426         4.6103

MULLIKEN ATOMIC CHARGES
-----------------------
   0 C :   -0.384680
   1 C :    0.032364
   2 C :   -0.210210
   3 C :   -0.406165
   4 C :    0.006902
   5 C :   -0.116363
   6 N :   -0.340786
   7 C :    0.193946
   8 O :   -0.367147
   9 H :    0.136704
  10 H :    0.149637
  11 H :    0.121489
  12 H :    0.138420
  13 H :    0.126379
  14 H :    0.110272
  15 H :    0.146142
  16 H :    0.155510
  17 H :    0.189142
  18 H :    0.235692
  19 H :    0.082752
Sum of atomic charges:   -0.0000000

LOEWDIN ATOMIC CHARGES
----------------------
   0 C :   -0.291642
   1 C :   -0.299062
   2 C :   -0.231895
   3 C :   -0.244891
   4 C :   -0.112117
   5 C :   -0.111102
   6 N :    0.108395
   7 C :   -0.443605
   8 O :    0.052934
   9 H :    0.129069
  10 H :    0.127410
  11 H :    0.122611
  12 H :    0.162097
  13 H :    0.147760
  14 H :    0.141564
  15 H :    0.159090
  16 H :    0.161802
  17 H :    0.125518
  18 H :    0.186252
  19 H :    0.109810

  Mayer bond orders larger than 0.1
B(  0-C ,  1-C ) :   0.9260 B(  0-C ,  9-H ) :   0.9403 B(  0-C , 10-H ) :   0.9425
B(  0-C , 11-H ) :   0.9236 B(  1-C ,  2-C ) :   0.9317 B(  1-C ,  6-N ) :   0.7850
B(  1-C , 12-H ) :   0.9268 B(  2-C ,  3-C ) :   0.9376 B(  2-C , 13-H ) :   0.9311
B(  2-C , 14-H ) :   0.9145 B(  3-C ,  4-C ) :   1.0989 B(  3-C ,  5-C ) :  -0.1309
B(  3-C , 15-H ) :   0.9210 B(  3-C , 16-H ) :   0.9315 B(  4-C ,  5-C ) :   2.6141
B(  5-C , 17-H ) :   0.8935 B(  6-N ,  7-C ) :   1.1660 B(  6-N , 18-H ) :   0.8704
B(  7-C ,  8-O ) :   1.8849 B(  7-C , 19-H ) :   0.9296

MP2 TOTAL ENERGY:     -402.449454658 Eh
FINAL SINGLE POINT ENERGY      -402.449454658137

DIPOLE MOMENT
-------------
                                X             Y             Z
Electronic contribution:     -1.33651      -5.61193      -1.82550
Nuclear contribution   :      0.91197       6.60732       2.79200
                        -----------------------------------------
Total Dipole Moment    :     -0.42455       0.99539       0.96651
                        -----------------------------------------
Magnitude (a.u.)       :      1.45092
Magnitude (Debye)      :      3.68795

                             ****ORCA TERMINATED NORMALLY****
TOTAL RUN TIME: 0 days 0 hours 17 minutes 0 seconds 151 msec
