                         Program Version 3.0.3 - RELEASE   -
|  1> ! RI-MP2 RIJK def2-TZVP def2-TZVP/C def2-TZVP/JK TIGHTSCF
|  2> % maxcore 2000
|  3> % mp2 density relaxed end
|  4> *xyz 0 1
|  5>  O       -0.9902161904     0.2058317014     0.0084168039
|  6>  C        0.2155394200    -0.4670068955    -0.2366546566
|  7>  C        1.1270590134     0.4066872678    -1.1041628278
|  8>  O        0.7498273157     1.4751656798    -1.5121865916
|  9>  C        0.9091555950    -0.7958839319     1.0546294135
| 10>  C        1.9741765659    -1.5901380087     1.4176405786
| 11>  N        2.1827769896    -1.4543697926     2.7580801599
| 12>  N        1.3047951334    -0.6248303758     3.2451144255
| 13>  N        0.5395306573    -0.2156909394     2.2185698647
| 14>  H       -0.9419814147     1.0200449717    -0.5211790078
| 15>  H        0.0432658798    -1.3998953645    -0.8013696977
| 16>  H        2.1332970241     0.0029840054    -1.3241072806
| 17>  H        2.5846896832    -2.2424370604     0.8142056405
| 18>  H       -0.2449876324     0.4022440528     2.3594998956
| 19> *
| 20>
| 21>                          ****END OF INPUT****

CARTESIAN COORDINATES (ANGSTROEM)
---------------------------------
  O     -0.990216    0.205832    0.008417
  C      0.215539   -0.467007   -0.236655
  C      1.127059    0.406687   -1.104163
  O      0.749827    1.475166   -1.512187
  C      0.909156   -0.795884    1.054629
  C      1.974177   -1.590138    1.417641
  N      2.182777   -1.454370    2.758080
  N      1.304795   -0.624830    3.245114
  N      0.539531   -0.215691    2.218570
  H     -0.941981    1.020045   -0.521179
  H      0.043266   -1.399895   -0.801370
  H      2.133297    0.002984   -1.324107
  H      2.584690   -2.242437    0.814206
  H     -0.244988    0.402244    2.359500

 Total Charge           Charge          ....    0
 Multiplicity           Mult            ....    1
 Number of Electrons    NEL             ....   66
 Basis Dimension        Dim             ....  309

ORBITAL ENERGIES
----------------

  NO   OCC          E(Eh)            E(eV)
   0   2.0000     -20.604528      -560.6777
   1   2.0000     -20.597279      -560.4805
   2   2.0000     -15.664989      -426.2660
   3   2.0000     -15.648221      -425.8098
   4   2.0000     -15.605769      -424.6546
   5   2.0000     -11.375003      -309.5296
   6   2.0000     -11.345818      -308.7354
   7   2.0000     -11.305825      -307.6471
   8   2.0000     -11.267498      -306.6042
   9   2.0000      -1.455467       -39.6053
  10   2.0000      -1.445640       -39.3379
  11   2.0000      -1.402073       -38.1524
  12   2.0000      -1.212089       -32.9826
  13   2.0000      -1.115100       -30.3434
  14   2.0000      -1.019450       -27.7407
  15   2.0000      -0.874439       -23.7947
  16   2.0000      -0.865281       -23.5455
  17   2.0000      -0.827583       -22.5197
  18   2.0000      -0.766120       -20.8472
  19   2.0000      -0.753457       -20.5026
  20   2.0000      -0.708128       -19.2691
  21   2.0000      -0.682760       -18.5788
  22   2.0000      -0.645635       -17.5686
  23   2.0000      -0.637269       -17.3410
  24   2.0000      -0.623395       -16.9634
  25   2.0000      -0.584255       -15.8984
  26   2.0000      -0.565778       -15.3956
  27   2.0000      -0.532984       -14.5032
  28   2.0000      -0.498107       -13.5542
  29   2.0000      -0.477650       -12.9975
  30   2.0000      -0.449324       -12.2267
  31   2.0000      -0.426381       -11.6024
  32   2.0000      -0.365901        -9.9567
  33   0.0000       0.091739         2.4963
  34   0.0000       0.126692         3.4475
  35   0.0000       0.131594         3.5809
  36   0.0000       0.144765         3.9392
  37   0.0000       0.152019         4.1367

MULLIKEN ATOMIC CHARGES
-----------------------
   0 O :   -0.491106
   1 C :    0.024840
   2 C :    0.116636
   3 O :   -0.278202
   4 C :    0.091625
   5 C :   -0.145601
   6 N :   -0.147891
   7 N :   -0.138771
   8 N :   -0.071106
   9 H :    0.345774
  10 H :    0.141393
  11 H :    0.119436
  12 H :    0.149236
  13 H :    0.283736
Sum of atomic charges:    0.0000000

LOEWDIN ATOMIC CHARGES
----------------------
   0 O :    0.004169
   1 C :   -0.330462
   2 C :   -0.253052
   3 O :    0.143037
   4 C :   -0.243627
   5 C :   -0.256041
   6 N :    0.006346
   7 N :   -0.043456
   8 N :    0.156723
   9 H :    0.187759
  10 H :    0.164017
  11 H :    0.126442
  12 H :    0.138635
  13 H :    0.199510

  Mayer bond orders larger than 0.1
B(  0-O ,  1-C ) :   1.1209 B(  0-O ,  4-C ) :  -0.1243 B(  0-O ,  9-H ) :   0.7936
B(  1-C ,  2-C ) :   0.8934 B(  1-C ,  4-C ) :   0.8167 B(  1-C , 10-H ) :   0.9505
B(  2-C ,  3-O ) :   1.9177 B(  2-C , 11-H ) :   0.9222 B(  4-C ,  5-C ) :   1.4103
B(  4-C ,  7-N ) :   0.1303 B(  4-C ,  8-N ) :   1.1707 B(  5-C ,  6-N ) :   1.3695
B(  5-C , 12-H ) :   0.9402 B(  6-N ,  7-N ) :   1.3003 B(  7-N ,  8-N ) :   1.0371
B(  8-N , 13-H ) :   0.8481

MP2 TOTAL ENERGY:     -469.256369221 Eh
FINAL SINGLE POINT ENERGY      -469.256369221437

DIPOLE MOMENT
-------------
                                X             Y             Z
Electronic contribution:      0.20286       0.73307       1.95413
Nuclear contribution   :     -0.61294      -0.69374      -3.40410
                        -----------------------------------------
Total Dipole Moment    :     -0.41007       0.03933      -1.44997
                        -----------------------------------------
Magnitude (a.u.)       :      1.50736
Magnitude (Debye)      :      3.83140

                             ****ORCA TERMINATED NORMALLY****
TOTAL RUN TIME: 0 days 0 hours 13 minutes 52 seconds 173 msec
