                         Program Version 3.0.3 - RELEASE   -
|  1> ! RI-MP2 RIJK def2-TZVP def2-TZVP/C def2-TZVP/JK TIGHTSCF
|  2> % maxcore 2000
|  3> % mp2 density relaxed end
|  4> *xyz 0 1
|  5>  C       -0.0123225816     1.4811769916     0.0226371178
|  6>  C       -0.0056203634    -0.0105202791    -0.0390355966
|  7>  N       -0.0555620203    -0.7067269765    -1.1101245675
|  8>  C       -0.0250093558    -2.1128605799    -0.6914894337
|  9>  C        0.0528437009    -2.1162937063     0.8338589689
| 10>  N        0.0982633158    -3.1368590323     1.5881516955
| 11>  N        0.0592617805    -0.7557278584     1.1413829480
| 12>  H        0.8945789790     1.8567987197     0.5095672857
| 13>  H       -0.0661768078     1.8810800525    -0.9896065551
| 14>  H       -0.8703148529     1.8451524164     0.5988596324
| 15>  H       -0.9196653939    -2.6406327761    -1.0389890989
| 16>  H        0.8363617704    -2.6292260098    -1.1286403724
| 17>  H        0.1468902277    -2.8804913898     2.5760488409
| 18>  H        0.1047865714    -0.3761634421     2.0722330450
| 19> *
| 20>
| 21>                          ****END OF INPUT****

CARTESIAN COORDINATES (ANGSTROEM)
---------------------------------
  C     -0.012323    1.481177    0.022637
  C     -0.005620   -0.010520   -0.039036
  N     -0.055562   -0.706727   -1.110125
  C     -0.025009   -2.112861   -0.691489
  C      0.052844   -2.116294    0.833859
  N      0.098263   -3.136859    1.588152
  N      0.059262   -0.755728    1.141383
  H      0.894579    1.856799    0.509567
  H     -0.066177    1.881080   -0.989607
  H     -0.870315    1.845152    0.598860
  H     -0.919665   -2.640633   -1.038989
  H      0.836362   -2.629226   -1.128640
  H      0.146890   -2.880491    2.576049
  H      0.104787   -0.376163    2.072233

 Total Charge           Charge          ....    0
 Multiplicity           Mult            ....    1
 Number of Electrons    NEL             ....   52
 Basis Dimension        Dim             ....  259

ORBITAL ENERGIES
----------------

  NO   OCC          E(Eh)            E(eV)
   0   2.0000     -15.605322      -424.6424
   1   2.0000     -15.543694      -422.9654
   2   2.0000     -15.530885      -422.6169
   3   2.0000     -11.326813      -308.2182
   4   2.0000     -11.323613      -308.1312
   5   2.0000     -11.259063      -306.3747
   6   2.0000     -11.249259      -306.1079
   7   2.0000      -1.338161       -36.4132
   8   2.0000      -1.207182       -32.8491
   9   2.0000      -1.152651       -31.3652
  10   2.0000      -1.037922       -28.2433
  11   2.0000      -0.940227       -25.5849
  12   2.0000      -0.816400       -22.2154
  13   2.0000      -0.794556       -21.6210
  14   2.0000      -0.715785       -19.4775
  15   2.0000      -0.650098       -17.6901
  16   2.0000      -0.646793       -17.6001
  17   2.0000      -0.594135       -16.1672
  18   2.0000      -0.591996       -16.1090
  19   2.0000      -0.568317       -15.4647
  20   2.0000      -0.542549       -14.7635
  21   2.0000      -0.523438       -14.2435
  22   2.0000      -0.463015       -12.5993
  23   2.0000      -0.444285       -12.0896
  24   2.0000      -0.408052       -11.1037
  25   2.0000      -0.347183        -9.4473
  26   0.0000       0.113583         3.0907
  27   0.0000       0.147267         4.0073
  28   0.0000       0.149332         4.0635
  29   0.0000       0.166824         4.5395
  30   0.0000       0.191143         5.2013

MULLIKEN ATOMIC CHARGES
-----------------------
   0 C :   -0.433758
   1 C :    0.205335
   2 N :   -0.266251
   3 C :   -0.034481
   4 C :    0.047443
   5 N :   -0.372164
   6 N :   -0.329699
   7 H :    0.147063
   8 H :    0.166953
   9 H :    0.147094
  10 H :    0.141675
  11 H :    0.141682
  12 H :    0.201834
  13 H :    0.237272
Sum of atomic charges:    0.0000000

LOEWDIN ATOMIC CHARGES
----------------------
   0 C :   -0.267055
   1 C :   -0.346824
   2 N :    0.085222
   3 C :   -0.230905
   4 C :   -0.356282
   5 N :   -0.081397
   6 N :    0.142985
   7 H :    0.134971
   8 H :    0.143662
   9 H :    0.134983
  10 H :    0.148985
  11 H :    0.148980
  12 H :    0.157703
  13 H :    0.184972

  Mayer bond orders larger than 0.1
B(  0-C ,  1-C ) :   0.8657 B(  0-C ,  7-H ) :   0.9283 B(  0-C ,  8-H ) :   0.9451
B(  0-C ,  9-H ) :   0.9283 B(  1-C ,  2-N ) :   1.8628 B(  1-C ,  6-N ) :   1.0337
B(  2-N ,  3-C ) :   0.9421 B(  3-C ,  4-C ) :   0.9135 B(  3-C , 10-H ) :   0.9104
B(  3-C , 11-H ) :   0.9104 B(  4-C ,  5-N ) :   2.0513 B(  4-C ,  6-N ) :   1.0506
B(  5-N , 12-H ) :   0.8565 B(  6-N , 13-H ) :   0.8662

MP2 TOTAL ENERGY:     -320.236167986 Eh
FINAL SINGLE POINT ENERGY      -320.236167986355

DIPOLE MOMENT
-------------
                                X             Y             Z
Electronic contribution:      0.03512      -2.82146       0.32492
Nuclear contribution   :      0.00569       4.02747       0.62982
                        -----------------------------------------
Total Dipole Moment    :      0.04081       1.20601       0.95474
                        -----------------------------------------
Magnitude (a.u.)       :      1.53872
Magnitude (Debye)      :      3.91111

                             ****ORCA TERMINATED NORMALLY****
TOTAL RUN TIME: 0 days 0 hours 7 minutes 50 seconds 982 msec
