                         Program Version 3.0.3 - RELEASE   -
|  1> ! RI-MP2 RIJK def2-TZVP def2-TZVP/C def2-TZVP/JK TIGHTSCF
|  2> % maxcore 2000
|  3> % mp2 density relaxed end
|  4> *xyz 0 1
|  5>  C        0.5177575159    -0.1461558988    -0.6669148747
|  6>  C        0.7457910872     1.1331130813     0.0950038286
|  7>  C        0.7001020841    -0.1817595421     0.8319480050
|  8>  N       -0.4146259506    -0.4737945514     1.7009788873
|  9>  C       -1.3553387229    -1.4443852678     1.3478459880
| 10>  C       -2.7337565319    -1.4079237943     1.3066753369
| 11>  C       -3.1815911593    -2.7192077944     0.9622847283
| 12>  C       -2.0734327672    -3.5068727396     0.7881469278
| 13>  N       -0.9634475174    -2.7214341798     1.0327344916
| 14>  H       -0.4818322381    -0.3395926223    -1.0391365960
| 15>  H        1.3174056493    -0.5290336511    -1.2912244430
| 16>  H        1.7017089310     1.6369936105     0.0030807293
| 17>  H       -0.1022671983     1.7991302844     0.2175121945
| 18>  H        1.6583990383    -0.5526947821     1.1917269229
| 19>  H       -0.8487989869     0.3476897309     2.0929091104
| 20>  H       -3.3453311443    -0.5390332234     1.4967711400
| 21>  H       -4.2063459917    -3.0353527187     0.8406769224
| 22>  H       -1.9670713548    -4.5401354761     0.5017599688
| 23>  H       -0.0092555725    -3.0348885352     1.0263007920
| 24> *
| 25>
| 26>                          ****END OF INPUT****

CARTESIAN COORDINATES (ANGSTROEM)
---------------------------------
  C      0.517758   -0.146156   -0.666915
  C      0.745791    1.133113    0.095004
  C      0.700102   -0.181760    0.831948
  N     -0.414626   -0.473795    1.700979
  C     -1.355339   -1.444385    1.347846
  C     -2.733757   -1.407924    1.306675
  C     -3.181591   -2.719208    0.962285
  C     -2.073433   -3.506873    0.788147
  N     -0.963448   -2.721434    1.032734
  H     -0.481832   -0.339593   -1.039137
  H      1.317406   -0.529034   -1.291224
  H      1.701709    1.636994    0.003081
  H     -0.102267    1.799130    0.217512
  H      1.658399   -0.552695    1.191727
  H     -0.848799    0.347690    2.092909
  H     -3.345331   -0.539033    1.496771
  H     -4.206346   -3.035353    0.840677
  H     -1.967071   -4.540135    0.501760
  H     -0.009256   -3.034889    1.026301

 Total Charge           Charge          ....    0
 Multiplicity           Mult            ....    1
 Number of Electrons    NEL             ....   66
 Basis Dimension        Dim             ....  339

ORBITAL ENERGIES
----------------

  NO   OCC          E(Eh)            E(eV)
   0   2.0000     -15.590228      -424.2317
   1   2.0000     -15.563255      -423.4977
   2   2.0000     -11.284335      -307.0624
   3   2.0000     -11.268475      -306.6308
   4   2.0000     -11.237146      -305.7783
   5   2.0000     -11.234373      -305.7028
   6   2.0000     -11.230573      -305.5994
   7   2.0000     -11.201872      -304.8184
   8   2.0000     -11.192207      -304.5554
   9   2.0000      -1.296655       -35.2838
  10   2.0000      -1.220583       -33.2138
  11   2.0000      -1.114855       -30.3368
  12   2.0000      -1.033385       -28.1198
  13   2.0000      -0.950897       -25.8752
  14   2.0000      -0.834201       -22.6998
  15   2.0000      -0.824596       -22.4384
  16   2.0000      -0.778384       -21.1809
  17   2.0000      -0.770606       -20.9693
  18   2.0000      -0.718351       -19.5473
  19   2.0000      -0.681630       -18.5481
  20   2.0000      -0.656551       -17.8657
  21   2.0000      -0.605591       -16.4790
  22   2.0000      -0.584745       -15.9117
  23   2.0000      -0.575631       -15.6637
  24   2.0000      -0.559519       -15.2253
  25   2.0000      -0.536953       -14.6112
  26   2.0000      -0.523274       -14.2390
  27   2.0000      -0.521510       -14.1910
  28   2.0000      -0.471074       -12.8186
  29   2.0000      -0.426544       -11.6068
  30   2.0000      -0.400287       -10.8924
  31   2.0000      -0.341429        -9.2907
  32   2.0000      -0.265819        -7.2333
  33   0.0000       0.134807         3.6683
  34   0.0000       0.145790         3.9671
  35   0.0000       0.165722         4.5095
  36   0.0000       0.174796         4.7564
  37   0.0000       0.185411         5.0453

MULLIKEN ATOMIC CHARGES
-----------------------
   0 C :   -0.230474
   1 C :   -0.285166
   2 C :   -0.074134
   3 N :   -0.324992
   4 C :    0.189846
   5 C :   -0.277924
   6 C :   -0.154700
   7 C :   -0.122158
   8 N :   -0.249928
   9 H :    0.158480
  10 H :    0.133002
  11 H :    0.129998
  12 H :    0.136872
  13 H :    0.119735
  14 H :    0.228190
  15 H :    0.118076
  16 H :    0.123833
  17 H :    0.139794
  18 H :    0.241648
Sum of atomic charges:    0.0000000

LOEWDIN ATOMIC CHARGES
----------------------
   0 C :   -0.231422
   1 C :   -0.231967
   2 C :   -0.286277
   3 N :    0.072834
   4 C :   -0.310210
   5 C :   -0.202276
   6 C :   -0.210367
   7 C :   -0.248937
   8 N :    0.194942
   9 H :    0.141730
  10 H :    0.130797
  11 H :    0.131657
  12 H :    0.133372
  13 H :    0.136746
  14 H :    0.187012
  15 H :    0.135127
  16 H :    0.136546
  17 H :    0.129597
  18 H :    0.191094

  Mayer bond orders larger than 0.1
B(  0-C ,  1-C ) :   0.8985 B(  0-C ,  2-C ) :   0.8529 B(  0-C ,  9-H ) :   0.9253
B(  0-C , 10-H ) :   0.9303 B(  1-C ,  2-C ) :   0.8991 B(  1-C , 11-H ) :   0.9284
B(  1-C , 12-H ) :   0.9300 B(  2-C ,  3-N ) :   0.9527 B(  2-C , 13-H ) :   0.9429
B(  3-N ,  4-C ) :   1.0885 B(  3-N , 14-H ) :   0.8792 B(  4-C ,  5-C ) :   1.4795
B(  4-C ,  8-N ) :   1.0989 B(  5-C ,  6-C ) :   1.2485 B(  5-C , 15-H ) :   0.9406
B(  6-C ,  7-C ) :   1.5131 B(  6-C , 16-H ) :   0.9359 B(  7-C ,  8-N ) :   1.1015
B(  7-C , 17-H ) :   0.9184 B(  8-N , 18-H ) :   0.8721

MP2 TOTAL ENERGY:     -381.392900183 Eh
FINAL SINGLE POINT ENERGY      -381.392900182737

DIPOLE MOMENT
-------------
                                X             Y             Z
Electronic contribution:     -2.11582      -3.25948       2.65713
Nuclear contribution   :      2.88383       3.50033      -2.89851
                        -----------------------------------------
Total Dipole Moment    :      0.76800       0.24085      -0.24138
                        -----------------------------------------
Magnitude (a.u.)       :      0.84030
Magnitude (Debye)      :      2.13587

                             ****ORCA TERMINATED NORMALLY****
TOTAL RUN TIME: 0 days 0 hours 18 minutes 6 seconds 906 msec
