                         Program Version 3.0.3 - RELEASE   -
|  1> ! RI-MP2 RIJK def2-TZVP def2-TZVP/C def2-TZVP/JK TIGHTSCF
|  2> % maxcore 2000
|  3> % mp2 density relaxed end
|  4> *xyz 0 1
|  5>  O       -0.1229213495     1.3954970849     0.0984872158
|  6>  C       -0.0006089893     0.0490184342     0.0076884088
|  7>  C       -1.0536430985    -1.0078438529    -0.0744488415
|  8>  C       -0.4083229658    -1.6446334760    -1.2984394651
|  9>  C        0.9135195417    -0.9606833401    -0.8330441584
| 10>  N        1.3028066544    -1.6161123241     0.4473230666
| 11>  C        0.0859246456    -1.0611960660     1.0353122547
| 12>  C       -0.2160172314    -1.0517394259     2.4240513092
| 13>  N       -0.4655640848    -1.0345273767     3.5546361773
| 14>  H        0.6575988872     1.7557745919     0.5377636053
| 15>  H       -2.0927558752    -0.9457026495     0.2194543244
| 16>  H       -0.3939280379    -2.7361840558    -1.3879095740
| 17>  H       -0.7924794313    -1.1966180808    -2.2180785595
| 18>  H        1.7166659474    -0.7243373420    -1.5272614861
| 19>  H        1.3007021274    -2.6360608711     0.3864449824
| 20> *
| 21>
| 22>                          ****END OF INPUT****

CARTESIAN COORDINATES (ANGSTROEM)
---------------------------------
  O     -0.122921    1.395497    0.098487
  C     -0.000609    0.049018    0.007688
  C     -1.053643   -1.007844   -0.074449
  C     -0.408323   -1.644633   -1.298439
  C      0.913520   -0.960683   -0.833044
  N      1.302807   -1.616112    0.447323
  C      0.085925   -1.061196    1.035312
  C     -0.216017   -1.051739    2.424051
  N     -0.465564   -1.034527    3.554636
  H      0.657599    1.755775    0.537764
  H     -2.092756   -0.945703    0.219454
  H     -0.393928   -2.736184   -1.387910
  H     -0.792479   -1.196618   -2.218079
  H      1.716666   -0.724337   -1.527261
  H      1.300702   -2.636061    0.386445

 Total Charge           Charge          ....    0
 Multiplicity           Mult            ....    1
 Number of Electrons    NEL             ....   64
 Basis Dimension        Dim             ....  315

ORBITAL ENERGIES
----------------

  NO   OCC          E(Eh)            E(eV)
   0   2.0000     -20.605989      -560.7175
   1   2.0000     -15.583212      -424.0408
   2   2.0000     -15.574358      -423.7998
   3   2.0000     -11.331173      -308.3369
   4   2.0000     -11.314722      -307.8892
   5   2.0000     -11.296228      -307.3860
   6   2.0000     -11.278327      -306.8989
   7   2.0000     -11.271652      -306.7173
   8   2.0000     -11.256778      -306.3125
   9   2.0000      -1.422876       -38.7184
  10   2.0000      -1.316984       -35.8369
  11   2.0000      -1.217556       -33.1314
  12   2.0000      -1.115112       -30.3437
  13   2.0000      -1.022912       -27.8348
  14   2.0000      -0.913122       -24.8473
  15   2.0000      -0.859725       -23.3943
  16   2.0000      -0.798466       -21.7274
  17   2.0000      -0.765877       -20.8406
  18   2.0000      -0.684468       -18.6253
  19   2.0000      -0.672339       -18.2953
  20   2.0000      -0.656220       -17.8567
  21   2.0000      -0.628663       -17.1068
  22   2.0000      -0.587036       -15.9740
  23   2.0000      -0.571413       -15.5489
  24   2.0000      -0.552261       -15.0278
  25   2.0000      -0.532568       -14.4919
  26   2.0000      -0.516160       -14.0454
  27   2.0000      -0.486045       -13.2259
  28   2.0000      -0.472037       -12.8448
  29   2.0000      -0.445799       -12.1308
  30   2.0000      -0.407201       -11.0805
  31   2.0000      -0.373512       -10.1638
  32   0.0000       0.124214         3.3800
  33   0.0000       0.125131         3.4050
  34   0.0000       0.151336         4.1181
  35   0.0000       0.160380         4.3641
  36   0.0000       0.171579         4.6689

MULLIKEN ATOMIC CHARGES
-----------------------
   0 O :   -0.425534
   1 C :    0.124625
   2 C :   -0.140702
   3 C :   -0.190981
   4 C :   -0.084665
   5 N :   -0.277577
   6 C :    0.220553
   7 C :   -0.309619
   8 N :   -0.038708
   9 H :    0.347586
  10 H :    0.162790
  11 H :    0.122647
  12 H :    0.130197
  13 H :    0.148715
  14 H :    0.210673
Sum of atomic charges:    0.0000000

LOEWDIN ATOMIC CHARGES
----------------------
   0 O :    0.071720
   1 C :   -0.262534
   2 C :   -0.109603
   3 C :   -0.203752
   4 C :   -0.175489
   5 N :    0.069511
   6 C :   -0.234817
   7 C :   -0.157005
   8 N :    0.076292
   9 H :    0.202204
  10 H :    0.148991
  11 H :    0.126907
  12 H :    0.148169
  13 H :    0.132342
  14 H :    0.167066

  Mayer bond orders larger than 0.1
B(  0-O ,  1-C ) :   1.0933 B(  0-O ,  9-H ) :   0.8216 B(  1-C ,  2-C ) :   0.8852
B(  1-C ,  4-C ) :   0.8929 B(  1-C ,  6-C ) :   0.7808 B(  2-C ,  3-C ) :   0.9168
B(  2-C ,  6-C ) :   0.7348 B(  2-C , 10-H ) :   0.9077 B(  3-C ,  4-C ) :   0.9273
B(  3-C , 11-H ) :   0.9214 B(  3-C , 12-H ) :   0.9184 B(  4-C ,  5-N ) :   0.9722
B(  4-C , 13-H ) :   0.9076 B(  5-N ,  6-C ) :   0.9538 B(  5-N , 14-H ) :   0.8694
B(  6-C ,  7-C ) :   0.9232 B(  7-C ,  8-N ) :   2.8772

MP2 TOTAL ENERGY:     -416.040519205 Eh
FINAL SINGLE POINT ENERGY      -416.040519204551

DIPOLE MOMENT
-------------
                                X             Y             Z
Electronic contribution:      0.04507       1.75220       5.19872
Nuclear contribution   :      0.28141      -1.93107      -6.90310
                        -----------------------------------------
Total Dipole Moment    :      0.32648      -0.17887      -1.70438
                        -----------------------------------------
Magnitude (a.u.)       :      1.74456
Magnitude (Debye)      :      4.43432

                             ****ORCA TERMINATED NORMALLY****
TOTAL RUN TIME: 0 days 0 hours 16 minutes 46 seconds 60 msec
