                         Program Version 3.0.3 - RELEASE   -
|  1> ! RI-MP2 RIJK def2-TZVP def2-TZVP/C def2-TZVP/JK TIGHTSCF
|  2> % maxcore 2000
|  3> % mp2 density relaxed end
|  4> *xyz 0 1
|  5>  C        0.1227473197     1.5759432095     0.0378754384
|  6>  C        0.1405824192     0.0488008814     0.0682997432
|  7>  C        0.6927471126    -0.6177610020    -1.2227555727
|  8>  C        1.3646811127    -1.8665621700    -0.7089751062
|  9>  C        1.5267401175    -1.8454962398     0.6143879363
| 10>  C        2.1829909872    -2.9132147348     1.4542589774
| 11>  C        3.3311027375    -2.4205851508     2.2157157721
| 12>  C        4.2687870373    -1.9986732625     2.8380088344
| 13>  C        0.9879509426    -0.5648390665     1.2145474439
| 14>  H        1.1348339290     1.9769965035    -0.0908591748
| 15>  H       -0.4917537668     1.9516720828    -0.7875296733
| 16>  H       -0.2826766727     1.9892614404     0.9677578415
| 17>  H       -0.8886628448    -0.3081251804     0.1994296357
| 18>  H       -0.0958864828    -0.8194222691    -1.9571130301
| 19>  H        1.4219272679     0.0335450345    -1.7287224224
| 20>  H        1.7100730918    -2.6623106395    -1.3614086086
| 21>  H        1.4485815137    -3.3269156273     2.1616525957
| 22>  H        2.4961708621    -3.7468277774     0.8143856454
| 23>  H        5.1001931282    -1.6338988272     3.3882794434
| 24>  H        1.8182572624     0.0948101327     1.5053158909
| 25>  H        0.4012489757    -0.7336206975     2.1260534298
| 26> *
| 27>
| 28>                          ****END OF INPUT****

CARTESIAN COORDINATES (ANGSTROEM)
---------------------------------
  C      0.122747    1.575943    0.037875
  C      0.140582    0.048801    0.068300
  C      0.692747   -0.617761   -1.222756
  C      1.364681   -1.866562   -0.708975
  C      1.526740   -1.845496    0.614388
  C      2.182991   -2.913215    1.454259
  C      3.331103   -2.420585    2.215716
  C      4.268787   -1.998673    2.838009
  C      0.987951   -0.564839    1.214547
  H      1.134834    1.976997   -0.090859
  H     -0.491754    1.951672   -0.787530
  H     -0.282677    1.989261    0.967758
  H     -0.888663   -0.308125    0.199430
  H     -0.095886   -0.819422   -1.957113
  H      1.421927    0.033545   -1.728722
  H      1.710073   -2.662311   -1.361409
  H      1.448582   -3.326916    2.161653
  H      2.496171   -3.746828    0.814386
  H      5.100193   -1.633899    3.388279
  H      1.818257    0.094810    1.505316
  H      0.401249   -0.733621    2.126053

 Total Charge           Charge          ....    0
 Multiplicity           Mult            ....    1
 Number of Electrons    NEL             ....   66
 Basis Dimension        Dim             ....  351

ORBITAL ENERGIES
----------------

  NO   OCC          E(Eh)            E(eV)
   0   2.0000     -11.257161      -306.3229
   1   2.0000     -11.233017      -305.6659
   2   2.0000     -11.232776      -305.6594
   3   2.0000     -11.226209      -305.4807
   4   2.0000     -11.220393      -305.3224
   5   2.0000     -11.219182      -305.2895
   6   2.0000     -11.218948      -305.2831
   7   2.0000     -11.218303      -305.2655
   8   2.0000     -11.211712      -305.0862
   9   2.0000      -1.144582       -31.1457
  10   2.0000      -1.069509       -29.1028
  11   2.0000      -1.011747       -27.5310
  12   2.0000      -0.971308       -26.4306
  13   2.0000      -0.937501       -25.5107
  14   2.0000      -0.881974       -23.9997
  15   2.0000      -0.767301       -20.8793
  16   2.0000      -0.725722       -19.7479
  17   2.0000      -0.708518       -19.2798
  18   2.0000      -0.658824       -17.9275
  19   2.0000      -0.633086       -17.2271
  20   2.0000      -0.625918       -17.0321
  21   2.0000      -0.594832       -16.1862
  22   2.0000      -0.562917       -15.3177
  23   2.0000      -0.549247       -14.9458
  24   2.0000      -0.545181       -14.8351
  25   2.0000      -0.527507       -14.3542
  26   2.0000      -0.492076       -13.3901
  27   2.0000      -0.471204       -12.8221
  28   2.0000      -0.462548       -12.5866
  29   2.0000      -0.450800       -12.2669
  30   2.0000      -0.385891       -10.5006
  31   2.0000      -0.384257       -10.4562
  32   2.0000      -0.339261        -9.2318
  33   0.0000       0.130461         3.5500
  34   0.0000       0.146409         3.9840
  35   0.0000       0.159333         4.3357
  36   0.0000       0.167238         4.5508
  37   0.0000       0.172494         4.6938

MULLIKEN ATOMIC CHARGES
-----------------------
   0 C :   -0.413180
   1 C :   -0.025394
   2 C :   -0.173966
   3 C :   -0.215769
   4 C :    0.060223
   5 C :   -0.355069
   6 C :   -0.011778
   7 C :   -0.182055
   8 C :   -0.237615
   9 H :    0.123888
  10 H :    0.131681
  11 H :    0.132194
  12 H :    0.086152
  13 H :    0.119021
  14 H :    0.108807
  15 H :    0.123072
  16 H :    0.150744
  17 H :    0.149242
  18 H :    0.187262
  19 H :    0.121797
  20 H :    0.120744
Sum of atomic charges:    0.0000000

LOEWDIN ATOMIC CHARGES
----------------------
   0 C :   -0.301474
   1 C :   -0.250158
   2 C :   -0.220476
   3 C :   -0.135158
   4 C :   -0.156382
   5 C :   -0.212132
   6 C :   -0.102096
   7 C :   -0.108669
   8 C :   -0.188945
   9 H :    0.122287
  10 H :    0.122969
  11 H :    0.123291
  12 H :    0.151949
  13 H :    0.135415
  14 H :    0.141653
  15 H :    0.137037
  16 H :    0.164942
  17 H :    0.163560
  18 H :    0.125781
  19 H :    0.147671
  20 H :    0.138935

  Mayer bond orders larger than 0.1
B(  0-C ,  1-C ) :   0.9163 B(  0-C ,  9-H ) :   0.9324 B(  0-C , 10-H ) :   0.9418
B(  0-C , 11-H ) :   0.9411 B(  1-C ,  2-C ) :   0.9462 B(  1-C ,  8-C ) :   0.9420
B(  1-C , 12-H ) :   0.9294 B(  2-C ,  3-C ) :   0.9448 B(  2-C , 13-H ) :   0.9285
B(  2-C , 14-H ) :   0.9028 B(  3-C ,  4-C ) :   1.7336 B(  3-C , 15-H ) :   0.9205
B(  4-C ,  5-C ) :   0.9025 B(  4-C ,  8-C ) :   0.9335 B(  5-C ,  6-C ) :   1.0421
B(  5-C , 16-H ) :   0.9290 B(  5-C , 17-H ) :   0.9299 B(  6-C ,  7-C ) :   2.6331
B(  7-C , 18-H ) :   0.9096 B(  8-C , 19-H ) :   0.9005 B(  8-C , 20-H ) :   0.9209

MP2 TOTAL ENERGY:     -349.280407046 Eh
FINAL SINGLE POINT ENERGY      -349.280407046166

DIPOLE MOMENT
-------------
                                X             Y             Z
Electronic contribution:      4.60121      -5.83615       2.79816
Nuclear contribution   :     -4.82530       5.86556      -2.90640
                        -----------------------------------------
Total Dipole Moment    :     -0.22409       0.02941      -0.10824
                        -----------------------------------------
Magnitude (a.u.)       :      0.25060
Magnitude (Debye)      :      0.63696

                             ****ORCA TERMINATED NORMALLY****
TOTAL RUN TIME: 0 days 0 hours 17 minutes 54 seconds 525 msec
