                         Program Version 3.0.3 - RELEASE   -
|  1> ! RI-MP2 RIJK def2-TZVP def2-TZVP/C def2-TZVP/JK TIGHTSCF
|  2> % maxcore 2000
|  3> % mp2 density relaxed end
|  4> *xyz 0 1
|  5>  C        0.2240613353     1.4949273730     0.0607702161
|  6>  C       -0.0560417395    -0.0072155331    -0.0324368521
|  7>  C        0.6183482510    -0.6597976421    -1.2951958799
|  8>  C        1.8553059196    -1.2643091020    -0.7038043588
|  9>  C        3.0648104089    -1.8282590836    -0.9029936014
| 10>  O        3.6318573116    -2.1476356062     0.2819154981
| 11>  N        2.7581182696    -1.7793646824     1.3424168116
| 12>  C        1.7324979213    -1.2719315534     0.7117195095
| 13>  N        0.5188238638    -0.7564740939     1.1183170599
| 14>  H        1.3014364972     1.6911329050     0.0415634346
| 15>  H       -0.2386586846     2.0269311647    -0.7769925029
| 16>  H       -0.1838074457     1.9142492944     0.9868203274
| 17>  H       -1.1378276079    -0.1717344753    -0.0535424414
| 18>  H       -0.0367751768    -1.4244826044    -1.7273680023
| 19>  H        0.8022576468     0.0888499113    -2.0706589623
| 20>  H        3.6576045581    -2.0654267237    -1.7732083309
| 21>  H        0.4712458414    -0.3084321884     2.0224884148
| 22> *
| 23>
| 24>                          ****END OF INPUT****

CARTESIAN COORDINATES (ANGSTROEM)
---------------------------------
  C      0.224061    1.494927    0.060770
  C     -0.056042   -0.007216   -0.032437
  C      0.618348   -0.659798   -1.295196
  C      1.855306   -1.264309   -0.703804
  C      3.064810   -1.828259   -0.902994
  O      3.631857   -2.147636    0.281915
  N      2.758118   -1.779365    1.342417
  C      1.732498   -1.271932    0.711720
  N      0.518824   -0.756474    1.118317
  H      1.301436    1.691133    0.041563
  H     -0.238659    2.026931   -0.776993
  H     -0.183807    1.914249    0.986820
  H     -1.137828   -0.171734   -0.053542
  H     -0.036775   -1.424483   -1.727368
  H      0.802258    0.088850   -2.070659
  H      3.657605   -2.065427   -1.773208
  H      0.471246   -0.308432    2.022488

 Total Charge           Charge          ....    0
 Multiplicity           Mult            ....    1
 Number of Electrons    NEL             ....   66
 Basis Dimension        Dim             ....  327

ORBITAL ENERGIES
----------------

  NO   OCC          E(Eh)            E(eV)
   0   2.0000     -20.619955      -561.0975
   1   2.0000     -15.592318      -424.2885
   2   2.0000     -15.581131      -423.9841
   3   2.0000     -11.309491      -307.7469
   4   2.0000     -11.298934      -307.4596
   5   2.0000     -11.287610      -307.1515
   6   2.0000     -11.255553      -306.2792
   7   2.0000     -11.233300      -305.6736
   8   2.0000     -11.231571      -305.6266
   9   2.0000      -1.461609       -39.7724
  10   2.0000      -1.274738       -34.6874
  11   2.0000      -1.128358       -30.7042
  12   2.0000      -1.083497       -29.4834
  13   2.0000      -1.034861       -28.1600
  14   2.0000      -0.955113       -25.9899
  15   2.0000      -0.837318       -22.7846
  16   2.0000      -0.817799       -22.2534
  17   2.0000      -0.782941       -21.3049
  18   2.0000      -0.712195       -19.3798
  19   2.0000      -0.667173       -18.1547
  20   2.0000      -0.636187       -17.3115
  21   2.0000      -0.626672       -17.0526
  22   2.0000      -0.617470       -16.8022
  23   2.0000      -0.579667       -15.7735
  24   2.0000      -0.561737       -15.2856
  25   2.0000      -0.556365       -15.1395
  26   2.0000      -0.543522       -14.7900
  27   2.0000      -0.520923       -14.1750
  28   2.0000      -0.496432       -13.5086
  29   2.0000      -0.479092       -13.0368
  30   2.0000      -0.457934       -12.4610
  31   2.0000      -0.357226        -9.7206
  32   2.0000      -0.349231        -9.5031
  33   0.0000       0.122963         3.3460
  34   0.0000       0.127870         3.4795
  35   0.0000       0.158943         4.3250
  36   0.0000       0.168962         4.5977
  37   0.0000       0.172631         4.6975

MULLIKEN ATOMIC CHARGES
-----------------------
   0 C :   -0.455726
   1 C :    0.091626
   2 C :   -0.185763
   3 C :   -0.156064
   4 C :   -0.009526
   5 O :   -0.112401
   6 N :   -0.144080
   7 C :    0.113853
   8 N :   -0.327030
   9 H :    0.151022
  10 H :    0.131044
  11 H :    0.132817
  12 H :    0.111022
  13 H :    0.133864
  14 H :    0.136223
  15 H :    0.155583
  16 H :    0.233535
Sum of atomic charges:   -0.0000000

LOEWDIN ATOMIC CHARGES
----------------------
   0 C :   -0.299719
   1 C :   -0.262250
   2 C :   -0.180494
   3 C :   -0.176572
   4 C :   -0.243500
   5 O :    0.250730
   6 N :    0.029229
   7 C :   -0.356127
   8 N :    0.103344
   9 H :    0.130622
  10 H :    0.126446
  11 H :    0.123117
  12 H :    0.142173
  13 H :    0.147808
  14 H :    0.146146
  15 H :    0.137227
  16 H :    0.181821

  Mayer bond orders larger than 0.1
B(  0-C ,  1-C ) :   0.9247 B(  0-C ,  9-H ) :   0.9300 B(  0-C , 10-H ) :   0.9328
B(  0-C , 11-H ) :   0.9353 B(  1-C ,  2-C ) :   0.9223 B(  1-C ,  8-N ) :   0.8749
B(  1-C , 12-H ) :   0.9315 B(  2-C ,  3-C ) :   0.9366 B(  2-C , 13-H ) :   0.8932
B(  2-C , 14-H ) :   0.9242 B(  3-C ,  4-C ) :   1.5610 B(  3-C ,  7-C ) :   1.1331
B(  4-C ,  5-O ) :   1.1302 B(  4-C ,  6-N ) :   0.1013 B(  4-C , 15-H ) :   0.9159
B(  5-O ,  6-N ) :   0.8478 B(  6-N ,  7-C ) :   1.6686 B(  7-C ,  8-N ) :   1.1362
B(  8-N , 16-H ) :   0.8726

MP2 TOTAL ENERGY:     -417.288929062 Eh
FINAL SINGLE POINT ENERGY      -417.288929062402

DIPOLE MOMENT
-------------
                                X             Y             Z
Electronic contribution:      6.58867      -7.33245       2.74395
Nuclear contribution   :     -7.59287       8.30626      -3.71041
                        -----------------------------------------
Total Dipole Moment    :     -1.00419       0.97381      -0.96646
                        -----------------------------------------
Magnitude (a.u.)       :      1.70022
Magnitude (Debye)      :      4.32162

                             ****ORCA TERMINATED NORMALLY****
TOTAL RUN TIME: 0 days 0 hours 18 minutes 31 seconds 782 msec
