                         Program Version 3.0.3 - RELEASE   -
|  1> ! RI-MP2 RIJK def2-TZVP def2-TZVP/C def2-TZVP/JK TIGHTSCF
|  2> % maxcore 2000
|  3> % mp2 density relaxed end
|  4> *xyz 0 1
|  5>  C        1.0168349825     0.7113177326    -0.3917352157
|  6>  C       -0.4185262242     0.3911073599     0.0275548599
|  7>  N       -0.8068220893    -0.9288046565    -0.4643904572
|  8>  C       -1.8701284683    -1.0607596300    -1.1053587137
|  9>  C       -2.5870496733    -2.2175448217    -1.7708495757
| 10>  C       -3.6242906539    -1.1402796531    -2.1471951913
| 11>  O       -2.8362201528    -0.1238008833    -1.4597525704
| 12>  H        1.3378542584     1.6685986604     0.0312725681
| 13>  H        1.7001775140    -0.0701193524    -0.0472493567
| 14>  H        1.0989603085     0.7743884439    -1.4813358603
| 15>  H       -0.4755450892     0.3649034998     1.1234795436
| 16>  H       -1.0993136087     1.1823473013    -0.3125653593
| 17>  H       -2.0462577519    -2.6763040045    -2.6001901400
| 18>  H       -2.9318943411    -2.9953833932    -1.0875333449
| 19>  H       -3.7181863562    -0.9098930407    -3.2114336149
| 20>  H       -4.6139147244    -1.2401242625    -1.6944490614
| 21> *
| 22>
| 23>                          ****END OF INPUT****

CARTESIAN COORDINATES (ANGSTROEM)
---------------------------------
  C      1.016835    0.711318   -0.391735
  C     -0.418526    0.391107    0.027555
  N     -0.806822   -0.928805   -0.464390
  C     -1.870128   -1.060760   -1.105359
  C     -2.587050   -2.217545   -1.770850
  C     -3.624291   -1.140280   -2.147195
  O     -2.836220   -0.123801   -1.459753
  H      1.337854    1.668599    0.031273
  H      1.700178   -0.070119   -0.047249
  H      1.098960    0.774388   -1.481336
  H     -0.475545    0.364903    1.123480
  H     -1.099314    1.182347   -0.312565
  H     -2.046258   -2.676304   -2.600190
  H     -2.931894   -2.995383   -1.087533
  H     -3.718186   -0.909893   -3.211434
  H     -4.613915   -1.240124   -1.694449

 Total Charge           Charge          ....    0
 Multiplicity           Mult            ....    1
 Number of Electrons    NEL             ....   54
 Basis Dimension        Dim             ....  271

ORBITAL ENERGIES
----------------

  NO   OCC          E(Eh)            E(eV)
   0   2.0000     -20.585314      -560.1549
   1   2.0000     -15.535442      -422.7409
   2   2.0000     -11.331024      -308.3328
   3   2.0000     -11.300678      -307.5071
   4   2.0000     -11.250618      -306.1449
   5   2.0000     -11.243202      -305.9431
   6   2.0000     -11.204600      -304.8927
   7   2.0000      -1.425690       -38.7950
   8   2.0000      -1.213506       -33.0212
   9   2.0000      -1.039766       -28.2935
  10   2.0000      -1.003798       -27.3147
  11   2.0000      -0.898085       -24.4381
  12   2.0000      -0.831394       -22.6234
  13   2.0000      -0.733327       -19.9548
  14   2.0000      -0.691907       -18.8277
  15   2.0000      -0.682127       -18.5616
  16   2.0000      -0.652711       -17.7612
  17   2.0000      -0.604869       -16.4593
  18   2.0000      -0.558600       -15.2003
  19   2.0000      -0.555328       -15.1112
  20   2.0000      -0.529218       -14.4008
  21   2.0000      -0.514683       -14.0052
  22   2.0000      -0.503225       -13.6934
  23   2.0000      -0.499731       -13.5984
  24   2.0000      -0.481924       -13.1138
  25   2.0000      -0.403371       -10.9763
  26   2.0000      -0.379132       -10.3167
  27   0.0000       0.137416         3.7393
  28   0.0000       0.153740         4.1835
  29   0.0000       0.169686         4.6174
  30   0.0000       0.173385         4.7181
  31   0.0000       0.187737         5.1086

MULLIKEN ATOMIC CHARGES
-----------------------
   0 C :   -0.366789
   1 C :   -0.075217
   2 N :   -0.262262
   3 C :    0.168208
   4 C :   -0.259495
   5 C :   -0.014552
   6 O :   -0.290793
   7 H :    0.119434
   8 H :    0.126576
   9 H :    0.119918
  10 H :    0.113116
  11 H :    0.112609
  12 H :    0.140702
  13 H :    0.141363
  14 H :    0.113376
  15 H :    0.113806
Sum of atomic charges:   -0.0000000

LOEWDIN ATOMIC CHARGES
----------------------
   0 C :   -0.319440
   1 C :   -0.310178
   2 N :    0.096761
   3 C :   -0.364716
   4 C :   -0.205034
   5 C :   -0.241523
   6 O :    0.197047
   7 H :    0.119877
   8 H :    0.122199
   9 H :    0.119601
  10 H :    0.132230
  11 H :    0.124916
  12 H :    0.143526
  13 H :    0.143869
  14 H :    0.120418
  15 H :    0.120445

  Mayer bond orders larger than 0.1
B(  0-C ,  1-C ) :   0.9350 B(  0-C ,  7-H ) :   0.9362 B(  0-C ,  8-H ) :   0.9366
B(  0-C ,  9-H ) :   0.9364 B(  1-C ,  2-N ) :   0.8342 B(  1-C , 10-H ) :   0.9280
B(  1-C , 11-H ) :   0.9250 B(  2-N ,  3-C ) :   1.9669 B(  3-C ,  4-C ) :   0.9161
B(  3-C ,  6-O ) :   1.0269 B(  4-C ,  5-C ) :   0.9777 B(  4-C , 12-H ) :   0.9102
B(  4-C , 13-H ) :   0.9122 B(  5-C ,  6-O ) :   0.9057 B(  5-C , 14-H ) :   0.9196
B(  5-C , 15-H ) :   0.9193

MP2 TOTAL ENERGY:     -325.216093609 Eh
FINAL SINGLE POINT ENERGY      -325.216093608954

DIPOLE MOMENT
-------------
                                X             Y             Z
Electronic contribution:     -3.95984      -1.63014      -0.58433
Nuclear contribution   :      3.30798       1.34901       0.14249
                        -----------------------------------------
Total Dipole Moment    :     -0.65186      -0.28113      -0.44184
                        -----------------------------------------
Magnitude (a.u.)       :      0.83617
Magnitude (Debye)      :      2.12537

                             ****ORCA TERMINATED NORMALLY****
TOTAL RUN TIME: 0 days 0 hours 7 minutes 25 seconds 740 msec
