                         Program Version 3.0.3 - RELEASE   -
|  1> ! RI-MP2 RIJK def2-TZVP def2-TZVP/C def2-TZVP/JK TIGHTSCF
|  2> % maxcore 2000
|  3> % mp2 density relaxed end
|  4> *xyz 0 1
|  5>  C       -0.0092260800     1.5352984570    -0.1929491443
|  6>  C        0.0455146494     0.0103165275    -0.0680839742
|  7>  C        0.6821435071    -0.4659627148     1.2430408117
|  8>  C        0.7272690025    -1.9934096823     1.3683404049
|  9>  C        1.4557934754    -2.5351737876     2.6141612761
| 10>  C        0.7476098757    -2.1300435076     3.9166743421
| 11>  C        1.6181401528    -4.0613969282     2.4970073928
| 12>  C        2.4816176488    -4.7046540856     3.5762732119
| 13>  O        2.6459795301    -6.0743054665     3.2319782473
| 14>  H        0.9947455044     1.9724634995    -0.1505919584
| 15>  H       -0.4665610489     1.8440426074    -1.1382937583
| 16>  H       -0.5951595496     1.9783752384     0.6202484224
| 17>  H       -0.9700482867    -0.4001931123    -0.1462633736
| 18>  H        0.6053866581    -0.4075090659    -0.9152766969
| 19>  H        1.7031783753    -0.0646460201     1.3154564430
| 20>  H        0.1255663809    -0.0311290818     2.0828372096
| 21>  H       -0.2982704724    -2.3904572245     1.3531607015
| 22>  H        1.2195347766    -2.4014529294     0.4751934144
| 23>  H        2.4635331137    -2.0916878976     2.6252577724
| 24>  H        1.2961478474    -2.4699150728     4.8000124588
| 25>  H        0.6451870794    -1.0446276937     4.0002581722
| 26>  H       -0.2585631623    -2.5648091360     3.9630393966
| 27>  H        0.6316464589    -4.5435138180     2.5039160366
| 28>  H        2.0736391687    -4.3054923293     1.5296846326
| 29>  H        3.4557556320    -4.1891151642     3.6279173268
| 30>  H        2.0076772105    -4.6050712485     4.5642415606
| 31>  H        3.1513894622    -6.5000456132     3.9303927013
| 32> *
| 33>
| 34>                          ****END OF INPUT****

CARTESIAN COORDINATES (ANGSTROEM)
---------------------------------
  C     -0.009226    1.535298   -0.192949
  C      0.045515    0.010317   -0.068084
  C      0.682144   -0.465963    1.243041
  C      0.727269   -1.993410    1.368340
  C      1.455793   -2.535174    2.614161
  C      0.747610   -2.130044    3.916674
  C      1.618140   -4.061397    2.497007
  C      2.481618   -4.704654    3.576273
  O      2.645980   -6.074305    3.231978
  H      0.994746    1.972463   -0.150592
  H     -0.466561    1.844043   -1.138294
  H     -0.595160    1.978375    0.620248
  H     -0.970048   -0.400193   -0.146263
  H      0.605387   -0.407509   -0.915277
  H      1.703178   -0.064646    1.315456
  H      0.125566   -0.031129    2.082837
  H     -0.298270   -2.390457    1.353161
  H      1.219535   -2.401453    0.475193
  H      2.463533   -2.091688    2.625258
  H      1.296148   -2.469915    4.800012
  H      0.645187   -1.044628    4.000258
  H     -0.258563   -2.564809    3.963039
  H      0.631646   -4.543514    2.503916
  H      2.073639   -4.305492    1.529685
  H      3.455756   -4.189115    3.627917
  H      2.007677   -4.605071    4.564242
  H      3.151389   -6.500046    3.930393

 Total Charge           Charge          ....    0
 Multiplicity           Mult            ....    1
 Number of Electrons    NEL             ....   74
 Basis Dimension        Dim             ....  387

ORBITAL ENERGIES
----------------

  NO   OCC          E(Eh)            E(eV)
   0   2.0000     -20.551087      -559.2235
   1   2.0000     -11.270465      -306.6849
   2   2.0000     -11.224928      -305.4458
   3   2.0000     -11.215739      -305.1958
   4   2.0000     -11.213796      -305.1429
   5   2.0000     -11.213146      -305.1252
   6   2.0000     -11.211611      -305.0834
   7   2.0000     -11.210651      -305.0573
   8   2.0000     -11.209928      -305.0377
   9   2.0000      -1.354516       -36.8583
  10   2.0000      -1.098777       -29.8992
  11   2.0000      -1.053948       -28.6794
  12   2.0000      -0.986175       -26.8352
  13   2.0000      -0.950952       -25.8767
  14   2.0000      -0.886626       -24.1263
  15   2.0000      -0.829925       -22.5834
  16   2.0000      -0.786431       -21.3999
  17   2.0000      -0.763458       -20.7747
  18   2.0000      -0.689906       -18.7733
  19   2.0000      -0.651799       -17.7364
  20   2.0000      -0.638161       -17.3652
  21   2.0000      -0.606665       -16.5082
  22   2.0000      -0.592678       -16.1276
  23   2.0000      -0.585844       -15.9416
  24   2.0000      -0.562352       -15.3024
  25   2.0000      -0.548486       -14.9251
  26   2.0000      -0.538262       -14.6469
  27   2.0000      -0.526695       -14.3321
  28   2.0000      -0.498053       -13.5527
  29   2.0000      -0.496887       -13.5210
  30   2.0000      -0.490651       -13.3513
  31   2.0000      -0.472317       -12.8524
  32   2.0000      -0.464438       -12.6380
  33   2.0000      -0.454881       -12.3780
  34   2.0000      -0.448743       -12.2109
  35   2.0000      -0.439848       -11.9689
  36   2.0000      -0.430202       -11.7064
  37   0.0000       0.134396         3.6571
  38   0.0000       0.141355         3.8465
  39   0.0000       0.154799         4.2123
  40   0.0000       0.159982         4.3533
  41   0.0000       0.165860         4.5133

MULLIKEN ATOMIC CHARGES
-----------------------
   0 C :   -0.383566
   1 C :   -0.180465
   2 C :   -0.244905
   3 C :   -0.221151
   4 C :   -0.038893
   5 C :   -0.438306
   6 C :   -0.153422
   7 C :   -0.086475
   8 O :   -0.464913
   9 H :    0.120697
  10 H :    0.132515
  11 H :    0.120570
  12 H :    0.104478
  13 H :    0.105275
  14 H :    0.104813
  15 H :    0.106288
  16 H :    0.108240
  17 H :    0.112169
  18 H :    0.079712
  19 H :    0.130653
  20 H :    0.137400
  21 H :    0.123612
  22 H :    0.108371
  23 H :    0.116080
  24 H :    0.090018
  25 H :    0.097915
  26 H :    0.313292
Sum of atomic charges:   -0.0000000

LOEWDIN ATOMIC CHARGES
----------------------
   0 C :   -0.322942
   1 C :   -0.297643
   2 C :   -0.272789
   3 C :   -0.248599
   4 C :   -0.283583
   5 C :   -0.294251
   6 C :   -0.251396
   7 C :   -0.351667
   8 O :   -0.053619
   9 H :    0.119615
  10 H :    0.119832
  11 H :    0.119465
  12 H :    0.134304
  13 H :    0.133790
  14 H :    0.136308
  15 H :    0.134750
  16 H :    0.139374
  17 H :    0.140669
  18 H :    0.150114
  19 H :    0.120064
  20 H :    0.121566
  21 H :    0.124848
  22 H :    0.141218
  23 H :    0.143584
  24 H :    0.113990
  25 H :    0.112596
  26 H :    0.170402

  Mayer bond orders larger than 0.1
B(  0-C ,  1-C ) :   0.9220 B(  0-C ,  9-H ) :   0.9396 B(  0-C , 10-H ) :   0.9437
B(  0-C , 11-H ) :   0.9399 B(  1-C ,  2-C ) :   0.9380 B(  1-C , 12-H ) :   0.9329
B(  1-C , 13-H ) :   0.9356 B(  2-C ,  3-C ) :   0.9308 B(  2-C , 14-H ) :   0.9278
B(  2-C , 15-H ) :   0.9326 B(  3-C ,  4-C ) :   0.9306 B(  3-C , 16-H ) :   0.9240
B(  3-C , 17-H ) :   0.9336 B(  4-C ,  5-C ) :   0.8938 B(  4-C ,  6-C ) :   0.9150
B(  4-C , 18-H ) :   0.9241 B(  5-C , 19-H ) :   0.9420 B(  5-C , 20-H ) :   0.9422
B(  5-C , 21-H ) :   0.9300 B(  6-C ,  7-C ) :   0.9273 B(  6-C , 22-H ) :   0.9183
B(  6-C , 23-H ) :   0.9273 B(  7-C ,  8-O ) :   1.0224 B(  7-C , 24-H ) :   0.9302
B(  7-C , 25-H ) :   0.9387 B(  8-O , 26-H ) :   0.8504

MP2 TOTAL ENERGY:     -390.026240083 Eh
FINAL SINGLE POINT ENERGY      -390.026240082928

DIPOLE MOMENT
-------------
                                X             Y             Z
Electronic contribution:      3.39775      -8.60102       2.15941
Nuclear contribution   :     -3.17568       8.87589      -1.68416
                        -----------------------------------------
Total Dipole Moment    :      0.22207       0.27486       0.47525
                        -----------------------------------------
Magnitude (a.u.)       :      0.59222
Magnitude (Debye)      :      1.50531

                             ****ORCA TERMINATED NORMALLY****
TOTAL RUN TIME: 0 days 0 hours 18 minutes 43 seconds 284 msec
