                         Program Version 3.0.3 - RELEASE   -
|  1> ! RI-MP2 RIJK def2-TZVP def2-TZVP/C def2-TZVP/JK TIGHTSCF
|  2> % maxcore 2000
|  3> % mp2 density relaxed end
|  4> *xyz 0 1
|  5>  C        0.0020216046     1.5331040213     0.0511050659
|  6>  C       -0.0385608472    -0.0011509234     0.0024739189
|  7>  C       -1.4931494337    -0.4932069145     0.0025109740
|  8>  C        0.7461334356    -0.5513032892    -1.2008801116
|  9>  C        2.2414508070    -0.1245451747    -1.2609633414
| 10>  C        2.9241652285    -1.3144511780    -1.8903723339
| 11>  C        2.1338064149    -2.3855575948    -1.9160651564
| 12>  C        0.7812990602    -2.1033667162    -1.3084279639
| 13>  H        1.0255769966     1.9135611373     0.1154418124
| 14>  H       -0.4580451131     1.9632022253    -0.8470381407
| 15>  H       -0.5493111837     1.9124619465     0.9179449023
| 16>  H        0.4480887502    -0.3820896604     0.9135524313
| 17>  H       -2.0192023373    -0.1525455805    -0.8977807775
| 18>  H       -1.5558565853    -1.5848926812     0.0315505877
| 19>  H       -2.0381137998    -0.1052081093     0.8695532721
| 20>  H        0.2647560726    -0.1741945951    -2.1141572804
| 21>  H        2.3901892851     0.8032997819    -1.8246138224
| 22>  H        2.6462310674     0.0621823926    -0.2540173215
| 23>  H        3.9520105947    -1.2843131544    -2.2357799259
| 24>  H        2.4163488258    -3.3654665091    -2.2856988061
| 25>  H        0.6993628741    -2.5762464758    -0.3173047503
| 26>  H       -0.0481226772    -2.5011398883    -1.9038759025
| 27> *
| 28>
| 29>                          ****END OF INPUT****

CARTESIAN COORDINATES (ANGSTROEM)
---------------------------------
  C      0.002022    1.533104    0.051105
  C     -0.038561   -0.001151    0.002474
  C     -1.493149   -0.493207    0.002511
  C      0.746133   -0.551303   -1.200880
  C      2.241451   -0.124545   -1.260963
  C      2.924165   -1.314451   -1.890372
  C      2.133806   -2.385558   -1.916065
  C      0.781299   -2.103367   -1.308428
  H      1.025577    1.913561    0.115442
  H     -0.458045    1.963202   -0.847038
  H     -0.549311    1.912462    0.917945
  H      0.448089   -0.382090    0.913552
  H     -2.019202   -0.152546   -0.897781
  H     -1.555857   -1.584893    0.031551
  H     -2.038114   -0.105208    0.869553
  H      0.264756   -0.174195   -2.114157
  H      2.390189    0.803300   -1.824614
  H      2.646231    0.062182   -0.254017
  H      3.952011   -1.284313   -2.235780
  H      2.416349   -3.365467   -2.285699
  H      0.699363   -2.576246   -0.317305
  H     -0.048123   -2.501140   -1.903876

 Total Charge           Charge          ....    0
 Multiplicity           Mult            ....    1
 Number of Electrons    NEL             ....   62
 Basis Dimension        Dim             ....  332

ORBITAL ENERGIES
----------------

  NO   OCC          E(Eh)            E(eV)
   0   2.0000     -11.223419      -305.4047
   1   2.0000     -11.221729      -305.3588
   2   2.0000     -11.218709      -305.2766
   3   2.0000     -11.218442      -305.2693
   4   2.0000     -11.218050      -305.2587
   5   2.0000     -11.216633      -305.2201
   6   2.0000     -11.208721      -305.0048
   7   2.0000     -11.208697      -305.0042
   8   2.0000      -1.134802       -30.8795
   9   2.0000      -1.062852       -28.9217
  10   2.0000      -0.956364       -26.0240
  11   2.0000      -0.946896       -25.7663
  12   2.0000      -0.921016       -25.0621
  13   2.0000      -0.814315       -22.1587
  14   2.0000      -0.750605       -20.4250
  15   2.0000      -0.722741       -19.6668
  16   2.0000      -0.672128       -18.2895
  17   2.0000      -0.623269       -16.9600
  18   2.0000      -0.601151       -16.3582
  19   2.0000      -0.565708       -15.3937
  20   2.0000      -0.557443       -15.1688
  21   2.0000      -0.548946       -14.9376
  22   2.0000      -0.528895       -14.3920
  23   2.0000      -0.525932       -14.3113
  24   2.0000      -0.497306       -13.5324
  25   2.0000      -0.493108       -13.4181
  26   2.0000      -0.481002       -13.0887
  27   2.0000      -0.451786       -12.2937
  28   2.0000      -0.443482       -12.0678
  29   2.0000      -0.439659       -11.9637
  30   2.0000      -0.339857        -9.2480
  31   0.0000       0.137200         3.7334
  32   0.0000       0.160066         4.3556
  33   0.0000       0.160534         4.3684
  34   0.0000       0.166643         4.5346
  35   0.0000       0.168063         4.5732

MULLIKEN ATOMIC CHARGES
-----------------------
   0 C :   -0.398967
   1 C :   -0.056007
   2 C :   -0.398967
   3 C :   -0.079191
   4 C :   -0.189927
   5 C :   -0.170321
   6 C :   -0.170321
   7 C :   -0.189926
   8 H :    0.133940
   9 H :    0.121299
  10 H :    0.130356
  11 H :    0.082798
  12 H :    0.121299
  13 H :    0.133940
  14 H :    0.130356
  15 H :    0.086216
  16 H :    0.124772
  17 H :    0.109392
  18 H :    0.122548
  19 H :    0.122547
  20 H :    0.109392
  21 H :    0.124772
Sum of atomic charges:    0.0000000

LOEWDIN ATOMIC CHARGES
----------------------
   0 C :   -0.292995
   1 C :   -0.295082
   2 C :   -0.292996
   3 C :   -0.207387
   4 C :   -0.223551
   5 C :   -0.165772
   6 C :   -0.165772
   7 C :   -0.223551
   8 H :    0.122315
   9 H :    0.123521
  10 H :    0.122388
  11 H :    0.150197
  12 H :    0.123521
  13 H :    0.122315
  14 H :    0.122388
  15 H :    0.155196
  16 H :    0.136006
  17 H :    0.142097
  18 H :    0.134529
  19 H :    0.134529
  20 H :    0.142097
  21 H :    0.136007

  Mayer bond orders larger than 0.1
B(  0-C ,  1-C ) :   0.9167 B(  0-C ,  8-H ) :   0.9386 B(  0-C ,  9-H ) :   0.9326
B(  0-C , 10-H ) :   0.9410 B(  1-C ,  2-C ) :   0.9167 B(  1-C ,  3-C ) :   0.9344
B(  1-C , 11-H ) :   0.9179 B(  2-C , 12-H ) :   0.9326 B(  2-C , 13-H ) :   0.9386
B(  2-C , 14-H ) :   0.9410 B(  3-C ,  4-C ) :   0.9241 B(  3-C ,  7-C ) :   0.9241
B(  3-C , 15-H ) :   0.9247 B(  4-C ,  5-C ) :   0.9450 B(  4-C , 16-H ) :   0.9257
B(  4-C , 17-H ) :   0.9041 B(  5-C ,  6-C ) :   1.8027 B(  5-C , 18-H ) :   0.9319
B(  6-C ,  7-C ) :   0.9450 B(  6-C , 19-H ) :   0.9319 B(  7-C , 20-H ) :   0.9041
B(  7-C , 21-H ) :   0.9257

MP2 TOTAL ENERGY:     -312.510550930 Eh
FINAL SINGLE POINT ENERGY      -312.510550929620

DIPOLE MOMENT
-------------
                                X             Y             Z
Electronic contribution:      4.53693      -3.28403      -2.65543
Nuclear contribution   :     -4.57783       3.31259       2.72312
                        -----------------------------------------
Total Dipole Moment    :     -0.04090       0.02856       0.06769
                        -----------------------------------------
Magnitude (a.u.)       :      0.08409
Magnitude (Debye)      :      0.21373

                             ****ORCA TERMINATED NORMALLY****
TOTAL RUN TIME: 0 days 0 hours 13 minutes 15 seconds 67 msec
