                         Program Version 3.0.3 - RELEASE   -
|  1> ! RI-MP2 RIJK def2-TZVP def2-TZVP/C def2-TZVP/JK TIGHTSCF
|  2> % maxcore 2000
|  3> % mp2 density relaxed end
|  4> *xyz 0 1
|  5>  C       -0.1566505751     1.4783446225     0.1407384384
|  6>  C        0.0092112720    -0.0404484799     0.0743065338
|  7>  C       -1.3289058274    -0.7663796730     0.1593840298
|  8>  O       -2.3920050140    -0.2079207286     0.2643092068
|  9>  C        0.7636123577    -0.5014609988    -1.1843032990
| 10>  C        2.2493539147    -0.0652195102    -1.4127852382
| 11>  C        2.6247004287    -1.5202927513    -1.8249009160
| 12>  C        1.2651272456    -1.9581338645    -1.2631016639
| 13>  O        0.8144704755    -3.0037415453    -0.8903834231
| 14>  H        0.8156065362     1.9790248373     0.1332581254
| 15>  H       -0.7399337873     1.8418989671    -0.7104340002
| 16>  H       -0.6910450782     1.7689429481     1.0481981624
| 17>  H        0.5888995348    -0.3918243158     0.9434525631
| 18>  H       -1.2552001900    -1.8722898037     0.1118557515
| 19>  H        0.1656920627    -0.2800738040    -2.0788931014
| 20>  H        2.4131090037     0.7100315103    -2.1611980445
| 21>  H        2.7319945914     0.2341532342    -0.4791664049
| 22>  H        2.6743277078    -1.6631465667    -2.9092620009
| 23>  H        3.5051976009    -1.9819282775    -1.3724137789
| 24> *
| 25>
| 26>                          ****END OF INPUT****

CARTESIAN COORDINATES (ANGSTROEM)
---------------------------------
  C     -0.156651    1.478345    0.140738
  C      0.009211   -0.040448    0.074307
  C     -1.328906   -0.766380    0.159384
  O     -2.392005   -0.207921    0.264309
  C      0.763612   -0.501461   -1.184303
  C      2.249354   -0.065220   -1.412785
  C      2.624700   -1.520293   -1.824901
  C      1.265127   -1.958134   -1.263102
  O      0.814470   -3.003742   -0.890383
  H      0.815607    1.979025    0.133258
  H     -0.739934    1.841899   -0.710434
  H     -0.691045    1.768943    1.048198
  H      0.588900   -0.391824    0.943453
  H     -1.255200   -1.872290    0.111856
  H      0.165692   -0.280074   -2.078893
  H      2.413109    0.710032   -2.161198
  H      2.731995    0.234153   -0.479166
  H      2.674328   -1.663147   -2.909262
  H      3.505198   -1.981928   -1.372414

 Total Charge           Charge          ....    0
 Multiplicity           Mult            ....    1
 Number of Electrons    NEL             ....   68
 Basis Dimension        Dim             ....  339

ORBITAL ENERGIES
----------------

  NO   OCC          E(Eh)            E(eV)
   0   2.0000     -20.566447      -559.6415
   1   2.0000     -20.555273      -559.3374
   2   2.0000     -11.345326      -308.7220
   3   2.0000     -11.326665      -308.2142
   4   2.0000     -11.263667      -306.4999
   5   2.0000     -11.258328      -306.3547
   6   2.0000     -11.255657      -306.2820
   7   2.0000     -11.253802      -306.2315
   8   2.0000     -11.226854      -305.4982
   9   2.0000      -1.409448       -38.3530
  10   2.0000      -1.393817       -37.9277
  11   2.0000      -1.160711       -31.5846
  12   2.0000      -1.071696       -29.1623
  13   2.0000      -0.942773       -25.6542
  14   2.0000      -0.900316       -24.4989
  15   2.0000      -0.870844       -23.6969
  16   2.0000      -0.774288       -21.0695
  17   2.0000      -0.741844       -20.1866
  18   2.0000      -0.691799       -18.8248
  19   2.0000      -0.680480       -18.5168
  20   2.0000      -0.655429       -17.8351
  21   2.0000      -0.644480       -17.5372
  22   2.0000      -0.626704       -17.0535
  23   2.0000      -0.584719       -15.9110
  24   2.0000      -0.558081       -15.1862
  25   2.0000      -0.549580       -14.9548
  26   2.0000      -0.539975       -14.6935
  27   2.0000      -0.529861       -14.4182
  28   2.0000      -0.521148       -14.1812
  29   2.0000      -0.504346       -13.7240
  30   2.0000      -0.494165       -13.4469
  31   2.0000      -0.481310       -13.0971
  32   2.0000      -0.415893       -11.3170
  33   2.0000      -0.405014       -11.0210
  34   0.0000       0.106355         2.8941
  35   0.0000       0.129035         3.5112
  36   0.0000       0.135122         3.6769
  37   0.0000       0.144124         3.9218
  38   0.0000       0.155978         4.2444

MULLIKEN ATOMIC CHARGES
-----------------------
   0 C :   -0.388365
   1 C :   -0.050627
   2 C :    0.063144
   3 O :   -0.267838
   4 C :   -0.074734
   5 C :   -0.281708
   6 C :   -0.175151
   7 C :    0.097835
   8 O :   -0.256493
   9 H :    0.132455
  10 H :    0.132293
  11 H :    0.149352
  12 H :    0.108011
  13 H :    0.124320
  14 H :    0.137863
  15 H :    0.136293
  16 H :    0.131748
  17 H :    0.142356
  18 H :    0.139244
Sum of atomic charges:    0.0000000

LOEWDIN ATOMIC CHARGES
----------------------
   0 C :   -0.282737
   1 C :   -0.264172
   2 C :   -0.266607
   3 O :    0.136623
   4 C :   -0.179675
   5 C :   -0.207829
   6 C :   -0.206508
   7 C :   -0.298169
   8 O :    0.163496
   9 H :    0.123966
  10 H :    0.129886
  11 H :    0.131664
  12 H :    0.168156
  13 H :    0.124173
  14 H :    0.169387
  15 H :    0.130085
  16 H :    0.138476
  17 H :    0.150335
  18 H :    0.139450

  Mayer bond orders larger than 0.1
B(  0-C ,  1-C ) :   0.9230 B(  0-C ,  9-H ) :   0.9366 B(  0-C , 10-H ) :   0.9284
B(  0-C , 11-H ) :   0.9325 B(  1-C ,  2-C ) :   0.8657 B(  1-C ,  4-C ) :   0.8954
B(  1-C , 12-H ) :   0.9011 B(  2-C ,  3-O ) :   1.9935 B(  2-C , 13-H ) :   0.9421
B(  4-C ,  5-C ) :   0.9129 B(  4-C ,  6-C ) :  -0.1182 B(  4-C ,  7-C ) :   0.8256
B(  4-C , 14-H ) :   0.8841 B(  5-C ,  6-C ) :   0.9418 B(  5-C , 15-H ) :   0.9312
B(  5-C , 16-H ) :   0.9242 B(  6-C ,  7-C ) :   0.9180 B(  6-C , 17-H ) :   0.9022
B(  6-C , 18-H ) :   0.9087 B(  7-C ,  8-O ) :   2.0168

MP2 TOTAL ENERGY:     -422.330934797 Eh
FINAL SINGLE POINT ENERGY      -422.330934797178

DIPOLE MOMENT
-------------
                                X             Y             Z
Electronic contribution:     -4.42254      -6.47350       0.52595
Nuclear contribution   :      5.80707       7.10619      -0.95387
                        -----------------------------------------
Total Dipole Moment    :      1.38453       0.63268      -0.42793
                        -----------------------------------------
Magnitude (a.u.)       :      1.58124
Magnitude (Debye)      :      4.01919

                             ****ORCA TERMINATED NORMALLY****
TOTAL RUN TIME: 0 days 0 hours 19 minutes 48 seconds 363 msec
