                         Program Version 3.0.3 - RELEASE   -
|  1> ! RI-MP2 RIJK def2-TZVP def2-TZVP/C def2-TZVP/JK TIGHTSCF
|  2> % maxcore 2000
|  3> % mp2 density relaxed end
|  4> *xyz 0 1
|  5>  O       -0.1578541100     1.5008592773    -0.1585089754
|  6>  C        0.0237538665     0.1023245044    -0.0032247342
|  7>  C       -1.3654932918    -0.5257367043     0.0517979815
|  8>  C       -1.3551830971    -2.0694519725     0.0528688445
|  9>  C       -0.7091538954    -2.6689288642     1.3274790267
| 10>  O       -0.7180777933    -4.0783051276     1.3276453477
| 11>  C       -2.7106211052    -2.6021052041    -0.0827399948
| 12>  C       -3.8200599409    -3.0644416565    -0.1414886475
| 13>  H        0.7073404245     1.9203893446    -0.1494892212
| 14>  H        0.5895063483    -0.3245773446    -0.8485277752
| 15>  H        0.5901423915    -0.1210047516     0.9137366571
| 16>  H       -1.8959807516    -0.1582372936     0.9372519417
| 17>  H       -1.9272023139    -0.1721637848    -0.8183109972
| 18>  H       -0.7653562283    -2.4229671843    -0.8044505806
| 19>  H        0.3424061948    -2.3731529010     1.3813003910
| 20>  H       -1.2219854616    -2.2538422378     2.2103810360
| 21>  H       -1.6352923925    -4.3541552261     1.2080874303
| 22>  H       -4.8036050739    -3.4571292933    -0.2227464703
| 23> *
| 24>
| 25>                          ****END OF INPUT****

CARTESIAN COORDINATES (ANGSTROEM)
---------------------------------
  O     -0.157854    1.500859   -0.158509
  C      0.023754    0.102325   -0.003225
  C     -1.365493   -0.525737    0.051798
  C     -1.355183   -2.069452    0.052869
  C     -0.709154   -2.668929    1.327479
  O     -0.718078   -4.078305    1.327645
  C     -2.710621   -2.602105   -0.082740
  C     -3.820060   -3.064442   -0.141489
  H      0.707340    1.920389   -0.149489
  H      0.589506   -0.324577   -0.848528
  H      0.590142   -0.121005    0.913737
  H     -1.895981   -0.158237    0.937252
  H     -1.927202   -0.172164   -0.818311
  H     -0.765356   -2.422967   -0.804451
  H      0.342406   -2.373153    1.381300
  H     -1.221985   -2.253842    2.210381
  H     -1.635292   -4.354155    1.208087
  H     -4.803605   -3.457129   -0.222746

 Total Charge           Charge          ....    0
 Multiplicity           Mult            ....    1
 Number of Electrons    NEL             ....   62
 Basis Dimension        Dim             ....  308

ORBITAL ENERGIES
----------------

  NO   OCC          E(Eh)            E(eV)
   0   2.0000     -20.563059      -559.5493
   1   2.0000     -20.556486      -559.3704
   2   2.0000     -11.285812      -307.1025
   3   2.0000     -11.285593      -307.0966
   4   2.0000     -11.263863      -306.5053
   5   2.0000     -11.242184      -305.9154
   6   2.0000     -11.234807      -305.7146
   7   2.0000     -11.231186      -305.6161
   8   2.0000      -1.367650       -37.2156
   9   2.0000      -1.365219       -37.1495
  10   2.0000      -1.110605       -30.2211
  11   2.0000      -1.024952       -27.8904
  12   2.0000      -0.968433       -26.3524
  13   2.0000      -0.885944       -24.1078
  14   2.0000      -0.820609       -22.3299
  15   2.0000      -0.730671       -19.8826
  16   2.0000      -0.706415       -19.2225
  17   2.0000      -0.704245       -19.1635
  18   2.0000      -0.657375       -17.8881
  19   2.0000      -0.654998       -17.8234
  20   2.0000      -0.611436       -16.6380
  21   2.0000      -0.587027       -15.9738
  22   2.0000      -0.571238       -15.5442
  23   2.0000      -0.552740       -15.0408
  24   2.0000      -0.519425       -14.1343
  25   2.0000      -0.503705       -13.7065
  26   2.0000      -0.484812       -13.1924
  27   2.0000      -0.453246       -12.3335
  28   2.0000      -0.449948       -12.2437
  29   2.0000      -0.396872       -10.7994
  30   2.0000      -0.393206       -10.6997
  31   0.0000       0.128529         3.4975
  32   0.0000       0.140884         3.8337
  33   0.0000       0.157144         4.2761
  34   0.0000       0.162679         4.4267
  35   0.0000       0.167009         4.5445

MULLIKEN ATOMIC CHARGES
-----------------------
   0 O :   -0.461604
   1 C :   -0.096756
   2 C :   -0.160921
   3 C :   -0.173761
   4 C :   -0.030522
   5 O :   -0.471517
   6 C :   -0.100914
   7 C :   -0.126938
   8 H :    0.317389
   9 H :    0.096840
  10 H :    0.102561
  11 H :    0.123755
  12 H :    0.134215
  13 H :    0.111948
  14 H :    0.115272
  15 H :    0.102264
  16 H :    0.324821
  17 H :    0.193866
Sum of atomic charges:   -0.0000000

LOEWDIN ATOMIC CHARGES
----------------------
   0 O :   -0.046921
   1 C :   -0.350753
   2 C :   -0.229901
   3 C :   -0.253661
   4 C :   -0.315902
   5 O :   -0.034951
   6 C :   -0.099055
   7 C :   -0.101236
   8 H :    0.173168
   9 H :    0.116535
  10 H :    0.114313
  11 H :    0.145857
  12 H :    0.151097
  13 H :    0.171767
  14 H :    0.128694
  15 H :    0.122661
  16 H :    0.180030
  17 H :    0.128257

  Mayer bond orders larger than 0.1
B(  0-O ,  1-C ) :   1.0314 B(  0-O ,  8-H ) :   0.8479 B(  1-C ,  2-C ) :   0.9158
B(  1-C ,  9-H ) :   0.9283 B(  1-C , 10-H ) :   0.9386 B(  2-C ,  3-C ) :   0.9272
B(  2-C , 11-H ) :   0.9117 B(  2-C , 12-H ) :   0.9235 B(  3-C ,  4-C ) :   0.8969
B(  3-C ,  6-C ) :   1.1295 B(  3-C , 13-H ) :   0.8978 B(  4-C ,  5-O ) :   0.9529
B(  4-C , 14-H ) :   0.9290 B(  4-C , 15-H ) :   0.9159 B(  5-O , 16-H ) :   0.8339
B(  6-C ,  7-C ) :   2.6008 B(  7-C , 17-H ) :   0.8913

MP2 TOTAL ENERGY:     -384.262896811 Eh
FINAL SINGLE POINT ENERGY      -384.262896811488

DIPOLE MOMENT
-------------
                                X             Y             Z
Electronic contribution:     -2.21665      -2.07978      -0.59345
Nuclear contribution   :      2.41536       2.35668       0.53743
                        -----------------------------------------
Total Dipole Moment    :      0.19872       0.27690      -0.05602
                        -----------------------------------------
Magnitude (a.u.)       :      0.34540
Magnitude (Debye)      :      0.87792

                             ****ORCA TERMINATED NORMALLY****
TOTAL RUN TIME: 0 days 0 hours 11 minutes 16 seconds 414 msec
