                         Program Version 3.0.3 - RELEASE   -
|  1> ! RI-MP2 RIJK def2-TZVP def2-TZVP/C def2-TZVP/JK TIGHTSCF
|  2> % maxcore 2000
|  3> % mp2 density relaxed end
|  4> *xyz 0 1
|  5>  C       -0.0658775268     1.5680924971    -0.2217610592
|  6>  C        0.0453708934     0.0455209747    -0.1227114687
|  7>  C        0.6812331615    -0.4475692548     1.1758199008
|  8>  O       -0.1298619253    -0.0094160378     2.2926306688
|  9>  C        0.3921716223     0.8417999535     3.1960146499
| 10>  O       -0.2150874912     1.2220786728     4.1510472691
| 11>  C        0.7571491796    -1.9830198972     1.2639789639
| 12>  C        1.5490400183    -2.4701508142     2.4788187126
| 13>  O       -0.5454097298    -2.5448346831     1.2281150632
| 14>  H        0.9156749280     2.0497351729    -0.1410360276
| 15>  H       -0.4983711055     1.8613772946    -1.1825167997
| 16>  H       -0.7064957323     1.9728208543     0.5668403883
| 17>  H       -0.9388733502    -0.4231148289    -0.2172676313
| 18>  H        0.6546973377    -0.3392076351    -0.9498376993
| 19>  H        1.6896416229    -0.0236649721     1.2864960496
| 20>  H        1.4293578162     1.1420898449     2.9516850281
| 21>  H        1.2501073715    -2.3364654153     0.3503414234
| 22>  H        1.0903307890    -2.1256294249     3.4115143923
| 23>  H        1.5641288982    -3.5625443061     2.4927017075
| 24>  H        2.5832060592    -2.1095628752     2.4516396657
| 25>  H       -1.0355168770    -2.1582339001     1.9643975527
| 26> *
| 27>
| 28>                          ****END OF INPUT****

CARTESIAN COORDINATES (ANGSTROEM)
---------------------------------
  C     -0.065878    1.568092   -0.221761
  C      0.045371    0.045521   -0.122711
  C      0.681233   -0.447569    1.175820
  O     -0.129862   -0.009416    2.292631
  C      0.392172    0.841800    3.196015
  O     -0.215087    1.222079    4.151047
  C      0.757149   -1.983020    1.263979
  C      1.549040   -2.470151    2.478819
  O     -0.545410   -2.544835    1.228115
  H      0.915675    2.049735   -0.141036
  H     -0.498371    1.861377   -1.182517
  H     -0.706496    1.972821    0.566840
  H     -0.938873   -0.423115   -0.217268
  H      0.654697   -0.339208   -0.949838
  H      1.689642   -0.023665    1.286496
  H      1.429358    1.142090    2.951685
  H      1.250107   -2.336465    0.350341
  H      1.090331   -2.125629    3.411514
  H      1.564129   -3.562544    2.492702
  H      2.583206   -2.109563    2.451640
  H     -1.035517   -2.158234    1.964398

 Total Charge           Charge          ....    0
 Multiplicity           Mult            ....    1
 Number of Electrons    NEL             ....   72
 Basis Dimension        Dim             ....  351

ORBITAL ENERGIES
----------------

  NO   OCC          E(Eh)            E(eV)
   0   2.0000     -20.612741      -560.9012
   1   2.0000     -20.561309      -559.5017
   2   2.0000     -20.555805      -559.3519
   3   2.0000     -11.389183      -309.9154
   4   2.0000     -11.311529      -307.8023
   5   2.0000     -11.296500      -307.3934
   6   2.0000     -11.237323      -305.7831
   7   2.0000     -11.229349      -305.5661
   8   2.0000     -11.227795      -305.5238
   9   2.0000      -1.467798       -39.9408
  10   2.0000      -1.383651       -37.6511
  11   2.0000      -1.364760       -37.1370
  12   2.0000      -1.090084       -29.6627
  13   2.0000      -1.030441       -28.0397
  14   2.0000      -0.955363       -25.9967
  15   2.0000      -0.864261       -23.5177
  16   2.0000      -0.845758       -23.0143
  17   2.0000      -0.826920       -22.5016
  18   2.0000      -0.730545       -19.8791
  19   2.0000      -0.709436       -19.3047
  20   2.0000      -0.674503       -18.3542
  21   2.0000      -0.641426       -17.4541
  22   2.0000      -0.631896       -17.1948
  23   2.0000      -0.626142       -17.0382
  24   2.0000      -0.606959       -16.5162
  25   2.0000      -0.586036       -15.9469
  26   2.0000      -0.565592       -15.3905
  27   2.0000      -0.552701       -15.0397
  28   2.0000      -0.537455       -14.6249
  29   2.0000      -0.518972       -14.1219
  30   2.0000      -0.515385       -14.0243
  31   2.0000      -0.505241       -13.7483
  32   2.0000      -0.486646       -13.2423
  33   2.0000      -0.472078       -12.8459
  34   2.0000      -0.463482       -12.6120
  35   2.0000      -0.437072       -11.8933
  36   0.0000       0.122599         3.3361
  37   0.0000       0.137683         3.7465
  38   0.0000       0.152044         4.1373
  39   0.0000       0.158077         4.3015
  40   0.0000       0.161643         4.3985

MULLIKEN ATOMIC CHARGES
-----------------------
   0 C :   -0.412660
   1 C :   -0.167289
   2 C :   -0.041811
   3 O :   -0.240823
   4 C :    0.185406
   5 O :   -0.266567
   6 C :    0.138107
   7 C :   -0.405001
   8 O :   -0.471084
   9 H :    0.118810
  10 H :    0.144472
  11 H :    0.149974
  12 H :    0.133343
  13 H :    0.111481
  14 H :    0.104429
  15 H :    0.079934
  16 H :    0.095241
  17 H :    0.139840
  18 H :    0.152526
  19 H :    0.122574
  20 H :    0.329098
Sum of atomic charges:   -0.0000000

LOEWDIN ATOMIC CHARGES
----------------------
   0 C :   -0.317095
   1 C :   -0.271470
   2 C :   -0.288223
   3 O :    0.259522
   4 C :   -0.459191
   5 O :    0.121218
   6 C :   -0.358733
   7 C :   -0.300213
   8 O :   -0.010346
   9 H :    0.120200
  10 H :    0.125742
  11 H :    0.126124
  12 H :    0.147955
  13 H :    0.145033
  14 H :    0.143855
  15 H :    0.103298
  16 H :    0.150388
  17 H :    0.126334
  18 H :    0.130240
  19 H :    0.125256
  20 H :    0.180108

  Mayer bond orders larger than 0.1
B(  0-C ,  1-C ) :   0.9044 B(  0-C ,  9-H ) :   0.9358 B(  0-C , 10-H ) :   0.9389
B(  0-C , 11-H ) :   0.9391 B(  1-C ,  2-C ) :   0.9407 B(  1-C , 12-H ) :   0.9220
B(  1-C , 13-H ) :   0.9240 B(  2-C ,  3-O ) :   0.7937 B(  2-C ,  6-C ) :   0.9294
B(  2-C , 14-H ) :   0.9244 B(  3-O ,  4-C ) :   1.0623 B(  4-C ,  5-O ) :   2.0326
B(  4-C , 15-H ) :   0.9192 B(  6-C ,  7-C ) :   0.9158 B(  6-C ,  8-O ) :   0.9164
B(  6-C , 16-H ) :   0.9217 B(  7-C , 17-H ) :   0.9270 B(  7-C , 18-H ) :   0.9385
B(  7-C , 19-H ) :   0.9315 B(  8-O , 20-H ) :   0.8280

MP2 TOTAL ENERGY:     -460.661905680 Eh
FINAL SINGLE POINT ENERGY      -460.661905679692

DIPOLE MOMENT
-------------
                                X             Y             Z
Electronic contribution:     -3.49062       0.81189       6.44995
Nuclear contribution   :      4.56858      -0.84156      -7.30231
                        -----------------------------------------
Total Dipole Moment    :      1.07796      -0.02967      -0.85237
                        -----------------------------------------
Magnitude (a.u.)       :      1.37456
Magnitude (Debye)      :      3.49385

                             ****ORCA TERMINATED NORMALLY****
TOTAL RUN TIME: 0 days 0 hours 17 minutes 48 seconds 669 msec
