                         Program Version 3.0.3 - RELEASE   -
|  1> ! RI-MP2 RIJK def2-TZVP def2-TZVP/C def2-TZVP/JK TIGHTSCF
|  2> % maxcore 2000
|  3> % mp2 density relaxed end
|  4> *xyz 0 1
|  5>  O       -0.1188045812     0.0723539595    -0.2315518733
|  6>  C       -0.0371314979     1.2273500161     0.0073444140
|  7>  O       -0.9924424042     2.0796199257     0.5210289728
|  8>  C       -0.0878820450     3.2291457093     0.5554909854
|  9>  C        0.9899048710     2.3558575074    -0.0788420489
| 10>  O        2.3452984612     2.2821044842     0.2593646212
| 11>  C        2.0234209284     2.6375642478    -1.0917944442
| 12>  C        2.3567406155     1.6819173666    -2.1244537329
| 13>  N        2.6342000840     0.9588420680    -2.9812413810
| 14>  H       -0.4768633239     4.0543057437    -0.0432071497
| 15>  H        0.1184931347     3.5417198396     1.5808996367
| 16>  H        2.2198825874     3.6758995821    -1.3523980301
| 17> *
| 18>
| 19>                          ****END OF INPUT****

CARTESIAN COORDINATES (ANGSTROEM)
---------------------------------
  O     -0.118805    0.072354   -0.231552
  C     -0.037131    1.227350    0.007344
  O     -0.992442    2.079620    0.521029
  C     -0.087882    3.229146    0.555491
  C      0.989905    2.355858   -0.078842
  O      2.345298    2.282104    0.259365
  C      2.023421    2.637564   -1.091794
  C      2.356741    1.681917   -2.124454
  N      2.634200    0.958842   -2.981241
  H     -0.476863    4.054306   -0.043207
  H      0.118493    3.541720    1.580900
  H      2.219883    3.675900   -1.352398

 Total Charge           Charge          ....    0
 Multiplicity           Mult            ....    1
 Number of Electrons    NEL             ....   64
 Basis Dimension        Dim             ....  297

ORBITAL ENERGIES
----------------

  NO   OCC          E(Eh)            E(eV)
   0   2.0000     -20.652768      -561.9904
   1   2.0000     -20.636173      -561.5388
   2   2.0000     -20.587941      -560.2264
   3   2.0000     -15.606800      -424.6826
   4   2.0000     -11.418112      -310.7026
   5   2.0000     -11.386925      -309.8540
   6   2.0000     -11.374154      -309.5065
   7   2.0000     -11.346137      -308.7441
   8   2.0000     -11.303153      -307.5744
   9   2.0000      -1.512364       -41.1535
  10   2.0000      -1.485726       -40.4287
  11   2.0000      -1.415682       -38.5227
  12   2.0000      -1.247540       -33.9473
  13   2.0000      -1.060389       -28.8546
  14   2.0000      -1.024202       -27.8700
  15   2.0000      -0.951920       -25.9031
  16   2.0000      -0.828284       -22.5388
  17   2.0000      -0.787153       -21.4195
  18   2.0000      -0.734480       -19.9862
  19   2.0000      -0.729116       -19.8403
  20   2.0000      -0.702347       -19.1118
  21   2.0000      -0.680495       -18.5172
  22   2.0000      -0.620059       -16.8727
  23   2.0000      -0.603326       -16.4173
  24   2.0000      -0.589174       -16.0322
  25   2.0000      -0.581519       -15.8239
  26   2.0000      -0.558767       -15.2048
  27   2.0000      -0.544084       -14.8053
  28   2.0000      -0.497686       -13.5427
  29   2.0000      -0.496530       -13.5113
  30   2.0000      -0.477019       -12.9803
  31   2.0000      -0.463181       -12.6038
  32   0.0000       0.098052         2.6681
  33   0.0000       0.112083         3.0499
  34   0.0000       0.119630         3.2553
  35   0.0000       0.136353         3.7104
  36   0.0000       0.162753         4.4287

MULLIKEN ATOMIC CHARGES
-----------------------
   0 O :   -0.220216
   1 C :    0.282134
   2 O :   -0.225029
   3 C :   -0.010914
   4 C :    0.077810
   5 O :   -0.270286
   6 C :    0.098427
   7 C :   -0.151208
   8 N :   -0.034783
   9 H :    0.137858
  10 H :    0.142447
  11 H :    0.173761
Sum of atomic charges:    0.0000000

LOEWDIN ATOMIC CHARGES
----------------------
   0 O :    0.198517
   1 C :   -0.417679
   2 O :    0.243744
   3 C :   -0.188895
   4 C :   -0.260302
   5 O :    0.253722
   6 C :   -0.214096
   7 C :   -0.155217
   8 N :    0.105538
   9 H :    0.132436
  10 H :    0.135886
  11 H :    0.166346

  Mayer bond orders larger than 0.1
B(  0-O ,  1-C ) :   2.0548 B(  1-C ,  2-O ) :   1.0911 B(  1-C ,  4-C ) :   0.8713
B(  2-O ,  3-C ) :   0.9011 B(  3-C ,  4-C ) :   0.9318 B(  3-C ,  9-H ) :   0.9132
B(  3-C , 10-H ) :   0.9087 B(  4-C ,  5-O ) :   0.9248 B(  4-C ,  6-C ) :   0.9073
B(  5-O ,  6-C ) :   0.9122 B(  6-C ,  7-C ) :   0.9329 B(  6-C , 11-H ) :   0.9085
B(  7-C ,  8-N ) :   2.7995

MP2 TOTAL ENERGY:     -471.857661635 Eh
FINAL SINGLE POINT ENERGY      -471.857661635278

DIPOLE MOMENT
-------------
                                X             Y             Z
Electronic contribution:      0.88592      -3.18920      -1.04499
Nuclear contribution   :     -1.00353       5.39178       1.66796
                        -----------------------------------------
Total Dipole Moment    :     -0.11761       2.20258       0.62297
                        -----------------------------------------
Magnitude (a.u.)       :      2.29200
Magnitude (Debye)      :      5.82581

                             ****ORCA TERMINATED NORMALLY****
TOTAL RUN TIME: 0 days 0 hours 12 minutes 17 seconds 321 msec
