                         Program Version 3.0.3 - RELEASE   -
|  1> ! RI-MP2 RIJK def2-TZVP def2-TZVP/C def2-TZVP/JK TIGHTSCF
|  2> % maxcore 2000
|  3> % mp2 density relaxed end
|  4> *xyz 0 1
|  5>  O       -0.0587909614     1.4015109185     0.0116913794
|  6>  C        0.0256238796     0.0014627963    -0.0018393187
|  7>  C       -1.3455944380    -0.7259741802    -0.0174296192
|  8>  C       -0.6579701973    -2.1289631950    -0.0273393436
|  9>  C        0.2386644829    -1.9303117600    -1.2678881390
| 10>  C        0.6506827377    -0.6646320559    -1.2512038327
| 11>  C        0.2238937705    -1.9553590713     1.2275390631
| 12>  C        0.6353365429    -0.6894683386     1.2416312633
| 13>  H        0.8338830155     1.7612018632     0.0176348300
| 14>  H       -1.9350676799    -0.5341341303     0.8823728963
| 15>  H       -1.9241385823    -0.5160207193    -0.9202763910
| 16>  H       -1.3016019537    -3.0074794018    -0.0399810951
| 17>  H        0.4993795074    -2.7136637573    -1.9670929623
| 18>  H        1.3231297932    -0.1560022741    -1.9302158492
| 19>  H        0.4763331727    -2.7526479153     1.9139093059
| 20>  H        1.2990704503    -0.1943855889     1.9389616827
| 21> *
| 22>
| 23>                          ****END OF INPUT****

CARTESIAN COORDINATES (ANGSTROEM)
---------------------------------
  O     -0.058791    1.401511    0.011691
  C      0.025624    0.001463   -0.001839
  C     -1.345594   -0.725974   -0.017430
  C     -0.657970   -2.128963   -0.027339
  C      0.238664   -1.930312   -1.267888
  C      0.650683   -0.664632   -1.251204
  C      0.223894   -1.955359    1.227539
  C      0.635337   -0.689468    1.241631
  H      0.833883    1.761202    0.017635
  H     -1.935068   -0.534134    0.882373
  H     -1.924139   -0.516021   -0.920276
  H     -1.301602   -3.007479   -0.039981
  H      0.499380   -2.713664   -1.967093
  H      1.323130   -0.156002   -1.930216
  H      0.476333   -2.752648    1.913909
  H      1.299070   -0.194386    1.938962

 Total Charge           Charge          ....    0
 Multiplicity           Mult            ....    1
 Number of Electrons    NEL             ....   58
 Basis Dimension        Dim             ....  296

ORBITAL ENERGIES
----------------

  NO   OCC          E(Eh)            E(eV)
   0   2.0000     -20.561975      -559.5198
   1   2.0000     -11.295215      -307.3584
   2   2.0000     -11.242344      -305.9197
   3   2.0000     -11.227070      -305.5041
   4   2.0000     -11.227030      -305.5030
   5   2.0000     -11.224628      -305.4376
   6   2.0000     -11.223513      -305.4073
   7   2.0000     -11.223466      -305.4060
   8   2.0000      -1.372242       -37.3406
   9   2.0000      -1.181291       -32.1446
  10   2.0000      -1.023510       -27.8511
  11   2.0000      -0.950928       -25.8761
  12   2.0000      -0.944414       -25.6988
  13   2.0000      -0.774322       -21.0704
  14   2.0000      -0.772770       -21.0281
  15   2.0000      -0.734137       -19.9769
  16   2.0000      -0.702172       -19.1071
  17   2.0000      -0.658894       -17.9294
  18   2.0000      -0.627825       -17.0840
  19   2.0000      -0.601737       -16.3741
  20   2.0000      -0.551734       -15.0134
  21   2.0000      -0.537886       -14.6366
  22   2.0000      -0.527237       -14.3468
  23   2.0000      -0.522357       -14.2141
  24   2.0000      -0.487330       -13.2609
  25   2.0000      -0.455302       -12.3894
  26   2.0000      -0.429420       -11.6851
  27   2.0000      -0.368224       -10.0199
  28   2.0000      -0.327239        -8.9046
  29   0.0000       0.117089         3.1862
  30   0.0000       0.144739         3.9386
  31   0.0000       0.157044         4.2734
  32   0.0000       0.178928         4.8689
  33   0.0000       0.182134         4.9561

MULLIKEN ATOMIC CHARGES
-----------------------
   0 O :   -0.458558
   1 C :    0.316108
   2 C :   -0.191289
   3 C :   -0.011662
   4 C :   -0.202571
   5 C :   -0.237606
   6 C :   -0.202342
   7 C :   -0.237683
   8 H :    0.321240
   9 H :    0.120945
  10 H :    0.120890
  11 H :    0.132423
  12 H :    0.134557
  13 H :    0.130496
  14 H :    0.134551
  15 H :    0.130500
Sum of atomic charges:   -0.0000000

LOEWDIN ATOMIC CHARGES
----------------------
   0 O :    0.017825
   1 C :   -0.328675
   2 C :   -0.151518
   3 C :   -0.182748
   4 C :   -0.125808
   5 C :   -0.120077
   6 C :   -0.125819
   7 C :   -0.120029
   8 H :    0.179758
   9 H :    0.138439
  10 H :    0.138429
  11 H :    0.141554
  12 H :    0.134279
  13 H :    0.135051
  14 H :    0.134272
  15 H :    0.135066

  Mayer bond orders larger than 0.1
B(  0-O ,  1-C ) :   0.9914 B(  0-O ,  8-H ) :   0.8415 B(  1-C ,  2-C ) :   0.9281
B(  1-C ,  5-C ) :   0.9094 B(  1-C ,  7-C ) :   0.9094 B(  2-C ,  3-C ) :   0.9178
B(  2-C ,  9-H ) :   0.9200 B(  2-C , 10-H ) :   0.9200 B(  3-C ,  4-C ) :   0.9097
B(  3-C ,  6-C ) :   0.9096 B(  3-C , 11-H ) :   0.9192 B(  4-C ,  5-C ) :   1.7610
B(  4-C , 12-H ) :   0.9188 B(  5-C , 13-H ) :   0.9236 B(  6-C ,  7-C ) :   1.7608
B(  6-C , 14-H ) :   0.9188 B(  7-C , 15-H ) :   0.9237

MP2 TOTAL ENERGY:     -345.981544594 Eh
FINAL SINGLE POINT ENERGY      -345.981544594070

DIPOLE MOMENT
-------------
                                X             Y             Z
Electronic contribution:      0.86899       1.50558       0.02106
Nuclear contribution   :     -0.37672      -1.82145      -0.02308
                        -----------------------------------------
Total Dipole Moment    :      0.49227      -0.31586      -0.00202
                        -----------------------------------------
Magnitude (a.u.)       :      0.58490
Magnitude (Debye)      :      1.48669

                             ****ORCA TERMINATED NORMALLY****
TOTAL RUN TIME: 0 days 0 hours 12 minutes 0 seconds 357 msec
