                         Program Version 3.0.3 - RELEASE   -
|  1> ! RI-MP2 RIJK def2-TZVP def2-TZVP/C def2-TZVP/JK TIGHTSCF
|  2> % maxcore 2000
|  3> % mp2 density relaxed end
|  4> *xyz 0 1
|  5>  C       -0.3989970063     1.4169319531    -0.0153203889
|  6>  C        0.0549942502    -0.0286654583    -0.0897372062
|  7>  C        1.3986193631    -0.3409206103    -0.7786013806
|  8>  O        1.9264521924    -0.9738274852     0.4126527417
|  9>  C        0.7421717682    -0.6689577703     1.1826724063
| 10>  C        1.0088622967     0.2154382216     2.3098973429
| 11>  C        1.2308267815     0.9577001132     3.2275712444
| 12>  C        0.0806960075    -1.9004063346     1.6505808322
| 13>  N       -0.4631687446    -2.8640217524     1.9830080419
| 14>  H        0.3954760331     2.0672274589     0.3602158118
| 15>  H       -0.6873532500     1.7664300666    -1.0121426257
| 16>  H       -1.2661409753     1.5264661376     0.6426307090
| 17>  H       -0.7543048318    -0.6711746094    -0.4404717970
| 18>  H        1.3628299545    -1.0370362243    -1.6221429599
| 19>  H        1.9893443565     0.5400263365    -1.0556093235
| 20>  H        1.4314050542     1.6036990472     4.0472956114
| 21> *
| 22>
| 23>                          ****END OF INPUT****

CARTESIAN COORDINATES (ANGSTROEM)
---------------------------------
  C     -0.398997    1.416932   -0.015320
  C      0.054994   -0.028665   -0.089737
  C      1.398619   -0.340921   -0.778601
  O      1.926452   -0.973827    0.412653
  C      0.742172   -0.668958    1.182672
  C      1.008862    0.215438    2.309897
  C      1.230827    0.957700    3.227571
  C      0.080696   -1.900406    1.650581
  N     -0.463169   -2.864022    1.983008
  H      0.395476    2.067227    0.360216
  H     -0.687353    1.766430   -1.012143
  H     -1.266141    1.526466    0.642631
  H     -0.754305   -0.671175   -0.440472
  H      1.362830   -1.037036   -1.622143
  H      1.989344    0.540026   -1.055609
  H      1.431405    1.603699    4.047296

 Total Charge           Charge          ....    0
 Multiplicity           Mult            ....    1
 Number of Electrons    NEL             ....   64
 Basis Dimension        Dim             ....  321

ORBITAL ENERGIES
----------------

  NO   OCC          E(Eh)            E(eV)
   0   2.0000     -20.588873      -560.2517
   1   2.0000     -15.582672      -424.0261
   2   2.0000     -11.374560      -309.5175
   3   2.0000     -11.304769      -307.6184
   4   2.0000     -11.281397      -306.9824
   5   2.0000     -11.277308      -306.8712
   6   2.0000     -11.260416      -306.4115
   7   2.0000     -11.256252      -306.2982
   8   2.0000     -11.242838      -305.9332
   9   2.0000      -1.420795       -38.6618
  10   2.0000      -1.226953       -33.3871
  11   2.0000      -1.104750       -30.0618
  12   2.0000      -1.067105       -29.0374
  13   2.0000      -0.997788       -27.1512
  14   2.0000      -0.942954       -25.6591
  15   2.0000      -0.826015       -22.4770
  16   2.0000      -0.791150       -21.5283
  17   2.0000      -0.731339       -19.9007
  18   2.0000      -0.695893       -18.9362
  19   2.0000      -0.664720       -18.0879
  20   2.0000      -0.646039       -17.5796
  21   2.0000      -0.595256       -16.1977
  22   2.0000      -0.592098       -16.1118
  23   2.0000      -0.569932       -15.5086
  24   2.0000      -0.544631       -14.8202
  25   2.0000      -0.524130       -14.2623
  26   2.0000      -0.492667       -13.4062
  27   2.0000      -0.479900       -13.0588
  28   2.0000      -0.466210       -12.6862
  29   2.0000      -0.458567       -12.4783
  30   2.0000      -0.420804       -11.4507
  31   2.0000      -0.414934       -11.2909
  32   0.0000       0.110315         3.0018
  33   0.0000       0.123465         3.3597
  34   0.0000       0.138393         3.7659
  35   0.0000       0.151171         4.1136
  36   0.0000       0.161777         4.4022

MULLIKEN ATOMIC CHARGES
-----------------------
   0 C :   -0.429417
   1 C :   -0.094312
   2 C :   -0.042315
   3 O :   -0.302821
   4 C :    0.252217
   5 C :   -0.067792
   6 C :   -0.076283
   7 C :   -0.201422
   8 N :   -0.046684
   9 H :    0.146618
  10 H :    0.146464
  11 H :    0.147605
  12 H :    0.141291
  13 H :    0.115571
  14 H :    0.107094
  15 H :    0.204184
Sum of atomic charges:    0.0000000

LOEWDIN ATOMIC CHARGES
----------------------
   0 C :   -0.285599
   1 C :   -0.192407
   2 C :   -0.230681
   3 O :    0.189779
   4 C :   -0.284831
   5 C :   -0.047537
   6 C :   -0.046051
   7 C :   -0.124221
   8 N :    0.084939
   9 H :    0.132347
  10 H :    0.131853
  11 H :    0.133079
  12 H :    0.158707
  13 H :    0.122998
  14 H :    0.124443
  15 H :    0.133180

  Mayer bond orders larger than 0.1
B(  0-C ,  1-C ) :   0.9329 B(  0-C ,  9-H ) :   0.9302 B(  0-C , 10-H ) :   0.9321
B(  0-C , 11-H ) :   0.9330 B(  1-C ,  2-C ) :   0.9608 B(  1-C ,  4-C ) :   0.8844
B(  1-C , 12-H ) :   0.9221 B(  2-C ,  3-O ) :   0.9389 B(  2-C , 13-H ) :   0.9153
B(  2-C , 14-H ) :   0.9089 B(  3-O ,  4-C ) :   0.9577 B(  4-C ,  5-C ) :   1.1977
B(  4-C ,  6-C ) :  -0.1022 B(  4-C ,  7-C ) :   0.8958 B(  5-C ,  6-C ) :   2.5402
B(  6-C , 15-H ) :   0.8820 B(  7-C ,  8-N ) :   2.8417

MP2 TOTAL ENERGY:     -399.998003007 Eh
FINAL SINGLE POINT ENERGY      -399.998003007079

DIPOLE MOMENT
-------------
                                X             Y             Z
Electronic contribution:      1.75297      -6.66776       5.19971
Nuclear contribution   :     -1.80347       8.34612      -5.93019
                        -----------------------------------------
Total Dipole Moment    :     -0.05051       1.67836      -0.73047
                        -----------------------------------------
Magnitude (a.u.)       :      1.83113
Magnitude (Debye)      :      4.65436

                             ****ORCA TERMINATED NORMALLY****
TOTAL RUN TIME: 0 days 0 hours 15 minutes 59 seconds 583 msec
