                         Program Version 3.0.3 - RELEASE   -
|  1> ! RI-MP2 RIJK def2-TZVP def2-TZVP/C def2-TZVP/JK TIGHTSCF
|  2> % maxcore 2000
|  3> % mp2 density relaxed end
|  4> *xyz 0 1
|  5>  C       -0.0293229028     1.3713328350     0.0155077483
|  6>  N        0.0512239668    -0.0734598096     0.0648416581
|  7>  C        0.5509600510    -0.6582396926    -0.9281938024
|  8>  O        0.6564603289    -2.0079972432    -0.9482176921
|  9>  C        1.2248612710    -2.5776503754    -2.0916910166
| 10>  C        2.6464645035    -2.4316307962    -2.6858839175
| 11>  N        1.9821446013    -3.4781555856    -3.5932570949
| 12>  C        1.4229919877    -4.0802620199    -2.2875917292
| 13>  C        0.7449845239    -2.5679977063    -3.5630780877
| 14>  H        0.5210549743     1.7976744929     0.8617486890
| 15>  H        0.3678795839     1.8127458236    -0.9135667041
| 16>  H       -1.0739064365     1.6836302822     0.1256593675
| 17>  H        0.9311578071    -0.1563629858    -1.8303617494
| 18>  H        2.9046359326    -1.5075467453    -3.2083388904
| 19>  H        3.4871614474    -2.8229662806    -2.1089087638
| 20>  H        2.1784692627    -4.5836589940    -1.6808637428
| 21>  H        0.5375735622    -4.7013342400    -2.4378439830
| 22>  H       -0.1858078209    -3.0863829727    -3.8033223059
| 23>  H        0.8661589757    -1.6537382467    -4.1487297431
| 24> *
| 25>
| 26>                          ****END OF INPUT****

CARTESIAN COORDINATES (ANGSTROEM)
---------------------------------
  C     -0.029323    1.371333    0.015508
  N      0.051224   -0.073460    0.064842
  C      0.550960   -0.658240   -0.928194
  O      0.656460   -2.007997   -0.948218
  C      1.224861   -2.577650   -2.091691
  C      2.646465   -2.431631   -2.685884
  N      1.982145   -3.478156   -3.593257
  C      1.422992   -4.080262   -2.287592
  C      0.744985   -2.567998   -3.563078
  H      0.521055    1.797674    0.861749
  H      0.367880    1.812746   -0.913567
  H     -1.073906    1.683630    0.125659
  H      0.931158   -0.156363   -1.830362
  H      2.904636   -1.507547   -3.208339
  H      3.487161   -2.822966   -2.108909
  H      2.178469   -4.583659   -1.680864
  H      0.537574   -4.701334   -2.437844
  H     -0.185808   -3.086383   -3.803322
  H      0.866159   -1.653738   -4.148730

 Total Charge           Charge          ....    0
 Multiplicity           Mult            ....    1
 Number of Electrons    NEL             ....   68
 Basis Dimension        Dim             ....  339

ORBITAL ENERGIES
----------------

  NO   OCC          E(Eh)            E(eV)
   0   2.0000     -20.599130      -560.5308
   1   2.0000     -15.587235      -424.1502
   2   2.0000     -15.549360      -423.1196
   3   2.0000     -11.335885      -308.4651
   4   2.0000     -11.323812      -308.1366
   5   2.0000     -11.274513      -306.7951
   6   2.0000     -11.274502      -306.7948
   7   2.0000     -11.271586      -306.7155
   8   2.0000     -11.251308      -306.1637
   9   2.0000      -1.437842       -39.1257
  10   2.0000      -1.312421       -35.7128
  11   2.0000      -1.224010       -33.3070
  12   2.0000      -0.973224       -26.4828
  13   2.0000      -0.943553       -25.6754
  14   2.0000      -0.941910       -25.6307
  15   2.0000      -0.912765       -24.8376
  16   2.0000      -0.815440       -22.1892
  17   2.0000      -0.773998       -21.0616
  18   2.0000      -0.733466       -19.9586
  19   2.0000      -0.662850       -18.0371
  20   2.0000      -0.660015       -17.9599
  21   2.0000      -0.646948       -17.6043
  22   2.0000      -0.630151       -17.1473
  23   2.0000      -0.590031       -16.0556
  24   2.0000      -0.582759       -15.8577
  25   2.0000      -0.556005       -15.1297
  26   2.0000      -0.527856       -14.3637
  27   2.0000      -0.499703       -13.5976
  28   2.0000      -0.498603       -13.5677
  29   2.0000      -0.476387       -12.9632
  30   2.0000      -0.473879       -12.8949
  31   2.0000      -0.420433       -11.4406
  32   2.0000      -0.402620       -10.9559
  33   2.0000      -0.384992       -10.4762
  34   0.0000       0.133960         3.6452
  35   0.0000       0.151272         4.1163
  36   0.0000       0.153692         4.1822
  37   0.0000       0.165188         4.4950
  38   0.0000       0.168004         4.5716

MULLIKEN ATOMIC CHARGES
-----------------------
   0 C :   -0.242818
   1 N :   -0.171683
   2 C :    0.084749
   3 O :   -0.208809
   4 C :    0.016510
   5 C :   -0.161049
   6 N :   -0.194062
   7 C :   -0.137845
   8 C :   -0.161007
   9 H :    0.138080
  10 H :    0.089889
  11 H :    0.138076
  12 H :    0.056052
  13 H :    0.124996
  14 H :    0.127520
  15 H :    0.124448
  16 H :    0.124450
  17 H :    0.127518
  18 H :    0.124985
Sum of atomic charges:    0.0000000

LOEWDIN ATOMIC CHARGES
----------------------
   0 C :   -0.337128
   1 N :    0.065566
   2 C :   -0.353435
   3 O :    0.279483
   4 C :   -0.352082
   5 C :   -0.211749
   6 N :    0.101845
   7 C :   -0.194256
   8 C :   -0.211741
   9 H :    0.118193
  10 H :    0.100608
  11 H :    0.118195
  12 H :    0.110408
  13 H :    0.125450
  14 H :    0.128343
  15 H :    0.129254
  16 H :    0.129254
  17 H :    0.128342
  18 H :    0.125449

  Mayer bond orders larger than 0.1
B(  0-C ,  1-N ) :   0.8780 B(  0-C ,  9-H ) :   0.9318 B(  0-C , 10-H ) :   0.9252
B(  0-C , 11-H ) :   0.9317 B(  1-N ,  2-C ) :   1.9097 B(  2-C ,  3-O ) :   1.0189
B(  2-C , 12-H ) :   0.9157 B(  3-O ,  4-C ) :   0.8988 B(  4-C ,  5-C ) :   0.9266
B(  4-C ,  7-C ) :   0.9614 B(  4-C ,  8-C ) :   0.9266 B(  5-C ,  6-N ) :   0.9185
B(  5-C , 13-H ) :   0.9221 B(  5-C , 14-H ) :   0.9284 B(  6-N ,  7-C ) :   0.9194
B(  6-N ,  8-C ) :   0.9185 B(  7-C , 15-H ) :   0.9271 B(  7-C , 16-H ) :   0.9271
B(  8-C , 17-H ) :   0.9284 B(  8-C , 18-H ) :   0.9221

MP2 TOTAL ENERGY:     -418.411207510 Eh
FINAL SINGLE POINT ENERGY      -418.411207509586

DIPOLE MOMENT
-------------
                                X             Y             Z
Electronic contribution:     -0.12867      -3.90307       0.88305
Nuclear contribution   :      0.32887       4.45114      -1.40211
                        -----------------------------------------
Total Dipole Moment    :      0.20020       0.54807      -0.51906
                        -----------------------------------------
Magnitude (a.u.)       :      0.78095
Magnitude (Debye)      :      1.98502

                             ****ORCA TERMINATED NORMALLY****
TOTAL RUN TIME: 0 days 0 hours 15 minutes 30 seconds 131 msec
