                         Program Version 3.0.3 - RELEASE   -
|  1> ! RI-MP2 RIJK def2-TZVP def2-TZVP/C def2-TZVP/JK TIGHTSCF
|  2> % maxcore 2000
|  3> % mp2 density relaxed end
|  4> *xyz 0 1
|  5>  C        0.0299747217     1.5240569059     0.0507164880
|  6>  C        0.1886495289     0.0161600939     0.1101832121
|  7>  O        0.5411915270    -0.4416435254    -1.1938137270
|  8>  C        0.6906182924    -1.8302861377    -1.3038478986
|  9>  C        0.7620359977    -2.1856666304    -2.8044609183
| 10>  C       -0.4989488468    -1.9315802740    -3.4859749527
| 11>  C       -1.5471328575    -1.7396566080    -4.0398624803
| 12>  C        1.9136661275    -2.3011093629    -0.6080776692
| 13>  N        2.8665610906    -2.6602711010    -0.0620617534
| 14>  H        0.9675528306     1.9969382898    -0.2536681666
| 15>  H       -0.7462316510     1.8011239590    -0.6677233184
| 16>  H       -0.2504017270     1.9105069948     1.0347605992
| 17>  H        0.9696583425    -0.2678503676     0.8305577599
| 18>  H       -0.7491848579    -0.4668779154     0.4266601910
| 19>  H       -0.1660933698    -2.3554050899    -0.8526470400
| 20>  H        1.5690347696    -1.5941671662    -3.2506160000
| 21>  H        1.0428683597    -3.2402200101    -2.9028330161
| 22>  H       -2.4682104882    -1.5645116348    -4.5385239696
| 23> *
| 24>
| 25>                          ****END OF INPUT****

CARTESIAN COORDINATES (ANGSTROEM)
---------------------------------
  C      0.029975    1.524057    0.050716
  C      0.188650    0.016160    0.110183
  O      0.541192   -0.441644   -1.193814
  C      0.690618   -1.830286   -1.303848
  C      0.762036   -2.185667   -2.804461
  C     -0.498949   -1.931580   -3.485975
  C     -1.547133   -1.739657   -4.039862
  C      1.913666   -2.301109   -0.608078
  N      2.866561   -2.660271   -0.062062
  H      0.967553    1.996938   -0.253668
  H     -0.746232    1.801124   -0.667723
  H     -0.250402    1.910507    1.034761
  H      0.969658   -0.267850    0.830558
  H     -0.749185   -0.466878    0.426660
  H     -0.166093   -2.355405   -0.852647
  H      1.569035   -1.594167   -3.250616
  H      1.042868   -3.240220   -2.902833
  H     -2.468210   -1.564512   -4.538524

 Total Charge           Charge          ....    0
 Multiplicity           Mult            ....    1
 Number of Electrons    NEL             ....   66
 Basis Dimension        Dim             ....  333

ORBITAL ENERGIES
----------------

  NO   OCC          E(Eh)            E(eV)
   0   2.0000     -20.587638      -560.2181
   1   2.0000     -15.583392      -424.0457
   2   2.0000     -11.351179      -308.8813
   3   2.0000     -11.293868      -307.3218
   4   2.0000     -11.281379      -306.9819
   5   2.0000     -11.280131      -306.9480
   6   2.0000     -11.247191      -306.0516
   7   2.0000     -11.235184      -305.7249
   8   2.0000     -11.226820      -305.4973
   9   2.0000      -1.414179       -38.4818
  10   2.0000      -1.228136       -33.4193
  11   2.0000      -1.113199       -30.2917
  12   2.0000      -1.042748       -28.3746
  13   2.0000      -1.004013       -27.3206
  14   2.0000      -0.924448       -25.1555
  15   2.0000      -0.859004       -23.3747
  16   2.0000      -0.756414       -20.5831
  17   2.0000      -0.729886       -19.8612
  18   2.0000      -0.713088       -19.4041
  19   2.0000      -0.663490       -18.0545
  20   2.0000      -0.643922       -17.5220
  21   2.0000      -0.626527       -17.0487
  22   2.0000      -0.597526       -16.2595
  23   2.0000      -0.572346       -15.5743
  24   2.0000      -0.556903       -15.1541
  25   2.0000      -0.539204       -14.6725
  26   2.0000      -0.530194       -14.4273
  27   2.0000      -0.510894       -13.9021
  28   2.0000      -0.479124       -13.0376
  29   2.0000      -0.468878       -12.7588
  30   2.0000      -0.460953       -12.5432
  31   2.0000      -0.402040       -10.9401
  32   2.0000      -0.400223       -10.8906
  33   0.0000       0.122081         3.3220
  34   0.0000       0.141402         3.8477
  35   0.0000       0.155143         4.2217
  36   0.0000       0.156924         4.2701
  37   0.0000       0.159692         4.3454

MULLIKEN ATOMIC CHARGES
-----------------------
   0 C :   -0.368394
   1 C :   -0.071594
   2 O :   -0.269535
   3 C :    0.177752
   4 C :   -0.348546
   5 C :   -0.033891
   6 C :   -0.109243
   7 C :   -0.196119
   8 N :   -0.047538
   9 H :    0.136909
  10 H :    0.136319
  11 H :    0.128030
  12 H :    0.121067
  13 H :    0.099659
  14 H :    0.124252
  15 H :    0.158725
  16 H :    0.166417
  17 H :    0.195731
Sum of atomic charges:   -0.0000000

LOEWDIN ATOMIC CHARGES
----------------------
   0 C :   -0.312036
   1 C :   -0.331135
   2 O :    0.207046
   3 C :   -0.317097
   4 C :   -0.207921
   5 C :   -0.108095
   6 C :   -0.091028
   7 C :   -0.168073
   8 N :    0.071804
   9 H :    0.126994
  10 H :    0.126531
  11 H :    0.127715
  12 H :    0.126129
  13 H :    0.120585
  14 H :    0.163292
  15 H :    0.168977
  16 H :    0.168058
  17 H :    0.128256

  Mayer bond orders larger than 0.1
B(  0-C ,  1-C ) :   0.9577 B(  0-C ,  9-H ) :   0.9350 B(  0-C , 10-H ) :   0.9349
B(  0-C , 11-H ) :   0.9299 B(  1-C ,  2-O ) :   0.8944 B(  1-C , 12-H ) :   0.9215
B(  1-C , 13-H ) :   0.9206 B(  2-O ,  3-C ) :   1.0075 B(  3-C ,  4-C ) :   0.9005
B(  3-C ,  7-C ) :   0.8643 B(  3-C , 14-H ) :   0.9357 B(  4-C ,  5-C ) :   1.1169
B(  4-C ,  6-C ) :  -0.1177 B(  4-C , 15-H ) :   0.9042 B(  4-C , 16-H ) :   0.9323
B(  5-C ,  6-C ) :   2.6172 B(  6-C , 17-H ) :   0.8889 B(  7-C ,  8-N ) :   2.8680

MP2 TOTAL ENERGY:     -401.217972074 Eh
FINAL SINGLE POINT ENERGY      -401.217972074299

DIPOLE MOMENT
-------------
                                X             Y             Z
Electronic contribution:      3.33161      -6.37132      -2.66236
Nuclear contribution   :     -4.45417       6.71402       2.48683
                        -----------------------------------------
Total Dipole Moment    :     -1.12255       0.34269      -0.17554
                        -----------------------------------------
Magnitude (a.u.)       :      1.18675
Magnitude (Debye)      :      3.01648

                             ****ORCA TERMINATED NORMALLY****
TOTAL RUN TIME: 0 days 0 hours 15 minutes 29 seconds 812 msec
