                         Program Version 3.0.3 - RELEASE   -
|  1> ! RI-MP2 RIJK def2-TZVP def2-TZVP/C def2-TZVP/JK TIGHTSCF
|  2> % maxcore 2000
|  3> % mp2 density relaxed end
|  4> *xyz 0 1
|  5>  O       -0.0664835754    -0.0459477177     0.0032545531
|  6>  C       -0.0087400583     1.1629849815     0.0089584802
|  7>  C       -1.2387824615     2.1093979888     0.0323662966
|  8>  C       -0.6821280691     3.5503710922     0.0316258551
|  9>  N        0.7657889413     3.3451513241     0.0095276932
| 10>  C        1.8499871619     4.1525293091    -0.0018967769
| 11>  C        2.9801759522     3.3359558997    -0.0228120087
| 12>  C        2.5474637931     1.9944066384    -0.0238844549
| 13>  C        1.1592928492     2.0261325568    -0.0034148389
| 14>  H       -1.8654922988     1.9027407706    -0.8389055877
| 15>  H       -1.8390394369     1.8934779403     0.9198771321
| 16>  H       -0.9969888682     4.1234908546    -0.8457762991
| 17>  H       -0.9712589941     4.1145104644     0.9235769710
| 18>  H        1.7595185269     5.2276762120     0.0052896864
| 19>  H        4.0012526883     3.6866251990    -0.0357563212
| 20>  H        3.1594068893     1.1064966862    -0.0376750103
| 21> *
| 22>
| 23>                          ****END OF INPUT****

CARTESIAN COORDINATES (ANGSTROEM)
---------------------------------
  O     -0.066484   -0.045948    0.003255
  C     -0.008740    1.162985    0.008958
  C     -1.238782    2.109398    0.032366
  C     -0.682128    3.550371    0.031626
  N      0.765789    3.345151    0.009528
  C      1.849987    4.152529   -0.001897
  C      2.980176    3.335956   -0.022812
  C      2.547464    1.994407   -0.023884
  C      1.159293    2.026133   -0.003415
  H     -1.865492    1.902741   -0.838906
  H     -1.839039    1.893478    0.919877
  H     -0.996989    4.123491   -0.845776
  H     -0.971259    4.114510    0.923577
  H      1.759519    5.227676    0.005290
  H      4.001253    3.686625   -0.035756
  H      3.159407    1.106497   -0.037675

 Total Charge           Charge          ....    0
 Multiplicity           Mult            ....    1
 Number of Electrons    NEL             ....   64
 Basis Dimension        Dim             ....  321

ORBITAL ENERGIES
----------------

  NO   OCC          E(Eh)            E(eV)
   0   2.0000     -20.536641      -558.8304
   1   2.0000     -15.626875      -425.2289
   2   2.0000     -11.335211      -308.4468
   3   2.0000     -11.296767      -307.4007
   4   2.0000     -11.275238      -306.8148
   5   2.0000     -11.256310      -306.2998
   6   2.0000     -11.252997      -306.2096
   7   2.0000     -11.235333      -305.7289
   8   2.0000     -11.228135      -305.5331
   9   2.0000      -1.381725       -37.5987
  10   2.0000      -1.331539       -36.2330
  11   2.0000      -1.117902       -30.4197
  12   2.0000      -1.044375       -28.4189
  13   2.0000      -0.991185       -26.9715
  14   2.0000      -0.919797       -25.0289
  15   2.0000      -0.825634       -22.4667
  16   2.0000      -0.789699       -21.4888
  17   2.0000      -0.743081       -20.2203
  18   2.0000      -0.685495       -18.6533
  19   2.0000      -0.684734       -18.6325
  20   2.0000      -0.629430       -17.1277
  21   2.0000      -0.609533       -16.5862
  22   2.0000      -0.585987       -15.9455
  23   2.0000      -0.581452       -15.8221
  24   2.0000      -0.574328       -15.6283
  25   2.0000      -0.558474       -15.1968
  26   2.0000      -0.555396       -15.1131
  27   2.0000      -0.532916       -14.5014
  28   2.0000      -0.487988       -13.2788
  29   2.0000      -0.411257       -11.1909
  30   2.0000      -0.354800        -9.6546
  31   2.0000      -0.314386        -8.5549
  32   0.0000       0.093427         2.5423
  33   0.0000       0.126044         3.4298
  34   0.0000       0.151714         4.1283
  35   0.0000       0.154611         4.2072
  36   0.0000       0.174044         4.7360

MULLIKEN ATOMIC CHARGES
-----------------------
   0 O :   -0.290594
   1 C :    0.108057
   2 C :   -0.192233
   3 C :   -0.203321
   4 N :    0.022000
   5 C :   -0.160841
   6 C :   -0.095090
   7 C :   -0.265695
   8 C :    0.078296
   9 H :    0.141452
  10 H :    0.141445
  11 H :    0.141872
  12 H :    0.141887
  13 H :    0.149342
  14 H :    0.139449
  15 H :    0.143975
Sum of atomic charges:   -0.0000000

LOEWDIN ATOMIC CHARGES
----------------------
   0 O :    0.135090
   1 C :   -0.315486
   2 C :   -0.204495
   3 C :   -0.211291
   4 N :    0.294478
   5 C :   -0.205480
   6 C :   -0.173916
   7 C :   -0.137164
   8 C :   -0.181674
   9 H :    0.150467
  10 H :    0.150479
  11 H :    0.137296
  12 H :    0.137292
  13 H :    0.136799
  14 H :    0.140789
  15 H :    0.146819

  Mayer bond orders larger than 0.1
B(  0-O ,  1-C ) :   2.0872 B(  0-O ,  8-C ) :  -0.1042 B(  1-C ,  2-C ) :   0.9506
B(  1-C ,  8-C ) :   0.8673 B(  2-C ,  3-C ) :   0.9392 B(  2-C ,  8-C ) :  -0.1321
B(  2-C ,  9-H ) :   0.9117 B(  2-C , 10-H ) :   0.9116 B(  3-C ,  4-N ) :   0.8588
B(  3-C , 11-H ) :   0.9181 B(  3-C , 12-H ) :   0.9182 B(  4-N ,  5-C ) :   1.2100
B(  4-N ,  8-C ) :   1.0826 B(  5-C ,  6-C ) :   1.3587 B(  5-C , 13-H ) :   0.9165
B(  6-C ,  7-C ) :   1.3584 B(  6-C , 14-H ) :   0.9297 B(  7-C ,  8-C ) :   1.3474
B(  7-C , 15-H ) :   0.9413

MP2 TOTAL ENERGY:     -400.120310232 Eh
FINAL SINGLE POINT ENERGY      -400.120310232217

DIPOLE MOMENT
-------------
                                X             Y             Z
Electronic contribution:      1.54471      -3.39443      -0.04134
Nuclear contribution   :     -1.96919       5.01873       0.05639
                        -----------------------------------------
Total Dipole Moment    :     -0.42448       1.62430       0.01505
                        -----------------------------------------
Magnitude (a.u.)       :      1.67892
Magnitude (Debye)      :      4.26747

                             ****ORCA TERMINATED NORMALLY****
TOTAL RUN TIME: 0 days 0 hours 16 minutes 48 seconds 826 msec
