                         Program Version 3.0.3 - RELEASE   -
|  1> ! RI-MP2 RIJK def2-TZVP def2-TZVP/C def2-TZVP/JK TIGHTSCF
|  2> % maxcore 2000
|  3> % mp2 density relaxed end
|  4> *xyz 0 1
|  5>  C       -0.3602370354     1.0364855030    -0.3191649991
|  6>  C        1.0284671773     1.1454454051     0.2556007207
|  7>  C        0.4117843975    -0.2093687795     0.0484044558
|  8>  N        0.0144171061    -0.9321979931     1.2218752466
|  9>  C       -0.9987265908    -1.8571249545     1.1520616580
| 10>  N       -1.1338791543    -2.8388180379     2.0123210152
| 11>  O       -2.2897643818    -3.4938818252     1.6372798081
| 12>  N       -2.8518331332    -2.9223988488     0.5420242040
| 13>  C       -2.0845077268    -1.9194279400     0.2226882113
| 14>  H       -1.1877266798     1.3102057597     0.3246620839
| 15>  H       -0.5056691672     1.2510671354    -1.3717225282
| 16>  H        1.8428904763     1.4358289682    -0.3973859157
| 17>  H        1.1166468353     1.4936275773     1.2782557729
| 18>  H        0.7990791718    -0.8061860767    -0.7777675530
| 19>  H        0.7630796185    -1.2028514686     1.8446878383
| 20>  H       -2.3061822735    -1.2877524944    -0.6216350388
| 21> *
| 22>
| 23>                          ****END OF INPUT****

CARTESIAN COORDINATES (ANGSTROEM)
---------------------------------
  C     -0.360237    1.036486   -0.319165
  C      1.028467    1.145445    0.255601
  C      0.411784   -0.209369    0.048404
  N      0.014417   -0.932198    1.221875
  C     -0.998727   -1.857125    1.152062
  N     -1.133879   -2.838818    2.012321
  O     -2.289764   -3.493882    1.637280
  N     -2.851833   -2.922399    0.542024
  C     -2.084508   -1.919428    0.222688
  H     -1.187727    1.310206    0.324662
  H     -0.505669    1.251067   -1.371723
  H      1.842890    1.435829   -0.397386
  H      1.116647    1.493628    1.278256
  H      0.799079   -0.806186   -0.777768
  H      0.763080   -1.202851    1.844688
  H     -2.306182   -1.287752   -0.621635

 Total Charge           Charge          ....    0
 Multiplicity           Mult            ....    1
 Number of Electrons    NEL             ....   66
 Basis Dimension        Dim             ....  321

ORBITAL ENERGIES
----------------

  NO   OCC          E(Eh)            E(eV)
   0   2.0000     -20.665212      -562.3290
   1   2.0000     -15.657112      -426.0517
   2   2.0000     -15.623166      -425.1279
   3   2.0000     -15.596956      -424.4147
   4   2.0000     -11.328377      -308.2608
   5   2.0000     -11.290772      -307.2375
   6   2.0000     -11.288719      -307.1817
   7   2.0000     -11.250365      -306.1380
   8   2.0000     -11.249469      -306.1136
   9   2.0000      -1.530584       -41.6493
  10   2.0000      -1.288702       -35.0674
  11   2.0000      -1.198476       -32.6122
  12   2.0000      -1.168756       -31.8035
  13   2.0000      -1.111207       -30.2375
  14   2.0000      -0.878383       -23.9020
  15   2.0000      -0.866883       -23.5891
  16   2.0000      -0.843038       -22.9402
  17   2.0000      -0.813992       -22.1498
  18   2.0000      -0.738230       -20.0883
  19   2.0000      -0.705718       -19.2036
  20   2.0000      -0.685392       -18.6505
  21   2.0000      -0.682045       -18.5594
  22   2.0000      -0.662066       -18.0157
  23   2.0000      -0.590620       -16.0716
  24   2.0000      -0.578638       -15.7455
  25   2.0000      -0.539971       -14.6933
  26   2.0000      -0.530702       -14.4411
  27   2.0000      -0.515796       -14.0355
  28   2.0000      -0.480084       -13.0638
  29   2.0000      -0.449484       -12.2311
  30   2.0000      -0.447612       -12.1801
  31   2.0000      -0.427180       -11.6242
  32   2.0000      -0.361977        -9.8499
  33   0.0000       0.097924         2.6646
  34   0.0000       0.134670         3.6646
  35   0.0000       0.139145         3.7863
  36   0.0000       0.158909         4.3241
  37   0.0000       0.163534         4.4500

MULLIKEN ATOMIC CHARGES
-----------------------
   0 C :   -0.264448
   1 C :   -0.248004
   2 C :   -0.049922
   3 N :   -0.341058
   4 C :    0.157500
   5 N :   -0.130202
   6 O :   -0.015177
   7 N :   -0.094094
   8 C :   -0.128422
   9 H :    0.148878
  10 H :    0.140006
  11 H :    0.141546
  12 H :    0.143507
  13 H :    0.129280
  14 H :    0.242890
  15 H :    0.167720
Sum of atomic charges:    0.0000000

LOEWDIN ATOMIC CHARGES
----------------------
   0 C :   -0.226013
   1 C :   -0.222980
   2 C :   -0.276635
   3 N :    0.103534
   4 C :   -0.381745
   5 N :    0.023572
   6 O :    0.194860
   7 N :    0.015216
   8 C :   -0.257763
   9 H :    0.139125
  10 H :    0.133201
  11 H :    0.134960
  12 H :    0.138530
  13 H :    0.139288
  14 H :    0.195557
  15 H :    0.147292

  Mayer bond orders larger than 0.1
B(  0-C ,  1-C ) :   0.9111 B(  0-C ,  2-C ) :   0.8745 B(  0-C ,  9-H ) :   0.9277
B(  0-C , 10-H ) :   0.9281 B(  1-C ,  2-C ) :   0.8804 B(  1-C , 11-H ) :   0.9313
B(  1-C , 12-H ) :   0.9281 B(  2-C ,  3-N ) :   0.9178 B(  2-C , 13-H ) :   0.9388
B(  3-N ,  4-C ) :   1.1005 B(  3-N , 14-H ) :   0.8648 B(  4-C ,  5-N ) :   1.5720
B(  4-C ,  8-C ) :   1.2037 B(  5-N ,  6-O ) :   0.9081 B(  5-N ,  7-N ) :   0.1239
B(  6-O ,  7-N ) :   0.9647 B(  7-N ,  8-C ) :   1.5874 B(  8-C , 15-H ) :   0.9139

MP2 TOTAL ENERGY:     -433.274220686 Eh
FINAL SINGLE POINT ENERGY      -433.274220685616

DIPOLE MOMENT
-------------
                                X             Y             Z
Electronic contribution:     -5.46593      -9.53721       3.97633
Nuclear contribution   :      6.54029      10.88744      -4.73969
                        -----------------------------------------
Total Dipole Moment    :      1.07437       1.35023      -0.76336
                        -----------------------------------------
Magnitude (a.u.)       :      1.88683
Magnitude (Debye)      :      4.79594

                             ****ORCA TERMINATED NORMALLY****
TOTAL RUN TIME: 0 days 0 hours 14 minutes 51 seconds 902 msec
