                         Program Version 3.0.3 - RELEASE   -
|  1> ! RI-MP2 RIJK def2-TZVP def2-TZVP/C def2-TZVP/JK TIGHTSCF
|  2> % maxcore 2000
|  3> % mp2 density relaxed end
|  4> *xyz 0 1
|  5>  C        0.0325989876     1.4974625967     0.0083596815
|  6>  O        1.2208455517     0.7063965099     0.0725643136
|  7>  C       -0.0533730806     0.0336918386     0.0169684780
|  8>  C       -0.3894886694    -0.7361265587     1.2745076047
|  9>  C        0.4243241809    -2.0388464392     1.2771061493
| 10>  C        0.2820033320    -2.8189670898    -0.0181033204
| 11>  C       -1.0455890314    -3.0320714719    -0.6541071257
| 12>  N       -0.0639285643    -2.1485369926    -1.2803255233
| 13>  C       -0.3382255003    -0.7025179362    -1.2837147126
| 14>  H       -0.2105465876     2.0576294302     0.9111013286
| 15>  H       -0.1148927184     2.0433299599    -0.9238293100
| 16>  H       -0.1444087707    -0.1345562921     2.1543147732
| 17>  H       -1.4660218708    -0.9428154338     1.3108470836
| 18>  H        1.4801994636    -1.7772319987     1.4122089030
| 19>  H        0.1442244284    -2.6750757756     2.1245973140
| 20>  H        1.0310998215    -3.5993641966    -0.1454233946
| 21>  H       -1.2619831776    -3.9509509690    -1.1941266222
| 22>  H       -1.9156038596    -2.5817665971    -0.1779989783
| 23>  H       -1.3884407487    -0.5507637514    -1.5646394642
| 24>  H        0.2772534337    -0.2418226828    -2.0640570482
| 25> *
| 26>
| 27>                          ****END OF INPUT****

CARTESIAN COORDINATES (ANGSTROEM)
---------------------------------
  C      0.032599    1.497463    0.008360
  O      1.220846    0.706397    0.072564
  C     -0.053373    0.033692    0.016968
  C     -0.389489   -0.736127    1.274508
  C      0.424324   -2.038846    1.277106
  C      0.282003   -2.818967   -0.018103
  C     -1.045589   -3.032071   -0.654107
  N     -0.063929   -2.148537   -1.280326
  C     -0.338226   -0.702518   -1.283715
  H     -0.210547    2.057629    0.911101
  H     -0.114893    2.043330   -0.923829
  H     -0.144409   -0.134556    2.154315
  H     -1.466022   -0.942815    1.310847
  H      1.480199   -1.777232    1.412209
  H      0.144224   -2.675076    2.124597
  H      1.031100   -3.599364   -0.145423
  H     -1.261983   -3.950951   -1.194127
  H     -1.915604   -2.581767   -0.177999
  H     -1.388441   -0.550764   -1.564639
  H      0.277253   -0.241823   -2.064057

 Total Charge           Charge          ....    0
 Multiplicity           Mult            ....    1
 Number of Electrons    NEL             ....   68
 Basis Dimension        Dim             ....  345

ORBITAL ENERGIES
----------------

  NO   OCC          E(Eh)            E(eV)
   0   2.0000     -20.562489      -559.5338
   1   2.0000     -15.554879      -423.2698
   2   2.0000     -11.289849      -307.2124
   3   2.0000     -11.281502      -306.9853
   4   2.0000     -11.258771      -306.3667
   5   2.0000     -11.255630      -306.2813
   6   2.0000     -11.249393      -306.1115
   7   2.0000     -11.233592      -305.6816
   8   2.0000     -11.230017      -305.5843
   9   2.0000      -1.407584       -38.3023
  10   2.0000      -1.270554       -34.5735
  11   2.0000      -1.065431       -28.9919
  12   2.0000      -1.028788       -27.9947
  13   2.0000      -0.922413       -25.1001
  14   2.0000      -0.894916       -24.3519
  15   2.0000      -0.841891       -22.9090
  16   2.0000      -0.813514       -22.1368
  17   2.0000      -0.728696       -19.8288
  18   2.0000      -0.690164       -18.7803
  19   2.0000      -0.680647       -18.5213
  20   2.0000      -0.648893       -17.6573
  21   2.0000      -0.625909       -17.0319
  22   2.0000      -0.598469       -16.2852
  23   2.0000      -0.584895       -15.9158
  24   2.0000      -0.562373       -15.3029
  25   2.0000      -0.537852       -14.6357
  26   2.0000      -0.522211       -14.2101
  27   2.0000      -0.503964       -13.7136
  28   2.0000      -0.494062       -13.4441
  29   2.0000      -0.463652       -12.6166
  30   2.0000      -0.455191       -12.3864
  31   2.0000      -0.431411       -11.7393
  32   2.0000      -0.418746       -11.3947
  33   2.0000      -0.360041        -9.7972
  34   0.0000       0.139183         3.7874
  35   0.0000       0.155024         4.2184
  36   0.0000       0.167073         4.5463
  37   0.0000       0.174650         4.7525
  38   0.0000       0.187481         5.1016

MULLIKEN ATOMIC CHARGES
-----------------------
   0 C :   -0.088121
   1 O :   -0.342715
   2 C :    0.136373
   3 C :   -0.219694
   4 C :   -0.212308
   5 C :   -0.048183
   6 C :   -0.203935
   7 N :   -0.223357
   8 C :   -0.137647
   9 H :    0.112574
  10 H :    0.115431
  11 H :    0.131337
  12 H :    0.115923
  13 H :    0.131062
  14 H :    0.125695
  15 H :    0.117571
  16 H :    0.125029
  17 H :    0.113724
  18 H :    0.121074
  19 H :    0.130168
Sum of atomic charges:   -0.0000000

LOEWDIN ATOMIC CHARGES
----------------------
   0 C :   -0.248115
   1 O :    0.157767
   2 C :   -0.323351
   3 C :   -0.218621
   4 C :   -0.241499
   5 C :   -0.249251
   6 C :   -0.251338
   7 N :    0.114253
   8 C :   -0.241728
   9 H :    0.120922
  10 H :    0.122377
  11 H :    0.148320
  12 H :    0.142878
  13 H :    0.150061
  14 H :    0.143035
  15 H :    0.142536
  16 H :    0.123145
  17 H :    0.121811
  18 H :    0.140374
  19 H :    0.146423

  Mayer bond orders larger than 0.1
B(  0-C ,  1-O ) :   0.9161 B(  0-C ,  2-C ) :   0.9844 B(  0-C ,  9-H ) :   0.9003
B(  0-C , 10-H ) :   0.9123 B(  1-O ,  2-C ) :   0.8179 B(  2-C ,  3-C ) :   0.9069
B(  2-C ,  8-C ) :   0.9240 B(  3-C ,  4-C ) :   0.9235 B(  3-C , 11-H ) :   0.9267
B(  3-C , 12-H ) :   0.9350 B(  4-C ,  5-C ) :   0.9350 B(  4-C , 13-H ) :   0.9203
B(  4-C , 14-H ) :   0.9221 B(  5-C ,  6-C ) :   0.9372 B(  5-C ,  7-N ) :   0.9118
B(  5-C , 15-H ) :   0.9274 B(  6-C ,  7-N ) :   0.8900 B(  6-C , 16-H ) :   0.9222
B(  6-C , 17-H ) :   0.9162 B(  7-N ,  8-C ) :   0.9142 B(  8-C , 18-H ) :   0.9392
B(  8-C , 19-H ) :   0.9168

MP2 TOTAL ENERGY:     -402.416493960 Eh
FINAL SINGLE POINT ENERGY      -402.416493959640

DIPOLE MOMENT
-------------
                                X             Y             Z
Electronic contribution:      2.59252       1.38838      -1.82128
Nuclear contribution   :     -3.49385      -1.27324       2.33899
                        -----------------------------------------
Total Dipole Moment    :     -0.90133       0.11514       0.51771
                        -----------------------------------------
Magnitude (a.u.)       :      1.04579
Magnitude (Debye)      :      2.65820

                             ****ORCA TERMINATED NORMALLY****
TOTAL RUN TIME: 0 days 0 hours 19 minutes 51 seconds 778 msec
