                         Program Version 3.0.3 - RELEASE   -
|  1> ! RI-MP2 RIJK def2-TZVP def2-TZVP/C def2-TZVP/JK TIGHTSCF
|  2> % maxcore 2000
|  3> % mp2 density relaxed end
|  4> *xyz 0 1
|  5>  C        0.0273195179     1.4869038533    -0.0576332183
|  6>  C       -0.0066108903    -0.0282751167    -0.0095728180
|  7>  O        0.6819188720    -0.5134452018    -1.1733877092
|  8>  C        0.7360221374    -1.8454710894    -1.2903217731
|  9>  N        0.2487331620    -2.7437944622    -0.4680781297
| 10>  C        0.5738572952    -3.9597320852    -1.0427194116
| 11>  N        0.1309276917    -5.1402053326    -0.4365376503
| 12>  C        1.2621655353    -3.7825731916    -2.2116338030
| 13>  N        1.3578986597    -2.3898330989    -2.3586855896
| 14>  H        1.0573756442     1.8547271256    -0.0533631014
| 15>  H       -0.4680611091     1.8597239948    -0.9586658149
| 16>  H       -0.4893684872     1.8968171880     0.8151487716
| 17>  H        0.4865523608    -0.4205312802     0.8866157596
| 18>  H       -1.0312891499    -0.4155511406    -0.0136666779
| 19>  H       -0.0295703476    -4.9929268014     0.5517365846
| 20>  H        0.7605623968    -5.9195429535    -0.5736635876
| 21>  H        1.6695878361    -4.4628761379    -2.9381948013
| 22>  H        1.8033541251    -1.8819941896    -3.1021510999
| 23> *
| 24>
| 25>                          ****END OF INPUT****

CARTESIAN COORDINATES (ANGSTROEM)
---------------------------------
  C      0.027320    1.486904   -0.057633
  C     -0.006611   -0.028275   -0.009573
  O      0.681919   -0.513445   -1.173388
  C      0.736022   -1.845471   -1.290322
  N      0.248733   -2.743794   -0.468078
  C      0.573857   -3.959732   -1.042719
  N      0.130928   -5.140205   -0.436538
  C      1.262166   -3.782573   -2.211634
  N      1.357899   -2.389833   -2.358686
  H      1.057376    1.854727   -0.053363
  H     -0.468061    1.859724   -0.958666
  H     -0.489368    1.896817    0.815149
  H      0.486552   -0.420531    0.886616
  H     -1.031289   -0.415551   -0.013667
  H     -0.029570   -4.992927    0.551737
  H      0.760562   -5.919543   -0.573664
  H      1.669588   -4.462876   -2.938195
  H      1.803354   -1.881994   -3.102151

 Total Charge           Charge          ....    0
 Multiplicity           Mult            ....    1
 Number of Electrons    NEL             ....   68
 Basis Dimension        Dim             ....  333

ORBITAL ENERGIES
----------------

  NO   OCC          E(Eh)            E(eV)
   0   2.0000     -20.595862      -560.4419
   1   2.0000     -15.598732      -424.4631
   2   2.0000     -15.549870      -423.1335
   3   2.0000     -15.528182      -422.5433
   4   2.0000     -11.353230      -308.9371
   5   2.0000     -11.285481      -307.0936
   6   2.0000     -11.278310      -306.8984
   7   2.0000     -11.229449      -305.5688
   8   2.0000     -11.222706      -305.3854
   9   2.0000      -1.438042       -39.1311
  10   2.0000      -1.318456       -35.8770
  11   2.0000      -1.204354       -32.7721
  12   2.0000      -1.141662       -31.0662
  13   2.0000      -1.038775       -28.2665
  14   2.0000      -0.961908       -26.1749
  15   2.0000      -0.864988       -23.5375
  16   2.0000      -0.814306       -22.1584
  17   2.0000      -0.779740       -21.2178
  18   2.0000      -0.751999       -20.4629
  19   2.0000      -0.681264       -18.5381
  20   2.0000      -0.681110       -18.5340
  21   2.0000      -0.631593       -17.1865
  22   2.0000      -0.622003       -16.9256
  23   2.0000      -0.605273       -16.4703
  24   2.0000      -0.591222       -16.0880
  25   2.0000      -0.558139       -15.1877
  26   2.0000      -0.542866       -14.7721
  27   2.0000      -0.540598       -14.7104
  28   2.0000      -0.509283       -13.8583
  29   2.0000      -0.486859       -13.2481
  30   2.0000      -0.459425       -12.5016
  31   2.0000      -0.440064       -11.9747
  32   2.0000      -0.379308       -10.3215
  33   2.0000      -0.275785        -7.5045
  34   0.0000       0.138328         3.7641
  35   0.0000       0.147677         4.0185
  36   0.0000       0.149451         4.0668
  37   0.0000       0.186844         5.0843
  38   0.0000       0.194247         5.2857

MULLIKEN ATOMIC CHARGES
-----------------------
   0 C :   -0.357863
   1 C :   -0.046660
   2 O :   -0.282322
   3 C :    0.357200
   4 N :   -0.373239
   5 C :    0.181469
   6 N :   -0.526185
   7 C :   -0.192817
   8 N :   -0.273513
   9 H :    0.130306
  10 H :    0.131142
  11 H :    0.129542
  12 H :    0.115229
  13 H :    0.119360
  14 H :    0.251864
  15 H :    0.240292
  16 H :    0.145039
  17 H :    0.251157
Sum of atomic charges:    0.0000000

LOEWDIN ATOMIC CHARGES
----------------------
   0 C :   -0.316395
   1 C :   -0.306258
   2 O :    0.240593
   3 C :   -0.455096
   4 N :    0.091501
   5 C :   -0.368667
   6 N :   -0.096430
   7 C :   -0.256058
   8 N :    0.178823
   9 H :    0.124193
  10 H :    0.124471
  11 H :    0.127929
  12 H :    0.126888
  13 H :    0.127942
  14 H :    0.169758
  15 H :    0.164482
  16 H :    0.129846
  17 H :    0.192476

  Mayer bond orders larger than 0.1
B(  0-C ,  1-C ) :   0.9365 B(  0-C ,  9-H ) :   0.9346 B(  0-C , 10-H ) :   0.9346
B(  0-C , 11-H ) :   0.9344 B(  1-C ,  2-O ) :   0.8324 B(  1-C , 12-H ) :   0.9300
B(  1-C , 13-H ) :   0.9307 B(  2-O ,  3-C ) :   1.1193 B(  3-C ,  4-N ) :   1.4841
B(  3-C ,  8-N ) :   1.2130 B(  4-N ,  5-C ) :   1.2421 B(  5-C ,  6-N ) :   1.0269
B(  5-C ,  7-C ) :   1.5677 B(  6-N , 14-H ) :   0.8752 B(  6-N , 15-H ) :   0.8836
B(  7-C ,  8-N ) :   1.0328 B(  7-C , 16-H ) :   0.9082 B(  8-N , 17-H ) :   0.8652

MP2 TOTAL ENERGY:     -434.580582902 Eh
FINAL SINGLE POINT ENERGY      -434.580582901751

DIPOLE MOMENT
-------------
                                X             Y             Z
Electronic contribution:      1.80578      -5.45237      -3.49294
Nuclear contribution   :     -1.13133       5.71156       3.26357
                        -----------------------------------------
Total Dipole Moment    :      0.67446       0.25919      -0.22938
                        -----------------------------------------
Magnitude (a.u.)       :      0.75808
Magnitude (Debye)      :      1.92688

                             ****ORCA TERMINATED NORMALLY****
TOTAL RUN TIME: 0 days 0 hours 14 minutes 48 seconds 192 msec
