                         Program Version 3.0.3 - RELEASE   -
|  1> ! RI-MP2 RIJK def2-TZVP def2-TZVP/C def2-TZVP/JK TIGHTSCF
|  2> % maxcore 2000
|  3> % mp2 density relaxed end
|  4> *xyz 0 1
|  5>  C        0.2752819287     0.9481817218     0.4447042112
|  6>  O       -0.4381876302     0.0819653122    -0.4211185841
|  7>  C        0.3697318771    -0.5282978812    -1.3690858136
|  8>  C        1.4004352052    -1.5640981204    -1.0089875003
|  9>  O        1.0226167717    -2.2654637967     0.1719600179
| 10>  C       -0.1871070196    -2.7381515312    -0.4792118580
| 11>  C        0.1264248849    -1.9605788422    -1.7607795842
| 12>  C       -0.1517540644    -2.4378161606    -3.1560700976
| 13>  H        1.0387842273     0.3999077997     1.0102485636
| 14>  H        0.7580943102     1.7672305145    -0.1091505764
| 15>  H       -0.4528978295     1.3744873683     1.1386854049
| 16>  H        0.6652542243     0.1124735318    -2.2051734296
| 17>  H        2.4522673024    -1.5441018651    -1.2760111270
| 18>  H       -0.1443184517    -3.8247928036    -0.6166633137
| 19>  H       -1.0914833562    -2.4559914876     0.0679981413
| 20>  H       -1.2248278334    -2.3997293758    -3.3794213039
| 21>  H        0.3591838424    -1.8143417414    -3.8962594769
| 22>  H        0.1839018910    -3.4708688125    -3.2996339636
| 23> *
| 24>
| 25>                          ****END OF INPUT****

CARTESIAN COORDINATES (ANGSTROEM)
---------------------------------
  C      0.275282    0.948182    0.444704
  O     -0.438188    0.081965   -0.421119
  C      0.369732   -0.528298   -1.369086
  C      1.400435   -1.564098   -1.008988
  O      1.022617   -2.265464    0.171960
  C     -0.187107   -2.738152   -0.479212
  C      0.126425   -1.960579   -1.760780
  C     -0.151754   -2.437816   -3.156070
  H      1.038784    0.399908    1.010249
  H      0.758094    1.767231   -0.109151
  H     -0.452898    1.374487    1.138685
  H      0.665254    0.112474   -2.205173
  H      2.452267   -1.544102   -1.276011
  H     -0.144318   -3.824793   -0.616663
  H     -1.091483   -2.455991    0.067998
  H     -1.224828   -2.399729   -3.379421
  H      0.359184   -1.814342   -3.896259
  H      0.183902   -3.470869   -3.299634

 Total Charge           Charge          ....    0
 Multiplicity           Mult            ....    1
 Number of Electrons    NEL             ....   62
 Basis Dimension        Dim             ....  308

ORBITAL ENERGIES
----------------

  NO   OCC          E(Eh)            E(eV)
   0   2.0000     -20.559015      -559.4392
   1   2.0000     -20.552650      -559.2660
   2   2.0000     -11.285643      -307.0979
   3   2.0000     -11.284263      -307.0604
   4   2.0000     -11.279152      -306.9213
   5   2.0000     -11.266801      -306.5852
   6   2.0000     -11.243922      -305.9627
   7   2.0000     -11.229308      -305.5650
   8   2.0000      -1.403145       -38.1815
   9   2.0000      -1.368151       -37.2293
  10   2.0000      -1.121075       -30.5060
  11   2.0000      -0.984831       -26.7986
  12   2.0000      -0.933052       -25.3896
  13   2.0000      -0.923198       -25.1215
  14   2.0000      -0.798647       -21.7323
  15   2.0000      -0.745824       -20.2949
  16   2.0000      -0.696317       -18.9478
  17   2.0000      -0.674156       -18.3447
  18   2.0000      -0.645590       -17.5674
  19   2.0000      -0.621591       -16.9144
  20   2.0000      -0.609067       -16.5735
  21   2.0000      -0.580772       -15.8036
  22   2.0000      -0.568660       -15.4740
  23   2.0000      -0.559568       -15.2266
  24   2.0000      -0.556208       -15.1352
  25   2.0000      -0.506149       -13.7730
  26   2.0000      -0.485531       -13.2120
  27   2.0000      -0.464221       -12.6321
  28   2.0000      -0.445565       -12.1244
  29   2.0000      -0.396015       -10.7761
  30   2.0000      -0.367248        -9.9933
  31   0.0000       0.137912         3.7528
  32   0.0000       0.153971         4.1898
  33   0.0000       0.176476         4.8022
  34   0.0000       0.187098         5.0912
  35   0.0000       0.191966         5.2237

MULLIKEN ATOMIC CHARGES
-----------------------
   0 C :   -0.210546
   1 O :   -0.313344
   2 C :    0.013915
   3 C :    0.055396
   4 O :   -0.340429
   5 C :    0.000915
   6 C :   -0.037979
   7 C :   -0.401685
   8 H :    0.135767
   9 H :    0.107810
  10 H :    0.136623
  11 H :    0.100202
  12 H :    0.127438
  13 H :    0.104346
  14 H :    0.113534
  15 H :    0.142298
  16 H :    0.130293
  17 H :    0.135443
Sum of atomic charges:    0.0000000

LOEWDIN ATOMIC CHARGES
----------------------
   0 C :   -0.340943
   1 O :    0.173970
   2 C :   -0.284835
   3 C :   -0.225651
   4 O :    0.147814
   5 C :   -0.212048
   6 C :   -0.220490
   7 C :   -0.275486
   8 H :    0.109469
   9 H :    0.101563
  10 H :    0.112721
  11 H :    0.144773
  12 H :    0.128844
  13 H :    0.125128
  14 H :    0.124400
  15 H :    0.131958
  16 H :    0.130499
  17 H :    0.128311

  Mayer bond orders larger than 0.1
B(  0-C ,  1-O ) :   0.8898 B(  0-C ,  8-H ) :   0.9344 B(  0-C ,  9-H ) :   0.9336
B(  0-C , 10-H ) :   0.9412 B(  1-O ,  2-C ) :   0.9987 B(  2-C ,  3-C ) :   0.8746
B(  2-C ,  6-C ) :   0.8816 B(  2-C , 11-H ) :   0.9443 B(  3-C ,  4-O ) :   0.9450
B(  3-C ,  6-C ) :   0.8889 B(  3-C , 12-H ) :   0.9139 B(  4-O ,  5-C ) :   0.9237
B(  5-C ,  6-C ) :   0.9769 B(  5-C , 13-H ) :   0.9119 B(  5-C , 14-H ) :   0.9106
B(  6-C ,  7-C ) :   0.8852 B(  7-C , 15-H ) :   0.9353 B(  7-C , 16-H ) :   0.9331
B(  7-C , 17-H ) :   0.9416

MP2 TOTAL ENERGY:     -384.240357412 Eh
FINAL SINGLE POINT ENERGY      -384.240357412020

DIPOLE MOMENT
-------------
                                X             Y             Z
Electronic contribution:      0.54973      -0.80633       2.52299
Nuclear contribution   :     -0.40233       0.91127      -3.16071
                        -----------------------------------------
Total Dipole Moment    :      0.14741       0.10495      -0.63772
                        -----------------------------------------
Magnitude (a.u.)       :      0.66290
Magnitude (Debye)      :      1.68495

                             ****ORCA TERMINATED NORMALLY****
TOTAL RUN TIME: 0 days 0 hours 11 minutes 29 seconds 459 msec
