                         Program Version 3.0.3 - RELEASE   -
|  1> ! RI-MP2 RIJK def2-TZVP def2-TZVP/C def2-TZVP/JK TIGHTSCF
|  2> % maxcore 2000
|  3> % mp2 density relaxed end
|  4> *xyz 0 1
|  5>  C       -0.0714427397     1.5233513482     0.0460086505
|  6>  C        0.0264390632     0.0075621939     0.0294666650
|  7>  C        0.8851429974    -0.7063201261    -1.0694965670
|  8>  C        1.1330448718    -1.8110293193    -0.0021163871
|  9>  C        0.9485786272    -0.7018231303     1.0643188299
| 10>  C       -0.0494504924    -2.7902428338     0.0265892630
| 11>  N       -1.3685662607    -2.1348508714    -0.0871975577
| 12>  C       -1.9281426210    -1.4491538668     1.0814103921
| 13>  C       -1.3419835016    -0.6646060778    -0.0370635422
| 14>  H        0.9245481283     1.9785996721     0.0404454718
| 15>  H       -0.6154104895     1.8970345186    -0.8292409049
| 16>  H       -0.5987470774     1.8771052732     0.9395694666
| 17>  H        0.3857596392    -0.9877058678    -2.0014303718
| 18>  H        1.7991400258    -0.1487621797    -1.2935593559
| 19>  H        2.0809543046    -2.3543353892    -0.0314843862
| 20>  H        1.8683333071    -0.1251227313     1.2028175993
| 21>  H        0.5561829384    -0.9686294061     2.0483201704
| 22>  H        0.0388115862    -3.4784579368    -0.8238163084
| 23>  H       -0.0192992847    -3.4027959953     0.9367400364
| 24>  H       -3.0085705470    -1.5294257662     1.1795092295
| 25>  H       -1.3948565174    -1.4954081413     2.0270737747
| 26>  H       -2.0218513777    -0.1889868066    -0.7456373778
| 27> *
| 28>
| 29>                          ****END OF INPUT****

CARTESIAN COORDINATES (ANGSTROEM)
---------------------------------
  C     -0.071443    1.523351    0.046009
  C      0.026439    0.007562    0.029467
  C      0.885143   -0.706320   -1.069497
  C      1.133045   -1.811029   -0.002116
  C      0.948579   -0.701823    1.064319
  C     -0.049450   -2.790243    0.026589
  N     -1.368566   -2.134851   -0.087198
  C     -1.928143   -1.449154    1.081410
  C     -1.341984   -0.664606   -0.037064
  H      0.924548    1.978600    0.040445
  H     -0.615410    1.897035   -0.829241
  H     -0.598747    1.877105    0.939569
  H      0.385760   -0.987706   -2.001430
  H      1.799140   -0.148762   -1.293559
  H      2.080954   -2.354335   -0.031484
  H      1.868333   -0.125123    1.202818
  H      0.556183   -0.968629    2.048320
  H      0.038812   -3.478458   -0.823816
  H     -0.019299   -3.402796    0.936740
  H     -3.008571   -1.529426    1.179509
  H     -1.394857   -1.495408    2.027074
  H     -2.021851   -0.188987   -0.745637

 Total Charge           Charge          ....    0
 Multiplicity           Mult            ....    1
 Number of Electrons    NEL             ....   68
 Basis Dimension        Dim             ....  357

ORBITAL ENERGIES
----------------

  NO   OCC          E(Eh)            E(eV)
   0   2.0000     -15.546986      -423.0550
   1   2.0000     -11.251405      -306.1663
   2   2.0000     -11.246290      -306.0271
   3   2.0000     -11.245422      -306.0035
   4   2.0000     -11.239534      -305.8433
   5   2.0000     -11.228381      -305.5398
   6   2.0000     -11.219710      -305.3038
   7   2.0000     -11.218686      -305.2760
   8   2.0000     -11.215075      -305.1777
   9   2.0000      -1.270079       -34.5606
  10   2.0000      -1.138298       -30.9747
  11   2.0000      -1.031711       -28.0743
  12   2.0000      -0.953887       -25.9566
  13   2.0000      -0.903094       -24.5744
  14   2.0000      -0.856439       -23.3049
  15   2.0000      -0.836168       -22.7533
  16   2.0000      -0.788032       -21.4434
  17   2.0000      -0.709492       -19.3063
  18   2.0000      -0.667075       -18.1520
  19   2.0000      -0.632785       -17.2190
  20   2.0000      -0.618401       -16.8276
  21   2.0000      -0.601882       -16.3780
  22   2.0000      -0.584502       -15.9051
  23   2.0000      -0.568115       -15.4592
  24   2.0000      -0.549149       -14.9431
  25   2.0000      -0.530182       -14.4270
  26   2.0000      -0.512103       -13.9350
  27   2.0000      -0.493269       -13.4225
  28   2.0000      -0.477746       -13.0001
  29   2.0000      -0.447737       -12.1835
  30   2.0000      -0.435086       -11.8393
  31   2.0000      -0.421223       -11.4621
  32   2.0000      -0.405590       -11.0367
  33   2.0000      -0.353111        -9.6086
  34   0.0000       0.137411         3.7391
  35   0.0000       0.151607         4.1254
  36   0.0000       0.168218         4.5775
  37   0.0000       0.176233         4.7955
  38   0.0000       0.190475         5.1831

MULLIKEN ATOMIC CHARGES
-----------------------
   0 C :   -0.407354
   1 C :    0.230292
   2 C :   -0.323209
   3 C :    0.003292
   4 C :   -0.337657
   5 C :   -0.179077
   6 N :   -0.225079
   7 C :   -0.168788
   8 C :   -0.157943
   9 H :    0.126938
  10 H :    0.132008
  11 H :    0.135359
  12 H :    0.125660
  13 H :    0.116940
  14 H :    0.113824
  15 H :    0.116723
  16 H :    0.113616
  17 H :    0.120877
  18 H :    0.119899
  19 H :    0.120280
  20 H :    0.112016
  21 H :    0.111383
Sum of atomic charges:    0.0000000

LOEWDIN ATOMIC CHARGES
----------------------
   0 C :   -0.271658
   1 C :   -0.261942
   2 C :   -0.170598
   3 C :   -0.224847
   4 C :   -0.179592
   5 C :   -0.260399
   6 N :    0.113613
   7 C :   -0.243813
   8 C :   -0.212456
   9 H :    0.125384
  10 H :    0.127416
  11 H :    0.128682
  12 H :    0.131909
  13 H :    0.136883
  14 H :    0.137398
  15 H :    0.140570
  16 H :    0.123101
  17 H :    0.135815
  18 H :    0.132809
  19 H :    0.124102
  20 H :    0.122272
  21 H :    0.145352

  Mayer bond orders larger than 0.1
B(  0-C ,  1-C ) :   0.8671 B(  0-C ,  9-H ) :   0.9365 B(  0-C , 10-H ) :   0.9399
B(  0-C , 11-H ) :   0.9399 B(  1-C ,  2-C ) :   0.8841 B(  1-C ,  4-C ) :   0.8931
B(  1-C ,  8-C ) :   0.8936 B(  2-C ,  3-C ) :   0.9101 B(  2-C , 12-H ) :   0.9158
B(  2-C , 13-H ) :   0.9181 B(  3-C ,  4-C ) :   0.9120 B(  3-C ,  5-C ) :   0.9188
B(  3-C , 14-H ) :   0.9192 B(  4-C , 15-H ) :   0.9169 B(  4-C , 16-H ) :   0.9255
B(  5-C ,  6-N ) :   0.9210 B(  5-C , 17-H ) :   0.9314 B(  5-C , 18-H ) :   0.9354
B(  6-N ,  7-C ) :   0.8991 B(  6-N ,  8-C ) :   0.9156 B(  7-C ,  8-C ) :   0.9573
B(  7-C , 19-H ) :   0.9248 B(  7-C , 20-H ) :   0.9066 B(  8-C , 21-H ) :   0.9160

MP2 TOTAL ENERGY:     -366.524795137 Eh
FINAL SINGLE POINT ENERGY      -366.524795136997

DIPOLE MOMENT
-------------
                                X             Y             Z
Electronic contribution:     -1.94591      -3.00090      -0.69046
Nuclear contribution   :      2.36008       3.30813       0.98644
                        -----------------------------------------
Total Dipole Moment    :      0.41417       0.30724       0.29597
                        -----------------------------------------
Magnitude (a.u.)       :      0.59458
Magnitude (Debye)      :      1.51131

                             ****ORCA TERMINATED NORMALLY****
TOTAL RUN TIME: 0 days 0 hours 21 minutes 47 seconds 953 msec
