                         Program Version 3.0.3 - RELEASE   -
|  1> ! RI-MP2 RIJK def2-TZVP def2-TZVP/C def2-TZVP/JK TIGHTSCF
|  2> % maxcore 2000
|  3> % mp2 density relaxed end
|  4> *xyz 0 1
|  5>  C       -0.0922359766     1.5572113654    -0.1920648782
|  6>  C        0.0090594438     0.0407123533    -0.0852527707
|  7>  C        1.2039098701    -0.5780345092    -0.8695225014
|  8>  C        2.0122135012    -0.6603219919     0.4510024361
|  9>  C        0.6746452433    -0.4915844888     1.2415328470
| 10>  C        0.6596586282     0.3217779773     2.4390499206
| 11>  C        0.6525162753     1.0065392658     3.4309782179
| 12>  C        0.6621400173     1.8422708034     4.6238740152
| 13>  O       -0.2164863866     1.2969264420     5.6029066419
| 14>  H        0.8724245777     2.0402605120    -0.0025944671
| 15>  H       -0.4208960028     1.8478097965    -1.1957524826
| 16>  H       -0.8077313087     1.9572626924     0.5326910858
| 17>  H       -0.9664807072    -0.4076561898    -0.2942952969
| 18>  H        0.9687408448    -1.5670355179    -1.2722728308
| 19>  H        1.6256678643     0.0315318475    -1.6727181221
| 20>  H        2.5842089132    -1.5696107348     0.6468667519
| 21>  H        2.6681476188     0.2014225679     0.5926906355
| 22>  H        0.2632094657    -1.4802732241     1.4734017917
| 23>  H        1.6930959711     1.9077019804     5.0096700637
| 24>  H        0.3619968397     2.8672845294     4.3498050667
| 25>  H       -0.1781209624     1.8733710330     6.3730250757
| 26> *
| 27>
| 28>                          ****END OF INPUT****

CARTESIAN COORDINATES (ANGSTROEM)
---------------------------------
  C     -0.092236    1.557211   -0.192065
  C      0.009059    0.040712   -0.085253
  C      1.203910   -0.578035   -0.869523
  C      2.012214   -0.660322    0.451002
  C      0.674645   -0.491584    1.241533
  C      0.659659    0.321778    2.439050
  C      0.652516    1.006539    3.430978
  C      0.662140    1.842271    4.623874
  O     -0.216486    1.296926    5.602907
  H      0.872425    2.040261   -0.002594
  H     -0.420896    1.847810   -1.195752
  H     -0.807731    1.957263    0.532691
  H     -0.966481   -0.407656   -0.294295
  H      0.968741   -1.567036   -1.272273
  H      1.625668    0.031532   -1.672718
  H      2.584209   -1.569611    0.646867
  H      2.668148    0.201423    0.592691
  H      0.263209   -1.480273    1.473402
  H      1.693096    1.907702    5.009670
  H      0.361997    2.867285    4.349805
  H     -0.178121    1.873371    6.373025

 Total Charge           Charge          ....    0
 Multiplicity           Mult            ....    1
 Number of Electrons    NEL             ....   68
 Basis Dimension        Dim             ....  351

ORBITAL ENERGIES
----------------

  NO   OCC          E(Eh)            E(eV)
   0   2.0000     -20.562493      -559.5339
   1   2.0000     -11.303045      -307.5715
   2   2.0000     -11.245322      -306.0008
   3   2.0000     -11.231587      -305.6270
   4   2.0000     -11.224995      -305.4476
   5   2.0000     -11.220213      -305.3175
   6   2.0000     -11.219329      -305.2935
   7   2.0000     -11.213498      -305.1348
   8   2.0000     -11.210586      -305.0555
   9   2.0000      -1.365796       -37.1652
  10   2.0000      -1.142474       -31.0883
  11   2.0000      -1.042814       -28.3764
  12   2.0000      -0.979574       -26.6556
  13   2.0000      -0.957203       -26.0468
  14   2.0000      -0.890933       -24.2435
  15   2.0000      -0.853202       -23.2168
  16   2.0000      -0.751066       -20.4376
  17   2.0000      -0.708584       -19.2816
  18   2.0000      -0.670264       -18.2388
  19   2.0000      -0.662784       -18.0353
  20   2.0000      -0.641720       -17.4621
  21   2.0000      -0.633238       -17.2313
  22   2.0000      -0.583542       -15.8790
  23   2.0000      -0.557029       -15.1575
  24   2.0000      -0.545977       -14.8568
  25   2.0000      -0.530464       -14.4347
  26   2.0000      -0.523488       -14.2448
  27   2.0000      -0.493587       -13.4312
  28   2.0000      -0.467790       -12.7292
  29   2.0000      -0.459930       -12.5153
  30   2.0000      -0.452943       -12.3252
  31   2.0000      -0.437169       -11.8960
  32   2.0000      -0.367159        -9.9909
  33   2.0000      -0.355695        -9.6790
  34   0.0000       0.124115         3.3773
  35   0.0000       0.140756         3.8302
  36   0.0000       0.154594         4.2067
  37   0.0000       0.162322         4.4170
  38   0.0000       0.174129         4.7383

MULLIKEN ATOMIC CHARGES
-----------------------
   0 C :   -0.442895
   1 C :    0.007348
   2 C :   -0.221477
   3 C :   -0.247287
   4 C :   -0.201004
   5 C :    0.031162
   6 C :    0.053727
   7 C :   -0.201224
   8 O :   -0.444307
   9 H :    0.129011
  10 H :    0.132139
  11 H :    0.139433
  12 H :    0.103799
  13 H :    0.116789
  14 H :    0.113769
  15 H :    0.119447
  16 H :    0.123943
  17 H :    0.122994
  18 H :    0.125623
  19 H :    0.125117
  20 H :    0.313891
Sum of atomic charges:   -0.0000000

LOEWDIN ATOMIC CHARGES
----------------------
   0 C :   -0.292703
   1 C :   -0.218901
   2 C :   -0.223543
   3 C :   -0.203298
   4 C :   -0.200561
   5 C :   -0.049737
   6 C :   -0.073609
   7 C :   -0.339961
   8 O :   -0.044282
   9 H :    0.126885
  10 H :    0.124211
  11 H :    0.127836
  12 H :    0.139288
  13 H :    0.133134
  14 H :    0.126390
  15 H :    0.124967
  16 H :    0.136840
  17 H :    0.169296
  18 H :    0.132630
  19 H :    0.132116
  20 H :    0.173001

  Mayer bond orders larger than 0.1
B(  0-C ,  1-C ) :   0.9134 B(  0-C ,  9-H ) :   0.9357 B(  0-C , 10-H ) :   0.9377
B(  0-C , 11-H ) :   0.9372 B(  1-C ,  2-C ) :   0.9154 B(  1-C ,  4-C ) :   0.9101
B(  1-C , 12-H ) :   0.9207 B(  2-C ,  3-C ) :   0.9397 B(  2-C , 13-H ) :   0.9248
B(  2-C , 14-H ) :   0.9216 B(  3-C ,  4-C ) :   0.9151 B(  3-C , 15-H ) :   0.9259
B(  3-C , 16-H ) :   0.9291 B(  4-C ,  5-C ) :   1.0899 B(  4-C ,  6-C ) :  -0.1253
B(  4-C , 17-H ) :   0.9056 B(  5-C ,  6-C ) :   2.7229 B(  6-C ,  7-C ) :   0.8874
B(  7-C ,  8-O ) :   1.1321 B(  7-C , 18-H ) :   0.9542 B(  7-C , 19-H ) :   0.9546
B(  8-O , 20-H ) :   0.8480

MP2 TOTAL ENERGY:     -386.361754684 Eh
FINAL SINGLE POINT ENERGY      -386.361754683578

DIPOLE MOMENT
-------------
                                X             Y             Z
Electronic contribution:     -1.01079      -0.84503       7.71061
Nuclear contribution   :      1.34290       1.34374      -7.78002
                        -----------------------------------------
Total Dipole Moment    :      0.33211       0.49871      -0.06942
                        -----------------------------------------
Magnitude (a.u.)       :      0.60318
Magnitude (Debye)      :      1.53317

                             ****ORCA TERMINATED NORMALLY****
TOTAL RUN TIME: 0 days 0 hours 18 minutes 15 seconds 213 msec
