                         Program Version 3.0.3 - RELEASE   -
|  1> ! RI-MP2 RIJK def2-TZVP def2-TZVP/C def2-TZVP/JK TIGHTSCF
|  2> % maxcore 2000
|  3> % mp2 density relaxed end
|  4> *xyz 0 1
|  5>  C       -0.0126551778     1.5260870133     0.0896388810
|  6>  C        0.0279627911     0.0112206839    -0.0136600749
|  7>  C        0.7692619742    -0.5029265529    -1.2579779296
|  8>  C        0.9448424164    -2.0042990424    -1.1513974000
|  9>  C       -0.0647911751    -2.9576602400    -1.7503694979
| 10>  C        1.3423992637    -2.8500949122    -2.3126545179
| 11>  O        1.5210512572    -2.3785576140     0.0788786614
| 12>  C        0.7675980004    -1.8786898003     1.1588126924
| 13>  O        0.6835105860    -0.4813079739     1.1579715134
| 14>  H        1.0024299103     1.9337686692     0.1187013510
| 15>  H       -0.5354890237     1.9544139855    -0.7710642390
| 16>  H       -0.5317137865     1.8330165891     1.0016451726
| 17>  H       -1.0015988143    -0.3880216967    -0.0303032515
| 18>  H        0.2185549008    -0.2395033005    -2.1670206521
| 19>  H        1.7551846999    -0.0244493563    -1.3054365036
| 20>  H       -0.3011563273    -3.8495338398    -1.1814295718
| 21>  H       -0.8877226589    -2.5539207986    -2.3307581215
| 22>  H        1.4839058174    -2.3691073733    -3.2745311876
| 23>  H        2.0236105535    -3.6672360654    -2.1047447761
| 24>  H       -0.2469259481    -2.3186586625     1.1376723420
| 25>  H        1.2907778708    -2.1704014023     2.0716603797
| 26> *
| 27>
| 28>                          ****END OF INPUT****

CARTESIAN COORDINATES (ANGSTROEM)
---------------------------------
  C     -0.012655    1.526087    0.089639
  C      0.027963    0.011221   -0.013660
  C      0.769262   -0.502927   -1.257978
  C      0.944842   -2.004299   -1.151397
  C     -0.064791   -2.957660   -1.750369
  C      1.342399   -2.850095   -2.312655
  O      1.521051   -2.378558    0.078879
  C      0.767598   -1.878690    1.158813
  O      0.683511   -0.481308    1.157972
  H      1.002430    1.933769    0.118701
  H     -0.535489    1.954414   -0.771064
  H     -0.531714    1.833017    1.001645
  H     -1.001599   -0.388022   -0.030303
  H      0.218555   -0.239503   -2.167021
  H      1.755185   -0.024449   -1.305437
  H     -0.301156   -3.849534   -1.181430
  H     -0.887723   -2.553921   -2.330758
  H      1.483906   -2.369107   -3.274531
  H      2.023611   -3.667236   -2.104745
  H     -0.246926   -2.318659    1.137672
  H      1.290778   -2.170401    2.071660

 Total Charge           Charge          ....    0
 Multiplicity           Mult            ....    1
 Number of Electrons    NEL             ....   70
 Basis Dimension        Dim             ....  351

ORBITAL ENERGIES
----------------

  NO   OCC          E(Eh)            E(eV)
   0   2.0000     -20.562105      -559.5233
   1   2.0000     -20.557720      -559.4040
   2   2.0000     -11.323678      -308.1329
   3   2.0000     -11.288926      -307.1873
   4   2.0000     -11.284367      -307.0632
   5   2.0000     -11.228475      -305.5423
   6   2.0000     -11.227565      -305.5176
   7   2.0000     -11.226222      -305.4810
   8   2.0000     -11.216913      -305.2277
   9   2.0000      -1.423328       -38.7307
  10   2.0000      -1.348281       -36.6886
  11   2.0000      -1.141936       -31.0737
  12   2.0000      -1.054834       -28.7035
  13   2.0000      -0.958920       -26.0935
  14   2.0000      -0.907580       -24.6965
  15   2.0000      -0.837899       -22.8004
  16   2.0000      -0.813709       -22.1421
  17   2.0000      -0.763870       -20.7860
  18   2.0000      -0.684581       -18.6284
  19   2.0000      -0.684078       -18.6147
  20   2.0000      -0.668646       -18.1948
  21   2.0000      -0.649812       -17.6823
  22   2.0000      -0.617170       -16.7940
  23   2.0000      -0.589945       -16.0532
  24   2.0000      -0.578554       -15.7432
  25   2.0000      -0.556937       -15.1550
  26   2.0000      -0.538511       -14.6536
  27   2.0000      -0.521309       -14.1855
  28   2.0000      -0.518858       -14.1189
  29   2.0000      -0.498396       -13.5620
  30   2.0000      -0.474972       -12.9246
  31   2.0000      -0.469013       -12.7625
  32   2.0000      -0.448454       -12.2031
  33   2.0000      -0.404104       -10.9962
  34   2.0000      -0.389533       -10.5997
  35   0.0000       0.136726         3.7205
  36   0.0000       0.154167         4.1951
  37   0.0000       0.162793         4.4298
  38   0.0000       0.177836         4.8392
  39   0.0000       0.194515         5.2930

MULLIKEN ATOMIC CHARGES
-----------------------
   0 C :   -0.366280
   1 C :    0.060752
   2 C :   -0.216861
   3 C :    0.222800
   4 C :   -0.323978
   5 C :   -0.272712
   6 O :   -0.294462
   7 C :    0.042694
   8 O :   -0.291576
   9 H :    0.131339
  10 H :    0.122606
  11 H :    0.140668
  12 H :    0.073611
  13 H :    0.119356
  14 H :    0.107592
  15 H :    0.132940
  16 H :    0.126368
  17 H :    0.130758
  18 H :    0.137201
  19 H :    0.085959
  20 H :    0.131226
Sum of atomic charges:    0.0000000

LOEWDIN ATOMIC CHARGES
----------------------
   0 C :   -0.289551
   1 C :   -0.337571
   2 C :   -0.205337
   3 C :   -0.344673
   4 C :   -0.214003
   5 C :   -0.201377
   6 O :    0.211318
   7 C :   -0.388531
   8 O :    0.179335
   9 H :    0.128011
  10 H :    0.126849
  11 H :    0.127780
  12 H :    0.137142
  13 H :    0.147883
  14 H :    0.149374
  15 H :    0.136698
  16 H :    0.131132
  17 H :    0.134663
  18 H :    0.140842
  19 H :    0.106646
  20 H :    0.123370

  Mayer bond orders larger than 0.1
B(  0-C ,  1-C ) :   0.9078 B(  0-C ,  9-H ) :   0.9370 B(  0-C , 10-H ) :   0.9334
B(  0-C , 11-H ) :   0.9390 B(  1-C ,  2-C ) :   0.9461 B(  1-C ,  8-O ) :   0.9280
B(  1-C , 12-H ) :   0.9326 B(  2-C ,  3-C ) :   0.9272 B(  2-C , 13-H ) :   0.9095
B(  2-C , 14-H ) :   0.8965 B(  3-C ,  4-C ) :   0.8758 B(  3-C ,  5-C ) :   0.8658
B(  3-C ,  6-O ) :   0.9756 B(  4-C ,  5-C ) :   0.9422 B(  4-C , 15-H ) :   0.9196
B(  4-C , 16-H ) :   0.9172 B(  5-C , 17-H ) :   0.9269 B(  5-C , 18-H ) :   0.9208
B(  6-O ,  7-C ) :   0.9666 B(  7-C ,  8-O ) :   0.9948 B(  7-C , 19-H ) :   0.9349
B(  7-C , 20-H ) :   0.9296

MP2 TOTAL ENERGY:     -423.518153512 Eh
FINAL SINGLE POINT ENERGY      -423.518153511687

DIPOLE MOMENT
-------------
                                X             Y             Z
Electronic contribution:      2.86357      -2.97780       3.20367
Nuclear contribution   :     -3.43948       3.07012      -3.68920
                        -----------------------------------------
Total Dipole Moment    :     -0.57590       0.09231      -0.48553
                        -----------------------------------------
Magnitude (a.u.)       :      0.75890
Magnitude (Debye)      :      1.92897

                             ****ORCA TERMINATED NORMALLY****
TOTAL RUN TIME: 0 days 0 hours 18 minutes 18 seconds 755 msec
