                         Program Version 3.0.3 - RELEASE   -
|  1> ! RI-MP2 RIJK def2-TZVP def2-TZVP/C def2-TZVP/JK TIGHTSCF
|  2> % maxcore 2000
|  3> % mp2 density relaxed end
|  4> *xyz 0 1
|  5>  C        0.2217657730     1.3220571734     0.3747761822
|  6>  C       -0.0467090578    -0.1446959713     0.0331734358
|  7>  C       -1.5370127044    -0.4613940352    -0.1143463974
|  8>  C       -1.8366892288    -1.9609246922    -0.2760267530
|  9>  O       -2.0828835772    -2.3892744583     1.0524766869
| 10>  C       -2.7215727257    -1.3086516486     1.7178997080
| 11>  C       -4.2444883230    -1.3917775595     1.5704428492
| 12>  C       -2.2767236797    -1.3122495839     3.1742400292
| 13>  O       -2.2533586094    -0.1182503416     1.0748961544
| 14>  H        1.2921054697     1.5094563200     0.5026704578
| 15>  H       -0.1410945832     1.9856589967    -0.4184659567
| 16>  H       -0.2899088023     1.5980313329     1.3003170351
| 17>  H        0.4526728962    -0.4096509148    -0.9083508759
| 18>  H        0.3717333055    -0.7985862215     0.8084287778
| 19>  H       -1.9568398674     0.1232133732    -0.9436675832
| 20>  H       -2.7095870257    -2.1311540036    -0.9229748723
| 21>  H       -0.9929225426    -2.5336876096    -0.6691192717
| 22>  H       -4.6275101716    -2.2890855974     2.0644273026
| 23>  H       -4.7135271822    -0.5125998328     2.0202496989
| 24>  H       -4.5282708700    -1.4251854753     0.5152892528
| 25>  H       -1.1878141995    -1.2518340128     3.2273005573
| 26>  H       -2.7065643762    -0.4557132191     3.6997246541
| 27>  H       -2.6056976278    -2.2296421185     3.6697769578
| 28> *
| 29>
| 30>                          ****END OF INPUT****

CARTESIAN COORDINATES (ANGSTROEM)
---------------------------------
  C      0.221766    1.322057    0.374776
  C     -0.046709   -0.144696    0.033173
  C     -1.537013   -0.461394   -0.114346
  C     -1.836689   -1.960925   -0.276027
  O     -2.082884   -2.389274    1.052477
  C     -2.721573   -1.308652    1.717900
  C     -4.244488   -1.391778    1.570443
  C     -2.276724   -1.312250    3.174240
  O     -2.253359   -0.118250    1.074896
  H      1.292105    1.509456    0.502670
  H     -0.141095    1.985659   -0.418466
  H     -0.289909    1.598031    1.300317
  H      0.452673   -0.409651   -0.908351
  H      0.371733   -0.798586    0.808429
  H     -1.956840    0.123213   -0.943668
  H     -2.709587   -2.131154   -0.922975
  H     -0.992923   -2.533688   -0.669119
  H     -4.627510   -2.289086    2.064427
  H     -4.713527   -0.512600    2.020250
  H     -4.528271   -1.425185    0.515289
  H     -1.187814   -1.251834    3.227301
  H     -2.706564   -0.455713    3.699725
  H     -2.605698   -2.229642    3.669777

 Total Charge           Charge          ....    0
 Multiplicity           Mult            ....    1
 Number of Electrons    NEL             ....   72
 Basis Dimension        Dim             ....  363

ORBITAL ENERGIES
----------------

  NO   OCC          E(Eh)            E(eV)
   0   2.0000     -20.559110      -559.4418
   1   2.0000     -20.550876      -559.2178
   2   2.0000     -11.333898      -308.4110
   3   2.0000     -11.280579      -306.9602
   4   2.0000     -11.278072      -306.8919
   5   2.0000     -11.221055      -305.3404
   6   2.0000     -11.212879      -305.1180
   7   2.0000     -11.211288      -305.0746
   8   2.0000     -11.209440      -305.0244
   9   2.0000      -1.431672       -38.9578
  10   2.0000      -1.325014       -36.0555
  11   2.0000      -1.084422       -29.5086
  12   2.0000      -1.024711       -27.8838
  13   2.0000      -0.958996       -26.0956
  14   2.0000      -0.940822       -25.6011
  15   2.0000      -0.866838       -23.5879
  16   2.0000      -0.804538       -21.8926
  17   2.0000      -0.780420       -21.2363
  18   2.0000      -0.690152       -18.7800
  19   2.0000      -0.669818       -18.2267
  20   2.0000      -0.647170       -17.6104
  21   2.0000      -0.615584       -16.7509
  22   2.0000      -0.600779       -16.3480
  23   2.0000      -0.581899       -15.8343
  24   2.0000      -0.573019       -15.5926
  25   2.0000      -0.546194       -14.8627
  26   2.0000      -0.536003       -14.5854
  27   2.0000      -0.530905       -14.4467
  28   2.0000      -0.518971       -14.1219
  29   2.0000      -0.514689       -14.0054
  30   2.0000      -0.506560       -13.7842
  31   2.0000      -0.499977       -13.6051
  32   2.0000      -0.481431       -13.1004
  33   2.0000      -0.466045       -12.6817
  34   2.0000      -0.425668       -11.5830
  35   2.0000      -0.408212       -11.1080
  36   0.0000       0.136158         3.7051
  37   0.0000       0.155198         4.2232
  38   0.0000       0.156717         4.2645
  39   0.0000       0.172151         4.6845
  40   0.0000       0.197157         5.3649

MULLIKEN ATOMIC CHARGES
-----------------------
   0 C :   -0.392638
   1 C :   -0.250748
   2 C :    0.108470
   3 C :   -0.070689
   4 O :   -0.319643
   5 C :    0.316089
   6 C :   -0.391190
   7 C :   -0.380078
   8 O :   -0.334163
   9 H :    0.131007
  10 H :    0.116896
  11 H :    0.143006
  12 H :    0.104885
  13 H :    0.122079
  14 H :    0.092403
  15 H :    0.100409
  16 H :    0.124454
  17 H :    0.129510
  18 H :    0.133398
  19 H :    0.122890
  20 H :    0.131610
  21 H :    0.129601
  22 H :    0.132444
Sum of atomic charges:    0.0000000

LOEWDIN ATOMIC CHARGES
----------------------
   0 C :   -0.318842
   1 C :   -0.279777
   2 C :   -0.312507
   3 C :   -0.289839
   4 O :    0.196087
   5 C :   -0.468319
   6 C :   -0.271764
   7 C :   -0.266826
   8 O :    0.206841
   9 H :    0.120125
  10 H :    0.120317
  11 H :    0.125532
  12 H :    0.137585
  13 H :    0.140627
  14 H :    0.140389
  15 H :    0.118615
  16 H :    0.132110
  17 H :    0.127763
  18 H :    0.129259
  19 H :    0.125303
  20 H :    0.127533
  21 H :    0.130046
  22 H :    0.129741

  Mayer bond orders larger than 0.1
B(  0-C ,  1-C ) :   0.9247 B(  0-C ,  9-H ) :   0.9399 B(  0-C , 10-H ) :   0.9365
B(  0-C , 11-H ) :   0.9366 B(  1-C ,  2-C ) :   0.9180 B(  1-C , 12-H ) :   0.9268
B(  1-C , 13-H ) :   0.9322 B(  2-C ,  3-C ) :   0.9151 B(  2-C ,  8-O ) :   0.9014
B(  2-C , 14-H ) :   0.9161 B(  3-C ,  4-O ) :   0.9420 B(  3-C , 15-H ) :   0.9328
B(  3-C , 16-H ) :   0.9192 B(  4-O ,  5-C ) :   0.9203 B(  5-C ,  6-C ) :   0.9366
B(  5-C ,  7-C ) :   0.9036 B(  5-C ,  8-O ) :   0.9209 B(  6-C , 17-H ) :   0.9345
B(  6-C , 18-H ) :   0.9366 B(  6-C , 19-H ) :   0.9252 B(  7-C , 20-H ) :   0.9391
B(  7-C , 21-H ) :   0.9328 B(  7-C , 22-H ) :   0.9350

MP2 TOTAL ENERGY:     -424.745867539 Eh
FINAL SINGLE POINT ENERGY      -424.745867538537

DIPOLE MOMENT
-------------
                                X             Y             Z
Electronic contribution:     -1.69721      -3.03837      -0.73546
Nuclear contribution   :      1.70407       3.02856       0.38169
                        -----------------------------------------
Total Dipole Moment    :      0.00686      -0.00981      -0.35377
                        -----------------------------------------
Magnitude (a.u.)       :      0.35397
Magnitude (Debye)      :      0.89972

                             ****ORCA TERMINATED NORMALLY****
TOTAL RUN TIME: 0 days 0 hours 31 minutes 25 seconds 362 msec
