                         Program Version 3.0.3 - RELEASE   -
|  1> ! RI-MP2 RIJK def2-TZVP def2-TZVP/C def2-TZVP/JK TIGHTSCF
|  2> % maxcore 2000
|  3> % mp2 density relaxed end
|  4> *xyz 0 1
|  5>  C        0.0130935901     1.5176668444     0.0025684003
|  6>  C        0.0035785967     0.0233716013    -0.0222519876
|  7>  C       -0.1349448721    -0.8134236732    -1.1172593546
|  8>  N       -0.0796661937    -2.0832516079    -0.6237474281
|  9>  C        0.0882468332    -1.9878197738     0.7359565194
| 10>  C        0.1849400395    -3.1898535274     1.5632378480
| 11>  O        0.3323431304    -3.2126606071     2.7605632142
| 12>  N        0.1401958084    -0.7198459459     1.1129490461
| 13>  H        0.9531778334     1.8941693855     0.4182039447
| 14>  H       -0.1086517873     1.9306414797    -1.0022030746
| 15>  H       -0.7950940766     1.9017175029     0.6331222307
| 16>  H       -0.2635181126    -0.6105905505    -2.1681143824
| 17>  H       -0.1491231430    -2.9348683480    -1.1574329507
| 18>  H        0.1076796637    -4.1331102400     0.9693426045
| 19> *
| 20>
| 21>                          ****END OF INPUT****

CARTESIAN COORDINATES (ANGSTROEM)
---------------------------------
  C      0.013094    1.517667    0.002568
  C      0.003579    0.023372   -0.022252
  C     -0.134945   -0.813424   -1.117259
  N     -0.079666   -2.083252   -0.623747
  C      0.088247   -1.987820    0.735957
  C      0.184940   -3.189854    1.563238
  O      0.332343   -3.212661    2.760563
  N      0.140196   -0.719846    1.112949
  H      0.953178    1.894169    0.418204
  H     -0.108652    1.930641   -1.002203
  H     -0.795094    1.901718    0.633122
  H     -0.263518   -0.610591   -2.168114
  H     -0.149123   -2.934868   -1.157433
  H      0.107680   -4.133110    0.969343

 Total Charge           Charge          ....    0
 Multiplicity           Mult            ....    1
 Number of Electrons    NEL             ....   58
 Basis Dimension        Dim             ....  284

ORBITAL ENERGIES
----------------

  NO   OCC          E(Eh)            E(eV)
   0   2.0000     -20.562770      -559.5414
   1   2.0000     -15.643915      -425.6926
   2   2.0000     -15.564693      -423.5368
   3   2.0000     -11.346093      -308.7429
   4   2.0000     -11.309172      -307.7382
   5   2.0000     -11.278362      -306.8998
   6   2.0000     -11.266451      -306.5757
   7   2.0000     -11.227756      -305.5228
   8   2.0000      -1.401023       -38.1238
   9   2.0000      -1.359657       -36.9981
  10   2.0000      -1.190898       -32.4060
  11   2.0000      -1.060757       -28.8647
  12   2.0000      -0.973047       -26.4779
  13   2.0000      -0.898202       -24.4413
  14   2.0000      -0.815914       -22.2021
  15   2.0000      -0.797031       -21.6883
  16   2.0000      -0.729465       -19.8497
  17   2.0000      -0.668293       -18.1852
  18   2.0000      -0.647935       -17.6312
  19   2.0000      -0.632668       -17.2158
  20   2.0000      -0.617087       -16.7918
  21   2.0000      -0.567572       -15.4444
  22   2.0000      -0.562296       -15.3008
  23   2.0000      -0.544156       -14.8072
  24   2.0000      -0.531512       -14.4632
  25   2.0000      -0.453493       -12.3402
  26   2.0000      -0.440791       -11.9945
  27   2.0000      -0.411670       -11.2021
  28   2.0000      -0.325914        -8.8686
  29   0.0000       0.072868         1.9829
  30   0.0000       0.112286         3.0555
  31   0.0000       0.146774         3.9939
  32   0.0000       0.169044         4.5999
  33   0.0000       0.177316         4.8250

MULLIKEN ATOMIC CHARGES
-----------------------
   0 C :   -0.409200
   1 C :    0.115742
   2 C :   -0.095168
   3 N :   -0.263903
   4 C :    0.262124
   5 C :   -0.005202
   6 O :   -0.247515
   7 N :   -0.262131
   8 H :    0.150164
   9 H :    0.129646
  10 H :    0.150155
  11 H :    0.157870
  12 H :    0.257160
  13 H :    0.060259
Sum of atomic charges:   -0.0000000

LOEWDIN ATOMIC CHARGES
----------------------
   0 C :   -0.269876
   1 C :   -0.274035
   2 C :   -0.203649
   3 N :    0.214820
   4 C :   -0.329150
   5 C :   -0.297705
   6 O :    0.145854
   7 N :    0.165921
   8 H :    0.136147
   9 H :    0.129174
  10 H :    0.136144
  11 H :    0.138617
  12 H :    0.198667
  13 H :    0.109071

  Mayer bond orders larger than 0.1
B(  0-C ,  1-C ) :   0.8817 B(  0-C ,  8-H ) :   0.9332 B(  0-C ,  9-H ) :   0.9513
B(  0-C , 10-H ) :   0.9332 B(  1-C ,  2-C ) :   1.4370 B(  1-C ,  7-N ) :   1.3021
B(  2-C ,  3-N ) :   1.1706 B(  2-C , 11-H ) :   0.8991 B(  3-N ,  4-C ) :   1.1024
B(  3-N , 12-H ) :   0.8617 B(  4-C ,  5-C ) :   0.7920 B(  4-C ,  6-O ) :  -0.1139
B(  4-C ,  7-N ) :   1.4858 B(  4-C , 13-H ) :  -0.1407 B(  5-C ,  6-O ) :   2.0533
B(  5-C , 13-H ) :   1.0125

MP2 TOTAL ENERGY:     -378.134089486 Eh
FINAL SINGLE POINT ENERGY      -378.134089486302

DIPOLE MOMENT
-------------
                                X             Y             Z
Electronic contribution:      0.35029      -5.81033       3.04752
Nuclear contribution   :     -0.63340       5.60742      -5.33838
                        -----------------------------------------
Total Dipole Moment    :     -0.28312      -0.20291      -2.29086
                        -----------------------------------------
Magnitude (a.u.)       :      2.31719
Magnitude (Debye)      :      5.88983

                             ****ORCA TERMINATED NORMALLY****
TOTAL RUN TIME: 0 days 0 hours 9 minutes 56 seconds 923 msec
