                         Program Version 3.0.3 - RELEASE   -
|  1> ! RI-MP2 RIJK def2-TZVP def2-TZVP/C def2-TZVP/JK TIGHTSCF
|  2> % maxcore 2000
|  3> % mp2 density relaxed end
|  4> *xyz 0 1
|  5>  C        0.1528949621     1.5193984256     0.0590060822
|  6>  C       -0.0179232879     0.0523037759     0.0386348022
|  7>  C       -1.0871718004    -0.7509804834    -0.0898001336
|  8>  O       -0.6687822368    -2.0753156318    -0.0397627879
|  9>  C        0.6860044469    -2.0631558124     0.1225132132
| 10>  O        1.3966103755    -3.0050328755     0.2077730884
| 11>  O        1.0905748738    -0.7420338494     0.1714632141
| 12>  C       -2.4526344361    -0.4540603223    -0.2531441172
| 13>  N       -3.5708787659    -0.1830249190    -0.3875017489
| 14>  H        0.8138531591     1.8409142357    -0.7527874578
| 15>  H       -0.8154518823     2.0095765936    -0.0564108919
| 16>  H        0.6053848618     1.8401927931     1.0031940170
| 17> *
| 18>
| 19>                          ****END OF INPUT****

CARTESIAN COORDINATES (ANGSTROEM)
---------------------------------
  C      0.152895    1.519398    0.059006
  C     -0.017923    0.052304    0.038635
  C     -1.087172   -0.750980   -0.089800
  O     -0.668782   -2.075316   -0.039763
  C      0.686004   -2.063156    0.122513
  O      1.396610   -3.005033    0.207773
  O      1.090575   -0.742034    0.171463
  C     -2.452634   -0.454060   -0.253144
  N     -3.570879   -0.183025   -0.387502
  H      0.813853    1.840914   -0.752787
  H     -0.815452    2.009577   -0.056411
  H      0.605385    1.840193    1.003194

 Total Charge           Charge          ....    0
 Multiplicity           Mult            ....    1
 Number of Electrons    NEL             ....   64
 Basis Dimension        Dim             ....  297

ORBITAL ENERGIES
----------------

  NO   OCC          E(Eh)            E(eV)
   0   2.0000     -20.680957      -562.7574
   1   2.0000     -20.675453      -562.6077
   2   2.0000     -20.583552      -560.1069
   3   2.0000     -15.610477      -424.7827
   4   2.0000     -11.475380      -312.2610
   5   2.0000     -11.379528      -309.6527
   6   2.0000     -11.365783      -309.2787
   7   2.0000     -11.311913      -307.8128
   8   2.0000     -11.286461      -307.1202
   9   2.0000      -1.581710       -43.0405
  10   2.0000      -1.452747       -39.5313
  11   2.0000      -1.434066       -39.0229
  12   2.0000      -1.252257       -34.0757
  13   2.0000      -1.136786       -30.9335
  14   2.0000      -1.034868       -28.1602
  15   2.0000      -0.922433       -25.1007
  16   2.0000      -0.905708       -24.6456
  17   2.0000      -0.818244       -22.2656
  18   2.0000      -0.756550       -20.5868
  19   2.0000      -0.720612       -19.6088
  20   2.0000      -0.687592       -18.7103
  21   2.0000      -0.642825       -17.4922
  22   2.0000      -0.640645       -17.4328
  23   2.0000      -0.627700       -17.0806
  24   2.0000      -0.611000       -16.6262
  25   2.0000      -0.603711       -16.4278
  26   2.0000      -0.592137       -16.1129
  27   2.0000      -0.562938       -15.3183
  28   2.0000      -0.521687       -14.1958
  29   2.0000      -0.518680       -14.1140
  30   2.0000      -0.500063       -13.6074
  31   2.0000      -0.382662       -10.4128
  32   0.0000       0.074087         2.0160
  33   0.0000       0.111777         3.0416
  34   0.0000       0.128856         3.5064
  35   0.0000       0.164300         4.4708
  36   0.0000       0.172410         4.6915

MULLIKEN ATOMIC CHARGES
-----------------------
   0 C :   -0.388092
   1 C :    0.126060
   2 C :    0.254086
   3 O :   -0.201460
   4 C :    0.361130
   5 O :   -0.245972
   6 O :   -0.202777
   7 C :   -0.178146
   8 N :   -0.032158
   9 H :    0.169491
  10 H :    0.168371
  11 H :    0.169466
Sum of atomic charges:   -0.0000000

LOEWDIN ATOMIC CHARGES
----------------------
   0 C :   -0.246616
   1 C :   -0.230900
   2 C :   -0.234314
   3 O :    0.341818
   4 C :   -0.537675
   5 O :    0.166725
   6 O :    0.337574
   7 C :   -0.148987
   8 N :    0.107919
   9 H :    0.147287
  10 H :    0.149879
  11 H :    0.147290

  Mayer bond orders larger than 0.1
B(  0-C ,  1-C ) :   0.8818 B(  0-C ,  9-H ) :   0.9212 B(  0-C , 10-H ) :   0.9373
B(  0-C , 11-H ) :   0.9212 B(  1-C ,  2-C ) :   1.6187 B(  1-C ,  6-O ) :   1.0416
B(  2-C ,  3-O ) :   0.9928 B(  2-C ,  7-C ) :   0.9232 B(  3-O ,  4-C ) :   1.0738
B(  4-C ,  5-O ) :   2.0836 B(  4-C ,  6-O ) :   1.0348 B(  7-C ,  8-N ) :   2.8036

MP2 TOTAL ENERGY:     -471.925846436 Eh
FINAL SINGLE POINT ENERGY      -471.925846435627

DIPOLE MOMENT
-------------
                                X             Y             Z
Electronic contribution:     -1.24732      -6.36269      -0.14950
Nuclear contribution   :      1.78675       7.77891       0.21410
                        -----------------------------------------
Total Dipole Moment    :      0.53943       1.41622       0.06460
                        -----------------------------------------
Magnitude (a.u.)       :      1.51685
Magnitude (Debye)      :      3.85552

                             ****ORCA TERMINATED NORMALLY****
TOTAL RUN TIME: 0 days 0 hours 12 minutes 11 seconds 426 msec
