                         Program Version 3.0.3 - RELEASE   -
|  1> ! RI-MP2 RIJK def2-TZVP def2-TZVP/C def2-TZVP/JK TIGHTSCF
|  2> % maxcore 2000
|  3> % mp2 density relaxed end
|  4> *xyz 0 1
|  5>  C       -0.0690037766     1.5867928678    -0.0193756626
|  6>  C        0.0393928420     0.0651713518    -0.0546289950
|  7>  C        0.6214092727    -0.4846903587    -1.3689459035
|  8>  C        2.1505829155    -0.3328218866    -1.4678303053
|  9>  C        2.1075299390    -1.6244353101    -0.6264742486
| 10>  O        0.7961967680    -1.9241106076    -1.2128936625
| 11>  C        1.8594929754    -1.3871506505     0.8507384259
| 12>  C        2.1044556029    -0.0581001540     1.4789302094
| 13>  N        0.7437597593    -0.4731914637     1.1349779182
| 14>  H        0.9040720339     2.0719541108    -0.1469217579
| 15>  H       -0.7282022556     1.9428746027    -0.8176486254
| 16>  H       -0.4853459562     1.9127340875     0.9379727163
| 17>  H       -0.9731608495    -0.3540870899     0.0137132674
| 18>  H       -0.0063227763    -0.2333416377    -2.2292389016
| 19>  H        2.5036012714    -0.5431137439    -2.4785063976
| 20>  H        2.6392163366     0.5634320907    -1.0868156973
| 21>  H        2.8361518647    -2.4153594366    -0.8189309703
| 22>  H        1.8819026073    -2.2840129879     1.4676099032
| 23>  H        2.2949113122    -0.0008986861     2.5481951389
| 24>  H        2.6108611632     0.7091317618     0.9022084984
| 25> *
| 26>
| 27>                          ****END OF INPUT****

CARTESIAN COORDINATES (ANGSTROEM)
---------------------------------
  C     -0.069004    1.586793   -0.019376
  C      0.039393    0.065171   -0.054629
  C      0.621409   -0.484690   -1.368946
  C      2.150583   -0.332822   -1.467830
  C      2.107530   -1.624435   -0.626474
  O      0.796197   -1.924111   -1.212894
  C      1.859493   -1.387151    0.850738
  C      2.104456   -0.058100    1.478930
  N      0.743760   -0.473191    1.134978
  H      0.904072    2.071954   -0.146922
  H     -0.728202    1.942875   -0.817649
  H     -0.485346    1.912734    0.937973
  H     -0.973161   -0.354087    0.013713
  H     -0.006323   -0.233342   -2.229239
  H      2.503601   -0.543114   -2.478506
  H      2.639216    0.563432   -1.086816
  H      2.836152   -2.415359   -0.818931
  H      1.881903   -2.284013    1.467610
  H      2.294911   -0.000899    2.548195
  H      2.610861    0.709132    0.902208

 Total Charge           Charge          ....    0
 Multiplicity           Mult            ....    1
 Number of Electrons    NEL             ....   68
 Basis Dimension        Dim             ....  345

ORBITAL ENERGIES
----------------

  NO   OCC          E(Eh)            E(eV)
   0   2.0000     -20.546043      -559.0862
   1   2.0000     -15.555642      -423.2905
   2   2.0000     -11.291374      -307.2539
   3   2.0000     -11.285124      -307.0838
   4   2.0000     -11.258708      -306.3650
   5   2.0000     -11.258415      -306.3570
   6   2.0000     -11.257169      -306.3231
   7   2.0000     -11.233574      -305.6811
   8   2.0000     -11.220859      -305.3351
   9   2.0000      -1.383769       -37.6543
  10   2.0000      -1.265535       -34.4370
  11   2.0000      -1.065560       -28.9954
  12   2.0000      -1.019417       -27.7398
  13   2.0000      -0.940574       -25.5943
  14   2.0000      -0.901756       -24.5380
  15   2.0000      -0.855636       -23.2830
  16   2.0000      -0.796481       -21.6734
  17   2.0000      -0.721696       -19.6384
  18   2.0000      -0.710979       -19.3467
  19   2.0000      -0.662100       -18.0167
  20   2.0000      -0.635068       -17.2811
  21   2.0000      -0.623872       -16.9764
  22   2.0000      -0.596581       -16.2338
  23   2.0000      -0.569445       -15.4954
  24   2.0000      -0.558674       -15.2023
  25   2.0000      -0.540266       -14.7014
  26   2.0000      -0.525503       -14.2997
  27   2.0000      -0.512288       -13.9401
  28   2.0000      -0.499147       -13.5825
  29   2.0000      -0.460098       -12.5199
  30   2.0000      -0.451784       -12.2937
  31   2.0000      -0.436770       -11.8851
  32   2.0000      -0.413821       -11.2607
  33   2.0000      -0.360584        -9.8120
  34   0.0000       0.137121         3.7313
  35   0.0000       0.157884         4.2962
  36   0.0000       0.160118         4.3570
  37   0.0000       0.176135         4.7929
  38   0.0000       0.192843         5.2475

MULLIKEN ATOMIC CHARGES
-----------------------
   0 C :   -0.405548
   1 C :   -0.016816
   2 C :    0.090013
   3 C :   -0.273597
   4 C :    0.097918
   5 O :   -0.332735
   6 C :   -0.119652
   7 C :   -0.175156
   8 N :   -0.213373
   9 H :    0.114116
  10 H :    0.134578
  11 H :    0.148248
  12 H :    0.100439
  13 H :    0.118039
  14 H :    0.127717
  15 H :    0.119181
  16 H :    0.116419
  17 H :    0.127931
  18 H :    0.126617
  19 H :    0.115662
Sum of atomic charges:   -0.0000000

LOEWDIN ATOMIC CHARGES
----------------------
   0 C :   -0.287805
   1 C :   -0.292299
   2 C :   -0.256273
   3 C :   -0.204905
   4 C :   -0.249903
   5 O :    0.155345
   6 C :   -0.232182
   7 C :   -0.241444
   8 N :    0.142448
   9 H :    0.120776
  10 H :    0.128109
  11 H :    0.131207
  12 H :    0.157357
  13 H :    0.136140
  14 H :    0.141272
  15 H :    0.124097
  16 H :    0.136823
  17 H :    0.143086
  18 H :    0.126567
  19 H :    0.121584

  Mayer bond orders larger than 0.1
B(  0-C ,  1-C ) :   0.9195 B(  0-C ,  9-H ) :   0.9237 B(  0-C , 10-H ) :   0.9362
B(  0-C , 11-H ) :   0.9362 B(  1-C ,  2-C ) :   0.9458 B(  1-C ,  8-N ) :   0.9238
B(  1-C , 12-H ) :   0.9154 B(  2-C ,  3-C ) :   0.9267 B(  2-C ,  5-O ) :   0.9042
B(  2-C , 13-H ) :   0.9120 B(  3-C ,  4-C ) :   0.9419 B(  3-C , 14-H ) :   0.9244
B(  3-C , 15-H ) :   0.9280 B(  4-C ,  5-O ) :   0.8977 B(  4-C ,  6-C ) :   0.9526
B(  4-C , 16-H ) :   0.9172 B(  6-C ,  7-C ) :   0.9240 B(  6-C ,  8-N ) :   0.9151
B(  6-C , 17-H ) :   0.9086 B(  7-C ,  8-N ) :   0.8755 B(  7-C , 18-H ) :   0.9262
B(  7-C , 19-H ) :   0.9106

MP2 TOTAL ENERGY:     -402.414268464 Eh
FINAL SINGLE POINT ENERGY      -402.414268464331

DIPOLE MOMENT
-------------
                                X             Y             Z
Electronic contribution:     -0.24267      -5.73172      -0.24740
Nuclear contribution   :      0.87988       6.44796       0.01575
                        -----------------------------------------
Total Dipole Moment    :      0.63721       0.71624      -0.23165
                        -----------------------------------------
Magnitude (a.u.)       :      0.98625
Magnitude (Debye)      :      2.50686

                             ****ORCA TERMINATED NORMALLY****
TOTAL RUN TIME: 0 days 0 hours 21 minutes 14 seconds 848 msec
