                         Program Version 3.0.3 - RELEASE   -
|  1> ! RI-MP2 RIJK def2-TZVP def2-TZVP/C def2-TZVP/JK TIGHTSCF
|  2> % maxcore 2000
|  3> % mp2 density relaxed end
|  4> *xyz 0 1
|  5>  C        0.0301048402     1.4334105564     0.2329086221
|  6>  C       -0.0653496971    -0.0696447489    -0.0640574755
|  7>  C       -1.5156609224    -0.5316564685    -0.1252936920
|  8>  C        0.7650129832    -0.4544531665    -1.3021885554
|  9>  C        2.1446155198    -0.7618627015    -0.7238046045
| 10>  O        3.1868191738    -0.8540561889    -1.3146634767
| 11>  C        1.9419277010    -0.9231100847     0.7854160836
| 12>  O        0.5545680470    -0.8175699193     1.0144840425
| 13>  H        1.0715289868     1.7697458870     0.2740989681
| 14>  H       -0.4769416889     2.0165199553    -0.5425055499
| 15>  H       -0.4373135127     1.6547135298     1.1962710016
| 16>  H       -2.0500160477    -0.0262719021    -0.9354632030
| 17>  H       -1.5645712425    -1.6111156315    -0.2922840348
| 18>  H       -2.0250104534    -0.3074511957     0.8165040499
| 19>  H        0.3797396693    -1.3725095153    -1.7625839784
| 20>  H        0.8228116245     0.3126095031    -2.0768227528
| 21>  H        2.2999662609    -1.8993992925     1.1296736020
| 22>  H        2.5231043682    -0.1485488762     1.3112482234
| 23> *
| 24>
| 25>                          ****END OF INPUT****

CARTESIAN COORDINATES (ANGSTROEM)
---------------------------------
  C      0.030105    1.433411    0.232909
  C     -0.065350   -0.069645   -0.064057
  C     -1.515661   -0.531656   -0.125294
  C      0.765013   -0.454453   -1.302189
  C      2.144616   -0.761863   -0.723805
  O      3.186819   -0.854056   -1.314663
  C      1.941928   -0.923110    0.785416
  O      0.554568   -0.817570    1.014484
  H      1.071529    1.769746    0.274099
  H     -0.476942    2.016520   -0.542506
  H     -0.437314    1.654714    1.196271
  H     -2.050016   -0.026272   -0.935463
  H     -1.564571   -1.611116   -0.292284
  H     -2.025010   -0.307451    0.816504
  H      0.379740   -1.372510   -1.762584
  H      0.822812    0.312610   -2.076823
  H      2.299966   -1.899399    1.129674
  H      2.523104   -0.148549    1.311248

 Total Charge           Charge          ....    0
 Multiplicity           Mult            ....    1
 Number of Electrons    NEL             ....   62
 Basis Dimension        Dim             ....  308

ORBITAL ENERGIES
----------------

  NO   OCC          E(Eh)            E(eV)
   0   2.0000     -20.565846      -559.6251
   1   2.0000     -20.555056      -559.3315
   2   2.0000     -11.337973      -308.5219
   3   2.0000     -11.304422      -307.6090
   4   2.0000     -11.289344      -307.1987
   5   2.0000     -11.243522      -305.9518
   6   2.0000     -11.228556      -305.5445
   7   2.0000     -11.225618      -305.4646
   8   2.0000      -1.406364       -38.2691
   9   2.0000      -1.385908       -37.7125
  10   2.0000      -1.090368       -29.6704
  11   2.0000      -1.026309       -27.9273
  12   2.0000      -0.955243       -25.9935
  13   2.0000      -0.937042       -25.4982
  14   2.0000      -0.786430       -21.3998
  15   2.0000      -0.756900       -20.5963
  16   2.0000      -0.680948       -18.5295
  17   2.0000      -0.678558       -18.4645
  18   2.0000      -0.645940       -17.5769
  19   2.0000      -0.624084       -16.9822
  20   2.0000      -0.599796       -16.3213
  21   2.0000      -0.597839       -16.2680
  22   2.0000      -0.576107       -15.6767
  23   2.0000      -0.550535       -14.9808
  24   2.0000      -0.543911       -14.8006
  25   2.0000      -0.524617       -14.2756
  26   2.0000      -0.523002       -14.2316
  27   2.0000      -0.496802       -13.5187
  28   2.0000      -0.484797       -13.1920
  29   2.0000      -0.434409       -11.8209
  30   2.0000      -0.402150       -10.9431
  31   0.0000       0.121962         3.3188
  32   0.0000       0.129377         3.5205
  33   0.0000       0.159866         4.3502
  34   0.0000       0.175245         4.7687
  35   0.0000       0.182201         4.9579

MULLIKEN ATOMIC CHARGES
-----------------------
   0 C :   -0.431731
   1 C :    0.191985
   2 C :   -0.374945
   3 C :   -0.193564
   4 C :    0.086317
   5 O :   -0.265545
   6 C :   -0.041373
   7 O :   -0.318717
   8 H :    0.134236
   9 H :    0.133558
  10 H :    0.141893
  11 H :    0.126489
  12 H :    0.132727
  13 H :    0.138717
  14 H :    0.139833
  15 H :    0.144209
  16 H :    0.140893
  17 H :    0.115017
Sum of atomic charges:    0.0000000

LOEWDIN ATOMIC CHARGES
----------------------
   0 C :   -0.267693
   1 C :   -0.380513
   2 C :   -0.267718
   3 C :   -0.188513
   4 C :   -0.318016
   5 O :    0.158529
   6 C :   -0.287403
   7 O :    0.187071
   8 H :    0.128152
   9 H :    0.128955
  10 H :    0.130659
  11 H :    0.129125
  12 H :    0.128187
  13 H :    0.130740
  14 H :    0.160659
  15 H :    0.153347
  16 H :    0.139946
  17 H :    0.134487

  Mayer bond orders larger than 0.1
B(  0-C ,  1-C ) :   0.9502 B(  0-C ,  8-H ) :   0.9186 B(  0-C ,  9-H ) :   0.9329
B(  0-C , 10-H ) :   0.9391 B(  1-C ,  2-C ) :   0.8919 B(  1-C ,  3-C ) :   0.9057
B(  1-C ,  7-O ) :   0.8681 B(  2-C , 11-H ) :   0.9322 B(  2-C , 12-H ) :   0.9384
B(  2-C , 13-H ) :   0.9359 B(  3-C ,  4-C ) :   0.8912 B(  3-C ,  6-C ) :  -0.1028
B(  3-C , 14-H ) :   0.8943 B(  3-C , 15-H ) :   0.9032 B(  4-C ,  5-O ) :   2.0298
B(  4-C ,  6-C ) :   0.9203 B(  6-C ,  7-O ) :   0.9629 B(  6-C , 16-H ) :   0.9062
B(  6-C , 17-H ) :   0.9099

MP2 TOTAL ENERGY:     -384.336641472 Eh
FINAL SINGLE POINT ENERGY      -384.336641472400

DIPOLE MOMENT
-------------
                                X             Y             Z
Electronic contribution:      6.90404      -3.47159      -0.79696
Nuclear contribution   :     -7.68425       3.80707       0.82293
                        -----------------------------------------
Total Dipole Moment    :     -0.78020       0.33549       0.02597
                        -----------------------------------------
Magnitude (a.u.)       :      0.84967
Magnitude (Debye)      :      2.15969

                             ****ORCA TERMINATED NORMALLY****
TOTAL RUN TIME: 0 days 0 hours 13 minutes 30 seconds 156 msec
