                         Program Version 3.0.3 - RELEASE   -
|  1> ! RI-MP2 RIJK def2-TZVP def2-TZVP/C def2-TZVP/JK TIGHTSCF
|  2> % maxcore 2000
|  3> % mp2 density relaxed end
|  4> *xyz 0 1
|  5>  C       -0.0735127445     0.7282524219    -2.2266569345
|  6>  C        0.0144963505    -0.3445598763    -1.1608364641
|  7>  C        1.3132894349    -0.6585684273    -0.3948314824
|  8>  C        2.5463472745     0.1281720224    -0.6119071380
|  9>  O        3.6606239283    -0.3361152589    -0.5772557417
| 10>  C        0.1125373707    -0.0229820349     0.2836333786
| 11>  C       -0.0023813560     1.3312638536     0.9868504703
| 12>  O       -0.8120878093     0.7398318722     2.0243809623
| 13>  C       -0.6902207719    -0.5811502126     1.4544176884
| 14>  H        0.4301114700     1.6527086140    -1.9326595964
| 15>  H        0.3725135327     0.3897693675    -3.1669978323
| 16>  H       -1.1218326921     0.9763033674    -2.4234578380
| 17>  H       -0.5532639627    -1.2430195958    -1.3938871939
| 18>  H        1.5049588813    -1.7042161440    -0.1726495310
| 19>  H        2.3911379808     1.2129987260    -0.8086069954
| 20>  H        0.9291857306     1.7510676385     1.3868985314
| 21>  H       -0.5423684322     2.1139248502     0.4387726992
| 22>  H       -1.6665685820    -1.0159619722     1.2039785696
| 23>  H       -0.1474180237    -1.2667748017     2.1181207678
| 24> *
| 25>
| 26>                          ****END OF INPUT****

CARTESIAN COORDINATES (ANGSTROEM)
---------------------------------
  C     -0.073513    0.728252   -2.226657
  C      0.014496   -0.344560   -1.160836
  C      1.313289   -0.658568   -0.394831
  C      2.546347    0.128172   -0.611907
  O      3.660624   -0.336115   -0.577256
  C      0.112537   -0.022982    0.283633
  C     -0.002381    1.331264    0.986850
  O     -0.812088    0.739832    2.024381
  C     -0.690221   -0.581150    1.454418
  H      0.430111    1.652709   -1.932660
  H      0.372514    0.389769   -3.166998
  H     -1.121833    0.976303   -2.423458
  H     -0.553264   -1.243020   -1.393887
  H      1.504959   -1.704216   -0.172650
  H      2.391138    1.212999   -0.808607
  H      0.929186    1.751068    1.386899
  H     -0.542368    2.113925    0.438773
  H     -1.666569   -1.015962    1.203979
  H     -0.147418   -1.266775    2.118121

 Total Charge           Charge          ....    0
 Multiplicity           Mult            ....    1
 Number of Electrons    NEL             ....   68
 Basis Dimension        Dim             ....  339

ORBITAL ENERGIES
----------------

  NO   OCC          E(Eh)            E(eV)
   0   2.0000     -20.561465      -559.5059
   1   2.0000     -20.554405      -559.3138
   2   2.0000     -11.335730      -308.4609
   3   2.0000     -11.296265      -307.3870
   4   2.0000     -11.293459      -307.3107
   5   2.0000     -11.266622      -306.5804
   6   2.0000     -11.265784      -306.5576
   7   2.0000     -11.253804      -306.2316
   8   2.0000     -11.242972      -305.9368
   9   2.0000      -1.393761       -37.9262
  10   2.0000      -1.391541       -37.8658
  11   2.0000      -1.181358       -32.1464
  12   2.0000      -1.000626       -27.2284
  13   2.0000      -0.961069       -26.1520
  14   2.0000      -0.953301       -25.9406
  15   2.0000      -0.886441       -24.1213
  16   2.0000      -0.776493       -21.1294
  17   2.0000      -0.751334       -20.4449
  18   2.0000      -0.709096       -19.2955
  19   2.0000      -0.686079       -18.6691
  20   2.0000      -0.660864       -17.9830
  21   2.0000      -0.640690       -17.4341
  22   2.0000      -0.603110       -16.4115
  23   2.0000      -0.598071       -16.2743
  24   2.0000      -0.586181       -15.9508
  25   2.0000      -0.570882       -15.5345
  26   2.0000      -0.545884       -14.8543
  27   2.0000      -0.543786       -14.7972
  28   2.0000      -0.524348       -14.2682
  29   2.0000      -0.480477       -13.0744
  30   2.0000      -0.464954       -12.6520
  31   2.0000      -0.434599       -11.8260
  32   2.0000      -0.410599       -11.1730
  33   2.0000      -0.403274       -10.9736
  34   0.0000       0.117460         3.1962
  35   0.0000       0.124947         3.4000
  36   0.0000       0.140948         3.8354
  37   0.0000       0.154619         4.2074
  38   0.0000       0.177588         4.8324

MULLIKEN ATOMIC CHARGES
-----------------------
   0 C :   -0.424752
   1 C :   -0.076754
   2 C :   -0.039565
   3 C :    0.027375
   4 O :   -0.267939
   5 C :   -0.081196
   6 C :   -0.016321
   7 O :   -0.322090
   8 C :    0.004590
   9 H :    0.128563
  10 H :    0.150870
  11 H :    0.146583
  12 H :    0.135674
  13 H :    0.141531
  14 H :    0.077992
  15 H :    0.108909
  16 H :    0.105599
  17 H :    0.098775
  18 H :    0.102156
Sum of atomic charges:   -0.0000000

LOEWDIN ATOMIC CHARGES
----------------------
   0 C :   -0.284814
   1 C :   -0.180500
   2 C :   -0.160421
   3 C :   -0.287881
   4 O :    0.127914
   5 C :   -0.195530
   6 C :   -0.226973
   7 O :    0.120675
   8 C :   -0.222245
   9 H :    0.125252
  10 H :    0.131327
  11 H :    0.131410
  12 H :    0.158017
  13 H :    0.160104
  14 H :    0.114264
  15 H :    0.122621
  16 H :    0.122331
  17 H :    0.121414
  18 H :    0.123037

  Mayer bond orders larger than 0.1
B(  0-C ,  1-C ) :   0.9016 B(  0-C ,  9-H ) :   0.9363 B(  0-C , 10-H ) :   0.9368
B(  0-C , 11-H ) :   0.9347 B(  1-C ,  2-C ) :   0.8349 B(  1-C ,  5-C ) :   0.8459
B(  1-C , 12-H ) :   0.9157 B(  2-C ,  3-C ) :   0.8688 B(  2-C ,  5-C ) :   0.7606
B(  2-C , 13-H ) :   0.9134 B(  2-C , 14-H ) :  -0.1115 B(  3-C ,  4-O ) :   1.9862
B(  3-C , 14-H ) :   0.9628 B(  5-C ,  6-C ) :   0.9748 B(  5-C ,  8-C ) :   0.9586
B(  6-C ,  7-O ) :   0.9640 B(  6-C , 15-H ) :   0.9081 B(  6-C , 16-H ) :   0.9094
B(  7-O ,  8-C ) :   0.9645 B(  8-C , 17-H ) :   0.9104 B(  8-C , 18-H ) :   0.9058

MP2 TOTAL ENERGY:     -422.281041806 Eh
FINAL SINGLE POINT ENERGY      -422.281041806289

DIPOLE MOMENT
-------------
                                X             Y             Z
Electronic contribution:      3.90007      -1.47697       3.66344
Nuclear contribution   :     -4.86577       1.47802      -4.30960
                        -----------------------------------------
Total Dipole Moment    :     -0.96570       0.00105      -0.64615
                        -----------------------------------------
Magnitude (a.u.)       :      1.16194
Magnitude (Debye)      :      2.95341

                             ****ORCA TERMINATED NORMALLY****
TOTAL RUN TIME: 0 days 0 hours 17 minutes 13 seconds 454 msec
