                         Program Version 3.0.3 - RELEASE   -
|  1> ! RI-MP2 RIJK def2-TZVP def2-TZVP/C def2-TZVP/JK TIGHTSCF
|  2> % maxcore 2000
|  3> % mp2 density relaxed end
|  4> *xyz 0 1
|  5>  C        0.0342586255     1.3524715447    -0.2249243714
|  6>  O       -0.0410980745    -0.0542324718    -0.2367697112
|  7>  C       -1.2816574432    -0.5385377467     0.2274730577
|  8>  C       -1.2456615570    -2.0422200223     0.1402270504
|  9>  C       -2.4804347197    -2.8970788726     0.1186366658
| 10>  C       -3.8863164947    -2.3420069942     0.1922804357
| 11>  C       -1.6314483586    -2.7683863997    -1.1476756425
| 12>  C       -2.1328992914    -2.0194643863    -2.2640240566
| 13>  N       -2.5502057834    -1.4158149480    -3.1592630360
| 14>  H        1.0246407833     1.6280666741    -0.5942848267
| 15>  H       -0.7277757825     1.8067631484    -0.8766642836
| 16>  H       -0.0931334861     1.7601457911     0.7908282789
| 17>  H       -1.4488793995    -0.2302270365     1.2746012020
| 18>  H       -2.1059056619    -0.1205099679    -0.3698222989
| 19>  H       -0.3775115975    -2.4658589603     0.6364987779
| 20>  H       -2.3666794922    -3.8616469002     0.6059721913
| 21>  H       -4.0065423286    -1.4349401014    -0.4037870033
| 22>  H       -4.6053555285    -3.0769315173    -0.1828744760
| 23>  H       -4.1548334459    -2.1091644593     1.2279019484
| 24>  H       -1.0259543938    -3.6220038138    -1.4319672521
| 25> *
| 26>
| 27>                          ****END OF INPUT****

CARTESIAN COORDINATES (ANGSTROEM)
---------------------------------
  C      0.034259    1.352472   -0.224924
  O     -0.041098   -0.054232   -0.236770
  C     -1.281657   -0.538538    0.227473
  C     -1.245662   -2.042220    0.140227
  C     -2.480435   -2.897079    0.118637
  C     -3.886316   -2.342007    0.192280
  C     -1.631448   -2.768386   -1.147676
  C     -2.132899   -2.019464   -2.264024
  N     -2.550206   -1.415815   -3.159263
  H      1.024641    1.628067   -0.594285
  H     -0.727776    1.806763   -0.876664
  H     -0.093133    1.760146    0.790828
  H     -1.448879   -0.230227    1.274601
  H     -2.105906   -0.120510   -0.369822
  H     -0.377512   -2.465859    0.636499
  H     -2.366679   -3.861647    0.605972
  H     -4.006542   -1.434940   -0.403787
  H     -4.605356   -3.076932   -0.182874
  H     -4.154833   -2.109164    1.227902
  H     -1.025954   -3.622004   -1.431967

 Total Charge           Charge          ....    0
 Multiplicity           Mult            ....    1
 Number of Electrons    NEL             ....   68
 Basis Dimension        Dim             ....  345

ORBITAL ENERGIES
----------------

  NO   OCC          E(Eh)            E(eV)
   0   2.0000     -20.562466      -559.5331
   1   2.0000     -15.561505      -423.4501
   2   2.0000     -11.290273      -307.2240
   3   2.0000     -11.278083      -306.8922
   4   2.0000     -11.273939      -306.7795
   5   2.0000     -11.269080      -306.6473
   6   2.0000     -11.267406      -306.6017
   7   2.0000     -11.260889      -306.4244
   8   2.0000     -11.235489      -305.7332
   9   2.0000      -1.384361       -37.6704
  10   2.0000      -1.218917       -33.1684
  11   2.0000      -1.177460       -32.0403
  12   2.0000      -1.005447       -27.3596
  13   2.0000      -0.984013       -26.7764
  14   2.0000      -0.909119       -24.7384
  15   2.0000      -0.876220       -23.8432
  16   2.0000      -0.783247       -21.3132
  17   2.0000      -0.719146       -19.5690
  18   2.0000      -0.687252       -18.7011
  19   2.0000      -0.666379       -18.1331
  20   2.0000      -0.650711       -17.7068
  21   2.0000      -0.621802       -16.9201
  22   2.0000      -0.589407       -16.0386
  23   2.0000      -0.577258       -15.7080
  24   2.0000      -0.561204       -15.2711
  25   2.0000      -0.555823       -15.1247
  26   2.0000      -0.540505       -14.7079
  27   2.0000      -0.511330       -13.9140
  28   2.0000      -0.501308       -13.6413
  29   2.0000      -0.487520       -13.2661
  30   2.0000      -0.477071       -12.9818
  31   2.0000      -0.433720       -11.8021
  32   2.0000      -0.425948       -11.5906
  33   2.0000      -0.403605       -10.9826
  34   0.0000       0.124457         3.3867
  35   0.0000       0.141728         3.8566
  36   0.0000       0.156975         4.2715
  37   0.0000       0.169345         4.6081
  38   0.0000       0.172921         4.7054

MULLIKEN ATOMIC CHARGES
-----------------------
   0 C :   -0.223184
   1 O :   -0.301482
   2 C :   -0.081214
   3 C :   -0.048303
   4 C :   -0.076990
   5 C :   -0.406563
   6 C :   -0.033659
   7 C :   -0.219207
   8 N :   -0.061616
   9 H :    0.141728
  10 H :    0.122962
  11 H :    0.109763
  12 H :    0.108148
  13 H :    0.109753
  14 H :    0.135363
  15 H :    0.135143
  16 H :    0.146150
  17 H :    0.144688
  18 H :    0.140240
  19 H :    0.158280
Sum of atomic charges:   -0.0000000

LOEWDIN ATOMIC CHARGES
----------------------
   0 C :   -0.357268
   1 O :    0.141297
   2 C :   -0.304100
   3 C :   -0.168215
   4 C :   -0.187333
   5 C :   -0.281925
   6 C :   -0.173718
   7 C :   -0.180000
   8 N :    0.057069
   9 H :    0.114893
  10 H :    0.104970
  11 H :    0.101024
  12 H :    0.126259
  13 H :    0.129696
  14 H :    0.158855
  15 H :    0.154701
  16 H :    0.132025
  17 H :    0.132447
  18 H :    0.129736
  19 H :    0.169587

  Mayer bond orders larger than 0.1
B(  0-C ,  1-O ) :   0.9141 B(  0-C ,  9-H ) :   0.9390 B(  0-C , 10-H ) :   0.9362
B(  0-C , 11-H ) :   0.9361 B(  1-O ,  2-C ) :   0.9516 B(  2-C ,  3-C ) :   0.9558
B(  2-C , 12-H ) :   0.9217 B(  2-C , 13-H ) :   0.9205 B(  3-C ,  4-C ) :   0.8601
B(  3-C ,  6-C ) :   0.8374 B(  3-C , 14-H ) :   0.9195 B(  4-C ,  5-C ) :   0.9238
B(  4-C ,  6-C ) :   0.8384 B(  4-C , 15-H ) :   0.9248 B(  5-C , 16-H ) :   0.9316
B(  5-C , 17-H ) :   0.9333 B(  5-C , 18-H ) :   0.9350 B(  6-C ,  7-C ) :   0.9787
B(  6-C , 19-H ) :   0.9050 B(  7-C ,  8-N ) :   2.8418

MP2 TOTAL ENERGY:     -402.446980489 Eh
FINAL SINGLE POINT ENERGY      -402.446980488823

DIPOLE MOMENT
-------------
                                X             Y             Z
Electronic contribution:      1.56393      -3.19646      -5.92727
Nuclear contribution   :     -1.48592       2.84403       7.46086
                        -----------------------------------------
Total Dipole Moment    :      0.07800      -0.35243       1.53359
                        -----------------------------------------
Magnitude (a.u.)       :      1.57550
Magnitude (Debye)      :      4.00459

                             ****ORCA TERMINATED NORMALLY****
TOTAL RUN TIME: 0 days 0 hours 17 minutes 55 seconds 432 msec
