                         Program Version 3.0.3 - RELEASE   -
|  1> ! RI-MP2 RIJK def2-TZVP def2-TZVP/C def2-TZVP/JK TIGHTSCF
|  2> % maxcore 2000
|  3> % mp2 density relaxed end
|  4> *xyz 0 1
|  5>  C       -0.0957052768     1.5647642460     0.0406312831
|  6>  C        0.0472885833     0.0628260984     0.0273426052
|  7>  O       -1.0706198851    -0.6175565707    -0.4886777182
|  8>  C        1.3689053246    -0.6637062854    -0.2404408839
|  9>  N        2.6047031379     0.0581099038    -0.0481863625
| 10>  C        2.6116892560     0.3938695005     1.1787504182
| 11>  O        1.5777010228     0.0151133185     1.9730977650
| 12>  C        0.6895248589    -0.7353360023     1.1332958602
| 13>  C        0.0571670168    -1.9029341385     1.8291443242
| 14>  H        0.8027461677     2.0678326152     0.3990896562
| 15>  H       -0.2935619824     1.9277210369    -0.9748388979
| 16>  H       -0.9372902885     1.8566110643     0.6759836449
| 17>  H       -1.0935210770    -0.4620513099    -1.4400926203
| 18>  H        1.3687050894    -1.4717206421    -0.9638495927
| 19>  H        3.3826929475     0.9668741872     1.6793660246
| 20>  H       -0.5264832466    -1.5682505747     2.6930874102
| 21>  H       -0.6144891355    -2.4180717842     1.1419323754
| 22>  H        0.8206994870    -2.6033168930     2.1809280484
| 23> *
| 24>
| 25>                          ****END OF INPUT****

CARTESIAN COORDINATES (ANGSTROEM)
---------------------------------
  C     -0.095705    1.564764    0.040631
  C      0.047289    0.062826    0.027343
  O     -1.070620   -0.617557   -0.488678
  C      1.368905   -0.663706   -0.240441
  N      2.604703    0.058110   -0.048186
  C      2.611689    0.393870    1.178750
  O      1.577701    0.015113    1.973098
  C      0.689525   -0.735336    1.133296
  C      0.057167   -1.902934    1.829144
  H      0.802746    2.067833    0.399090
  H     -0.293562    1.927721   -0.974839
  H     -0.937290    1.856611    0.675984
  H     -1.093521   -0.462051   -1.440093
  H      1.368705   -1.471721   -0.963850
  H      3.382693    0.966874    1.679366
  H     -0.526483   -1.568251    2.693087
  H     -0.614489   -2.418072    1.141932
  H      0.820699   -2.603317    2.180928

 Total Charge           Charge          ....    0
 Multiplicity           Mult            ....    1
 Number of Electrons    NEL             ....   68
 Basis Dimension        Dim             ....  333

ORBITAL ENERGIES
----------------

  NO   OCC          E(Eh)            E(eV)
   0   2.0000     -20.604802      -560.6852
   1   2.0000     -20.573798      -559.8415
   2   2.0000     -15.556591      -423.3164
   3   2.0000     -11.336235      -308.4746
   4   2.0000     -11.300216      -307.4945
   5   2.0000     -11.299319      -307.4701
   6   2.0000     -11.264590      -306.5251
   7   2.0000     -11.225461      -305.4603
   8   2.0000     -11.223751      -305.4138
   9   2.0000      -1.452587       -39.5269
  10   2.0000      -1.384560       -37.6758
  11   2.0000      -1.225520       -33.3481
  12   2.0000      -1.121661       -30.5219
  13   2.0000      -1.001725       -27.2583
  14   2.0000      -0.957099       -26.0440
  15   2.0000      -0.864970       -23.5370
  16   2.0000      -0.819638       -22.3035
  17   2.0000      -0.752433       -20.4747
  18   2.0000      -0.712024       -19.3751
  19   2.0000      -0.693694       -18.8764
  20   2.0000      -0.665792       -18.1171
  21   2.0000      -0.621128       -16.9018
  22   2.0000      -0.594353       -16.1732
  23   2.0000      -0.581647       -15.8274
  24   2.0000      -0.571005       -15.5378
  25   2.0000      -0.563288       -15.3278
  26   2.0000      -0.555187       -15.1074
  27   2.0000      -0.553138       -15.0516
  28   2.0000      -0.533322       -14.5124
  29   2.0000      -0.502160       -13.6645
  30   2.0000      -0.478833       -13.0297
  31   2.0000      -0.461424       -12.5560
  32   2.0000      -0.386479       -10.5166
  33   2.0000      -0.357161        -9.7188
  34   0.0000       0.128399         3.4939
  35   0.0000       0.152219         4.1421
  36   0.0000       0.162828         4.4308
  37   0.0000       0.173703         4.7267
  38   0.0000       0.179511         4.8847

MULLIKEN ATOMIC CHARGES
-----------------------
   0 C :   -0.383781
   1 C :    0.135969
   2 O :   -0.468514
   3 C :   -0.107976
   4 N :   -0.258326
   5 C :    0.070301
   6 O :   -0.261601
   7 C :    0.232362
   8 C :   -0.420238
   9 H :    0.140475
  10 H :    0.121690
  11 H :    0.146490
  12 H :    0.325687
  13 H :    0.143951
  14 H :    0.145212
  15 H :    0.141363
  16 H :    0.159643
  17 H :    0.137293
Sum of atomic charges:    0.0000000

LOEWDIN ATOMIC CHARGES
----------------------
   0 C :   -0.266302
   1 C :   -0.338729
   2 O :    0.032520
   3 C :   -0.202851
   4 N :    0.094426
   5 C :   -0.342071
   6 O :    0.276734
   7 C :   -0.256097
   8 C :   -0.263525
   9 H :    0.135293
  10 H :    0.128700
  11 H :    0.133454
  12 H :    0.184105
  13 H :    0.144296
  14 H :    0.133859
  15 H :    0.134190
  16 H :    0.140793
  17 H :    0.131203

  Mayer bond orders larger than 0.1
B(  0-C ,  1-C ) :   0.9189 B(  0-C ,  9-H ) :   0.9235 B(  0-C , 10-H ) :   0.9204
B(  0-C , 11-H ) :   0.9438 B(  1-C ,  2-O ) :   0.9589 B(  1-C ,  3-C ) :   0.8360
B(  1-C ,  7-C ) :   0.8792 B(  2-O , 12-H ) :   0.8366 B(  3-C ,  4-N ) :   0.9693
B(  3-C ,  7-C ) :   0.8355 B(  3-C , 13-H ) :   0.9289 B(  4-N ,  5-C ) :   1.7936
B(  5-C ,  6-O ) :   1.0730 B(  5-C , 14-H ) :   0.9293 B(  6-O ,  7-C ) :   0.8815
B(  7-C ,  8-C ) :   0.8901 B(  8-C , 15-H ) :   0.9345 B(  8-C , 16-H ) :   0.9307
B(  8-C , 17-H ) :   0.9340

MP2 TOTAL ENERGY:     -438.363203988 Eh
FINAL SINGLE POINT ENERGY      -438.363203988051

DIPOLE MOMENT
-------------
                                X             Y             Z
Electronic contribution:      3.84495      -0.05791      -0.12520
Nuclear contribution   :     -4.16572       0.12110      -0.00001
                        -----------------------------------------
Total Dipole Moment    :     -0.32077       0.06319      -0.12521
                        -----------------------------------------
Magnitude (a.u.)       :      0.35010
Magnitude (Debye)      :      0.88987

                             ****ORCA TERMINATED NORMALLY****
TOTAL RUN TIME: 0 days 0 hours 19 minutes 29 seconds 507 msec
