                         Program Version 3.0.3 - RELEASE   -
|  1> ! RI-MP2 RIJK def2-TZVP def2-TZVP/C def2-TZVP/JK TIGHTSCF
|  2> % maxcore 2000
|  3> % mp2 density relaxed end
|  4> *xyz 0 1
|  5>  C        0.0201731445     1.4970975199    -0.1438239796
|  6>  C       -0.0096468186    -0.0134921173    -0.0243145389
|  7>  C        1.3006538738    -0.7769583150    -0.1245325599
|  8>  C        0.6119024370    -0.6583972252     1.2035746986
|  9>  C       -1.2142995941    -0.6654605094    -0.5908476009
| 10>  N       -1.4061106964    -1.9806466453    -0.5733146747
| 11>  N       -2.6081582716    -2.1069436202    -1.1851173579
| 12>  C       -3.0821620102    -0.8987444859    -1.5383143563
| 13>  N       -2.2297414616     0.0406508191    -1.1799919899
| 14>  H        0.9395452335     1.8922380323     0.2985975881
| 15>  H       -0.0222092141     1.8129809625    -1.1904068383
| 16>  H       -0.8324390776     1.9523082622     0.3687389708
| 17>  H        1.2738570787    -1.7387112866    -0.6231199076
| 18>  H        2.1993913383    -0.1937275325    -0.2959668866
| 19>  H        1.0351165476     0.0066207279     1.9491640347
| 20>  H        0.1215812896    -1.5404026595     1.5984557777
| 21>  H       -3.0124683901    -3.0197044938    -1.3135137407
| 22>  H       -4.0269243087    -0.7548183734    -2.0408216885
| 23> *
| 24>
| 25>                          ****END OF INPUT****

CARTESIAN COORDINATES (ANGSTROEM)
---------------------------------
  C      0.020173    1.497098   -0.143824
  C     -0.009647   -0.013492   -0.024315
  C      1.300654   -0.776958   -0.124533
  C      0.611902   -0.658397    1.203575
  C     -1.214300   -0.665461   -0.590848
  N     -1.406111   -1.980647   -0.573315
  N     -2.608158   -2.106944   -1.185117
  C     -3.082162   -0.898744   -1.538314
  N     -2.229741    0.040651   -1.179992
  H      0.939545    1.892238    0.298598
  H     -0.022209    1.812981   -1.190407
  H     -0.832439    1.952308    0.368739
  H      1.273857   -1.738711   -0.623120
  H      2.199391   -0.193728   -0.295967
  H      1.035117    0.006621    1.949164
  H      0.121581   -1.540403    1.598456
  H     -3.012468   -3.019704   -1.313514
  H     -4.026924   -0.754818   -2.040822

 Total Charge           Charge          ....    0
 Multiplicity           Mult            ....    1
 Number of Electrons    NEL             ....   66
 Basis Dimension        Dim             ....  333

ORBITAL ENERGIES
----------------

  NO   OCC          E(Eh)            E(eV)
   0   2.0000     -15.647763      -425.7973
   1   2.0000     -15.582419      -424.0192
   2   2.0000     -15.551698      -423.1832
   3   2.0000     -11.316590      -307.9401
   4   2.0000     -11.288621      -307.1790
   5   2.0000     -11.239962      -305.8549
   6   2.0000     -11.221375      -305.3491
   7   2.0000     -11.220693      -305.3306
   8   2.0000     -11.208762      -305.0059
   9   2.0000      -1.407416       -38.2977
  10   2.0000      -1.195652       -32.5354
  11   2.0000      -1.159114       -31.5411
  12   2.0000      -1.096491       -29.8370
  13   2.0000      -0.962993       -26.2044
  14   2.0000      -0.865737       -23.5579
  15   2.0000      -0.851249       -23.1637
  16   2.0000      -0.819175       -22.2909
  17   2.0000      -0.770403       -20.9637
  18   2.0000      -0.720485       -19.6054
  19   2.0000      -0.648809       -17.6550
  20   2.0000      -0.644324       -17.5330
  21   2.0000      -0.634753       -17.2725
  22   2.0000      -0.595264       -16.1979
  23   2.0000      -0.559726       -15.2309
  24   2.0000      -0.537318       -14.6212
  25   2.0000      -0.511840       -13.9279
  26   2.0000      -0.506673       -13.7873
  27   2.0000      -0.500139       -13.6095
  28   2.0000      -0.442289       -12.0353
  29   2.0000      -0.435022       -11.8375
  30   2.0000      -0.417711       -11.3665
  31   2.0000      -0.403634       -10.9835
  32   2.0000      -0.342377        -9.3165
  33   0.0000       0.130057         3.5390
  34   0.0000       0.145310         3.9541
  35   0.0000       0.157645         4.2897
  36   0.0000       0.176320         4.7979
  37   0.0000       0.184276         5.0144

MULLIKEN ATOMIC CHARGES
-----------------------
   0 C :   -0.383813
   1 C :    0.072336
   2 C :   -0.272006
   3 C :   -0.272046
   4 C :    0.132074
   5 N :   -0.220982
   6 N :   -0.130105
   7 C :    0.029561
   8 N :   -0.308254
   9 H :    0.122828
  10 H :    0.136181
  11 H :    0.136259
  12 H :    0.140631
  13 H :    0.129152
  14 H :    0.129163
  15 H :    0.140617
  16 H :    0.262184
  17 H :    0.156222
Sum of atomic charges:    0.0000000

LOEWDIN ATOMIC CHARGES
----------------------
   0 C :   -0.258702
   1 C :   -0.241301
   2 C :   -0.197976
   3 C :   -0.197961
   4 C :   -0.306954
   5 N :    0.044357
   6 N :    0.125122
   7 C :   -0.325521
   8 N :    0.107409
   9 H :    0.126297
  10 H :    0.130451
  11 H :    0.130466
  12 H :    0.137208
  13 H :    0.132768
  14 H :    0.132759
  15 H :    0.137210
  16 H :    0.190200
  17 H :    0.134168

  Mayer bond orders larger than 0.1
B(  0-C ,  1-C ) :   0.9435 B(  0-C ,  9-H ) :   0.9277 B(  0-C , 10-H ) :   0.9341
B(  0-C , 11-H ) :   0.9341 B(  1-C ,  2-C ) :   0.8400 B(  1-C ,  3-C ) :   0.8401
B(  1-C ,  4-C ) :   0.9652 B(  2-C ,  3-C ) :   0.9138 B(  2-C , 12-H ) :   0.9212
B(  2-C , 13-H ) :   0.9291 B(  3-C , 14-H ) :   0.9291 B(  3-C , 15-H ) :   0.9212
B(  4-C ,  5-N ) :   1.5489 B(  4-C ,  8-N ) :   1.3578 B(  5-N ,  6-N ) :   1.0694
B(  6-N ,  7-C ) :   1.2308 B(  6-N , 16-H ) :   0.8664 B(  7-C ,  8-N ) :   1.4940
B(  7-C , 17-H ) :   0.9247

MP2 TOTAL ENERGY:     -397.458739118 Eh
FINAL SINGLE POINT ENERGY      -397.458739117709

DIPOLE MOMENT
-------------
                                X             Y             Z
Electronic contribution:     -6.55937      -4.44521      -3.00458
Nuclear contribution   :      5.91177       3.74664       2.73106
                        -----------------------------------------
Total Dipole Moment    :     -0.64760      -0.69857      -0.27353
                        -----------------------------------------
Magnitude (a.u.)       :      0.99106
Magnitude (Debye)      :      2.51907

                             ****ORCA TERMINATED NORMALLY****
TOTAL RUN TIME: 0 days 0 hours 17 minutes 57 seconds 908 msec
