                         Program Version 3.0.3 - RELEASE   -
|  1> ! RI-MP2 RIJK def2-TZVP def2-TZVP/C def2-TZVP/JK TIGHTSCF
|  2> % maxcore 2000
|  3> % mp2 density relaxed end
|  4> *xyz 0 1
|  5>  C       -0.1979461551     1.4114708292     0.1514355770
|  6>  N       -0.0239642530    -0.0139708763    -0.0132159964
|  7>  C        0.3298697014    -0.7180760362    -1.1024380415
|  8>  N        0.3777178071    -2.0124870164    -0.8368973099
|  9>  C        0.0321114356    -2.0423454120     0.4735202832
| 10>  N       -0.0707207026    -3.1865319991     1.2534702997
| 11>  C        0.1440837186    -4.5012843019     0.8993514499
| 12>  O        0.4700433273    -4.9163969639    -0.1816444767
| 13>  N       -0.2237037801    -0.8618019624     1.0300414756
| 14>  H        0.0103438574     1.9008127231    -0.8015605865
| 15>  H       -1.2235035111     1.6340045920     0.4571168214
| 16>  H        0.4895820931     1.7905446850     0.9119143719
| 17>  H        0.5412747114    -0.2578811909    -2.0562978940
| 18>  H       -0.3414994281    -3.0086315654     2.2092180877
| 19>  H       -0.0300868719    -5.1553369350     1.7782383586
| 20> *
| 21>
| 22>                          ****END OF INPUT****

CARTESIAN COORDINATES (ANGSTROEM)
---------------------------------
  C     -0.197946    1.411471    0.151436
  N     -0.023964   -0.013971   -0.013216
  C      0.329870   -0.718076   -1.102438
  N      0.377718   -2.012487   -0.836897
  C      0.032111   -2.042345    0.473520
  N     -0.070721   -3.186532    1.253470
  C      0.144084   -4.501284    0.899351
  O      0.470043   -4.916397   -0.181644
  N     -0.223704   -0.861802    1.030041
  H      0.010344    1.900813   -0.801561
  H     -1.223504    1.634005    0.457117
  H      0.489582    1.790545    0.911914
  H      0.541275   -0.257881   -2.056298
  H     -0.341499   -3.008632    2.209218
  H     -0.030087   -5.155337    1.778238

 Total Charge           Charge          ....    0
 Multiplicity           Mult            ....    1
 Number of Electrons    NEL             ....   66
 Basis Dimension        Dim             ....  315

ORBITAL ENERGIES
----------------

  NO   OCC          E(Eh)            E(eV)
   0   2.0000     -20.531341      -558.6862
   1   2.0000     -15.656805      -426.0433
   2   2.0000     -15.609785      -424.7639
   3   2.0000     -15.586900      -424.1411
   4   2.0000     -15.556370      -423.3103
   5   2.0000     -11.358677      -309.0853
   6   2.0000     -11.338649      -308.5403
   7   2.0000     -11.321981      -308.0868
   8   2.0000     -11.290621      -307.2334
   9   2.0000      -1.424254       -38.7559
  10   2.0000      -1.391145       -37.8550
  11   2.0000      -1.267934       -34.5022
  12   2.0000      -1.205833       -32.8124
  13   2.0000      -1.125043       -30.6140
  14   2.0000      -0.985820       -26.8255
  15   2.0000      -0.899433       -24.4748
  16   2.0000      -0.838746       -22.8234
  17   2.0000      -0.788782       -21.4638
  18   2.0000      -0.747370       -20.3370
  19   2.0000      -0.713779       -19.4229
  20   2.0000      -0.680285       -18.5115
  21   2.0000      -0.652772       -17.7628
  22   2.0000      -0.628623       -17.1057
  23   2.0000      -0.607347       -16.5267
  24   2.0000      -0.600713       -16.3462
  25   2.0000      -0.587952       -15.9990
  26   2.0000      -0.561689       -15.2843
  27   2.0000      -0.511711       -13.9244
  28   2.0000      -0.464198       -12.6315
  29   2.0000      -0.457868       -12.4592
  30   2.0000      -0.429018       -11.6742
  31   2.0000      -0.408255       -11.1092
  32   2.0000      -0.342311        -9.3148
  33   0.0000       0.130900         3.5620
  34   0.0000       0.132524         3.6062
  35   0.0000       0.138435         3.7670
  36   0.0000       0.158903         4.3240
  37   0.0000       0.167471         4.5571

MULLIKEN ATOMIC CHARGES
-----------------------
   0 C :   -0.305679
   1 N :    0.085397
   2 C :   -0.003231
   3 N :   -0.287003
   4 C :    0.260657
   5 N :   -0.308205
   6 C :    0.172957
   7 O :   -0.293553
   8 N :   -0.279217
   9 H :    0.148487
  10 H :    0.161096
  11 H :    0.161092
  12 H :    0.157450
  13 H :    0.253017
  14 H :    0.076733
Sum of atomic charges:   -0.0000000

LOEWDIN ATOMIC CHARGES
----------------------
   0 C :   -0.269183
   1 N :    0.168613
   2 C :   -0.300907
   3 N :    0.114802
   4 C :   -0.411827
   5 N :    0.130169
   6 C :   -0.416310
   7 O :    0.106802
   8 N :    0.041022
   9 H :    0.130257
  10 H :    0.128500
  11 H :    0.128497
  12 H :    0.138138
  13 H :    0.201605
  14 H :    0.109821

  Mayer bond orders larger than 0.1
B(  0-C ,  1-N ) :   0.8704 B(  0-C ,  9-H ) :   0.9266 B(  0-C , 10-H ) :   0.9273
B(  0-C , 11-H ) :   0.9273 B(  1-N ,  2-C ) :   1.2603 B(  1-N ,  8-N ) :   1.0240
B(  2-C ,  3-N ) :   1.4502 B(  2-C , 12-H ) :   0.9190 B(  3-N ,  4-C ) :   1.3595
B(  4-C ,  5-N ) :   0.9791 B(  4-C ,  8-N ) :   1.5172 B(  5-N ,  6-C ) :   1.0556
B(  5-N , 13-H ) :   0.8627 B(  6-C ,  7-O ) :   1.9739 B(  6-C , 14-H ) :   0.9304

MP2 TOTAL ENERGY:     -449.434151495 Eh
FINAL SINGLE POINT ENERGY      -449.434151494933

DIPOLE MOMENT
-------------
                                X             Y             Z
Electronic contribution:      0.63315      -5.63807      -0.44106
Nuclear contribution   :     -1.02872       7.64206       1.23715
                        -----------------------------------------
Total Dipole Moment    :     -0.39558       2.00399       0.79609
                        -----------------------------------------
Magnitude (a.u.)       :      2.19231
Magnitude (Debye)      :      5.57241

                             ****ORCA TERMINATED NORMALLY****
TOTAL RUN TIME: 0 days 0 hours 16 minutes 19 seconds 380 msec
