                         Program Version 3.0.3 - RELEASE   -
|  1> ! RI-MP2 RIJK def2-TZVP def2-TZVP/C def2-TZVP/JK TIGHTSCF
|  2> % maxcore 2000
|  3> % mp2 density relaxed end
|  4> *xyz 0 1
|  5>  C       -0.1737525707     1.5078122309    -0.0119264421
|  6>  C       -0.1010155160     0.0555766140     0.0123633765
|  7>  C       -0.0337332826    -1.1467676140     0.0462025669
|  8>  C        0.0274369492    -2.6139452039     0.0272097680
|  9>  O       -1.2737551793    -3.1951462160    -0.0514806577
| 10>  C        0.6739371645    -2.9986058436    -1.3393188906
| 11>  O        1.8138973357    -3.3183127304    -1.4950614007
| 12>  C        0.7980059488    -3.1317731321     1.1596811030
| 13>  C        1.4032275716    -3.5745113132     2.0971398140
| 14>  H        0.6057700445     1.9268976133    -0.6570730532
| 15>  H       -1.1422050626     1.8484529547    -0.3932502527
| 16>  H       -0.0395034840     1.9269704157     0.9908511367
| 17>  H       -1.7809049678    -2.8718697438     0.7018828300
| 18>  H       -0.0671509339    -2.9183316779    -2.1608125356
| 19>  H        1.9488443825    -3.9654469036     2.9205144875
| 20> *
| 21>
| 22>                          ****END OF INPUT****

CARTESIAN COORDINATES (ANGSTROEM)
---------------------------------
  C     -0.173753    1.507812   -0.011926
  C     -0.101016    0.055577    0.012363
  C     -0.033733   -1.146768    0.046203
  C      0.027437   -2.613945    0.027210
  O     -1.273755   -3.195146   -0.051481
  C      0.673937   -2.998606   -1.339319
  O      1.813897   -3.318313   -1.495061
  C      0.798006   -3.131773    1.159681
  C      1.403228   -3.574511    2.097140
  H      0.605770    1.926898   -0.657073
  H     -1.142205    1.848453   -0.393250
  H     -0.039503    1.926970    0.990851
  H     -1.780905   -2.871870    0.701883
  H     -0.067151   -2.918332   -2.160813
  H      1.948844   -3.965447    2.920514

 Total Charge           Charge          ....    0
 Multiplicity           Mult            ....    1
 Number of Electrons    NEL             ....   64
 Basis Dimension        Dim             ....  315

ORBITAL ENERGIES
----------------

  NO   OCC          E(Eh)            E(eV)
   0   2.0000     -20.592339      -560.3460
   1   2.0000     -20.572551      -559.8076
   2   2.0000     -11.363424      -309.2145
   3   2.0000     -11.347796      -308.7892
   4   2.0000     -11.263503      -306.4955
   5   2.0000     -11.257389      -306.3291
   6   2.0000     -11.246497      -306.0327
   7   2.0000     -11.242357      -305.9201
   8   2.0000     -11.241273      -305.8906
   9   2.0000      -1.419214       -38.6188
  10   2.0000      -1.398352       -38.0511
  11   2.0000      -1.105841       -30.0915
  12   2.0000      -1.062075       -28.9005
  13   2.0000      -1.009745       -27.4765
  14   2.0000      -0.955166       -25.9914
  15   2.0000      -0.847868       -23.0717
  16   2.0000      -0.761698       -20.7269
  17   2.0000      -0.741815       -20.1858
  18   2.0000      -0.706331       -19.2202
  19   2.0000      -0.682789       -18.5796
  20   2.0000      -0.649624       -17.6772
  21   2.0000      -0.642967       -17.4960
  22   2.0000      -0.605263       -16.4700
  23   2.0000      -0.603823       -16.4309
  24   2.0000      -0.588333       -16.0094
  25   2.0000      -0.543932       -14.8011
  26   2.0000      -0.515196       -14.0192
  27   2.0000      -0.457154       -12.4398
  28   2.0000      -0.420209       -11.4345
  29   2.0000      -0.406232       -11.0541
  30   2.0000      -0.390660       -10.6304
  31   2.0000      -0.389931       -10.6106
  32   0.0000       0.108309         2.9472
  33   0.0000       0.121367         3.3026
  34   0.0000       0.141419         3.8482
  35   0.0000       0.155957         4.2438
  36   0.0000       0.157542         4.2869

MULLIKEN ATOMIC CHARGES
-----------------------
   0 C :   -0.486278
   1 C :    0.074718
   2 C :   -0.141225
   3 C :    0.199005
   4 O :   -0.454017
   5 C :    0.085851
   6 O :   -0.225114
   7 C :   -0.051184
   8 C :   -0.147061
   9 H :    0.171866
  10 H :    0.168647
  11 H :    0.169949
  12 H :    0.330428
  13 H :    0.106188
  14 H :    0.198226
Sum of atomic charges:   -0.0000000

LOEWDIN ATOMIC CHARGES
----------------------
   0 C :   -0.286330
   1 C :   -0.068473
   2 C :   -0.036481
   3 C :   -0.370059
   4 O :    0.037978
   5 C :   -0.220411
   6 O :    0.177151
   7 C :   -0.053400
   8 C :   -0.059870
   9 H :    0.146071
  10 H :    0.144606
  11 H :    0.144935
  12 H :    0.187455
  13 H :    0.126396
  14 H :    0.130430

  Mayer bond orders larger than 0.1
B(  0-C ,  1-C ) :   0.8445 B(  0-C ,  9-H ) :   0.9457 B(  0-C , 10-H ) :   0.9438
B(  0-C , 11-H ) :   0.9471 B(  1-C ,  2-C ) :   2.6336 B(  2-C ,  3-C ) :   1.1172
B(  3-C ,  4-O ) :   0.8575 B(  3-C ,  5-C ) :   0.7066 B(  3-C ,  6-O ) :  -0.1043
B(  3-C ,  7-C ) :   1.1750 B(  4-O , 12-H ) :   0.8359 B(  5-C ,  6-O ) :   2.0526
B(  5-C , 13-H ) :   0.9345 B(  7-C ,  8-C ) :   2.5813 B(  8-C , 14-H ) :   0.8878

MP2 TOTAL ENERGY:     -419.833680125 Eh
FINAL SINGLE POINT ENERGY      -419.833680124787

DIPOLE MOMENT
-------------
                                X             Y             Z
Electronic contribution:      1.58602      -6.67005      -0.64773
Nuclear contribution   :     -2.25973       7.74284       1.26530
                        -----------------------------------------
Total Dipole Moment    :     -0.67371       1.07279       0.61757
                        -----------------------------------------
Magnitude (a.u.)       :      1.40931
Magnitude (Debye)      :      3.58217

                             ****ORCA TERMINATED NORMALLY****
TOTAL RUN TIME: 0 days 0 hours 12 minutes 50 seconds 286 msec
