                         Program Version 3.0.3 - RELEASE   -
|  1> ! RI-MP2 RIJK def2-TZVP def2-TZVP/C def2-TZVP/JK TIGHTSCF
|  2> % maxcore 2000
|  3> % mp2 density relaxed end
|  4> *xyz 0 1
|  5>  C        0.0759861855     1.4303451403    -0.2409642775
|  6>  C        0.0094720949    -0.0822246528     0.0110814879
|  7>  C        0.8199746006    -0.4679896045     1.2560223086
|  8>  C       -1.4378040471    -0.5593741513     0.1263152103
|  9>  C       -2.3488672266    -0.4478891272    -1.1462153042
| 10>  C       -2.7508414893    -1.8863896031    -0.9065236474
| 11>  C       -1.7014885830    -2.1031845104     0.1626496531
| 12>  N       -3.7084122390    -2.5559712627    -1.3933549918
| 13>  O       -3.7468552578    -3.8521686397    -0.8383563737
| 14>  H        1.1113164390     1.7639485042    -0.3655459561
| 15>  H       -0.4770774538     1.7157258682    -1.1414963736
| 16>  H       -0.3516062329     1.9851271088     0.6028458506
| 17>  H        0.4552206222    -0.5922002286    -0.8567083582
| 18>  H        0.7998477956    -1.5479604684     1.4330714669
| 19>  H        1.8672673431    -0.1655376860     1.1535928337
| 20>  H        0.4186847496     0.0241696904     2.1500678262
| 21>  H       -1.9166073882    -0.0703342012     0.9821510289
| 22>  H       -3.1502239273     0.2947050191    -1.1349431399
| 23>  H       -1.7689383589    -0.3177471341    -2.0676379959
| 24>  H       -0.8514155777    -2.6973308630    -0.1933382690
| 25>  H       -2.0558171921    -2.5421240921     1.0984128275
| 26>  H       -4.5165950666    -4.2335011360    -1.2736139764
| 27> *
| 28>
| 29>                          ****END OF INPUT****

CARTESIAN COORDINATES (ANGSTROEM)
---------------------------------
  C      0.075986    1.430345   -0.240964
  C      0.009472   -0.082225    0.011081
  C      0.819975   -0.467990    1.256022
  C     -1.437804   -0.559374    0.126315
  C     -2.348867   -0.447889   -1.146215
  C     -2.750841   -1.886390   -0.906524
  C     -1.701489   -2.103185    0.162650
  N     -3.708412   -2.555971   -1.393355
  O     -3.746855   -3.852169   -0.838356
  H      1.111316    1.763949   -0.365546
  H     -0.477077    1.715726   -1.141496
  H     -0.351606    1.985127    0.602846
  H      0.455221   -0.592200   -0.856708
  H      0.799848   -1.547960    1.433071
  H      1.867267   -0.165538    1.153593
  H      0.418685    0.024170    2.150068
  H     -1.916607   -0.070334    0.982151
  H     -3.150224    0.294705   -1.134943
  H     -1.768938   -0.317747   -2.067638
  H     -0.851416   -2.697331   -0.193338
  H     -2.055817   -2.542124    1.098413
  H     -4.516595   -4.233501   -1.273614

 Total Charge           Charge          ....    0
 Multiplicity           Mult            ....    1
 Number of Electrons    NEL             ....   70
 Basis Dimension        Dim             ....  357

ORBITAL ENERGIES
----------------

  NO   OCC          E(Eh)            E(eV)
   0   2.0000     -20.583889      -560.1161
   1   2.0000     -15.606183      -424.6658
   2   2.0000     -11.271244      -306.7062
   3   2.0000     -11.237745      -305.7946
   4   2.0000     -11.234056      -305.6942
   5   2.0000     -11.233640      -305.6829
   6   2.0000     -11.233212      -305.6712
   7   2.0000     -11.217259      -305.2371
   8   2.0000     -11.216971      -305.2293
   9   2.0000      -1.407952       -38.3123
  10   2.0000      -1.179616       -32.0990
  11   2.0000      -1.106854       -30.1190
  12   2.0000      -1.045633       -28.4531
  13   2.0000      -0.939117       -25.5547
  14   2.0000      -0.916261       -24.9327
  15   2.0000      -0.864070       -23.5125
  16   2.0000      -0.767401       -20.8821
  17   2.0000      -0.721160       -19.6238
  18   2.0000      -0.685848       -18.6629
  19   2.0000      -0.673618       -18.3301
  20   2.0000      -0.640015       -17.4157
  21   2.0000      -0.615188       -16.7401
  22   2.0000      -0.583772       -15.8852
  23   2.0000      -0.576699       -15.6928
  24   2.0000      -0.562361       -15.3026
  25   2.0000      -0.552271       -15.0281
  26   2.0000      -0.538714       -14.6591
  27   2.0000      -0.524925       -14.2839
  28   2.0000      -0.505313       -13.7503
  29   2.0000      -0.497652       -13.5418
  30   2.0000      -0.464557       -12.6412
  31   2.0000      -0.453214       -12.3326
  32   2.0000      -0.445791       -12.1306
  33   2.0000      -0.418459       -11.3868
  34   2.0000      -0.376768       -10.2524
  35   0.0000       0.130611         3.5541
  36   0.0000       0.140912         3.8344
  37   0.0000       0.151138         4.1127
  38   0.0000       0.158018         4.2999
  39   0.0000       0.169224         4.6048

MULLIKEN ATOMIC CHARGES
-----------------------
   0 C :   -0.391805
   1 C :   -0.086814
   2 C :   -0.393222
   3 C :   -0.037565
   4 C :   -0.199587
   5 C :   -0.026239
   6 C :   -0.229425
   7 N :   -0.079023
   8 O :   -0.365594
   9 H :    0.133110
  10 H :    0.132123
  11 H :    0.122202
  12 H :    0.083094
  13 H :    0.133057
  14 H :    0.132959
  15 H :    0.122107
  16 H :    0.099442
  17 H :    0.128529
  18 H :    0.121320
  19 H :    0.128375
  20 H :    0.137900
  21 H :    0.335056
Sum of atomic charges:    0.0000000

LOEWDIN ATOMIC CHARGES
----------------------
   0 C :   -0.290477
   1 C :   -0.299803
   2 C :   -0.290270
   3 C :   -0.195536
   4 C :   -0.176673
   5 C :   -0.283681
   6 C :   -0.186924
   7 N :    0.019262
   8 O :   -0.080234
   9 H :    0.123662
  10 H :    0.123259
  11 H :    0.124030
  12 H :    0.151624
  13 H :    0.123572
  14 H :    0.123606
  15 H :    0.124026
  16 H :    0.151359
  17 H :    0.137033
  18 H :    0.145589
  19 H :    0.148590
  20 H :    0.140298
  21 H :    0.167688

  Mayer bond orders larger than 0.1
B(  0-C ,  1-C ) :   0.9221 B(  0-C ,  9-H ) :   0.9394 B(  0-C , 10-H ) :   0.9376
B(  0-C , 11-H ) :   0.9322 B(  1-C ,  2-C ) :   0.9232 B(  1-C ,  3-C ) :   0.9302
B(  1-C , 12-H ) :   0.9176 B(  2-C , 13-H ) :   0.9376 B(  2-C , 14-H ) :   0.9396
B(  2-C , 15-H ) :   0.9321 B(  3-C ,  4-C ) :   0.9307 B(  3-C ,  6-C ) :   0.9369
B(  3-C , 16-H ) :   0.9191 B(  4-C ,  5-C ) :   0.9478 B(  4-C , 17-H ) :   0.9031
B(  4-C , 18-H ) :   0.8961 B(  5-C ,  6-C ) :   0.9500 B(  5-C ,  7-N ) :   1.9129
B(  6-C , 19-H ) :   0.8967 B(  6-C , 20-H ) :   0.9075 B(  7-N ,  8-O ) :   0.7988
B(  8-O , 21-H ) :   0.8450

MP2 TOTAL ENERGY:     -403.608298860 Eh
FINAL SINGLE POINT ENERGY      -403.608298859556

DIPOLE MOMENT
-------------
                                X             Y             Z
Electronic contribution:    -10.03922      -8.41506      -4.15106
Nuclear contribution   :     10.35168       8.66649       4.31937
                        -----------------------------------------
Total Dipole Moment    :      0.31246       0.25143       0.16830
                        -----------------------------------------
Magnitude (a.u.)       :      0.43494
Magnitude (Debye)      :      1.10554

                             ****ORCA TERMINATED NORMALLY****
TOTAL RUN TIME: 0 days 0 hours 18 minutes 35 seconds 738 msec
