                         Program Version 3.0.3 - RELEASE   -
|  1> ! RI-MP2 RIJK def2-TZVP def2-TZVP/C def2-TZVP/JK TIGHTSCF
|  2> % maxcore 2000
|  3> % mp2 density relaxed end
|  4> *xyz 0 1
|  5>  N       -0.1487494657     1.2960163802     0.2467923239
|  6>  C        0.0498285998    -0.0281251908    -0.0292059598
|  7>  O        1.1344310573    -0.5314054603    -0.2523725515
|  8>  C       -1.2134619524    -0.8286475390    -0.0667136875
|  9>  C       -2.3895931547    -0.4585394051    -0.8914014539
| 10>  N       -2.5138591588    -0.3381854624     0.5665878412
| 11>  C       -2.7225389592    -1.7463337151     1.0741497659
| 12>  C       -1.3681356515    -2.2378776667     0.4939097812
| 13>  H        0.6706021380     1.8610526900     0.4036228054
| 14>  H       -1.0108670544     1.5615475256     0.6991787642
| 15>  H       -2.3619480629     0.4992692832    -1.4005359784
| 16>  H       -2.9413851568    -1.2407187599    -1.4103030942
| 17>  H       -2.7634631717    -1.7437335415     2.1643513026
| 18>  H       -3.6328682552    -2.2104266445     0.6819371775
| 19>  H       -1.3860224505    -3.0505601937    -0.2360747898
| 20>  H       -0.6296652512    -2.4705893901     1.2616387234
| 21> *
| 22>
| 23>                          ****END OF INPUT****

CARTESIAN COORDINATES (ANGSTROEM)
---------------------------------
  N     -0.148749    1.296016    0.246792
  C      0.049829   -0.028125   -0.029206
  O      1.134431   -0.531405   -0.252373
  C     -1.213462   -0.828648   -0.066714
  C     -2.389593   -0.458539   -0.891401
  N     -2.513859   -0.338185    0.566588
  C     -2.722539   -1.746334    1.074150
  C     -1.368136   -2.237878    0.493910
  H      0.670602    1.861053    0.403623
  H     -1.010867    1.561548    0.699179
  H     -2.361948    0.499269   -1.400536
  H     -2.941385   -1.240719   -1.410303
  H     -2.763463   -1.743734    2.164351
  H     -3.632868   -2.210427    0.681937
  H     -1.386022   -3.050560   -0.236075
  H     -0.629665   -2.470589    1.261639

 Total Charge           Charge          ....    0
 Multiplicity           Mult            ....    1
 Number of Electrons    NEL             ....   60
 Basis Dimension        Dim             ....  296

ORBITAL ENERGIES
----------------

  NO   OCC          E(Eh)            E(eV)
   0   2.0000     -20.520975      -558.4041
   1   2.0000     -15.580352      -423.9629
   2   2.0000     -15.578997      -423.9261
   3   2.0000     -11.353442      -308.9429
   4   2.0000     -11.282954      -307.0248
   5   2.0000     -11.276377      -306.8458
   6   2.0000     -11.269665      -306.6632
   7   2.0000     -11.242436      -305.9222
   8   2.0000      -1.384197       -37.6659
   9   2.0000      -1.308775       -35.6136
  10   2.0000      -1.208516       -32.8854
  11   2.0000      -1.021679       -27.8013
  12   2.0000      -0.969589       -26.3839
  13   2.0000      -0.875800       -23.8317
  14   2.0000      -0.823195       -22.4003
  15   2.0000      -0.748877       -20.3780
  16   2.0000      -0.722010       -19.6469
  17   2.0000      -0.678538       -18.4640
  18   2.0000      -0.661617       -18.0035
  19   2.0000      -0.646712       -17.5979
  20   2.0000      -0.605573       -16.4785
  21   2.0000      -0.577956       -15.7270
  22   2.0000      -0.563790       -15.3415
  23   2.0000      -0.547503       -14.8983
  24   2.0000      -0.506696       -13.7879
  25   2.0000      -0.469252       -12.7690
  26   2.0000      -0.466389       -12.6911
  27   2.0000      -0.420963       -11.4550
  28   2.0000      -0.412812       -11.2332
  29   2.0000      -0.387050       -10.5322
  30   0.0000       0.138742         3.7754
  31   0.0000       0.149733         4.0745
  32   0.0000       0.159113         4.3297
  33   0.0000       0.169903         4.6233
  34   0.0000       0.181708         4.9445

MULLIKEN ATOMIC CHARGES
-----------------------
   0 N :   -0.485527
   1 C :    0.172140
   2 O :   -0.339627
   3 C :    0.137434
   4 C :   -0.144883
   5 N :   -0.287329
   6 C :   -0.149744
   7 C :   -0.229206
   8 H :    0.255234
   9 H :    0.279299
  10 H :    0.142297
  11 H :    0.130691
  12 H :    0.129836
  13 H :    0.121098
  14 H :    0.130690
  15 H :    0.137595
Sum of atomic charges:    0.0000000

LOEWDIN ATOMIC CHARGES
----------------------
   0 N :   -0.014619
   1 C :   -0.457346
   2 O :    0.092283
   3 C :   -0.216276
   4 C :   -0.219446
   5 N :    0.100858
   6 C :   -0.236754
   7 C :   -0.198903
   8 H :    0.173424
   9 H :    0.178990
  10 H :    0.137762
  11 H :    0.131723
  12 H :    0.128562
  13 H :    0.122036
  14 H :    0.133615
  15 H :    0.144091

  Mayer bond orders larger than 0.1
B(  0-N ,  1-C ) :   1.1746 B(  0-N ,  8-H ) :   0.8627 B(  0-N ,  9-H ) :   0.8499
B(  1-C ,  2-O ) :   2.0100 B(  1-C ,  3-C ) :   0.8903 B(  3-C ,  4-C ) :   0.9011
B(  3-C ,  5-N ) :   0.7988 B(  3-C ,  7-C ) :   0.9073 B(  4-C ,  5-N ) :   0.8803
B(  4-C , 10-H ) :   0.9185 B(  4-C , 11-H ) :   0.9134 B(  5-N ,  6-C ) :   0.9030
B(  6-C ,  7-C ) :   0.9610 B(  6-C , 12-H ) :   0.9227 B(  6-C , 13-H ) :   0.9376
B(  7-C , 14-H ) :   0.9208 B(  7-C , 15-H ) :   0.9262

MP2 TOTAL ENERGY:     -379.279364967 Eh
FINAL SINGLE POINT ENERGY      -379.279364966947

DIPOLE MOMENT
-------------
                                X             Y             Z
Electronic contribution:      3.80060       2.11278      -0.66711
Nuclear contribution   :     -4.78070      -1.97165       0.92180
                        -----------------------------------------
Total Dipole Moment    :     -0.98010       0.14113       0.25468
                        -----------------------------------------
Magnitude (a.u.)       :      1.02244
Magnitude (Debye)      :      2.59884

                             ****ORCA TERMINATED NORMALLY****
TOTAL RUN TIME: 0 days 0 hours 13 minutes 23 seconds 0 msec
