                         Program Version 3.0.3 - RELEASE   -
|  1> ! RI-MP2 RIJK def2-TZVP def2-TZVP/C def2-TZVP/JK TIGHTSCF
|  2> % maxcore 2000
|  3> % mp2 density relaxed end
|  4> *xyz 0 1
|  5>  O        0.3750329655     1.4798998613    -0.4098887026
|  6>  C       -0.0289017694     0.2319126552     0.0469347134
|  7>  C        0.0969002674    -0.0288979533     1.5932756267
|  8>  C       -1.3187041586    -0.6004810927     1.5607519892
|  9>  C       -1.8192624933    -1.8521999607     2.1321192256
| 10>  O       -2.2276955675    -0.5715541574     2.6383346025
| 11>  C       -1.5786927766    -0.0043293545     0.1792015978
| 12>  C        0.6306445513    -0.8613539576    -0.7539350569
| 13>  O        1.3960170865    -0.6209980098    -1.6568483193
| 14>  H        0.9894265949     1.3096090265    -1.1424251216
| 15>  H        0.9121439624    -0.6624636588     1.9516458720
| 16>  H        0.1327491730     0.9371583469     2.1032390369
| 17>  H       -2.5936526356    -2.4150903980     1.6122822589
| 18>  H       -1.1864964883    -2.4357396933     2.7998350290
| 19>  H       -2.0707803001     0.9694904216     0.2436059247
| 20>  H       -2.0797060358    -0.6185703311    -0.5732285208
| 21>  H        0.3733896942    -1.9018941643    -0.4674940754
| 22> *
| 23>
| 24>                          ****END OF INPUT****

CARTESIAN COORDINATES (ANGSTROEM)
---------------------------------
  O      0.375033    1.479900   -0.409889
  C     -0.028902    0.231913    0.046935
  C      0.096900   -0.028898    1.593276
  C     -1.318704   -0.600481    1.560752
  C     -1.819262   -1.852200    2.132119
  O     -2.227696   -0.571554    2.638335
  C     -1.578693   -0.004329    0.179202
  C      0.630645   -0.861354   -0.753935
  O      1.396017   -0.620998   -1.656848
  H      0.989427    1.309609   -1.142425
  H      0.912144   -0.662464    1.951646
  H      0.132749    0.937158    2.103239
  H     -2.593653   -2.415090    1.612282
  H     -1.186496   -2.435740    2.799835
  H     -2.070780    0.969490    0.243606
  H     -2.079706   -0.618570   -0.573229
  H      0.373390   -1.901894   -0.467494

 Total Charge           Charge          ....    0
 Multiplicity           Mult            ....    1
 Number of Electrons    NEL             ....   68
 Basis Dimension        Dim             ....  327

ORBITAL ENERGIES
----------------

  NO   OCC          E(Eh)            E(eV)
   0   2.0000     -20.583059      -560.0935
   1   2.0000     -20.580950      -560.0361
   2   2.0000     -20.568429      -559.6954
   3   2.0000     -11.353056      -308.9324
   4   2.0000     -11.315944      -307.9225
   5   2.0000     -11.309115      -307.7367
   6   2.0000     -11.296413      -307.3910
   7   2.0000     -11.250363      -306.1379
   8   2.0000     -11.250346      -306.1375
   9   2.0000      -1.431277       -38.9470
  10   2.0000      -1.427453       -38.8430
  11   2.0000      -1.377784       -37.4914
  12   2.0000      -1.145427       -31.1687
  13   2.0000      -0.945243       -25.7214
  14   2.0000      -0.941433       -25.6177
  15   2.0000      -0.921548       -25.0766
  16   2.0000      -0.815619       -22.1941
  17   2.0000      -0.761578       -20.7236
  18   2.0000      -0.739637       -20.1265
  19   2.0000      -0.700846       -19.0710
  20   2.0000      -0.690697       -18.7948
  21   2.0000      -0.677165       -18.4266
  22   2.0000      -0.615920       -16.7600
  23   2.0000      -0.608402       -16.5554
  24   2.0000      -0.597332       -16.2542
  25   2.0000      -0.578946       -15.7539
  26   2.0000      -0.559573       -15.2268
  27   2.0000      -0.536230       -14.5916
  28   2.0000      -0.517574       -14.0839
  29   2.0000      -0.512036       -13.9332
  30   2.0000      -0.448310       -12.1991
  31   2.0000      -0.448258       -12.1977
  32   2.0000      -0.437818       -11.9136
  33   2.0000      -0.433207       -11.7882
  34   0.0000       0.110282         3.0009
  35   0.0000       0.129732         3.5302
  36   0.0000       0.159788         4.3480
  37   0.0000       0.162363         4.4181
  38   0.0000       0.172399         4.6912

MULLIKEN ATOMIC CHARGES
-----------------------
   0 O :   -0.452091
   1 C :    0.218894
   2 C :   -0.163543
   3 C :    0.011270
   4 C :   -0.104207
   5 O :   -0.324314
   6 C :   -0.163581
   7 C :    0.036993
   8 O :   -0.288898
   9 H :    0.334135
  10 H :    0.141079
  11 H :    0.130638
  12 H :    0.121050
  13 H :    0.121053
  14 H :    0.130625
  15 H :    0.141069
  16 H :    0.109828
Sum of atomic charges:   -0.0000000

LOEWDIN ATOMIC CHARGES
----------------------
   0 O :    0.031826
   1 C :   -0.364165
   2 C :   -0.149049
   3 C :   -0.329288
   4 C :   -0.237005
   5 O :    0.175261
   6 C :   -0.149070
   7 C :   -0.254564
   8 O :    0.130154
   9 H :    0.187300
  10 H :    0.136072
  11 H :    0.157266
  12 H :    0.122347
  13 H :    0.122347
  14 H :    0.157258
  15 H :    0.136065
  16 H :    0.127246

  Mayer bond orders larger than 0.1
B(  0-O ,  1-C ) :   1.1891 B(  0-O ,  9-H ) :   0.7991 B(  1-C ,  2-C ) :   0.8680
B(  1-C ,  6-C ) :   0.8680 B(  1-C ,  7-C ) :   0.8693 B(  2-C ,  3-C ) :   0.8867
B(  2-C , 10-H ) :   0.9186 B(  2-C , 11-H ) :   0.8726 B(  3-C ,  4-C ) :   1.0011
B(  3-C ,  5-O ) :   0.9144 B(  3-C ,  6-C ) :   0.8867 B(  4-C ,  5-O ) :   0.8969
B(  4-C , 12-H ) :   0.9157 B(  4-C , 13-H ) :   0.9157 B(  6-C , 14-H ) :   0.8726
B(  6-C , 15-H ) :   0.9186 B(  7-C ,  8-O ) :   1.9068 B(  7-C , 16-H ) :   0.9307

MP2 TOTAL ENERGY:     -458.199228430 Eh
FINAL SINGLE POINT ENERGY      -458.199228430146

DIPOLE MOMENT
-------------
                                X             Y             Z
Electronic contribution:      1.52034       1.38062      -1.77693
Nuclear contribution   :     -1.58600      -2.29532       1.83813
                        -----------------------------------------
Total Dipole Moment    :     -0.06566      -0.91470       0.06121
                        -----------------------------------------
Magnitude (a.u.)       :      0.91909
Magnitude (Debye)      :      2.33615

                             ****ORCA TERMINATED NORMALLY****
TOTAL RUN TIME: 0 days 0 hours 15 minutes 5 seconds 525 msec
