                         Program Version 3.0.3 - RELEASE   -
|  1> ! RI-MP2 RIJK def2-TZVP def2-TZVP/C def2-TZVP/JK TIGHTSCF
|  2> % maxcore 2000
|  3> % mp2 density relaxed end
|  4> *xyz 0 1
|  5>  C       -0.1293217588     1.5058243150    -0.0410595795
|  6>  N        0.1089943779     0.0740902189     0.0688020881
|  7>  C        1.3885245787    -0.5562498096    -0.1660655159
|  8>  C        0.7415787230    -0.5563988290     1.1956143533
|  9>  C        1.9179493826     0.2767763807     1.7935628457
| 10>  C        2.6950145264    -0.4622817737     2.7630536042
| 11>  C        3.3567985456    -1.1259366068     3.5191159276
| 12>  C        2.5843795512     0.2817847122     0.3471667734
| 13>  O        3.8369539677    -0.3261284970     0.2360101558
| 14>  H        0.6534656627     2.1520817343     0.3800604203
| 15>  H       -0.2428101809     1.7594253266    -1.0990654892
| 16>  H       -1.0697837973     1.7409057352     0.4662508521
| 17>  H        1.4677355486    -1.3419718708    -0.9107475533
| 18>  H        0.2208494181    -1.3390824918     1.7367415371
| 19>  H        1.6421666776     1.2587064636     2.1923569197
| 20>  H        3.9274456180    -1.6858228408     4.2187413147
| 21>  H        2.6796638933     1.2756911744    -0.0992085862
| 22>  H        3.9068575057    -1.0068578012     0.9189279720
| 23> *
| 24>
| 25>                          ****END OF INPUT****

CARTESIAN COORDINATES (ANGSTROEM)
---------------------------------
  C     -0.129322    1.505824   -0.041060
  N      0.108994    0.074090    0.068802
  C      1.388525   -0.556250   -0.166066
  C      0.741579   -0.556399    1.195614
  C      1.917949    0.276776    1.793563
  C      2.695015   -0.462282    2.763054
  C      3.356799   -1.125937    3.519116
  C      2.584380    0.281785    0.347167
  O      3.836954   -0.326128    0.236010
  H      0.653466    2.152082    0.380060
  H     -0.242810    1.759425   -1.099065
  H     -1.069784    1.740906    0.466251
  H      1.467736   -1.341972   -0.910748
  H      0.220849   -1.339082    1.736742
  H      1.642167    1.258706    2.192357
  H      3.927446   -1.685823    4.218741
  H      2.679664    1.275691   -0.099209
  H      3.906858   -1.006858    0.918928

 Total Charge           Charge          ....    0
 Multiplicity           Mult            ....    1
 Number of Electrons    NEL             ....   66
 Basis Dimension        Dim             ....  333

ORBITAL ENERGIES
----------------

  NO   OCC          E(Eh)            E(eV)
   0   2.0000     -20.561900      -559.5177
   1   2.0000     -15.571265      -423.7157
   2   2.0000     -11.299825      -307.4839
   3   2.0000     -11.273618      -306.7707
   4   2.0000     -11.269371      -306.6552
   5   2.0000     -11.263612      -306.4985
   6   2.0000     -11.254391      -306.2476
   7   2.0000     -11.249186      -306.1059
   8   2.0000     -11.238098      -305.8042
   9   2.0000      -1.376565       -37.4582
  10   2.0000      -1.300372       -35.3849
  11   2.0000      -1.095191       -29.8017
  12   2.0000      -1.028931       -27.9986
  13   2.0000      -0.973167       -26.4812
  14   2.0000      -0.915385       -24.9089
  15   2.0000      -0.805151       -21.9093
  16   2.0000      -0.792660       -21.5694
  17   2.0000      -0.741203       -20.1692
  18   2.0000      -0.711263       -19.3545
  19   2.0000      -0.678040       -18.4504
  20   2.0000      -0.647580       -17.6215
  21   2.0000      -0.633287       -17.2326
  22   2.0000      -0.614678       -16.7263
  23   2.0000      -0.582164       -15.8415
  24   2.0000      -0.574830       -15.6419
  25   2.0000      -0.555041       -15.1034
  26   2.0000      -0.493759       -13.4359
  27   2.0000      -0.471953       -12.8425
  28   2.0000      -0.462549       -12.5866
  29   2.0000      -0.416218       -11.3259
  30   2.0000      -0.409176       -11.1342
  31   2.0000      -0.394498       -10.7348
  32   2.0000      -0.370802       -10.0900
  33   0.0000       0.134883         3.6704
  34   0.0000       0.151551         4.1239
  35   0.0000       0.158805         4.3213
  36   0.0000       0.168559         4.5867
  37   0.0000       0.175441         4.7740

MULLIKEN ATOMIC CHARGES
-----------------------
   0 C :   -0.297400
   1 N :   -0.170644
   2 C :   -0.124423
   3 C :   -0.085564
   4 C :   -0.148856
   5 C :   -0.124232
   6 C :   -0.120245
   7 C :    0.059760
   8 O :   -0.446067
   9 H :    0.114040
  10 H :    0.145876
  11 H :    0.145291
  12 H :    0.136634
  13 H :    0.141956
  14 H :    0.135104
  15 H :    0.195992
  16 H :    0.116948
  17 H :    0.325828
Sum of atomic charges:   -0.0000000

LOEWDIN ATOMIC CHARGES
----------------------
   0 C :   -0.319567
   1 N :    0.132160
   2 C :   -0.202299
   3 C :   -0.188983
   4 C :   -0.190864
   5 C :   -0.101001
   6 C :   -0.094348
   7 C :   -0.279293
   8 O :    0.011207
   9 H :    0.107131
  10 H :    0.122443
  11 H :    0.121486
  12 H :    0.135563
  13 H :    0.137016
  14 H :    0.159821
  15 H :    0.129533
  16 H :    0.135428
  17 H :    0.184568

  Mayer bond orders larger than 0.1
B(  0-C ,  1-N ) :   0.8698 B(  0-C ,  9-H ) :   0.9177 B(  0-C , 10-H ) :   0.9364
B(  0-C , 11-H ) :   0.9381 B(  1-N ,  2-C ) :   0.9152 B(  1-N ,  3-C ) :   0.9423
B(  2-C ,  3-C ) :   0.8490 B(  2-C ,  7-C ) :   0.8596 B(  2-C , 12-H ) :   0.9303
B(  3-C ,  4-C ) :   0.8149 B(  3-C , 13-H ) :   0.9261 B(  4-C ,  5-C ) :   1.2191
B(  4-C ,  6-C ) :  -0.1171 B(  4-C ,  7-C ) :   0.8597 B(  4-C , 14-H ) :   0.9066
B(  5-C ,  6-C ) :   2.5469 B(  6-C , 15-H ) :   0.8950 B(  7-C ,  8-O ) :   1.0367
B(  7-C , 16-H ) :   0.9474 B(  8-O , 17-H ) :   0.8176

MP2 TOTAL ENERGY:     -401.157539251 Eh
FINAL SINGLE POINT ENERGY      -401.157539251306

DIPOLE MOMENT
-------------
                                X             Y             Z
Electronic contribution:      2.96342      -3.13454       1.75390
Nuclear contribution   :     -3.17309       3.25253      -1.30965
                        -----------------------------------------
Total Dipole Moment    :     -0.20966       0.11799       0.44425
                        -----------------------------------------
Magnitude (a.u.)       :      0.50521
Magnitude (Debye)      :      1.28414

                             ****ORCA TERMINATED NORMALLY****
TOTAL RUN TIME: 0 days 0 hours 16 minutes 42 seconds 422 msec
