                         Program Version 3.0.3 - RELEASE   -
|  1> ! RI-MP2 RIJK def2-TZVP def2-TZVP/C def2-TZVP/JK TIGHTSCF
|  2> % maxcore 2000
|  3> % mp2 density relaxed end
|  4> *xyz 0 1
|  5>  C       -0.3607029446     1.4712892409     0.0079108913
|  6>  C        0.0747229778     0.0132021610    -0.0571836626
|  7>  C       -1.0059450672    -0.9850570991     0.4396796085
|  8>  O       -0.2669861550    -1.2584048038     1.6514519460
|  9>  C        0.8740960685    -0.5229229909     1.1686475328
| 10>  C        2.0058950804    -1.3657186054     0.6052203741
| 11>  N        1.5233457378    -2.4810893842    -0.2365779580
| 12>  C        2.0046523739    -1.2507113779    -0.8833465936
| 13>  C        0.8740506809    -0.3372285795    -1.3346832660
| 14>  H        0.4990741041     2.1459846740    -0.0746556651
| 15>  H       -1.0520671045     1.7122058671    -0.8081883836
| 16>  H       -0.8704975207     1.6878703725     0.9524852951
| 17>  H       -1.9882720516    -0.5471849623     0.6569891433
| 18>  H       -1.1226017783    -1.8847510779    -0.1725722782
| 19>  H        1.2344816277     0.2013483498     1.9090858538
| 20>  H        2.9232434298    -1.4972383835     1.1697281572
| 21>  H        2.2413269941    -3.1994333951    -0.2800760599
| 22>  H        2.9270207726    -1.2840442999    -1.4558689231
| 23>  H        0.2481474693    -0.8130645603    -2.0975355661
| 24>  H        1.2943334853     0.5729882245    -1.7780525759
| 25> *
| 26>
| 27>                          ****END OF INPUT****

CARTESIAN COORDINATES (ANGSTROEM)
---------------------------------
  C     -0.360703    1.471289    0.007911
  C      0.074723    0.013202   -0.057184
  C     -1.005945   -0.985057    0.439680
  O     -0.266986   -1.258405    1.651452
  C      0.874096   -0.522923    1.168648
  C      2.005895   -1.365719    0.605220
  N      1.523346   -2.481089   -0.236578
  C      2.004652   -1.250711   -0.883347
  C      0.874051   -0.337229   -1.334683
  H      0.499074    2.145985   -0.074656
  H     -1.052067    1.712206   -0.808188
  H     -0.870498    1.687870    0.952485
  H     -1.988272   -0.547185    0.656989
  H     -1.122602   -1.884751   -0.172572
  H      1.234482    0.201348    1.909086
  H      2.923243   -1.497238    1.169728
  H      2.241327   -3.199433   -0.280076
  H      2.927021   -1.284044   -1.455869
  H      0.248147   -0.813065   -2.097536
  H      1.294333    0.572988   -1.778053

 Total Charge           Charge          ....    0
 Multiplicity           Mult            ....    1
 Number of Electrons    NEL             ....   68
 Basis Dimension        Dim             ....  345

ORBITAL ENERGIES
----------------

  NO   OCC          E(Eh)            E(eV)
   0   2.0000     -20.535446      -558.7979
   1   2.0000     -15.558256      -423.3617
   2   2.0000     -11.275093      -306.8109
   3   2.0000     -11.262897      -306.4790
   4   2.0000     -11.262221      -306.4606
   5   2.0000     -11.256483      -306.3045
   6   2.0000     -11.235405      -305.7309
   7   2.0000     -11.226555      -305.4901
   8   2.0000     -11.219844      -305.3075
   9   2.0000      -1.368799       -37.2469
  10   2.0000      -1.266838       -34.4724
  11   2.0000      -1.080903       -29.4129
  12   2.0000      -0.971467       -26.4350
  13   2.0000      -0.959881       -26.1197
  14   2.0000      -0.904573       -24.6147
  15   2.0000      -0.846748       -23.0412
  16   2.0000      -0.781964       -21.2783
  17   2.0000      -0.732749       -19.9391
  18   2.0000      -0.706548       -19.2261
  19   2.0000      -0.646486       -17.5918
  20   2.0000      -0.635667       -17.2974
  21   2.0000      -0.616916       -16.7871
  22   2.0000      -0.580397       -15.7934
  23   2.0000      -0.577457       -15.7134
  24   2.0000      -0.554357       -15.0848
  25   2.0000      -0.538127       -14.6432
  26   2.0000      -0.529940       -14.4204
  27   2.0000      -0.511235       -13.9114
  28   2.0000      -0.467608       -12.7242
  29   2.0000      -0.452377       -12.3098
  30   2.0000      -0.437527       -11.9057
  31   2.0000      -0.423625       -11.5274
  32   2.0000      -0.411035       -11.1848
  33   2.0000      -0.375643       -10.2218
  34   0.0000       0.131733         3.5846
  35   0.0000       0.142726         3.8838
  36   0.0000       0.172590         4.6964
  37   0.0000       0.176111         4.7922
  38   0.0000       0.191554         5.2125

MULLIKEN ATOMIC CHARGES
-----------------------
   0 C :   -0.448632
   1 C :    0.099776
   2 C :   -0.058075
   3 O :   -0.341051
   4 C :    0.175288
   5 C :   -0.181026
   6 N :   -0.382065
   7 C :   -0.033533
   8 C :   -0.217673
   9 H :    0.127827
  10 H :    0.137003
  11 H :    0.146320
  12 H :    0.091902
  13 H :    0.094221
  14 H :    0.090094
  15 H :    0.131637
  16 H :    0.214800
  17 H :    0.125589
  18 H :    0.119526
  19 H :    0.108072
Sum of atomic charges:    0.0000000

LOEWDIN ATOMIC CHARGES
----------------------
   0 C :   -0.275433
   1 C :   -0.243379
   2 C :   -0.227781
   3 O :    0.140749
   4 C :   -0.224868
   5 C :   -0.225785
   6 N :    0.018221
   7 C :   -0.245706
   8 C :   -0.195848
   9 H :    0.124987
  10 H :    0.127837
  11 H :    0.130465
  12 H :    0.115617
  13 H :    0.121129
  14 H :    0.136372
  15 H :    0.134031
  16 H :    0.168924
  17 H :    0.132551
  18 H :    0.144217
  19 H :    0.143698

  Mayer bond orders larger than 0.1
B(  0-C ,  1-C ) :   0.8912 B(  0-C ,  9-H ) :   0.9312 B(  0-C , 10-H ) :   0.9370
B(  0-C , 11-H ) :   0.9377 B(  1-C ,  2-C ) :   0.9944 B(  1-C ,  4-C ) :   0.9260
B(  1-C ,  8-C ) :   0.9525 B(  2-C ,  3-O ) :   0.9672 B(  2-C , 12-H ) :   0.9056
B(  2-C , 13-H ) :   0.8892 B(  3-O ,  4-C ) :   0.9429 B(  4-C ,  5-C ) :   0.9088
B(  4-C , 14-H ) :   0.9170 B(  5-C ,  6-N ) :   0.8655 B(  5-C ,  7-C ) :   0.9172
B(  5-C , 15-H ) :   0.9182 B(  6-N ,  7-C ) :   0.9710 B(  6-N , 16-H ) :   0.8668
B(  7-C ,  8-C ) :   0.9359 B(  7-C , 17-H ) :   0.9293 B(  8-C , 18-H ) :   0.9083
B(  8-C , 19-H ) :   0.9208

MP2 TOTAL ENERGY:     -402.427890628 Eh
FINAL SINGLE POINT ENERGY      -402.427890627573

DIPOLE MOMENT
-------------
                                X             Y             Z
Electronic contribution:      1.19065      -4.47138       2.85322
Nuclear contribution   :     -0.42222       4.97198      -3.52402
                        -----------------------------------------
Total Dipole Moment    :      0.76844       0.50060      -0.67080
                        -----------------------------------------
Magnitude (a.u.)       :      1.13625
Magnitude (Debye)      :      2.88812

                             ****ORCA TERMINATED NORMALLY****
TOTAL RUN TIME: 0 days 0 hours 20 minutes 24 seconds 985 msec
