                         Program Version 3.0.3 - RELEASE   -
|  1> ! RI-MP2 RIJK def2-TZVP def2-TZVP/C def2-TZVP/JK TIGHTSCF
|  2> % maxcore 2000
|  3> % mp2 density relaxed end
|  4> *xyz 0 1
|  5>  C        0.1870248491     1.5461142790     0.0116195586
|  6>  C        0.0789562926     0.0331711048     0.0539388357
|  7>  N        0.9841589674    -0.7054411503    -0.8711066417
|  8>  C        0.3993031792    -1.2904391857    -2.0565681765
|  9>  C        1.4386751771    -1.6125946056     0.2045002478
| 10>  C        2.7227305496    -1.1012516715     0.8686634964
| 11>  O        1.9637993173    -0.1801247662     1.6951613251
| 12>  C        0.6991373472    -0.7386175380     1.2526232939
| 13>  C       -0.1694131529    -1.1792750564     2.3999613928
| 14>  H        1.2038776925     1.8541002321     0.2647914795
| 15>  H       -0.0567896964     1.9238554500    -0.9868006616
| 16>  H       -0.5070433356     2.0066285314     0.7234521758
| 17>  H       -0.9697637994    -0.2855686260    -0.0779929056
| 18>  H        0.0452441615    -0.4961462818    -2.7224060656
| 19>  H        1.1544090961    -1.8666694984    -2.6019850193
| 20>  H       -0.4573629004    -1.9606756977    -1.8474695882
| 21>  H        1.2861735596    -2.6831623881     0.0462409732
| 22>  H        3.2532380163    -1.8368945676     1.4880376104
| 23>  H        3.4238224799    -0.5878605857     0.2034659805
| 24>  H       -0.4624042656    -0.3118966846     3.0029920428
| 25>  H       -1.0800939542    -1.6677415748     2.0399591711
| 26>  H        0.3681662788    -1.8740260887     3.0519943051
| 27> *
| 28>
| 29>                          ****END OF INPUT****

CARTESIAN COORDINATES (ANGSTROEM)
---------------------------------
  C      0.187025    1.546114    0.011620
  C      0.078956    0.033171    0.053939
  N      0.984159   -0.705441   -0.871107
  C      0.399303   -1.290439   -2.056568
  C      1.438675   -1.612595    0.204500
  C      2.722731   -1.101252    0.868663
  O      1.963799   -0.180125    1.695161
  C      0.699137   -0.738618    1.252623
  C     -0.169413   -1.179275    2.399961
  H      1.203878    1.854100    0.264791
  H     -0.056790    1.923855   -0.986801
  H     -0.507043    2.006629    0.723452
  H     -0.969764   -0.285569   -0.077993
  H      0.045244   -0.496146   -2.722406
  H      1.154409   -1.866669   -2.601985
  H     -0.457363   -1.960676   -1.847470
  H      1.286174   -2.683162    0.046241
  H      3.253238   -1.836895    1.488038
  H      3.423822   -0.587861    0.203466
  H     -0.462404   -0.311897    3.002992
  H     -1.080094   -1.667742    2.039959
  H      0.368166   -1.874026    3.051994

 Total Charge           Charge          ....    0
 Multiplicity           Mult            ....    1
 Number of Electrons    NEL             ....   70
 Basis Dimension        Dim             ....  357

ORBITAL ENERGIES
----------------

  NO   OCC          E(Eh)            E(eV)
   0   2.0000     -20.542371      -558.9863
   1   2.0000     -15.542732      -422.9392
   2   2.0000     -11.283467      -307.0387
   3   2.0000     -11.271106      -306.7024
   4   2.0000     -11.255863      -306.2876
   5   2.0000     -11.253851      -306.2329
   6   2.0000     -11.245748      -306.0124
   7   2.0000     -11.220206      -305.3173
   8   2.0000     -11.205770      -304.9245
   9   2.0000      -1.378769       -37.5182
  10   2.0000      -1.233094       -33.5542
  11   2.0000      -1.038062       -28.2471
  12   2.0000      -0.999243       -27.1908
  13   2.0000      -0.982981       -26.7483
  14   2.0000      -0.910446       -24.7745
  15   2.0000      -0.837394       -22.7866
  16   2.0000      -0.816813       -22.2266
  17   2.0000      -0.710896       -19.3445
  18   2.0000      -0.674284       -18.3482
  19   2.0000      -0.661387       -17.9972
  20   2.0000      -0.630237       -17.1496
  21   2.0000      -0.608555       -16.5596
  22   2.0000      -0.587038       -15.9741
  23   2.0000      -0.582936       -15.8625
  24   2.0000      -0.567731       -15.4487
  25   2.0000      -0.555238       -15.1088
  26   2.0000      -0.546607       -14.8739
  27   2.0000      -0.532991       -14.5034
  28   2.0000      -0.515366       -14.0238
  29   2.0000      -0.499055       -13.5800
  30   2.0000      -0.468423       -12.7464
  31   2.0000      -0.455035       -12.3821
  32   2.0000      -0.430026       -11.7016
  33   2.0000      -0.395637       -10.7658
  34   2.0000      -0.350369        -9.5340
  35   0.0000       0.132107         3.5948
  36   0.0000       0.156011         4.2453
  37   0.0000       0.162863         4.4317
  38   0.0000       0.168377         4.5818
  39   0.0000       0.192653         5.2424

MULLIKEN ATOMIC CHARGES
-----------------------
   0 C :   -0.425366
   1 C :   -0.027083
   2 N :   -0.166945
   3 C :   -0.335361
   4 C :   -0.108452
   5 C :   -0.015555
   6 O :   -0.353614
   7 C :    0.280193
   8 C :   -0.407508
   9 H :    0.149323
  10 H :    0.126688
  11 H :    0.119454
  12 H :    0.078250
  13 H :    0.138701
  14 H :    0.137101
  15 H :    0.102783
  16 H :    0.109826
  17 H :    0.092597
  18 H :    0.100237
  19 H :    0.140005
  20 H :    0.129223
  21 H :    0.135501
Sum of atomic charges:   -0.0000000

LOEWDIN ATOMIC CHARGES
----------------------
   0 C :   -0.294533
   1 C :   -0.234717
   2 N :    0.105348
   3 C :   -0.342096
   4 C :   -0.199712
   5 C :   -0.248687
   6 O :    0.154856
   7 C :   -0.284908
   8 C :   -0.273710
   9 H :    0.130793
  10 H :    0.124653
  11 H :    0.124373
  12 H :    0.139804
  13 H :    0.119660
  14 H :    0.118370
  15 H :    0.099357
  16 H :    0.130774
  17 H :    0.116510
  18 H :    0.119844
  19 H :    0.134819
  20 H :    0.128757
  21 H :    0.130448

  Mayer bond orders larger than 0.1
B(  0-C ,  1-C ) :   0.8918 B(  0-C ,  9-H ) :   0.9427 B(  0-C , 10-H ) :   0.9323
B(  0-C , 11-H ) :   0.9316 B(  1-C ,  2-N ) :   0.8922 B(  1-C ,  7-C ) :   0.9264
B(  1-C , 12-H ) :   0.9138 B(  2-N ,  3-C ) :   0.9030 B(  2-N ,  4-C ) :   0.9331
B(  3-C , 13-H ) :   0.9383 B(  3-C , 14-H ) :   0.9387 B(  3-C , 15-H ) :   0.9243
B(  4-C ,  5-C ) :   0.9661 B(  4-C ,  7-C ) :   0.9029 B(  4-C , 16-H ) :   0.9013
B(  5-C ,  6-O ) :   0.9315 B(  5-C , 17-H ) :   0.9175 B(  5-C , 18-H ) :   0.9023
B(  6-O ,  7-C ) :   0.8856 B(  7-C ,  8-C ) :   0.8947 B(  8-C , 19-H ) :   0.9324
B(  8-C , 20-H ) :   0.9393 B(  8-C , 21-H ) :   0.9340

MP2 TOTAL ENERGY:     -403.614948836 Eh
FINAL SINGLE POINT ENERGY      -403.614948835611

DIPOLE MOMENT
-------------
                                X             Y             Z
Electronic contribution:      3.95166      -0.34016       2.11258
Nuclear contribution   :     -4.42808      -0.32117      -2.39348
                        -----------------------------------------
Total Dipole Moment    :     -0.47642      -0.66133      -0.28090
                        -----------------------------------------
Magnitude (a.u.)       :      0.86211
Magnitude (Debye)      :      2.19131

                             ****ORCA TERMINATED NORMALLY****
TOTAL RUN TIME: 0 days 0 hours 20 minutes 42 seconds 43 msec
