                         Program Version 3.0.3 - RELEASE   -
|  1> ! RI-MP2 RIJK def2-TZVP def2-TZVP/C def2-TZVP/JK TIGHTSCF
|  2> % maxcore 2000
|  3> % mp2 density relaxed end
|  4> *xyz 0 1
|  5>  C       -0.4737207350     1.5180669699    -0.0536686626
|  6>  C        0.1945545502     0.1745265627     0.0408382929
|  7>  O        1.1007412571    -0.0256623063    -1.1149935585
|  8>  C        2.1693358546    -0.5764742107    -0.5205496694
|  9>  C        2.1331061709    -0.5545568526     0.8228359175
| 10>  O        0.9794404008     0.0717405083     1.2515507633
| 11>  C        3.3622875137    -1.1125111674     1.2005526071
| 12>  N        4.0722539469    -1.4549763456     0.1292153585
| 13>  O        3.2726302781    -1.0903498003    -1.0127865395
| 14>  H        0.2782523179     2.3102219165    -0.0527722014
| 15>  H       -1.0640442491     1.5778147498    -0.9711859094
| 16>  H       -1.1379757765     1.6525053144     0.8037892112
| 17>  H       -0.5140930092    -0.6651839092     0.0148303281
| 18>  H        3.7915133996    -1.2992084693     2.1736761222
| 19> *
| 20>
| 21>                          ****END OF INPUT****

CARTESIAN COORDINATES (ANGSTROEM)
---------------------------------
  C     -0.473721    1.518067   -0.053669
  C      0.194555    0.174527    0.040838
  O      1.100741   -0.025662   -1.114994
  C      2.169336   -0.576474   -0.520550
  C      2.133106   -0.554557    0.822836
  O      0.979440    0.071741    1.251551
  C      3.362288   -1.112511    1.200553
  N      4.072254   -1.454976    0.129215
  O      3.272630   -1.090350   -1.012787
  H      0.278252    2.310222   -0.052772
  H     -1.064044    1.577815   -0.971186
  H     -1.137976    1.652505    0.803789
  H     -0.514093   -0.665184    0.014830
  H      3.791513   -1.299208    2.173676

 Total Charge           Charge          ....    0
 Multiplicity           Mult            ....    1
 Number of Electrons    NEL             ....   66
 Basis Dimension        Dim             ....  309

ORBITAL ENERGIES
----------------

  NO   OCC          E(Eh)            E(eV)
   0   2.0000     -20.657663      -562.1236
   1   2.0000     -20.633144      -561.4564
   2   2.0000     -20.612495      -560.8945
   3   2.0000     -15.624762      -425.1714
   4   2.0000     -11.385009      -309.8019
   5   2.0000     -11.372638      -309.4652
   6   2.0000     -11.304463      -307.6101
   7   2.0000     -11.286786      -307.1291
   8   2.0000     -11.247694      -306.0653
   9   2.0000      -1.520753       -41.3818
  10   2.0000      -1.470781       -40.0220
  11   2.0000      -1.393492       -37.9189
  12   2.0000      -1.176023       -32.0012
  13   2.0000      -1.090021       -29.6610
  14   2.0000      -1.016730       -27.6666
  15   2.0000      -0.881197       -23.9786
  16   2.0000      -0.853548       -23.2262
  17   2.0000      -0.833665       -22.6852
  18   2.0000      -0.745707       -20.2917
  19   2.0000      -0.735584       -20.0163
  20   2.0000      -0.703917       -19.1546
  21   2.0000      -0.675294       -18.3757
  22   2.0000      -0.621436       -16.9101
  23   2.0000      -0.597992       -16.2722
  24   2.0000      -0.595543       -16.2055
  25   2.0000      -0.587957       -15.9991
  26   2.0000      -0.570086       -15.5128
  27   2.0000      -0.560799       -15.2601
  28   2.0000      -0.549048       -14.9403
  29   2.0000      -0.518098       -14.0982
  30   2.0000      -0.487192       -13.2572
  31   2.0000      -0.438824       -11.9410
  32   2.0000      -0.325075        -8.8457
  33   0.0000       0.123846         3.3700
  34   0.0000       0.134213         3.6521
  35   0.0000       0.164800         4.4844
  36   0.0000       0.171181         4.6581
  37   0.0000       0.189816         5.1652

MULLIKEN ATOMIC CHARGES
-----------------------
   0 C :   -0.361359
   1 C :    0.239333
   2 O :   -0.265227
   3 C :    0.244051
   4 C :    0.110375
   5 O :   -0.293902
   6 C :   -0.136240
   7 N :   -0.125021
   8 O :   -0.113425
   9 H :    0.144031
  10 H :    0.146706
  11 H :    0.147442
  12 H :    0.106339
  13 H :    0.156897
Sum of atomic charges:    0.0000000

LOEWDIN ATOMIC CHARGES
----------------------
   0 C :   -0.281816
   1 C :   -0.284696
   2 O :    0.256274
   3 C :   -0.419856
   4 C :   -0.287270
   5 O :    0.229742
   6 C :   -0.246679
   7 N :    0.039430
   8 O :    0.302479
   9 H :    0.135767
  10 H :    0.136771
  11 H :    0.138331
  12 H :    0.135577
  13 H :    0.145946

  Mayer bond orders larger than 0.1
B(  0-C ,  1-C ) :   0.9519 B(  0-C ,  9-H ) :   0.9248 B(  0-C , 10-H ) :   0.9261
B(  0-C , 11-H ) :   0.9249 B(  1-C ,  2-O ) :   0.8389 B(  1-C ,  5-O ) :   0.9008
B(  1-C , 12-H ) :   0.9199 B(  2-O ,  3-C ) :   1.0779 B(  3-C ,  4-C ) :   1.4124
B(  3-C ,  7-N ) :   0.1225 B(  3-C ,  8-O ) :   1.1870 B(  4-C ,  5-O ) :   0.9903
B(  4-C ,  6-C ) :   1.2474 B(  6-C ,  7-N ) :   1.5402 B(  6-C , 13-H ) :   0.9264
B(  7-N ,  8-O ) :   0.8354

MP2 TOTAL ENERGY:     -473.018633295 Eh
FINAL SINGLE POINT ENERGY      -473.018633294769

DIPOLE MOMENT
-------------
                                X             Y             Z
Electronic contribution:      6.02643      -4.26752      -1.09333
Nuclear contribution   :     -7.31004       4.82732       1.54825
                        -----------------------------------------
Total Dipole Moment    :     -1.28361       0.55979       0.45492
                        -----------------------------------------
Magnitude (a.u.)       :      1.47240
Magnitude (Debye)      :      3.74256

                             ****ORCA TERMINATED NORMALLY****
TOTAL RUN TIME: 0 days 0 hours 15 minutes 1 seconds 984 msec
