                         Program Version 3.0.3 - RELEASE   -
|  1> ! RI-MP2 RIJK def2-TZVP def2-TZVP/C def2-TZVP/JK TIGHTSCF
|  2> % maxcore 2000
|  3> % mp2 density relaxed end
|  4> *xyz 0 1
|  5>  C       -0.1840396429     1.5670053284    -0.0015069312
|  6>  C        0.0185877299     0.0513898643    -0.0089829888
|  7>  C        0.9257230290    -0.4664419013    -1.1212554458
|  8>  C        1.3839418410    -1.9116546212    -0.7799759648
|  9>  O        2.6841505097    -1.6948950623    -1.4285044780
| 10>  C        2.4163173381    -0.4666440204    -0.6620211229
| 11>  C        1.9010045823    -1.2945594826     0.5503176383
| 12>  C        0.7936605830    -0.5202313593     1.2411612372
| 13>  O        1.4040197380     0.4647543366     2.0631325758
| 14>  H        0.7667091998     2.0977042628     0.0934430211
| 15>  H       -0.6685576877     1.8932482417    -0.9272437262
| 16>  H       -0.8272889667     1.8827343725     0.8280544497
| 17>  H       -0.9629650492    -0.4344436660    -0.0804478653
| 18>  H        0.7095416095    -0.2280157116    -2.1627618124
| 19>  H        0.8769616053    -2.8618561631    -0.9542319330
| 20>  H        3.1632649655     0.3254534567    -0.6919738175
| 21>  H        2.6204149630    -1.8513578866     1.1481986931
| 22>  H        0.1477055671    -1.1719229151     1.8468197085
| 23>  H        0.7120198853     0.9400568567     2.5331287822
| 24> *
| 25>
| 26>                          ****END OF INPUT****

CARTESIAN COORDINATES (ANGSTROEM)
---------------------------------
  C     -0.184040    1.567005   -0.001507
  C      0.018588    0.051390   -0.008983
  C      0.925723   -0.466442   -1.121255
  C      1.383942   -1.911655   -0.779976
  O      2.684151   -1.694895   -1.428504
  C      2.416317   -0.466644   -0.662021
  C      1.901005   -1.294559    0.550318
  C      0.793661   -0.520231    1.241161
  O      1.404020    0.464754    2.063133
  H      0.766709    2.097704    0.093443
  H     -0.668558    1.893248   -0.927244
  H     -0.827289    1.882734    0.828054
  H     -0.962965   -0.434444   -0.080448
  H      0.709542   -0.228016   -2.162762
  H      0.876962   -2.861856   -0.954232
  H      3.163265    0.325453   -0.691974
  H      2.620415   -1.851358    1.148199
  H      0.147706   -1.171923    1.846820
  H      0.712020    0.940057    2.533129

 Total Charge           Charge          ....    0
 Multiplicity           Mult            ....    1
 Number of Electrons    NEL             ....   68
 Basis Dimension        Dim             ....  339

ORBITAL ENERGIES
----------------

  NO   OCC          E(Eh)            E(eV)
   0   2.0000     -20.563039      -559.5487
   1   2.0000     -20.544017      -559.0311
   2   2.0000     -11.296534      -307.3943
   3   2.0000     -11.294562      -307.3406
   4   2.0000     -11.288042      -307.1633
   5   2.0000     -11.240305      -305.8643
   6   2.0000     -11.238250      -305.8083
   7   2.0000     -11.237587      -305.7903
   8   2.0000     -11.223612      -305.4100
   9   2.0000      -1.395924       -37.9850
  10   2.0000      -1.368609       -37.2417
  11   2.0000      -1.142122       -31.0787
  12   2.0000      -1.020370       -27.7657
  13   2.0000      -0.950991       -25.8778
  14   2.0000      -0.899255       -24.4700
  15   2.0000      -0.881242       -23.9798
  16   2.0000      -0.777702       -21.1623
  17   2.0000      -0.732490       -19.9321
  18   2.0000      -0.705762       -19.2048
  19   2.0000      -0.696242       -18.9457
  20   2.0000      -0.658218       -17.9110
  21   2.0000      -0.619955       -16.8698
  22   2.0000      -0.595276       -16.1983
  23   2.0000      -0.563091       -15.3225
  24   2.0000      -0.554080       -15.0773
  25   2.0000      -0.540390       -14.7048
  26   2.0000      -0.528790       -14.3891
  27   2.0000      -0.518204       -14.1010
  28   2.0000      -0.479715       -13.0537
  29   2.0000      -0.472531       -12.8582
  30   2.0000      -0.451569       -12.2878
  31   2.0000      -0.436422       -11.8757
  32   2.0000      -0.429389       -11.6843
  33   2.0000      -0.393546       -10.7089
  34   0.0000       0.119245         3.2448
  35   0.0000       0.148906         4.0519
  36   0.0000       0.162874         4.4320
  37   0.0000       0.178927         4.8688
  38   0.0000       0.185773         5.0551

MULLIKEN ATOMIC CHARGES
-----------------------
   0 C :   -0.485305
   1 C :   -0.015446
   2 C :   -0.066972
   3 C :   -0.034033
   4 O :   -0.322348
   5 C :   -0.050959
   6 C :   -0.020167
   7 C :    0.002747
   8 O :   -0.453655
   9 H :    0.158053
  10 H :    0.137012
  11 H :    0.125387
  12 H :    0.095038
  13 H :    0.126976
  14 H :    0.127798
  15 H :    0.135094
  16 H :    0.128813
  17 H :    0.095674
  18 H :    0.316294
Sum of atomic charges:   -0.0000000

LOEWDIN ATOMIC CHARGES
----------------------
   0 C :   -0.299539
   1 C :   -0.233409
   2 C :   -0.152616
   3 C :   -0.189304
   4 O :    0.127911
   5 C :   -0.178329
   6 C :   -0.149980
   7 C :   -0.289783
   8 O :   -0.008008
   9 H :    0.128526
  10 H :    0.126804
  11 H :    0.119667
  12 H :    0.150597
  13 H :    0.143758
  14 H :    0.125104
  15 H :    0.127762
  16 H :    0.145474
  17 H :    0.131327
  18 H :    0.174038

  Mayer bond orders larger than 0.1
B(  0-C ,  1-C ) :   0.8552 B(  0-C ,  9-H ) :   0.9332 B(  0-C , 10-H ) :   0.9372
B(  0-C , 11-H ) :   0.9443 B(  1-C ,  2-C ) :   0.8332 B(  1-C ,  7-C ) :   0.8933
B(  1-C , 12-H ) :   0.9084 B(  2-C ,  3-C ) :   0.8939 B(  2-C ,  5-C ) :   0.9229
B(  2-C ,  6-C ) :  -0.1290 B(  2-C , 13-H ) :   0.9204 B(  3-C ,  4-O ) :   0.9250
B(  3-C ,  6-C ) :   0.9003 B(  3-C , 14-H ) :   0.8952 B(  4-O ,  5-C ) :   0.9267
B(  5-C ,  6-C ) :   0.8982 B(  5-C , 15-H ) :   0.8853 B(  6-C ,  7-C ) :   0.8577
B(  6-C , 16-H ) :   0.9220 B(  7-C ,  8-O ) :   1.0593 B(  7-C , 17-H ) :   0.9504
B(  8-O , 18-H ) :   0.8445

MP2 TOTAL ENERGY:     -422.266624303 Eh
FINAL SINGLE POINT ENERGY      -422.266624303174

DIPOLE MOMENT
-------------
                                X             Y             Z
Electronic contribution:      4.49722      -4.32397      -0.88246
Nuclear contribution   :     -5.67791       4.68555       1.36210
                        -----------------------------------------
Total Dipole Moment    :     -1.18070       0.36158       0.47963
                        -----------------------------------------
Magnitude (a.u.)       :      1.32470
Magnitude (Debye)      :      3.36712

                             ****ORCA TERMINATED NORMALLY****
TOTAL RUN TIME: 0 days 0 hours 17 minutes 29 seconds 884 msec
