                         Program Version 3.0.3 - RELEASE   -
|  1> ! RI-MP2 RIJK def2-TZVP def2-TZVP/C def2-TZVP/JK TIGHTSCF
|  2> % maxcore 2000
|  3> % mp2 density relaxed end
|  4> *xyz 0 1
|  5>  C       -0.0015200284     1.5302287407    -0.0056537136
|  6>  C        0.0017769834     0.0307749426     0.0158953669
|  7>  C       -0.0483531140    -0.8075017779    -1.0835350155
|  8>  N       -0.0242231879    -2.1010365806    -0.6532686206
|  9>  C        0.0406588068    -2.1219606535     0.7242071307
| 10>  C        0.0577201923    -0.8063098527     1.1585059308
| 11>  C        0.0776627983    -3.3319792536     1.4481470251
| 12>  N        0.1075803163    -4.3340736390     2.0313063018
| 13>  H        0.9105653857     1.9421812794     0.4402287009
| 14>  H       -0.0693959837     1.9089976094    -1.0292234158
| 15>  H       -0.8483298591     1.9394317822     0.5561264946
| 16>  H       -0.0990656345    -0.5734681028    -2.1354059185
| 17>  H       -0.0502576497    -2.9198343314    -1.2363370234
| 18>  H        0.1055471547    -0.4953352128     2.1906871766
| 19> *
| 20>
| 21>                          ****END OF INPUT****

CARTESIAN COORDINATES (ANGSTROEM)
---------------------------------
  C     -0.001520    1.530229   -0.005654
  C      0.001777    0.030775    0.015895
  C     -0.048353   -0.807502   -1.083535
  N     -0.024223   -2.101037   -0.653269
  C      0.040659   -2.121961    0.724207
  C      0.057720   -0.806310    1.158506
  C      0.077663   -3.331979    1.448147
  N      0.107580   -4.334074    2.031306
  H      0.910565    1.942181    0.440229
  H     -0.069396    1.908998   -1.029223
  H     -0.848330    1.939432    0.556126
  H     -0.099066   -0.573468   -2.135406
  H     -0.050258   -2.919834   -1.236337
  H      0.105547   -0.495335    2.190687

 Total Charge           Charge          ....    0
 Multiplicity           Mult            ....    1
 Number of Electrons    NEL             ....   56
 Basis Dimension        Dim             ....  284

ORBITAL ENERGIES
----------------

  NO   OCC          E(Eh)            E(eV)
   0   2.0000     -15.635067      -425.4518
   1   2.0000     -15.574086      -423.7924
   2   2.0000     -11.300499      -307.5022
   3   2.0000     -11.281568      -306.9871
   4   2.0000     -11.279554      -306.9323
   5   2.0000     -11.247723      -306.0661
   6   2.0000     -11.242301      -305.9186
   7   2.0000     -11.235154      -305.7241
   8   2.0000      -1.325694       -36.0740
   9   2.0000      -1.217129       -33.1198
  10   2.0000      -1.092573       -29.7304
  11   2.0000      -1.039363       -28.2825
  12   2.0000      -0.958897       -26.0929
  13   2.0000      -0.856043       -23.2941
  14   2.0000      -0.796225       -21.6664
  15   2.0000      -0.770520       -20.9669
  16   2.0000      -0.660752       -17.9800
  17   2.0000      -0.624022       -16.9805
  18   2.0000      -0.616833       -16.7849
  19   2.0000      -0.591320       -16.0906
  20   2.0000      -0.569959       -15.5094
  21   2.0000      -0.564476       -15.3602
  22   2.0000      -0.553119       -15.0511
  23   2.0000      -0.527832       -14.3630
  24   2.0000      -0.490129       -13.3371
  25   2.0000      -0.467780       -12.7289
  26   2.0000      -0.367801       -10.0084
  27   2.0000      -0.318936        -8.6787
  28   0.0000       0.101087         2.7507
  29   0.0000       0.120565         3.2807
  30   0.0000       0.137389         3.7385
  31   0.0000       0.168588         4.5875
  32   0.0000       0.171091         4.6556

MULLIKEN ATOMIC CHARGES
-----------------------
   0 C :   -0.431682
   1 C :    0.103681
   2 C :   -0.119316
   3 N :   -0.279484
   4 C :    0.320331
   5 C :   -0.315119
   6 C :   -0.218196
   7 N :   -0.047428
   8 H :    0.147382
   9 H :    0.136535
  10 H :    0.147308
  11 H :    0.153210
  12 H :    0.258762
  13 H :    0.144016
Sum of atomic charges:    0.0000000

LOEWDIN ATOMIC CHARGES
----------------------
   0 C :   -0.269067
   1 C :   -0.201797
   2 C :   -0.196459
   3 N :    0.224167
   4 C :   -0.230870
   5 C :   -0.110363
   6 C :   -0.170319
   7 N :    0.069245
   8 H :    0.132315
   9 H :    0.131225
  10 H :    0.132352
  11 H :    0.138569
  12 H :    0.201489
  13 H :    0.149513

  Mayer bond orders larger than 0.1
B(  0-C ,  1-C ) :   0.8538 B(  0-C ,  8-H ) :   0.9362 B(  0-C ,  9-H ) :   0.9547
B(  0-C , 10-H ) :   0.9373 B(  1-C ,  2-C ) :   1.4468 B(  1-C ,  5-C ) :   1.3019
B(  2-C ,  3-N ) :   1.1764 B(  2-C , 11-H ) :   0.9053 B(  3-N ,  4-C ) :   1.0910
B(  3-N , 12-H ) :   0.8691 B(  4-C ,  5-C ) :   1.3931 B(  4-C ,  6-C ) :   0.8958
B(  5-C , 13-H ) :   0.9361 B(  6-C ,  7-N ) :   2.8634

MP2 TOTAL ENERGY:     -341.032979229 Eh
FINAL SINGLE POINT ENERGY      -341.032979228558

DIPOLE MOMENT
-------------
                                X             Y             Z
Electronic contribution:      0.12214      -8.75817       2.18276
Nuclear contribution   :     -0.18832       9.86386      -3.53309
                        -----------------------------------------
Total Dipole Moment    :     -0.06618       1.10568      -1.35032
                        -----------------------------------------
Magnitude (a.u.)       :      1.74651
Magnitude (Debye)      :      4.43927

                             ****ORCA TERMINATED NORMALLY****
TOTAL RUN TIME: 0 days 0 hours 10 minutes 45 seconds 474 msec
