                         Program Version 3.0.3 - RELEASE   -
|  1> ! RI-MP2 RIJK def2-TZVP def2-TZVP/C def2-TZVP/JK TIGHTSCF
|  2> % maxcore 2000
|  3> % mp2 density relaxed end
|  4> *xyz 0 1
|  5>  C       -1.8937950847     0.5784029381    -0.8691913461
|  6>  N       -0.8204858274    -0.3863784685    -0.6385073535
|  7>  C        0.4346730928    -0.3107766795    -1.3469311301
|  8>  C        0.7681456725     0.7381470256    -2.3896962023
|  9>  O        0.2789506719     0.3525061892    -3.6685083303
| 10>  C        0.3725805628    -0.0158773253     0.1435034804
| 11>  C        0.6214813688     1.3519008199     0.6727739059
| 12>  O        0.2657256820     2.3980839078     0.1762003843
| 13>  H       -1.5738549155     1.6163961415    -0.9993538848
| 14>  H       -2.4527742779     0.2490197284    -1.7519194063
| 15>  H       -2.5760210597     0.5389926164    -0.0149339689
| 16>  H        0.8376186937    -1.2915255330    -1.6011174602
| 17>  H        0.4163412772     1.7295655014    -2.0911474053
| 18>  H        1.8569738717     0.7935921792    -2.4935449499
| 19>  H       -0.6800377307     0.4302381079    -3.6533167344
| 20>  H        0.7074092634    -0.7979342713     0.8228666009
| 21>  H        1.1857733191     1.3491893322     1.6319335404
| 22> *
| 23>
| 24>                          ****END OF INPUT****

CARTESIAN COORDINATES (ANGSTROEM)
---------------------------------
  C     -1.893795    0.578403   -0.869191
  N     -0.820486   -0.386378   -0.638507
  C      0.434673   -0.310777   -1.346931
  C      0.768146    0.738147   -2.389696
  O      0.278951    0.352506   -3.668508
  C      0.372581   -0.015877    0.143503
  C      0.621481    1.351901    0.672774
  O      0.265726    2.398084    0.176200
  H     -1.573855    1.616396   -0.999354
  H     -2.452774    0.249020   -1.751919
  H     -2.576021    0.538993   -0.014934
  H      0.837619   -1.291526   -1.601117
  H      0.416341    1.729566   -2.091147
  H      1.856974    0.793592   -2.493545
  H     -0.680038    0.430238   -3.653317
  H      0.707409   -0.797934    0.822867
  H      1.185773    1.349189    1.631934

 Total Charge           Charge          ....    0
 Multiplicity           Mult            ....    1
 Number of Electrons    NEL             ....   62
 Basis Dimension        Dim             ....  302

ORBITAL ENERGIES
----------------

  NO   OCC          E(Eh)            E(eV)
   0   2.0000     -20.566448      -559.6415
   1   2.0000     -20.562186      -559.5255
   2   2.0000     -15.582650      -424.0255
   3   2.0000     -11.347087      -308.7699
   4   2.0000     -11.283978      -307.0526
   5   2.0000     -11.282030      -306.9996
   6   2.0000     -11.280695      -306.9633
   7   2.0000     -11.255278      -306.2717
   8   2.0000      -1.406166       -38.2637
   9   2.0000      -1.366664       -37.1888
  10   2.0000      -1.289097       -35.0781
  11   2.0000      -1.025603       -27.9081
  12   2.0000      -0.975374       -26.5413
  13   2.0000      -0.927364       -25.2348
  14   2.0000      -0.796856       -21.6835
  15   2.0000      -0.776845       -21.1390
  16   2.0000      -0.730746       -19.8846
  17   2.0000      -0.685557       -18.6550
  18   2.0000      -0.665988       -18.1225
  19   2.0000      -0.641816       -17.4647
  20   2.0000      -0.618111       -16.8197
  21   2.0000      -0.609086       -16.5741
  22   2.0000      -0.581811       -15.8319
  23   2.0000      -0.572007       -15.5651
  24   2.0000      -0.546789       -14.8789
  25   2.0000      -0.518054       -14.0970
  26   2.0000      -0.511622       -13.9219
  27   2.0000      -0.465725       -12.6730
  28   2.0000      -0.441617       -12.0170
  29   2.0000      -0.430960       -11.7270
  30   2.0000      -0.381370       -10.3776
  31   0.0000       0.100496         2.7346
  32   0.0000       0.133245         3.6258
  33   0.0000       0.150248         4.0885
  34   0.0000       0.176803         4.8111
  35   0.0000       0.183982         5.0064

MULLIKEN ATOMIC CHARGES
-----------------------
   0 C :   -0.338185
   1 N :   -0.196999
   2 C :   -0.065266
   3 C :   -0.055319
   4 O :   -0.467798
   5 C :   -0.092950
   6 C :    0.120362
   7 O :   -0.301296
   8 H :    0.160774
   9 H :    0.136698
  10 H :    0.146585
  11 H :    0.129636
  12 H :    0.154353
  13 H :    0.123072
  14 H :    0.318104
  15 H :    0.135721
  16 H :    0.092510
Sum of atomic charges:    0.0000000

LOEWDIN ATOMIC CHARGES
----------------------
   0 C :   -0.325442
   1 N :    0.124694
   2 C :   -0.233627
   3 C :   -0.328032
   4 O :   -0.042913
   5 C :   -0.237935
   6 C :   -0.291685
   7 O :    0.120775
   8 H :    0.114522
   9 H :    0.118069
  10 H :    0.123679
  11 H :    0.150232
  12 H :    0.128366
  13 H :    0.138034
  14 H :    0.172859
  15 H :    0.149540
  16 H :    0.118866

  Mayer bond orders larger than 0.1
B(  0-C ,  1-N ) :   0.8686 B(  0-C ,  8-H ) :   0.9184 B(  0-C ,  9-H ) :   0.9328
B(  0-C , 10-H ) :   0.9363 B(  1-N ,  2-C ) :   0.9088 B(  1-N ,  5-C ) :   0.9084
B(  2-C ,  3-C ) :   0.9301 B(  2-C ,  5-C ) :   0.8519 B(  2-C , 11-H ) :   0.9193
B(  3-C ,  4-O ) :   0.8914 B(  3-C , 12-H ) :   0.9259 B(  3-C , 13-H ) :   0.9227
B(  4-O , 14-H ) :   0.8487 B(  5-C ,  6-C ) :   0.9342 B(  5-C , 15-H ) :   0.9008
B(  6-C ,  7-O ) :   1.8893 B(  6-C , 16-H ) :   0.9404

MP2 TOTAL ENERGY:     -400.310222122 Eh
FINAL SINGLE POINT ENERGY      -400.310222122269

DIPOLE MOMENT
-------------
                                X             Y             Z
Electronic contribution:      1.93830       0.59685       1.21117
Nuclear contribution   :     -2.02851      -0.88577      -0.69939
                        -----------------------------------------
Total Dipole Moment    :     -0.09021      -0.28892       0.51178
                        -----------------------------------------
Magnitude (a.u.)       :      0.59459
Magnitude (Debye)      :      1.51133

                             ****ORCA TERMINATED NORMALLY****
TOTAL RUN TIME: 0 days 0 hours 13 minutes 8 seconds 588 msec
