                         Program Version 3.0.3 - RELEASE   -
|  1> ! RI-MP2 RIJK def2-TZVP def2-TZVP/C def2-TZVP/JK TIGHTSCF
|  2> % maxcore 2000
|  3> % mp2 density relaxed end
|  4> *xyz 0 1
|  5>  C       -0.1055838610     1.5598840021     0.0018880462
|  6>  C       -0.0050264420     0.0371989887    -0.0059920476
|  7>  C        0.7407275843    -0.5044177014     1.2118119270
|  8>  C        0.8313578070    -2.0425979824     1.2074332949
|  9>  C        1.5794685048    -2.5559689651     2.3516592479
| 10>  N        2.1785525024    -2.9440441468     3.2603466565
| 11>  O       -1.3169756726    -0.5497292475     0.0208983549
| 12>  C       -1.9605948742    -0.6860195387    -1.1563481831
| 13>  N       -3.1536282860    -1.0939399269    -1.1794903849
| 14>  H        0.8912626475     2.0110661101    -0.0015551016
| 15>  H       -0.6452168455     1.9188403525    -0.8792236701
| 16>  H       -0.6415971493     1.9003110499     0.8925705336
| 17>  H        0.5080653141    -0.2962297310    -0.9211971654
| 18>  H        1.7459944003    -0.0722809050     1.2297020494
| 19>  H        0.2296308406    -0.1728757797     2.1214645689
| 20>  H       -0.1758320473    -2.4698387660     1.2163095601
| 21>  H        1.3191859884    -2.3943689668     0.2901354445
| 22>  H       -1.3406769095    -0.4275698627    -2.0268230831
| 23>  H       -3.4799568320    -1.1641396933    -2.1409851680
| 24> *
| 25>
| 26>                          ****END OF INPUT****

CARTESIAN COORDINATES (ANGSTROEM)
---------------------------------
  C     -0.105584    1.559884    0.001888
  C     -0.005026    0.037199   -0.005992
  C      0.740728   -0.504418    1.211812
  C      0.831358   -2.042598    1.207433
  C      1.579469   -2.555969    2.351659
  N      2.178553   -2.944044    3.260347
  O     -1.316976   -0.549729    0.020898
  C     -1.960595   -0.686020   -1.156348
  N     -3.153628   -1.093940   -1.179490
  H      0.891263    2.011066   -0.001555
  H     -0.645217    1.918840   -0.879224
  H     -0.641597    1.900311    0.892571
  H      0.508065   -0.296230   -0.921197
  H      1.745994   -0.072281    1.229702
  H      0.229631   -0.172876    2.121465
  H     -0.175832   -2.469839    1.216310
  H      1.319186   -2.394369    0.290135
  H     -1.340677   -0.427570   -2.026823
  H     -3.479957   -1.164140   -2.140985

 Total Charge           Charge          ....    0
 Multiplicity           Mult            ....    1
 Number of Electrons    NEL             ....   68
 Basis Dimension        Dim             ....  339

ORBITAL ENERGIES
----------------

  NO   OCC          E(Eh)            E(eV)
   0   2.0000     -20.603672      -560.6544
   1   2.0000     -15.568597      -423.6431
   2   2.0000     -15.550575      -423.1527
   3   2.0000     -11.349719      -308.8416
   4   2.0000     -11.321981      -308.0868
   5   2.0000     -11.285206      -307.0861
   6   2.0000     -11.273396      -306.7647
   7   2.0000     -11.262269      -306.4619
   8   2.0000     -11.244026      -305.9655
   9   2.0000      -1.440794       -39.2060
  10   2.0000      -1.219209       -33.1764
  11   2.0000      -1.211372       -32.9631
  12   2.0000      -1.112071       -30.2610
  13   2.0000      -1.041334       -28.3361
  14   2.0000      -0.934225       -25.4216
  15   2.0000      -0.862439       -23.4682
  16   2.0000      -0.828958       -22.5571
  17   2.0000      -0.731564       -19.9069
  18   2.0000      -0.707778       -19.2596
  19   2.0000      -0.690025       -18.7765
  20   2.0000      -0.653606       -17.7855
  21   2.0000      -0.640029       -17.4161
  22   2.0000      -0.630391       -17.1538
  23   2.0000      -0.582148       -15.8411
  24   2.0000      -0.562632       -15.3100
  25   2.0000      -0.559345       -15.2206
  26   2.0000      -0.548895       -14.9362
  27   2.0000      -0.543802       -14.7976
  28   2.0000      -0.521644       -14.1947
  29   2.0000      -0.506473       -13.7818
  30   2.0000      -0.457827       -12.4581
  31   2.0000      -0.456078       -12.4105
  32   2.0000      -0.447132       -12.1671
  33   2.0000      -0.412011       -11.2114
  34   0.0000       0.113940         3.1005
  35   0.0000       0.129684         3.5289
  36   0.0000       0.136146         3.7047
  37   0.0000       0.150912         4.1065
  38   0.0000       0.163635         4.4527

MULLIKEN ATOMIC CHARGES
-----------------------
   0 C :   -0.369429
   1 C :    0.012391
   2 C :   -0.222557
   3 C :   -0.142446
   4 C :   -0.177292
   5 N :   -0.057474
   6 O :   -0.218633
   7 C :    0.062342
   8 N :   -0.339263
   9 H :    0.138681
  10 H :    0.138609
  11 H :    0.146494
  12 H :    0.099861
  13 H :    0.138227
  14 H :    0.142452
  15 H :    0.187864
  16 H :    0.147865
  17 H :    0.085178
  18 H :    0.227129
Sum of atomic charges:    0.0000000

LOEWDIN ATOMIC CHARGES
----------------------
   0 C :   -0.286621
   1 C :   -0.332641
   2 C :   -0.225443
   3 C :   -0.242027
   4 C :   -0.193542
   5 N :    0.055839
   6 O :    0.260521
   7 C :   -0.404522
   8 N :   -0.077606
   9 H :    0.130694
  10 H :    0.127094
  11 H :    0.133099
  12 H :    0.139401
  13 H :    0.151584
  14 H :    0.153592
  15 H :    0.171023
  16 H :    0.163082
  17 H :    0.107433
  18 H :    0.169040

  Mayer bond orders larger than 0.1
B(  0-C ,  1-C ) :   0.9401 B(  0-C ,  9-H ) :   0.9325 B(  0-C , 10-H ) :   0.9299
B(  0-C , 11-H ) :   0.9315 B(  1-C ,  2-C ) :   0.9317 B(  1-C ,  6-O ) :   0.8535
B(  1-C , 12-H ) :   0.9365 B(  2-C ,  3-C ) :   0.9182 B(  2-C , 13-H ) :   0.9239
B(  2-C , 14-H ) :   0.9196 B(  3-C ,  4-C ) :   0.9311 B(  3-C , 15-H ) :   0.9060
B(  3-C , 16-H ) :   0.9056 B(  4-C ,  5-N ) :   2.8829 B(  6-O ,  7-C ) :   1.0476
B(  7-C ,  8-N ) :   1.9599 B(  7-C , 17-H ) :   0.9225 B(  8-N , 18-H ) :   0.8489

MP2 TOTAL ENERGY:     -418.517819801 Eh
FINAL SINGLE POINT ENERGY      -418.517819801348

DIPOLE MOMENT
-------------
                                X             Y             Z
Electronic contribution:      0.01958      -6.40126       3.67655
Nuclear contribution   :      0.22574       7.59040      -5.60982
                        -----------------------------------------
Total Dipole Moment    :      0.24532       1.18913      -1.93327
                        -----------------------------------------
Magnitude (a.u.)       :      2.28293
Magnitude (Debye)      :      5.80274

                             ****ORCA TERMINATED NORMALLY****
TOTAL RUN TIME: 0 days 0 hours 16 minutes 23 seconds 876 msec
