                         Program Version 3.0.3 - RELEASE   -
|  1> ! RI-MP2 RIJK def2-TZVP def2-TZVP/C def2-TZVP/JK TIGHTSCF
|  2> % maxcore 2000
|  3> % mp2 density relaxed end
|  4> *xyz 0 1
|  5>  C        0.1909589885     1.5203672090     0.1643672629
|  6>  C       -0.0954203401     0.0154056410     0.0096399286
|  7>  O       -1.4752997648    -0.2457838407    -0.0623940804
|  8>  C        0.6421942593    -0.5260963924    -1.1945020535
|  9>  N        1.9711508278    -0.6375578023    -1.1520446229
| 10>  C        2.4887035892    -1.1155676227    -2.2729446111
| 11>  N        1.8015704430    -1.4519572799    -3.3743564017
| 12>  N        0.4934966397    -1.2961969180    -3.3503833453
| 13>  N       -0.1014219007    -0.8413178578    -2.2624060763
| 14>  H        1.2614735728     1.7065688980     0.2867267732
| 15>  H       -0.1702867132     2.0680677204    -0.7116729530
| 16>  H       -0.3398457508     1.8888381093     1.0449629260
| 17>  H        0.3071283329    -0.5060634215     0.8885971232
| 18>  H       -1.6918947180    -0.3927056771    -0.9938593596
| 19>  H        3.5655207943    -1.2533640953    -2.3242056102
| 20> *
| 21>
| 22>                          ****END OF INPUT****

CARTESIAN COORDINATES (ANGSTROEM)
---------------------------------
  C      0.190959    1.520367    0.164367
  C     -0.095420    0.015406    0.009640
  O     -1.475300   -0.245784   -0.062394
  C      0.642194   -0.526096   -1.194502
  N      1.971151   -0.637558   -1.152045
  C      2.488704   -1.115568   -2.272945
  N      1.801570   -1.451957   -3.374356
  N      0.493497   -1.296197   -3.350383
  N     -0.101422   -0.841318   -2.262406
  H      1.261474    1.706569    0.286727
  H     -0.170287    2.068068   -0.711673
  H     -0.339846    1.888838    1.044963
  H      0.307128   -0.506063    0.888597
  H     -1.691895   -0.392706   -0.993859
  H      3.565521   -1.253364   -2.324206

 Total Charge           Charge          ....    0
 Multiplicity           Mult            ....    1
 Number of Electrons    NEL             ....   66
 Basis Dimension        Dim             ....  315

ORBITAL ENERGIES
----------------

  NO   OCC          E(Eh)            E(eV)
   0   2.0000     -20.564744      -559.5951
   1   2.0000     -15.707371      -427.4193
   2   2.0000     -15.639521      -425.5730
   3   2.0000     -15.638771      -425.5526
   4   2.0000     -15.620850      -425.0649
   5   2.0000     -11.363417      -309.2143
   6   2.0000     -11.361738      -309.1686
   7   2.0000     -11.312712      -307.8345
   8   2.0000     -11.235272      -305.7273
   9   2.0000      -1.455055       -39.5941
  10   2.0000      -1.381566       -37.5943
  11   2.0000      -1.292682       -35.1757
  12   2.0000      -1.247550       -33.9476
  13   2.0000      -1.055076       -28.7101
  14   2.0000      -1.010007       -27.4837
  15   2.0000      -0.959812       -26.1178
  16   2.0000      -0.860920       -23.4268
  17   2.0000      -0.799126       -21.7453
  18   2.0000      -0.762636       -20.7524
  19   2.0000      -0.680136       -18.5074
  20   2.0000      -0.669261       -18.2115
  21   2.0000      -0.643839       -17.5198
  22   2.0000      -0.630635       -17.1605
  23   2.0000      -0.601536       -16.3686
  24   2.0000      -0.574347       -15.6288
  25   2.0000      -0.555851       -15.1255
  26   2.0000      -0.547079       -14.8868
  27   2.0000      -0.522220       -14.2103
  28   2.0000      -0.491222       -13.3668
  29   2.0000      -0.471514       -12.8305
  30   2.0000      -0.465659       -12.6712
  31   2.0000      -0.441924       -12.0254
  32   2.0000      -0.433337       -11.7917
  33   0.0000       0.039832         1.0839
  34   0.0000       0.071335         1.9411
  35   0.0000       0.139430         3.7941
  36   0.0000       0.163313         4.4440
  37   0.0000       0.175753         4.7825

MULLIKEN ATOMIC CHARGES
-----------------------
   0 C :   -0.377060
   1 C :    0.108822
   2 O :   -0.469097
   3 C :    0.189904
   4 N :   -0.230184
   5 C :    0.068595
   6 N :   -0.091845
   7 N :   -0.106064
   8 N :   -0.118613
   9 H :    0.140746
  10 H :    0.123223
  11 H :    0.147361
  12 H :    0.109676
  13 H :    0.342821
  14 H :    0.161715
Sum of atomic charges:    0.0000000

LOEWDIN ATOMIC CHARGES
----------------------
   0 C :   -0.282599
   1 C :   -0.344672
   2 O :   -0.000934
   3 C :   -0.278765
   4 N :    0.183145
   5 C :   -0.268026
   6 N :    0.058195
   7 N :   -0.002200
   8 N :    0.070919
   9 H :    0.128660
  10 H :    0.126227
  11 H :    0.131457
  12 H :    0.156276
  13 H :    0.177977
  14 H :    0.144339

  Mayer bond orders larger than 0.1
B(  0-C ,  1-C ) :   0.8837 B(  0-C ,  9-H ) :   0.9252 B(  0-C , 10-H ) :   0.9229
B(  0-C , 11-H ) :   0.9327 B(  1-C ,  2-O ) :   1.0426 B(  1-C ,  3-C ) :   0.9425
B(  1-C , 12-H ) :   0.9168 B(  2-O , 13-H ) :   0.8070 B(  3-C ,  4-N ) :   1.3210
B(  3-C ,  8-N ) :   1.3338 B(  4-N ,  5-C ) :   1.3861 B(  5-C ,  6-N ) :   1.3540
B(  5-C , 14-H ) :   0.9283 B(  6-N ,  7-N ) :   1.1851 B(  7-N ,  8-N ) :   1.1573

MP2 TOTAL ENERGY:     -449.359891783 Eh
FINAL SINGLE POINT ENERGY      -449.359891783343

DIPOLE MOMENT
-------------
                                X             Y             Z
Electronic contribution:      1.60703      -5.61512      -6.04835
Nuclear contribution   :     -0.68217       6.00204       6.52977
                        -----------------------------------------
Total Dipole Moment    :      0.92486       0.38692       0.48142
                        -----------------------------------------
Magnitude (a.u.)       :      1.11213
Magnitude (Debye)      :      2.82681

                             ****ORCA TERMINATED NORMALLY****
TOTAL RUN TIME: 0 days 0 hours 14 minutes 22 seconds 768 msec
