                         Program Version 3.0.3 - RELEASE   -
|  1> ! RI-MP2 RIJK def2-TZVP def2-TZVP/C def2-TZVP/JK TIGHTSCF
|  2> % maxcore 2000
|  3> % mp2 density relaxed end
|  4> *xyz 0 1
|  5>  C        0.0398040530     1.6329807734    -0.1263211563
|  6>  C        0.0809790321     0.1351023790    -0.0111523049
|  7>  N       -1.2035728438    -0.4754518450    -0.5430137945
|  8>  H       -1.3755752067    -0.2020588364    -1.5158225351
|  9>  H       -1.1607321005    -1.4955599166    -0.4908998453
| 10>  H       -2.0011378859    -0.1668338055     0.0228643951
| 11>  C        1.2973064439    -0.7179425643    -0.2389856186
| 12>  N        2.5341251852    -0.0755129279    -0.5855949155
| 13>  C        0.6649702750    -0.6322033365     1.1562952051
| 14>  C        1.3748549538     0.1491743303     2.3186579890
| 15>  O        2.1271480822     1.0827098255     1.9275467869
| 16>  O        1.0984845508    -0.2574708245     3.4456679346
| 17>  H        0.9006183841     2.0142439303     0.4303797999
| 18>  H        0.0907453213     1.9661924745    -1.1696262732
| 19>  H       -0.8637450788     2.0450470556     0.3421064682
| 20>  H        1.1273118395    -1.6437505265    -0.7907298115
| 21>  H        2.7579946160     0.5353008996     0.2151387122
| 22>  H        3.2626103236    -0.7827947569    -0.6195040766
| 23>  H        0.1004502954    -1.4990044581     1.4980370004
| 24> *
| 25>
| 26>                          ****END OF INPUT****

CARTESIAN COORDINATES (ANGSTROEM)
---------------------------------
  C      0.039804    1.632981   -0.126321
  C      0.080979    0.135102   -0.011152
  N     -1.203573   -0.475452   -0.543014
  H     -1.375575   -0.202059   -1.515823
  H     -1.160732   -1.495560   -0.490900
  H     -2.001138   -0.166834    0.022864
  C      1.297306   -0.717943   -0.238986
  N      2.534125   -0.075513   -0.585595
  C      0.664970   -0.632203    1.156295
  C      1.374855    0.149174    2.318658
  O      2.127148    1.082710    1.927547
  O      1.098485   -0.257471    3.445668
  H      0.900618    2.014244    0.430380
  H      0.090745    1.966192   -1.169626
  H     -0.863745    2.045047    0.342106
  H      1.127312   -1.643751   -0.790730
  H      2.757995    0.535301    0.215139
  H      3.262610   -0.782795   -0.619504
  H      0.100450   -1.499004    1.498037

 Total Charge           Charge          ....    0
 Multiplicity           Mult            ....    1
 Number of Electrons    NEL             ....   70
 Basis Dimension        Dim             ....  339

ORBITAL ENERGIES
----------------

  NO   OCC          E(Eh)            E(eV)
   0   2.0000     -20.441198      -556.2333
   1   2.0000     -20.440485      -556.2139
   2   2.0000     -15.757736      -428.7898
   3   2.0000     -15.535215      -422.7347
   4   2.0000     -11.324411      -308.1529
   5   2.0000     -11.295485      -307.3658
   6   2.0000     -11.291560      -307.2590
   7   2.0000     -11.243077      -305.9397
   8   2.0000     -11.241984      -305.9099
   9   2.0000      -1.377090       -37.4725
  10   2.0000      -1.328337       -36.1459
  11   2.0000      -1.234622       -33.5958
  12   2.0000      -1.209681       -32.9171
  13   2.0000      -1.112603       -30.2755
  14   2.0000      -1.005517       -27.3615
  15   2.0000      -0.865101       -23.5406
  16   2.0000      -0.833489       -22.6804
  17   2.0000      -0.825421       -22.4608
  18   2.0000      -0.803447       -21.8629
  19   2.0000      -0.734409       -19.9843
  20   2.0000      -0.688112       -18.7245
  21   2.0000      -0.638463       -17.3735
  22   2.0000      -0.614583       -16.7237
  23   2.0000      -0.599250       -16.3064
  24   2.0000      -0.577335       -15.7101
  25   2.0000      -0.571442       -15.5497
  26   2.0000      -0.559293       -15.2191
  27   2.0000      -0.540858       -14.7175
  28   2.0000      -0.526468       -14.3259
  29   2.0000      -0.497707       -13.5433
  30   2.0000      -0.443160       -12.0590
  31   2.0000      -0.383620       -10.4388
  32   2.0000      -0.366997        -9.9865
  33   2.0000      -0.347753        -9.4629
  34   2.0000      -0.340523        -9.2661
  35   0.0000       0.043184         1.1751
  36   0.0000       0.101708         2.7676
  37   0.0000       0.109250         2.9729
  38   0.0000       0.139618         3.7992
  39   0.0000       0.170113         4.6290

MULLIKEN ATOMIC CHARGES
-----------------------
   0 C :   -0.421722
   1 C :   -0.035716
   2 N :   -0.325664
   3 H :    0.318481
   4 H :    0.319813
   5 H :    0.322085
   6 C :    0.024344
   7 N :   -0.540626
   8 C :   -0.189373
   9 C :    0.267815
  10 O :   -0.519146
  11 O :   -0.422752
  12 H :    0.215517
  13 H :    0.134363
  14 H :    0.122843
  15 H :    0.105098
  16 H :    0.283685
  17 H :    0.225923
  18 H :    0.115033
Sum of atomic charges:   -0.0000000

LOEWDIN ATOMIC CHARGES
----------------------
   0 C :   -0.270143
   1 C :   -0.274928
   2 N :    0.183766
   3 H :    0.209276
   4 H :    0.210409
   5 H :    0.212321
   6 C :   -0.271056
   7 N :   -0.141221
   8 C :   -0.162946
   9 C :   -0.664456
  10 O :   -0.073106
  11 O :    0.001865
  12 H :    0.165466
  13 H :    0.128976
  14 H :    0.128743
  15 H :    0.136355
  16 H :    0.175535
  17 H :    0.160314
  18 H :    0.144829

  Mayer bond orders larger than 0.1
B(  0-C ,  1-C ) :   0.9554 B(  0-C , 12-H ) :   0.8897 B(  0-C , 13-H ) :   0.9201
B(  0-C , 14-H ) :   0.9166 B(  1-C ,  2-N ) :   0.6764 B(  1-C ,  6-C ) :   0.8915
B(  1-C ,  8-C ) :   0.8129 B(  2-N ,  3-H ) :   0.8450 B(  2-N ,  4-H ) :   0.8530
B(  2-N ,  5-H ) :   0.8430 B(  6-C ,  7-N ) :   1.1209 B(  6-C ,  8-C ) :   0.7426
B(  6-C , 15-H ) :   0.9356 B(  7-N , 16-H ) :   0.8154 B(  7-N , 17-H ) :   0.8852
B(  8-C ,  9-C ) :   0.9114 B(  8-C , 18-H ) :   0.9226 B(  9-C , 10-O ) :   1.5353
B(  9-C , 11-O ) :   1.8226

MP2 TOTAL ENERGY:     -455.567459744 Eh
FINAL SINGLE POINT ENERGY      -455.567459743775

DIPOLE MOMENT
-------------
                                X             Y             Z
Electronic contribution:      1.89258      -1.28272       5.42965
Nuclear contribution   :     -5.58147      -0.21424      -9.49830
                        -----------------------------------------
Total Dipole Moment    :     -3.68889      -1.49696      -4.06865
                        -----------------------------------------
Magnitude (a.u.)       :      5.69234
Magnitude (Debye)      :     14.46877

                             ****ORCA TERMINATED NORMALLY****
TOTAL RUN TIME: 0 days 0 hours 17 minutes 15 seconds 999 msec
