                         Program Version 3.0.3 - RELEASE   -
|  1> ! RI-MP2 RIJK def2-TZVP def2-TZVP/C def2-TZVP/JK TIGHTSCF
|  2> % maxcore 2000
|  3> % mp2 density relaxed end
|  4> *xyz 0 1
|  5>  O       -0.1457155541     1.3928886061    -0.4404136521
|  6>  C       -0.0315790336     0.0077855062    -0.1736667078
|  7>  C       -1.3799087194    -0.5592824745     0.2337310085
|  8>  C       -1.9337214881    -0.0849092805     1.5897657394
|  9>  C       -2.5951670263    -1.3256027391     2.1424192775
| 10>  C       -2.4219888646    -2.4003705642     1.3711349799
| 11>  C       -1.6306271700    -2.0910845720     0.1315135173
| 12>  C       -2.4576549517    -1.7269110841    -1.1251979263
| 13>  O       -2.3341016740    -0.3139355215    -0.8472116262
| 14>  H       -0.8784509554     1.4736331467    -1.0645306533
| 15>  H        0.3479755872    -0.5410483096    -1.0512472140
| 16>  H        0.6983536909    -0.1080004742     0.6349621067
| 17>  H       -1.1461050583     0.2939290771     2.2537602964
| 18>  H       -2.6400272290     0.7385698880     1.4365422401
| 19>  H       -3.1457018024    -1.3188026035     3.0772204506
| 20>  H       -2.8122526348    -3.3902774839     1.5813710902
| 21>  H       -0.7753238511    -2.7510742207    -0.0380044377
| 22>  H       -1.9855785047    -1.9977307094    -2.0784800114
| 23>  H       -3.5040940908    -2.0504512669    -1.1326583978
| 24> *
| 25>
| 26>                          ****END OF INPUT****

CARTESIAN COORDINATES (ANGSTROEM)
---------------------------------
  O     -0.145716    1.392889   -0.440414
  C     -0.031579    0.007786   -0.173667
  C     -1.379909   -0.559282    0.233731
  C     -1.933721   -0.084909    1.589766
  C     -2.595167   -1.325603    2.142419
  C     -2.421989   -2.400371    1.371135
  C     -1.630627   -2.091085    0.131514
  C     -2.457655   -1.726911   -1.125198
  O     -2.334102   -0.313936   -0.847212
  H     -0.878451    1.473633   -1.064531
  H      0.347976   -0.541048   -1.051247
  H      0.698354   -0.108000    0.634962
  H     -1.146105    0.293929    2.253760
  H     -2.640027    0.738570    1.436542
  H     -3.145702   -1.318803    3.077220
  H     -2.812253   -3.390277    1.581371
  H     -0.775324   -2.751074   -0.038004
  H     -1.985579   -1.997731   -2.078480
  H     -3.504094   -2.050451   -1.132658

 Total Charge           Charge          ....    0
 Multiplicity           Mult            ....    1
 Number of Electrons    NEL             ....   68
 Basis Dimension        Dim             ....  339

ORBITAL ENERGIES
----------------

  NO   OCC          E(Eh)            E(eV)
   0   2.0000     -20.553359      -559.2853
   1   2.0000     -20.550907      -559.2186
   2   2.0000     -11.289496      -307.2028
   3   2.0000     -11.284291      -307.0612
   4   2.0000     -11.275749      -306.8287
   5   2.0000     -11.242868      -305.9340
   6   2.0000     -11.235719      -305.7395
   7   2.0000     -11.231859      -305.6344
   8   2.0000     -11.228164      -305.5339
   9   2.0000      -1.388911       -37.7942
  10   2.0000      -1.352241       -36.7964
  11   2.0000      -1.128858       -30.7178
  12   2.0000      -1.011235       -27.5171
  13   2.0000      -0.990630       -26.9564
  14   2.0000      -0.910556       -24.7775
  15   2.0000      -0.872623       -23.7453
  16   2.0000      -0.760861       -20.7041
  17   2.0000      -0.730134       -19.8679
  18   2.0000      -0.714090       -19.4314
  19   2.0000      -0.666587       -18.1388
  20   2.0000      -0.653615       -17.7858
  21   2.0000      -0.633641       -17.2422
  22   2.0000      -0.623104       -16.9555
  23   2.0000      -0.589573       -16.0431
  24   2.0000      -0.557726       -15.1765
  25   2.0000      -0.546670       -14.8757
  26   2.0000      -0.539264       -14.6741
  27   2.0000      -0.521365       -14.1871
  28   2.0000      -0.499600       -13.5948
  29   2.0000      -0.471493       -12.8300
  30   2.0000      -0.457008       -12.4358
  31   2.0000      -0.444595       -12.0980
  32   2.0000      -0.413872       -11.2620
  33   2.0000      -0.355440        -9.6720
  34   0.0000       0.137933         3.7533
  35   0.0000       0.148797         4.0490
  36   0.0000       0.161810         4.4031
  37   0.0000       0.167017         4.5448
  38   0.0000       0.174745         4.7551

MULLIKEN ATOMIC CHARGES
-----------------------
   0 O :   -0.473491
   1 C :   -0.016906
   2 C :    0.135844
   3 C :   -0.163907
   4 C :   -0.188807
   5 C :   -0.216853
   6 C :   -0.050284
   7 C :   -0.036188
   8 O :   -0.368462
   9 H :    0.328551
  10 H :    0.095885
  11 H :    0.111728
  12 H :    0.122960
  13 H :    0.129667
  14 H :    0.129287
  15 H :    0.130731
  16 H :    0.126850
  17 H :    0.096179
  18 H :    0.107216
Sum of atomic charges:    0.0000000

LOEWDIN ATOMIC CHARGES
----------------------
   0 O :   -0.038445
   1 C :   -0.312615
   2 C :   -0.278988
   3 C :   -0.197165
   4 C :   -0.143636
   5 C :   -0.145896
   6 C :   -0.178515
   7 C :   -0.241922
   8 O :    0.141611
   9 H :    0.180362
  10 H :    0.122163
  11 H :    0.133265
  12 H :    0.146404
  13 H :    0.151907
  14 H :    0.137598
  15 H :    0.138740
  16 H :    0.147137
  17 H :    0.117299
  18 H :    0.120696

  Mayer bond orders larger than 0.1
B(  0-O ,  1-C ) :   0.9171 B(  0-O ,  9-H ) :   0.8278 B(  1-C ,  2-C ) :   0.9681
B(  1-C , 10-H ) :   0.9083 B(  1-C , 11-H ) :   0.9250 B(  2-C ,  3-C ) :   0.9110
B(  2-C ,  6-C ) :   0.8925 B(  2-C ,  8-O ) :   0.8992 B(  3-C ,  4-C ) :   0.9574
B(  3-C , 12-H ) :   0.9127 B(  3-C , 13-H ) :   0.9048 B(  4-C ,  5-C ) :   1.7926
B(  4-C , 14-H ) :   0.9277 B(  5-C ,  6-C ) :   0.9155 B(  5-C , 15-H ) :   0.9260
B(  6-C ,  7-C ) :   0.9501 B(  6-C , 16-H ) :   0.9127 B(  7-C ,  8-O ) :   0.9440
B(  7-C , 17-H ) :   0.9165 B(  7-C , 18-H ) :   0.9056

MP2 TOTAL ENERGY:     -422.311724529 Eh
FINAL SINGLE POINT ENERGY      -422.311724529447

DIPOLE MOMENT
-------------
                                X             Y             Z
Electronic contribution:     -0.56827       1.29479      -0.80382
Nuclear contribution   :      0.40874      -2.27072       0.90465
                        -----------------------------------------
Total Dipole Moment    :     -0.15953      -0.97594       0.10083
                        -----------------------------------------
Magnitude (a.u.)       :      0.99402
Magnitude (Debye)      :      2.52659

                             ****ORCA TERMINATED NORMALLY****
TOTAL RUN TIME: 0 days 0 hours 19 minutes 41 seconds 825 msec
