                         Program Version 3.0.3 - RELEASE   -
|  1> ! RI-MP2 RIJK def2-TZVP def2-TZVP/C def2-TZVP/JK TIGHTSCF
|  2> % maxcore 2000
|  3> % mp2 density relaxed end
|  4> *xyz 0 1
|  5>  C       -0.0513167378     1.4983383974    -0.0033903512
|  6>  C       -0.0100320426    -0.0035362224    -0.0127848849
|  7>  N       -0.0057131183    -0.6208034496    -1.1510115407
|  8>  C        0.0169027613    -2.0211897236    -1.1813560793
|  9>  O        0.0237982917    -2.6813225684    -2.1969041033
| 10>  N        0.0278342494    -2.6283562412     0.0715931633
| 11>  N        0.0490796835    -2.0253989100     1.2734977266
| 12>  C        0.0182484823    -0.7262636393     1.2520373070
| 13>  N       -0.0719148354    -0.0396320834     2.4591806606
| 14>  H        0.8667673859     1.9128234031     0.4333891227
| 15>  H       -0.1478598656     1.8657697884    -1.0246419295
| 16>  H       -0.8886034176     1.8568369591     0.6050337613
| 17>  H        0.0395756440    -3.6380213592     0.0945707432
| 18>  H        0.0831375538    -0.6451102097     3.2552244655
| 19>  H        0.4833616256     0.8026119688     2.5155192688
| 20> *
| 21>
| 22>                          ****END OF INPUT****

CARTESIAN COORDINATES (ANGSTROEM)
---------------------------------
  C     -0.051317    1.498338   -0.003390
  C     -0.010032   -0.003536   -0.012785
  N     -0.005713   -0.620803   -1.151012
  C      0.016903   -2.021190   -1.181356
  O      0.023798   -2.681323   -2.196904
  N      0.027834   -2.628356    0.071593
  N      0.049080   -2.025399    1.273498
  C      0.018248   -0.726264    1.252037
  N     -0.071915   -0.039632    2.459181
  H      0.866767    1.912823    0.433389
  H     -0.147860    1.865770   -1.024642
  H     -0.888603    1.856837    0.605034
  H      0.039576   -3.638021    0.094571
  H      0.083138   -0.645110    3.255224
  H      0.483362    0.802612    2.515519

 Total Charge           Charge          ....    0
 Multiplicity           Mult            ....    1
 Number of Electrons    NEL             ....   66
 Basis Dimension        Dim             ....  315

ORBITAL ENERGIES
----------------

  NO   OCC          E(Eh)            E(eV)
   0   2.0000     -20.514129      -558.2178
   1   2.0000     -15.639022      -425.5594
   2   2.0000     -15.635265      -425.4572
   3   2.0000     -15.595755      -424.3821
   4   2.0000     -15.589498      -424.2118
   5   2.0000     -11.379952      -309.6642
   6   2.0000     -11.338458      -308.5351
   7   2.0000     -11.337411      -308.5066
   8   2.0000     -11.257908      -306.3433
   9   2.0000      -1.416805       -38.5532
  10   2.0000      -1.356098       -36.9013
  11   2.0000      -1.258651       -34.2496
  12   2.0000      -1.248514       -33.9738
  13   2.0000      -1.108403       -30.1612
  14   2.0000      -1.040088       -28.3022
  15   2.0000      -0.913710       -24.8633
  16   2.0000      -0.878276       -23.8991
  17   2.0000      -0.791673       -21.5425
  18   2.0000      -0.765915       -20.8416
  19   2.0000      -0.681863       -18.5544
  20   2.0000      -0.669300       -18.2126
  21   2.0000      -0.653874       -17.7928
  22   2.0000      -0.652246       -17.7485
  23   2.0000      -0.603857       -16.4318
  24   2.0000      -0.598451       -16.2847
  25   2.0000      -0.586066       -15.9477
  26   2.0000      -0.549921       -14.9641
  27   2.0000      -0.524524       -14.2730
  28   2.0000      -0.489522       -13.3206
  29   2.0000      -0.468128       -12.7384
  30   2.0000      -0.450495       -12.2586
  31   2.0000      -0.418133       -11.3780
  32   2.0000      -0.337781        -9.1915
  33   0.0000       0.058821         1.6006
  34   0.0000       0.107204         2.9172
  35   0.0000       0.151359         4.1187
  36   0.0000       0.153293         4.1713
  37   0.0000       0.159057         4.3282

MULLIKEN ATOMIC CHARGES
-----------------------
   0 C :   -0.448923
   1 C :    0.129542
   2 N :   -0.200017
   3 C :    0.254135
   4 O :   -0.335397
   5 N :   -0.154102
   6 N :   -0.157893
   7 C :    0.146723
   8 N :   -0.501881
   9 H :    0.145278
  10 H :    0.170007
  11 H :    0.170097
  12 H :    0.267954
  13 H :    0.255303
  14 H :    0.259174
Sum of atomic charges:   -0.0000000

LOEWDIN ATOMIC CHARGES
----------------------
   0 C :   -0.260773
   1 C :   -0.221411
   2 N :    0.189912
   3 C :   -0.532676
   4 O :    0.082658
   5 N :    0.113380
   6 N :    0.073065
   7 C :   -0.345091
   8 N :   -0.060634
   9 H :    0.135102
  10 H :    0.141447
  11 H :    0.140678
  12 H :    0.198228
  13 H :    0.174988
  14 H :    0.171125

  Mayer bond orders larger than 0.1
B(  0-C ,  1-C ) :   0.8638 B(  0-C ,  9-H ) :   0.9252 B(  0-C , 10-H ) :   0.9334
B(  0-C , 11-H ) :   0.9246 B(  1-C ,  2-N ) :   1.6856 B(  1-C ,  7-C ) :   1.0777
B(  2-N ,  3-C ) :   1.0876 B(  3-C ,  4-O ) :   1.9927 B(  3-C ,  5-N ) :   1.0807
B(  5-N ,  6-N ) :   0.9776 B(  5-N , 12-H ) :   0.8610 B(  6-N ,  7-C ) :   1.6618
B(  7-C ,  8-N ) :   1.0552 B(  8-N , 13-H ) :   0.8674 B(  8-N , 14-H ) :   0.8652

MP2 TOTAL ENERGY:     -449.425744110 Eh
FINAL SINGLE POINT ENERGY      -449.425744110492

DIPOLE MOMENT
-------------
                                X             Y             Z
Electronic contribution:     -0.01621      -6.79941      -3.10968
Nuclear contribution   :      0.38747       7.80233       5.11154
                        -----------------------------------------
Total Dipole Moment    :      0.37126       1.00292       2.00187
                        -----------------------------------------
Magnitude (a.u.)       :      2.26961
Magnitude (Debye)      :      5.76890

                             ****ORCA TERMINATED NORMALLY****
TOTAL RUN TIME: 0 days 0 hours 14 minutes 26 seconds 258 msec
