                         Program Version 3.0.3 - RELEASE   -
|  1> ! RI-MP2 RIJK def2-TZVP def2-TZVP/C def2-TZVP/JK TIGHTSCF
|  2> % maxcore 2000
|  3> % mp2 density relaxed end
|  4> *xyz 0 1
|  5>  C       -0.1214834201     1.5217694113    -0.0666819318
|  6>  C        0.0321324848     0.0110147068     0.0295858960
|  7>  O        0.8726689362    -0.4878555386    -1.0326074346
|  8>  C        1.8923427892    -1.1671108302    -0.3296115032
|  9>  C        1.2892889904    -1.9501243652     0.8800652793
| 10>  C        2.5721998993    -1.6814201710     1.6748760864
| 11>  O        3.6694217460    -2.4809268752     1.2984277057
| 12>  C        2.3241804924    -0.3493536224     0.9274658434
| 13>  C        0.7971277409    -0.5085712595     1.2464379200
| 14>  H        0.8457343860     2.0217135958     0.0411611400
| 15>  H       -0.5423496898     1.7986138201    -1.0374805523
| 16>  H       -0.7941845757     1.8913955719     0.7148349611
| 17>  H       -0.9540834203    -0.4681455835    -0.0511603478
| 18>  H        2.6124834484    -1.6137616986    -1.0086200942
| 19>  H        0.6914407533    -2.8614154531     0.8534202595
| 20>  H        2.4554723297    -1.6400198795     2.7658327075
| 21>  H        4.4566242307    -2.1356443631     1.7306696548
| 22>  H        2.9122427429     0.5690081110     0.9576520213
| 23>  H        0.4124984657    -0.2931224271     2.2439552488
| 24> *
| 25>
| 26>                          ****END OF INPUT****

CARTESIAN COORDINATES (ANGSTROEM)
---------------------------------
  C     -0.121483    1.521769   -0.066682
  C      0.032132    0.011015    0.029586
  O      0.872669   -0.487856   -1.032607
  C      1.892343   -1.167111   -0.329612
  C      1.289289   -1.950124    0.880065
  C      2.572200   -1.681420    1.674876
  O      3.669422   -2.480927    1.298428
  C      2.324180   -0.349354    0.927466
  C      0.797128   -0.508571    1.246438
  H      0.845734    2.021714    0.041161
  H     -0.542350    1.798614   -1.037481
  H     -0.794185    1.891396    0.714835
  H     -0.954083   -0.468146   -0.051160
  H      2.612483   -1.613762   -1.008620
  H      0.691441   -2.861415    0.853420
  H      2.455472   -1.640020    2.765833
  H      4.456624   -2.135644    1.730670
  H      2.912243    0.569008    0.957652
  H      0.412498   -0.293122    2.243955

 Total Charge           Charge          ....    0
 Multiplicity           Mult            ....    1
 Number of Electrons    NEL             ....   68
 Basis Dimension        Dim             ....  339

ORBITAL ENERGIES
----------------

  NO   OCC          E(Eh)            E(eV)
   0   2.0000     -20.560475      -559.4790
   1   2.0000     -20.546912      -559.1099
   2   2.0000     -11.289875      -307.2131
   3   2.0000     -11.283996      -307.0532
   4   2.0000     -11.277245      -306.8694
   5   2.0000     -11.244599      -305.9811
   6   2.0000     -11.240764      -305.8767
   7   2.0000     -11.239590      -305.8448
   8   2.0000     -11.215026      -305.1764
   9   2.0000      -1.387580       -37.7580
  10   2.0000      -1.367747       -37.2183
  11   2.0000      -1.190564       -32.3969
  12   2.0000      -1.032420       -28.0936
  13   2.0000      -0.915449       -24.9106
  14   2.0000      -0.887295       -24.1445
  15   2.0000      -0.871584       -23.7170
  16   2.0000      -0.783269       -21.3138
  17   2.0000      -0.747928       -20.3521
  18   2.0000      -0.696613       -18.9558
  19   2.0000      -0.684676       -18.6310
  20   2.0000      -0.671905       -18.2835
  21   2.0000      -0.626860       -17.0577
  22   2.0000      -0.591571       -16.0975
  23   2.0000      -0.573098       -15.5948
  24   2.0000      -0.558985       -15.2108
  25   2.0000      -0.532119       -14.4797
  26   2.0000      -0.519607       -14.1392
  27   2.0000      -0.507139       -13.7999
  28   2.0000      -0.491456       -13.3732
  29   2.0000      -0.457931       -12.4609
  30   2.0000      -0.446931       -12.1616
  31   2.0000      -0.443867       -12.0782
  32   2.0000      -0.425429       -11.5765
  33   2.0000      -0.386865       -10.5271
  34   0.0000       0.135598         3.6898
  35   0.0000       0.145151         3.9498
  36   0.0000       0.161212         4.3868
  37   0.0000       0.169958         4.6248
  38   0.0000       0.188710         5.1351

MULLIKEN ATOMIC CHARGES
-----------------------
   0 C :   -0.400970
   1 C :    0.105696
   2 O :   -0.330002
   3 C :    0.037910
   4 C :   -0.080109
   5 C :   -0.027553
   6 O :   -0.467131
   7 C :   -0.107080
   8 C :   -0.173534
   9 H :    0.127370
  10 H :    0.142703
  11 H :    0.120960
  12 H :    0.092321
  13 H :    0.135654
  14 H :    0.136990
  15 H :    0.097369
  16 H :    0.319603
  17 H :    0.145146
  18 H :    0.124658
Sum of atomic charges:    0.0000000

LOEWDIN ATOMIC CHARGES
----------------------
   0 C :   -0.291206
   1 C :   -0.296592
   2 O :    0.185854
   3 C :   -0.234421
   4 C :   -0.125250
   5 C :   -0.297407
   6 O :   -0.012326
   7 C :   -0.140569
   8 C :   -0.152610
   9 H :    0.124959
  10 H :    0.128392
  11 H :    0.125488
  12 H :    0.140669
  13 H :    0.140060
  14 H :    0.130018
  15 H :    0.129124
  16 H :    0.177211
  17 H :    0.125422
  18 H :    0.143183

  Mayer bond orders larger than 0.1
B(  0-C ,  1-C ) :   0.9105 B(  0-C ,  9-H ) :   0.9399 B(  0-C , 10-H ) :   0.9376
B(  0-C , 11-H ) :   0.9318 B(  1-C ,  2-O ) :   0.9037 B(  1-C ,  8-C ) :   0.9259
B(  1-C , 12-H ) :   0.9152 B(  2-O ,  3-C ) :   0.9702 B(  3-C ,  4-C ) :   0.8756
B(  3-C ,  7-C ) :   0.8613 B(  3-C , 13-H ) :   0.9126 B(  4-C ,  5-C ) :   0.8743
B(  4-C ,  6-O ) :  -0.1333 B(  4-C ,  8-C ) :   0.8695 B(  4-C , 14-H ) :   0.8981
B(  5-C ,  6-O ) :   1.1536 B(  5-C ,  7-C ) :   0.8341 B(  5-C , 15-H ) :   0.9949
B(  6-O ,  7-C ) :  -0.1380 B(  6-O , 16-H ) :   0.8435 B(  7-C ,  8-C ) :   0.8616
B(  7-C , 17-H ) :   0.8843 B(  8-C , 18-H ) :   0.9185

MP2 TOTAL ENERGY:     -422.285874961 Eh
FINAL SINGLE POINT ENERGY      -422.285874960694

DIPOLE MOMENT
-------------
                                X             Y             Z
Electronic contribution:      2.89717      -4.38225      -1.06769
Nuclear contribution   :     -2.78795       4.83744       2.00032
                        -----------------------------------------
Total Dipole Moment    :      0.10922       0.45519       0.93264
                        -----------------------------------------
Magnitude (a.u.)       :      1.04352
Magnitude (Debye)      :      2.65242

                             ****ORCA TERMINATED NORMALLY****
TOTAL RUN TIME: 0 days 0 hours 17 minutes 26 seconds 295 msec
