                         Program Version 3.0.3 - RELEASE   -
|  1> ! RI-MP2 RIJK def2-TZVP def2-TZVP/C def2-TZVP/JK TIGHTSCF
|  2> % maxcore 2000
|  3> % mp2 density relaxed end
|  4> *xyz 0 1
|  5>  C       -0.2135934661    -1.0141305229    -0.7288118206
|  6>  C       -0.0576952802     0.0292552678    -0.1546091390
|  7>  C        0.1318112866     1.3058023037     0.5273209299
|  8>  C        1.4625234909     1.9469850745     0.2288201761
|  9>  N        2.1638701899     2.4658991208     1.2081943148
| 10>  O        3.3026758536     3.0011645578     0.6149282007
| 11>  C        3.2460148490     2.7793868105    -0.7061476440
| 12>  C        2.1094797973     2.1155674755    -1.0296532557
| 13>  H       -0.3528263568    -1.9424111275    -1.2253136762
| 14>  H       -0.6715486670     1.9948382477     0.2332063015
| 15>  H        0.0486950074     1.1798752462     1.6119574331
| 16>  H        4.0829305011     3.1465341133    -1.2798770860
| 17>  H        1.7773056743     1.7817561226    -1.9978096547
| 18> *
| 19>
| 20>                          ****END OF INPUT****

CARTESIAN COORDINATES (ANGSTROEM)
---------------------------------
  C     -0.213593   -1.014131   -0.728812
  C     -0.057695    0.029255   -0.154609
  C      0.131811    1.305802    0.527321
  C      1.462523    1.946985    0.228820
  N      2.163870    2.465899    1.208194
  O      3.302676    3.001165    0.614928
  C      3.246015    2.779387   -0.706148
  C      2.109480    2.115567   -1.029653
  H     -0.352826   -1.942411   -1.225314
  H     -0.671549    1.994838    0.233206
  H      0.048695    1.179875    1.611957
  H      4.082931    3.146534   -1.279877
  H      1.777306    1.781756   -1.997810

 Total Charge           Charge          ....    0
 Multiplicity           Mult            ....    1
 Number of Electrons    NEL             ....   56
 Basis Dimension        Dim             ....  278

ORBITAL ENERGIES
----------------

  NO   OCC          E(Eh)            E(eV)
   0   2.0000     -20.647016      -561.8339
   1   2.0000     -15.622137      -425.0999
   2   2.0000     -11.319270      -308.0130
   3   2.0000     -11.294370      -307.3354
   4   2.0000     -11.278603      -306.9064
   5   2.0000     -11.247345      -306.0558
   6   2.0000     -11.241615      -305.8999
   7   2.0000     -11.234215      -305.6985
   8   2.0000      -1.497223       -40.7415
   9   2.0000      -1.184261       -32.2254
  10   2.0000      -1.083526       -29.4842
  11   2.0000      -1.065386       -28.9906
  12   2.0000      -0.982284       -26.7293
  13   2.0000      -0.839001       -22.8304
  14   2.0000      -0.793701       -21.5977
  15   2.0000      -0.743315       -20.2266
  16   2.0000      -0.722102       -19.6494
  17   2.0000      -0.667874       -18.1738
  18   2.0000      -0.646288       -17.5864
  19   2.0000      -0.628663       -17.1068
  20   2.0000      -0.610037       -16.5999
  21   2.0000      -0.574416       -15.6307
  22   2.0000      -0.561783       -15.2869
  23   2.0000      -0.483482       -13.1562
  24   2.0000      -0.426276       -11.5996
  25   2.0000      -0.402313       -10.9475
  26   2.0000      -0.396743       -10.7959
  27   2.0000      -0.372444       -10.1347
  28   0.0000       0.117202         3.1892
  29   0.0000       0.139288         3.7902
  30   0.0000       0.160808         4.3758
  31   0.0000       0.166602         4.5335
  32   0.0000       0.169344         4.6081

MULLIKEN ATOMIC CHARGES
-----------------------
   0 C :   -0.154221
   1 C :   -0.032196
   2 C :   -0.337917
   3 C :    0.123000
   4 N :   -0.116581
   5 O :   -0.102100
   6 C :    0.015351
   7 C :   -0.248814
   8 H :    0.193623
   9 H :    0.163843
  10 H :    0.171554
  11 H :    0.163866
  12 H :    0.160591
Sum of atomic charges:   -0.0000000

LOEWDIN ATOMIC CHARGES
----------------------
   0 C :   -0.096799
   1 C :   -0.102928
   2 C :   -0.204185
   3 C :   -0.270932
   4 N :    0.059400
   5 O :    0.278204
   6 C :   -0.258791
   7 C :   -0.166042
   8 H :    0.127914
   9 H :    0.170207
  10 H :    0.172347
  11 H :    0.138990
  12 H :    0.152615

  Mayer bond orders larger than 0.1
B(  0-C ,  1-C ) :   2.6382 B(  0-C ,  8-H ) :   0.9032 B(  1-C ,  2-C ) :   1.0397
B(  2-C ,  3-C ) :   0.8949 B(  2-C ,  9-H ) :   0.9268 B(  2-C , 10-H ) :   0.9264
B(  3-C ,  4-N ) :   1.6064 B(  3-C ,  7-C ) :   1.1965 B(  4-N ,  5-O ) :   0.8885
B(  4-N ,  6-C ) :   0.1003 B(  5-O ,  6-C ) :   1.1204 B(  6-C ,  7-C ) :   1.5574
B(  6-C , 11-H ) :   0.9190 B(  7-C , 12-H ) :   0.9060

MP2 TOTAL ENERGY:     -360.785331624 Eh
FINAL SINGLE POINT ENERGY      -360.785331624311

DIPOLE MOMENT
-------------
                                X             Y             Z
Electronic contribution:      2.56850       1.73403       1.55412
Nuclear contribution   :     -2.75861      -1.85059      -2.55276
                        -----------------------------------------
Total Dipole Moment    :     -0.19011      -0.11656      -0.99864
                        -----------------------------------------
Magnitude (a.u.)       :      1.02323
Magnitude (Debye)      :      2.60085

                             ****ORCA TERMINATED NORMALLY****
TOTAL RUN TIME: 0 days 0 hours 9 minutes 40 seconds 169 msec
