                         Program Version 3.0.3 - RELEASE   -
|  1> ! RI-MP2 RIJK def2-TZVP def2-TZVP/C def2-TZVP/JK TIGHTSCF
|  2> % maxcore 2000
|  3> % mp2 density relaxed end
|  4> *xyz 0 1
|  5>  C        0.0124090688     1.4381004245     0.0419884764
|  6>  C        1.5099673983     1.8982160831    -0.0626251717
|  7>  C        2.2064275067     0.5747074423     0.0638308444
|  8>  C        1.2932270453    -0.4368897976    -0.0561673037
|  9>  N       -0.0142838822    -0.0306243673    -0.2849358596
| 10>  N        2.0157334866    -1.5667112605    -0.0295817127
| 11>  N        3.3580550077    -1.2525600721     0.1212530306
| 12>  N        3.4487548106     0.0474277299     0.1583947805
| 13>  H       -0.3537565625     1.5996686154     1.0631996581
| 14>  H       -0.6418030645     1.9786590199    -0.6453321334
| 15>  H        1.7070661377     2.3747527450    -1.0303086056
| 16>  H        1.7541951666     2.6264505662     0.7154160494
| 17>  H       -0.7379106036    -0.5373818529     0.2095650256
| 18>  H        1.7436735346    -2.5340667359    -0.0738976783
| 19> *
| 20>
| 21>                          ****END OF INPUT****

CARTESIAN COORDINATES (ANGSTROEM)
---------------------------------
  C      0.012409    1.438100    0.041988
  C      1.509967    1.898216   -0.062625
  C      2.206428    0.574707    0.063831
  C      1.293227   -0.436890   -0.056167
  N     -0.014284   -0.030624   -0.284936
  N      2.015733   -1.566711   -0.029582
  N      3.358055   -1.252560    0.121253
  N      3.448755    0.047428    0.158395
  H     -0.353757    1.599669    1.063200
  H     -0.641803    1.978659   -0.645332
  H      1.707066    2.374753   -1.030309
  H      1.754195    2.626451    0.715416
  H     -0.737911   -0.537382    0.209565
  H      1.743674   -2.534067   -0.073898

 Total Charge           Charge          ....    0
 Multiplicity           Mult            ....    1
 Number of Electrons    NEL             ....   58
 Basis Dimension        Dim             ....  284

ORBITAL ENERGIES
----------------

  NO   OCC          E(Eh)            E(eV)
   0   2.0000     -15.646208      -425.7550
   1   2.0000     -15.622467      -425.1089
   2   2.0000     -15.595822      -424.3839
   3   2.0000     -15.592770      -424.3008
   4   2.0000     -11.307392      -307.6898
   5   2.0000     -11.282136      -307.0025
   6   2.0000     -11.247698      -306.0654
   7   2.0000     -11.232629      -305.6554
   8   2.0000      -1.417108       -38.5615
   9   2.0000      -1.265789       -34.4439
  10   2.0000      -1.192832       -32.4586
  11   2.0000      -1.063900       -28.9502
  12   2.0000      -1.012866       -27.5615
  13   2.0000      -0.873149       -23.7596
  14   2.0000      -0.854817       -23.2608
  15   2.0000      -0.791812       -21.5463
  16   2.0000      -0.762843       -20.7580
  17   2.0000      -0.679108       -18.4795
  18   2.0000      -0.636784       -17.3278
  19   2.0000      -0.619086       -16.8462
  20   2.0000      -0.593148       -16.1404
  21   2.0000      -0.568926       -15.4813
  22   2.0000      -0.550600       -14.9826
  23   2.0000      -0.528976       -14.3942
  24   2.0000      -0.489279       -13.3139
  25   2.0000      -0.466858       -12.7039
  26   2.0000      -0.428078       -11.6486
  27   2.0000      -0.409671       -11.1477
  28   2.0000      -0.306334        -8.3358
  29   0.0000       0.115939         3.1549
  30   0.0000       0.137487         3.7412
  31   0.0000       0.146342         3.9822
  32   0.0000       0.162311         4.4167
  33   0.0000       0.182444         4.9646

MULLIKEN ATOMIC CHARGES
-----------------------
   0 C :   -0.129090
   1 C :   -0.207955
   2 C :   -0.045765
   3 C :    0.095638
   4 N :   -0.331401
   5 N :   -0.119193
   6 N :   -0.130524
   7 N :   -0.145978
   8 H :    0.120989
   9 H :    0.132179
  10 H :    0.127827
  11 H :    0.140222
  12 H :    0.232214
  13 H :    0.260837
Sum of atomic charges:    0.0000000

LOEWDIN ATOMIC CHARGES
----------------------
   0 C :   -0.224478
   1 C :   -0.206574
   2 C :   -0.280033
   3 C :   -0.328445
   4 N :    0.047378
   5 N :    0.132215
   6 N :   -0.056149
   7 N :    0.014573
   8 H :    0.125688
   9 H :    0.127121
  10 H :    0.143471
  11 H :    0.142792
  12 H :    0.175706
  13 H :    0.186734

  Mayer bond orders larger than 0.1
B(  0-C ,  1-C ) :   0.9602 B(  0-C ,  4-N ) :   0.8904 B(  0-C ,  8-H ) :   0.9337
B(  0-C ,  9-H ) :   0.9310 B(  1-C ,  2-C ) :   0.9579 B(  1-C , 10-H ) :   0.9129
B(  1-C , 11-H ) :   0.9329 B(  2-C ,  3-C ) :   1.3544 B(  2-C ,  7-N ) :   1.4349
B(  3-C ,  4-N ) :   1.0965 B(  3-C ,  5-N ) :   1.2111 B(  3-C ,  6-N ) :   0.1254
B(  4-N , 12-H ) :   0.8683 B(  5-N ,  6-N ) :   0.9717 B(  5-N , 13-H ) :   0.8587
B(  6-N ,  7-N ) :   1.3000

MP2 TOTAL ENERGY:     -374.252437272 Eh
FINAL SINGLE POINT ENERGY      -374.252437271608

DIPOLE MOMENT
-------------
                                X             Y             Z
Electronic contribution:      4.19166      -4.82309      -0.06264
Nuclear contribution   :     -6.30109       4.74026       0.24441
                        -----------------------------------------
Total Dipole Moment    :     -2.10943      -0.08284       0.18177
                        -----------------------------------------
Magnitude (a.u.)       :      2.11887
Magnitude (Debye)      :      5.38573

                             ****ORCA TERMINATED NORMALLY****
TOTAL RUN TIME: 0 days 0 hours 11 minutes 53 seconds 848 msec
