                         Program Version 3.0.3 - RELEASE   -
|  1> ! RI-MP2 RIJK def2-TZVP def2-TZVP/C def2-TZVP/JK TIGHTSCF
|  2> % maxcore 2000
|  3> % mp2 density relaxed end
|  4> *xyz 0 1
|  5>  O       -0.1314694810     1.4040267779    -0.1177799250
|  6>  C       -0.1121805944     0.0189752980    -0.0475965838
|  7>  C       -0.4865994848    -0.7127275196     1.2230771167
|  8>  N       -1.1571766214     0.0706437774     2.2343531660
|  9>  C       -2.2747921723     0.4532644167     1.7299367043
| 10>  N       -2.5523288228    -0.0085505138     0.4533435625
| 11>  C       -3.6864019733     0.2706416651    -0.2849958867
| 12>  N       -4.6337774968     0.9785691983     0.1814979708
| 13>  C       -1.4131088426    -0.7573253343    -0.0080514899
| 14>  H       -0.0403909678     1.7480986061     0.7794663715
| 15>  H        0.6807836552    -0.4441155351    -0.6306980888
| 16>  H        0.1191993348    -1.5412240387     1.5708699126
| 17>  H       -2.9969448592     1.0935697671     2.2183053799
| 18>  H       -3.6508137773    -0.1881191149    -1.2787012502
| 19>  H       -5.3805416569     1.0684375422    -0.5029064592
| 20>  H       -1.6057020893    -1.6171335426    -0.6385131508
| 21> *
| 22>
| 23>                          ****END OF INPUT****

CARTESIAN COORDINATES (ANGSTROEM)
---------------------------------
  O     -0.131469    1.404027   -0.117780
  C     -0.112181    0.018975   -0.047597
  C     -0.486599   -0.712728    1.223077
  N     -1.157177    0.070644    2.234353
  C     -2.274792    0.453264    1.729937
  N     -2.552329   -0.008551    0.453344
  C     -3.686402    0.270642   -0.284996
  N     -4.633777    0.978569    0.181498
  C     -1.413109   -0.757325   -0.008051
  H     -0.040391    1.748099    0.779466
  H      0.680784   -0.444116   -0.630698
  H      0.119199   -1.541224    1.570870
  H     -2.996945    1.093570    2.218305
  H     -3.650814   -0.188119   -1.278701
  H     -5.380542    1.068438   -0.502906
  H     -1.605702   -1.617134   -0.638513

 Total Charge           Charge          ....    0
 Multiplicity           Mult            ....    1
 Number of Electrons    NEL             ....   66
 Basis Dimension        Dim             ....  321

ORBITAL ENERGIES
----------------

  NO   OCC          E(Eh)            E(eV)
   0   2.0000     -20.569658      -559.7289
   1   2.0000     -15.613266      -424.8586
   2   2.0000     -15.556812      -423.3224
   3   2.0000     -15.547139      -423.0592
   4   2.0000     -11.335300      -308.4492
   5   2.0000     -11.320423      -308.0444
   6   2.0000     -11.297050      -307.4084
   7   2.0000     -11.285837      -307.1032
   8   2.0000     -11.275463      -306.8209
   9   2.0000      -1.391163       -37.8555
  10   2.0000      -1.343345       -36.5543
  11   2.0000      -1.240212       -33.7479
  12   2.0000      -1.162054       -31.6211
  13   2.0000      -1.109450       -30.1897
  14   2.0000      -0.908221       -24.7140
  15   2.0000      -0.871129       -23.7046
  16   2.0000      -0.838556       -22.8183
  17   2.0000      -0.772783       -21.0285
  18   2.0000      -0.727344       -19.7920
  19   2.0000      -0.700833       -19.0706
  20   2.0000      -0.681458       -18.5434
  21   2.0000      -0.663165       -18.0456
  22   2.0000      -0.615960       -16.7611
  23   2.0000      -0.604463       -16.4483
  24   2.0000      -0.599047       -16.3009
  25   2.0000      -0.567676       -15.4472
  26   2.0000      -0.528966       -14.3939
  27   2.0000      -0.490224       -13.3397
  28   2.0000      -0.470391       -12.8000
  29   2.0000      -0.442242       -12.0340
  30   2.0000      -0.432704       -11.7745
  31   2.0000      -0.395551       -10.7635
  32   2.0000      -0.336951        -9.1689
  33   0.0000       0.115722         3.1490
  34   0.0000       0.133919         3.6441
  35   0.0000       0.151239         4.1154
  36   0.0000       0.164124         4.4660
  37   0.0000       0.171853         4.6764

MULLIKEN ATOMIC CHARGES
-----------------------
   0 O :   -0.463557
   1 C :    0.063277
   2 C :   -0.059908
   3 N :   -0.267128
   4 C :   -0.021524
   5 N :   -0.007008
   6 C :    0.017776
   7 N :   -0.405731
   8 C :   -0.118927
   9 H :    0.343385
  10 H :    0.124129
  11 H :    0.132061
  12 H :    0.172621
  13 H :    0.113067
  14 H :    0.225109
  15 H :    0.152358
Sum of atomic charges:    0.0000000

LOEWDIN ATOMIC CHARGES
----------------------
   0 O :    0.015573
   1 C :   -0.312646
   2 C :   -0.226266
   3 N :    0.085088
   4 C :   -0.247487
   5 N :    0.225153
   6 C :   -0.312629
   7 N :   -0.088535
   8 C :   -0.192417
   9 H :    0.189578
  10 H :    0.143283
  11 H :    0.140168
  12 H :    0.147051
  13 H :    0.124943
  14 H :    0.166740
  15 H :    0.142403

  Mayer bond orders larger than 0.1
B(  0-O ,  1-C ) :   1.0167 B(  0-O ,  9-H ) :   0.8208 B(  1-C ,  2-C ) :   0.8738
B(  1-C ,  8-C ) :   0.8193 B(  1-C , 10-H ) :   0.9514 B(  2-C ,  3-N ) :   0.9814
B(  2-C ,  8-C ) :   0.8733 B(  2-C , 11-H ) :   0.9352 B(  3-N ,  4-C ) :   1.7328
B(  4-C ,  5-N ) :   1.0719 B(  4-C , 12-H ) :   0.9144 B(  5-N ,  6-C ) :   1.0213
B(  5-N ,  8-C ) :   0.9208 B(  6-C ,  7-N ) :   1.8955 B(  6-C , 13-H ) :   0.9263
B(  7-N , 14-H ) :   0.8603 B(  8-C , 15-H ) :   0.9059

MP2 TOTAL ENERGY:     -433.327645694 Eh
FINAL SINGLE POINT ENERGY      -433.327645693866

DIPOLE MOMENT
-------------
                                X             Y             Z
Electronic contribution:      0.07912       0.54118       1.41291
Nuclear contribution   :     -0.11851      -1.36037      -2.31716
                        -----------------------------------------
Total Dipole Moment    :     -0.03939      -0.81919      -0.90426
                        -----------------------------------------
Magnitude (a.u.)       :      1.22078
Magnitude (Debye)      :      3.10298

                             ****ORCA TERMINATED NORMALLY****
TOTAL RUN TIME: 0 days 0 hours 16 minutes 43 seconds 865 msec
