                         Program Version 3.0.3 - RELEASE   -
|  1> ! RI-MP2 RIJK def2-TZVP def2-TZVP/C def2-TZVP/JK TIGHTSCF
|  2> % maxcore 2000
|  3> % mp2 density relaxed end
|  4> *xyz 0 1
|  5>  N        0.1490669774    -1.0376258582    -0.9196599090
|  6>  C        0.0555240944     0.0121315760    -0.4468179900
|  7>  C       -0.0360480430     1.3382869481     0.1650592519
|  8>  C        1.3271817816     2.0127293735     0.2407360399
|  9>  N        1.7400696852     2.7996108038    -0.9220962712
| 10>  C        1.5211481013     3.4845096952     0.3525895177
| 11>  C        0.3794139591     4.4908558735     0.4046646449
| 12>  C        0.8215524796     5.8244410453    -0.0046353512
| 13>  N        1.1917334940     6.8729464401    -0.3175608578
| 14>  H       -0.7286108172     1.9444232591    -0.4251986135
| 15>  H       -0.4619853169     1.2281817178     1.1694270877
| 16>  H        2.0809477940     1.4032474589     0.7353899421
| 17>  H        2.7267752629     2.6855067832    -1.1319370594
| 18>  H        2.3966444307     3.7987364587     0.9174636771
| 19>  H       -0.4340557295     4.1784037237    -0.2557060461
| 20>  H       -0.0236043637     4.5562250712     1.4223113469
| 21> *
| 22>
| 23>                          ****END OF INPUT****

CARTESIAN COORDINATES (ANGSTROEM)
---------------------------------
  N      0.149067   -1.037626   -0.919660
  C      0.055524    0.012132   -0.446818
  C     -0.036048    1.338287    0.165059
  C      1.327182    2.012729    0.240736
  N      1.740070    2.799611   -0.922096
  C      1.521148    3.484510    0.352590
  C      0.379414    4.490856    0.404665
  C      0.821552    5.824441   -0.004635
  N      1.191733    6.872946   -0.317561
  H     -0.728611    1.944423   -0.425199
  H     -0.461985    1.228182    1.169427
  H      2.080948    1.403247    0.735390
  H      2.726775    2.685507   -1.131937
  H      2.396644    3.798736    0.917464
  H     -0.434056    4.178404   -0.255706
  H     -0.023604    4.556225    1.422311

 Total Charge           Charge          ....    0
 Multiplicity           Mult            ....    1
 Number of Electrons    NEL             ....   64
 Basis Dimension        Dim             ....  321

ORBITAL ENERGIES
----------------

  NO   OCC          E(Eh)            E(eV)
   0   2.0000     -15.596197      -424.3941
   1   2.0000     -15.580526      -423.9677
   2   2.0000     -15.580525      -423.9676
   3   2.0000     -11.312012      -307.8155
   4   2.0000     -11.311287      -307.7958
   5   2.0000     -11.304410      -307.6086
   6   2.0000     -11.304408      -307.6086
   7   2.0000     -11.284710      -307.0726
   8   2.0000     -11.284708      -307.0725
   9   2.0000      -1.312792       -35.7229
  10   2.0000      -1.229905       -33.4674
  11   2.0000      -1.228651       -33.4333
  12   2.0000      -1.079394       -29.3718
  13   2.0000      -1.073167       -29.2024
  14   2.0000      -0.910248       -24.7691
  15   2.0000      -0.840027       -22.8583
  16   2.0000      -0.773140       -21.0382
  17   2.0000      -0.713886       -19.4258
  18   2.0000      -0.701961       -19.1013
  19   2.0000      -0.665826       -18.1181
  20   2.0000      -0.657305       -17.8862
  21   2.0000      -0.632863       -17.2211
  22   2.0000      -0.569354       -15.4929
  23   2.0000      -0.568129       -15.4596
  24   2.0000      -0.563639       -15.3374
  25   2.0000      -0.518186       -14.1006
  26   2.0000      -0.503684       -13.7059
  27   2.0000      -0.483009       -13.1433
  28   2.0000      -0.471775       -12.8376
  29   2.0000      -0.469195       -12.7674
  30   2.0000      -0.467175       -12.7125
  31   2.0000      -0.432847       -11.7784
  32   0.0000       0.104277         2.8375
  33   0.0000       0.119845         3.2612
  34   0.0000       0.139195         3.7877
  35   0.0000       0.140152         3.8137
  36   0.0000       0.158548         4.3143

MULLIKEN ATOMIC CHARGES
-----------------------
   0 N :   -0.050181
   1 C :   -0.183889
   2 C :   -0.123431
   3 C :   -0.031119
   4 N :   -0.391070
   5 C :   -0.031153
   6 C :   -0.123423
   7 C :   -0.183907
   8 N :   -0.050178
   9 H :    0.157408
  10 H :    0.160678
  11 H :    0.148594
  12 H :    0.234978
  13 H :    0.148594
  14 H :    0.157418
  15 H :    0.160680
Sum of atomic charges:   -0.0000000

LOEWDIN ATOMIC CHARGES
----------------------
   0 N :    0.064849
   1 C :   -0.185768
   2 C :   -0.225093
   3 C :   -0.242347
   4 N :    0.028637
   5 C :   -0.242344
   6 C :   -0.225095
   7 C :   -0.185770
   8 N :    0.064849
   9 H :    0.168420
  10 H :    0.168493
  11 H :    0.149516
  12 H :    0.175218
  13 H :    0.149518
  14 H :    0.168422
  15 H :    0.168494

  Mayer bond orders larger than 0.1
B(  0-N ,  1-C ) :   2.8666 B(  1-C ,  2-C ) :   0.9533 B(  2-C ,  3-C ) :   0.8867
B(  2-C ,  9-H ) :   0.9135 B(  2-C , 10-H ) :   0.9068 B(  3-C ,  4-N ) :   0.9236
B(  3-C ,  5-C ) :   0.9030 B(  3-C , 11-H ) :   0.9145 B(  4-N ,  5-C ) :   0.9236
B(  4-N , 12-H ) :   0.8647 B(  5-C ,  6-C ) :   0.8867 B(  5-C , 13-H ) :   0.9145
B(  6-C ,  7-C ) :   0.9533 B(  6-C , 14-H ) :   0.9135 B(  6-C , 15-H ) :   0.9068
B(  7-C ,  8-N ) :   2.8666

MP2 TOTAL ENERGY:     -396.238456290 Eh
FINAL SINGLE POINT ENERGY      -396.238456289784

DIPOLE MOMENT
-------------
                                X             Y             Z
Electronic contribution:      0.05169       0.13766      -1.89679
Nuclear contribution   :     -0.07601      -0.24245       3.31556
                        -----------------------------------------
Total Dipole Moment    :     -0.02432      -0.10479       1.41876
                        -----------------------------------------
Magnitude (a.u.)       :      1.42284
Magnitude (Debye)      :      3.61656

                             ****ORCA TERMINATED NORMALLY****
TOTAL RUN TIME: 0 days 0 hours 13 minutes 12 seconds 916 msec
