                         Program Version 3.0.3 - RELEASE   -
|  1> ! RI-MP2 RIJK def2-TZVP def2-TZVP/C def2-TZVP/JK TIGHTSCF
|  2> % maxcore 2000
|  3> % mp2 density relaxed end
|  4> *xyz 0 1
|  5>  C       -0.1053084993     1.6270572859     0.0411052227
|  6>  C        0.0324864107     0.1130157950     0.0379350525
|  7>  C        1.1790828749    -0.6189946183    -0.7383294056
|  8>  C        2.1760376610    -0.1671204901     0.3655280617
|  9>  C        0.8822370433    -0.6300690754     1.1053380776
| 10>  O        0.5944337430    -0.5956889833     2.4512179941
| 11>  C        0.8925588284    -1.8870998523     0.1387264238
| 12>  C       -0.3066768738    -2.6694115226    -0.0634198377
| 13>  C       -1.2830226077    -3.3551998805    -0.2203625188
| 14>  H        0.8411148907     2.1583474486     0.1672904165
| 15>  H       -0.5531708772     1.9677701592    -0.8986583879
| 16>  H       -0.7698469538     1.9398902716     0.8532839189
| 17>  H       -0.9466865272    -0.3478510792    -0.1175953500
| 18>  H        1.3498447918    -0.6254795159    -1.8122313906
| 19>  H        3.0662583823    -0.7892823400     0.4979834904
| 20>  H        2.4264162529     0.8914474445     0.4132391259
| 21>  H        1.2687290412    -1.0917242224     2.9283116715
| 22>  H        1.7647931656    -2.5367689296     0.2674363775
| 23>  H       -2.1496814467    -3.9526633552    -0.3589632828
| 24> *
| 25>
| 26>                          ****END OF INPUT****

CARTESIAN COORDINATES (ANGSTROEM)
---------------------------------
  C     -0.105308    1.627057    0.041105
  C      0.032486    0.113016    0.037935
  C      1.179083   -0.618995   -0.738329
  C      2.176038   -0.167120    0.365528
  C      0.882237   -0.630069    1.105338
  O      0.594434   -0.595689    2.451218
  C      0.892559   -1.887100    0.138726
  C     -0.306677   -2.669412   -0.063420
  C     -1.283023   -3.355200   -0.220363
  H      0.841115    2.158347    0.167290
  H     -0.553171    1.967770   -0.898658
  H     -0.769847    1.939890    0.853284
  H     -0.946687   -0.347851   -0.117595
  H      1.349845   -0.625480   -1.812231
  H      3.066258   -0.789282    0.497983
  H      2.426416    0.891447    0.413239
  H      1.268729   -1.091724    2.928312
  H      1.764793   -2.536769    0.267436
  H     -2.149681   -3.952663   -0.358963

 Total Charge           Charge          ....    0
 Multiplicity           Mult            ....    1
 Number of Electrons    NEL             ....   66
 Basis Dimension        Dim             ....  339

ORBITAL ENERGIES
----------------

  NO   OCC          E(Eh)            E(eV)
   0   2.0000     -20.570823      -559.7606
   1   2.0000     -11.308781      -307.7276
   2   2.0000     -11.258806      -306.3677
   3   2.0000     -11.253881      -306.2337
   4   2.0000     -11.235594      -305.7361
   5   2.0000     -11.234529      -305.7071
   6   2.0000     -11.230193      -305.5891
   7   2.0000     -11.218718      -305.2768
   8   2.0000     -11.213569      -305.1367
   9   2.0000      -1.384804       -37.6824
  10   2.0000      -1.215270       -33.0692
  11   2.0000      -1.038830       -28.2680
  12   2.0000      -0.996099       -27.1052
  13   2.0000      -0.925138       -25.1743
  14   2.0000      -0.871485       -23.7143
  15   2.0000      -0.851097       -23.1595
  16   2.0000      -0.748018       -20.3546
  17   2.0000      -0.730681       -19.8828
  18   2.0000      -0.699011       -19.0211
  19   2.0000      -0.660907       -17.9842
  20   2.0000      -0.624866       -17.0035
  21   2.0000      -0.622705       -16.9447
  22   2.0000      -0.579013       -15.7558
  23   2.0000      -0.562931       -15.3181
  24   2.0000      -0.537549       -14.6274
  25   2.0000      -0.524524       -14.2730
  26   2.0000      -0.486962       -13.2509
  27   2.0000      -0.463843       -12.6218
  28   2.0000      -0.460415       -12.5285
  29   2.0000      -0.438376       -11.9288
  30   2.0000      -0.431556       -11.7432
  31   2.0000      -0.381621       -10.3844
  32   2.0000      -0.364479        -9.9180
  33   0.0000       0.134329         3.6553
  34   0.0000       0.149348         4.0640
  35   0.0000       0.159677         4.3450
  36   0.0000       0.161862         4.4045
  37   0.0000       0.177744         4.8367

MULLIKEN ATOMIC CHARGES
-----------------------
   0 C :   -0.425316
   1 C :   -0.036183
   2 C :   -0.122063
   3 C :   -0.226065
   4 C :    0.132387
   5 O :   -0.455985
   6 C :   -0.267464
   7 C :   -0.012171
   8 C :   -0.122775
   9 H :    0.119333
  10 H :    0.135261
  11 H :    0.144195
  12 H :    0.120942
  13 H :    0.148724
  14 H :    0.110455
  15 H :    0.122439
  16 H :    0.325357
  17 H :    0.119233
  18 H :    0.189695
Sum of atomic charges:   -0.0000000

LOEWDIN ATOMIC CHARGES
----------------------
   0 C :   -0.291486
   1 C :   -0.179195
   2 C :   -0.127686
   3 C :   -0.183635
   4 C :   -0.302378
   5 O :    0.037542
   6 C :   -0.161918
   7 C :   -0.094188
   8 C :   -0.097056
   9 H :    0.121485
  10 H :    0.127145
  11 H :    0.131192
  12 H :    0.158339
  13 H :    0.132280
  14 H :    0.127693
  15 H :    0.127676
  16 H :    0.186572
  17 H :    0.161503
  18 H :    0.126114

  Mayer bond orders larger than 0.1
B(  0-C ,  1-C ) :   0.9056 B(  0-C ,  9-H ) :   0.9327 B(  0-C , 10-H ) :   0.9386
B(  0-C , 11-H ) :   0.9380 B(  1-C ,  2-C ) :   0.8958 B(  1-C ,  4-C ) :   0.8994
B(  1-C , 12-H ) :   0.9107 B(  2-C ,  3-C ) :   0.9169 B(  2-C ,  6-C ) :   0.8698
B(  2-C , 13-H ) :   0.8892 B(  3-C ,  4-C ) :   0.9081 B(  3-C , 14-H ) :   0.9224
B(  3-C , 15-H ) :   0.9283 B(  4-C ,  5-O ) :   0.9905 B(  4-C ,  6-C ) :   0.8365
B(  5-O , 16-H ) :   0.8334 B(  6-C ,  7-C ) :   1.1816 B(  6-C ,  8-C ) :  -0.1414
B(  6-C , 17-H ) :   0.9258 B(  7-C ,  8-C ) :   2.6102 B(  8-C , 18-H ) :   0.8798

MP2 TOTAL ENERGY:     -385.131721369 Eh
FINAL SINGLE POINT ENERGY      -385.131721369366

DIPOLE MOMENT
-------------
                                X             Y             Z
Electronic contribution:     -0.94477      -5.70043       1.83778
Nuclear contribution   :      1.49415       5.68035      -1.92617
                        -----------------------------------------
Total Dipole Moment    :      0.54937      -0.02009      -0.08839
                        -----------------------------------------
Magnitude (a.u.)       :      0.55680
Magnitude (Debye)      :      1.41528

                             ****ORCA TERMINATED NORMALLY****
TOTAL RUN TIME: 0 days 0 hours 18 minutes 24 seconds 748 msec
