                         Program Version 3.0.3 - RELEASE   -
|  1> ! RI-MP2 RIJK def2-TZVP def2-TZVP/C def2-TZVP/JK TIGHTSCF
|  2> % maxcore 2000
|  3> % mp2 density relaxed end
|  4> *xyz 0 1
|  5>  C        0.1511628574     1.7944653052    -0.5758132969
|  6>  C        0.0850558254     0.2824359330    -0.5470184888
|  7>  C        0.6153359666    -0.6373940370    -1.5700510909
|  8>  C        1.9618826824    -0.1747474584    -2.1302696939
|  9>  C        2.4867239256    -0.2839850770    -0.6760758098
| 10>  C        3.2435629754     0.8806529510    -0.0213918130
| 11>  C        3.5326249130     0.6354227473     1.3907747330
| 12>  N        3.7686097036     0.4430244028     2.5052767075
| 13>  N        1.1396727076    -0.6755218930    -0.1290322700
| 14>  H        0.9247682177     2.1892541854    -1.2378125367
| 15>  H       -0.8075717883     2.1812651685    -0.9371495271
| 16>  H        0.3111493528     2.2026901505     0.4276924124
| 17>  H       -0.8465586751    -0.0693453167    -0.1063837002
| 18>  H        0.0364789049    -1.4598025595    -1.9781673480
| 19>  H        2.4316831359    -0.8867371196    -2.8098807731
| 20>  H        1.9711403186     0.8125106536    -2.6027801791
| 21>  H        3.1109499627    -1.1758318854    -0.5740872823
| 22>  H        4.1957754173     1.0173568011    -0.5490165519
| 23>  H        2.6986390262     1.8228848382    -0.1053235912
| 24> *
| 25>
| 26>                          ****END OF INPUT****

CARTESIAN COORDINATES (ANGSTROEM)
---------------------------------
  C      0.151163    1.794465   -0.575813
  C      0.085056    0.282436   -0.547018
  C      0.615336   -0.637394   -1.570051
  C      1.961883   -0.174747   -2.130270
  C      2.486724   -0.283985   -0.676076
  C      3.243563    0.880653   -0.021392
  C      3.532625    0.635423    1.390775
  N      3.768610    0.443024    2.505277
  N      1.139673   -0.675522   -0.129032
  H      0.924768    2.189254   -1.237813
  H     -0.807572    2.181265   -0.937150
  H      0.311149    2.202690    0.427692
  H     -0.846559   -0.069345   -0.106384
  H      0.036479   -1.459803   -1.978167
  H      2.431683   -0.886737   -2.809881
  H      1.971140    0.812511   -2.602780
  H      3.110950   -1.175832   -0.574087
  H      4.195775    1.017357   -0.549017
  H      2.698639    1.822885   -0.105324

 Total Charge           Charge          ....    0
 Multiplicity           Mult            ....    1
 Number of Electrons    NEL             ....   66
 Basis Dimension        Dim             ....  339

ORBITAL ENERGIES
----------------

  NO   OCC          E(Eh)            E(eV)
   0   2.0000     -15.568690      -423.6456
   1   2.0000     -15.563693      -423.5096
   2   2.0000     -11.287810      -307.1569
   3   2.0000     -11.282506      -307.0126
   4   2.0000     -11.274819      -306.8034
   5   2.0000     -11.273936      -306.7794
   6   2.0000     -11.268661      -306.6359
   7   2.0000     -11.250046      -306.1293
   8   2.0000     -11.238309      -305.8099
   9   2.0000      -1.298892       -35.3447
  10   2.0000      -1.213065       -33.0092
  11   2.0000      -1.082968       -29.4691
  12   2.0000      -1.022045       -27.8113
  13   2.0000      -0.987249       -26.8644
  14   2.0000      -0.917975       -24.9794
  15   2.0000      -0.785439       -21.3729
  16   2.0000      -0.767904       -20.8957
  17   2.0000      -0.715846       -19.4792
  18   2.0000      -0.684099       -18.6153
  19   2.0000      -0.646007       -17.5787
  20   2.0000      -0.637365       -17.3436
  21   2.0000      -0.595395       -16.2015
  22   2.0000      -0.589203       -16.0330
  23   2.0000      -0.581882       -15.8338
  24   2.0000      -0.555622       -15.1193
  25   2.0000      -0.544641       -14.8204
  26   2.0000      -0.522240       -14.2109
  27   2.0000      -0.495068       -13.4715
  28   2.0000      -0.465015       -12.6537
  29   2.0000      -0.461363       -12.5543
  30   2.0000      -0.448198       -12.1961
  31   2.0000      -0.421865       -11.4795
  32   2.0000      -0.376505       -10.2452
  33   0.0000       0.120196         3.2707
  34   0.0000       0.144751         3.9389
  35   0.0000       0.146432         3.9846
  36   0.0000       0.156656         4.2628
  37   0.0000       0.176324         4.7980

MULLIKEN ATOMIC CHARGES
-----------------------
   0 C :   -0.409909
   1 C :   -0.019569
   2 C :   -0.053752
   3 C :   -0.263731
   4 C :   -0.006441
   5 C :   -0.142013
   6 C :   -0.179351
   7 N :   -0.053790
   8 N :   -0.257145
   9 H :    0.125135
  10 H :    0.145759
  11 H :    0.155222
  12 H :    0.120659
  13 H :    0.135897
  14 H :    0.139432
  15 H :    0.126704
  16 H :    0.123050
  17 H :    0.160969
  18 H :    0.152873
Sum of atomic charges:    0.0000000

LOEWDIN ATOMIC CHARGES
----------------------
   0 C :   -0.296645
   1 C :   -0.270800
   2 C :   -0.189194
   3 C :   -0.210184
   4 C :   -0.240749
   5 C :   -0.231277
   6 C :   -0.188438
   7 N :    0.060633
   8 N :    0.132497
   9 H :    0.120123
  10 H :    0.134048
  11 H :    0.131385
  12 H :    0.156781
  13 H :    0.133344
  14 H :    0.138504
  15 H :    0.130913
  16 H :    0.157254
  17 H :    0.169225
  18 H :    0.162582

  Mayer bond orders larger than 0.1
B(  0-C ,  1-C ) :   0.8741 B(  0-C ,  9-H ) :   0.9395 B(  0-C , 10-H ) :   0.9234
B(  0-C , 11-H ) :   0.9381 B(  1-C ,  2-C ) :   0.9405 B(  1-C ,  8-N ) :   0.8916
B(  1-C , 12-H ) :   0.9335 B(  2-C ,  3-C ) :   0.9203 B(  2-C ,  8-N ) :   0.8421
B(  2-C , 13-H ) :   0.8992 B(  3-C ,  4-C ) :   0.9415 B(  3-C , 14-H ) :   0.9297
B(  3-C , 15-H ) :   0.9263 B(  4-C ,  5-C ) :   0.9051 B(  4-C ,  8-N ) :   0.9123
B(  4-C , 16-H ) :   0.9177 B(  5-C ,  6-C ) :   0.9544 B(  5-C , 17-H ) :   0.9069
B(  5-C , 18-H ) :   0.9010 B(  6-C ,  7-N ) :   2.8732

MP2 TOTAL ENERGY:     -381.358180080 Eh
FINAL SINGLE POINT ENERGY      -381.358180079733

DIPOLE MOMENT
-------------
                                X             Y             Z
Electronic contribution:      3.89219      -3.06440       5.70383
Nuclear contribution   :     -4.33806       3.65338      -7.74605
                        -----------------------------------------
Total Dipole Moment    :     -0.44587       0.58898      -2.04222
                        -----------------------------------------
Magnitude (a.u.)       :      2.17172
Magnitude (Debye)      :      5.52007

                             ****ORCA TERMINATED NORMALLY****
TOTAL RUN TIME: 0 days 0 hours 19 minutes 5 seconds 683 msec
