                         Program Version 3.0.3 - RELEASE   -
|  1> ! RI-MP2 RIJK def2-TZVP def2-TZVP/C def2-TZVP/JK TIGHTSCF
|  2> % maxcore 2000
|  3> % mp2 density relaxed end
|  4> *xyz 0 1
|  5>  N       -0.1379613182     1.4048887446     0.1240909578
|  6>  C        0.0876168844     0.0394793842     0.0399290254
|  7>  O        1.1970067778    -0.4554273338     0.0243167960
|  8>  N       -1.0732752417    -0.7125547668     0.0166941528
|  9>  C       -1.0797448696    -2.1067471129     0.0018749821
| 10>  C       -0.0509970605    -3.0009219937    -0.0432343970
| 11>  O       -0.5477345926    -4.2540481013    -0.0577166594
| 12>  N       -1.9268078889    -4.2091843693    -0.0196224348
| 13>  C       -2.2359026460    -2.9361381915     0.0129678796
| 14>  H        0.6973435441     1.9436947746    -0.0478635151
| 15>  H       -0.9657425921     1.7818968406    -0.3124907385
| 16>  H       -1.9499566706    -0.2566101583     0.2094597673
| 17>  H        1.0169400002    -2.8896007914    -0.0665740623
| 18>  H       -3.2763615263    -2.6430686551     0.0452340562
| 19> *
| 20>
| 21>                          ****END OF INPUT****

CARTESIAN COORDINATES (ANGSTROEM)
---------------------------------
  N     -0.137961    1.404889    0.124091
  C      0.087617    0.039479    0.039929
  O      1.197007   -0.455427    0.024317
  N     -1.073275   -0.712555    0.016694
  C     -1.079745   -2.106747    0.001875
  C     -0.050997   -3.000922   -0.043234
  O     -0.547735   -4.254048   -0.057717
  N     -1.926808   -4.209184   -0.019622
  C     -2.235903   -2.936138    0.012968
  H      0.697344    1.943695   -0.047864
  H     -0.965743    1.781897   -0.312491
  H     -1.949957   -0.256610    0.209460
  H      1.016940   -2.889601   -0.066574
  H     -3.276362   -2.643069    0.045234

 Total Charge           Charge          ....    0
 Multiplicity           Mult            ....    1
 Number of Electrons    NEL             ....   66
 Basis Dimension        Dim             ....  309

ORBITAL ENERGIES
----------------

  NO   OCC          E(Eh)            E(eV)
   0   2.0000     -20.643759      -561.7452
   1   2.0000     -20.532872      -558.7279
   2   2.0000     -15.628479      -425.2725
   3   2.0000     -15.619631      -425.0318
   4   2.0000     -15.598796      -424.4648
   5   2.0000     -11.400086      -310.2121
   6   2.0000     -11.301946      -307.5416
   7   2.0000     -11.288775      -307.1832
   8   2.0000     -11.285657      -307.0983
   9   2.0000      -1.495792       -40.7026
  10   2.0000      -1.416653       -38.5491
  11   2.0000      -1.275790       -34.7160
  12   2.0000      -1.219377       -33.1809
  13   2.0000      -1.162143       -31.6235
  14   2.0000      -1.059759       -28.8375
  15   2.0000      -0.883137       -24.0314
  16   2.0000      -0.840336       -22.8667
  17   2.0000      -0.801268       -21.8036
  18   2.0000      -0.763726       -20.7821
  19   2.0000      -0.747964       -20.3531
  20   2.0000      -0.703707       -19.1488
  21   2.0000      -0.664663       -18.0864
  22   2.0000      -0.653942       -17.7947
  23   2.0000      -0.632556       -17.2127
  24   2.0000      -0.626161       -17.0387
  25   2.0000      -0.590482       -16.0678
  26   2.0000      -0.568259       -15.4631
  27   2.0000      -0.505440       -13.7537
  28   2.0000      -0.484651       -13.1880
  29   2.0000      -0.468256       -12.7419
  30   2.0000      -0.444517       -12.0959
  31   2.0000      -0.414783       -11.2868
  32   2.0000      -0.334824        -9.1110
  33   0.0000       0.102016         2.7760
  34   0.0000       0.118593         3.2271
  35   0.0000       0.139844         3.8054
  36   0.0000       0.174134         4.7384
  37   0.0000       0.185449         5.0463

MULLIKEN ATOMIC CHARGES
-----------------------
   0 N :   -0.529587
   1 C :    0.430201
   2 O :   -0.391954
   3 N :   -0.370697
   4 C :    0.141950
   5 C :   -0.036995
   6 O :   -0.096713
   7 N :   -0.110889
   8 C :   -0.146205
   9 H :    0.272766
  10 H :    0.251415
  11 H :    0.243434
  12 H :    0.197159
  13 H :    0.146115
Sum of atomic charges:   -0.0000000

LOEWDIN ATOMIC CHARGES
----------------------
   0 N :   -0.061612
   1 C :   -0.550386
   2 O :    0.078895
   3 N :    0.141690
   4 C :   -0.251515
   5 C :   -0.237484
   6 O :    0.278764
   7 N :    0.027805
   8 C :   -0.257126
   9 H :    0.179960
  10 H :    0.167055
  11 H :    0.196138
  12 H :    0.146397
  13 H :    0.141420

  Mayer bond orders larger than 0.1
B(  0-N ,  1-C ) :   1.0904 B(  0-N ,  9-H ) :   0.8663 B(  0-N , 10-H ) :   0.8720
B(  1-C ,  2-O ) :   1.9050 B(  1-C ,  3-N ) :   1.0580 B(  3-N ,  4-C ) :   0.9676
B(  3-N , 11-H ) :   0.8715 B(  4-C ,  5-C ) :   1.5322 B(  4-C ,  8-C ) :   1.1988
B(  5-C ,  6-O ) :   1.0975 B(  5-C ,  7-N ) :   0.1123 B(  5-C , 12-H ) :   0.8867
B(  6-O ,  7-N ) :   0.9114 B(  7-N ,  8-C ) :   1.5762 B(  8-C , 13-H ) :   0.9282

MP2 TOTAL ENERGY:     -469.276312052 Eh
FINAL SINGLE POINT ENERGY      -469.276312051849

DIPOLE MOMENT
-------------
                                X             Y             Z
Electronic contribution:      0.38413      -4.27232      -0.02987
Nuclear contribution   :     -1.32160       6.27941      -0.20344
                        -----------------------------------------
Total Dipole Moment    :     -0.93747       2.00708      -0.23331
                        -----------------------------------------
Magnitude (a.u.)       :      2.22748
Magnitude (Debye)      :      5.66180

                             ****ORCA TERMINATED NORMALLY****
TOTAL RUN TIME: 0 days 0 hours 13 minutes 14 seconds 359 msec
