                         Program Version 3.0.3 - RELEASE   -
|  1> ! RI-MP2 RIJK def2-TZVP def2-TZVP/C def2-TZVP/JK TIGHTSCF
|  2> % maxcore 2000
|  3> % mp2 density relaxed end
|  4> *xyz 0 1
|  5>  C       -0.2227336579     1.3969464878    -0.1222816193
|  6>  C        0.1500324634    -0.0733972327    -0.1893915447
|  7>  C        1.3383229499    -0.4241801841    -1.0919383779
|  8>  C        1.8009699893    -1.7715235082    -0.5158304900
|  9>  C        1.3952251843    -1.6514852061     0.9750010489
| 10>  O        0.5705694628    -0.4998457864     1.1078751287
| 11>  N        1.0671712822    -2.8669457928    -1.1498648294
| 12>  C        1.6704734994    -3.4497981314    -2.3424916635
| 13>  C        1.6664912941    -4.1932463460    -1.0519206627
| 14>  H        0.6400017059     1.9976368206     0.1829448913
| 15>  H       -0.5685599743     1.7499817655    -1.0989672883
| 16>  H       -1.0251389031     1.5567544450     0.6034205997
| 17>  H       -0.7237302874    -0.6657135146    -0.5059301838
| 18>  H        1.0766383068    -0.4959409282    -2.1502145438
| 19>  H        2.1247865937     0.3295921020    -0.9746990350
| 20>  H        2.8898510814    -1.9111870863    -0.6208558821
| 21>  H        0.8555795254    -2.5556287610     1.2869560871
| 22>  H        2.2649389615    -1.5239518951     1.6298179794
| 23>  H        0.9839115601    -3.7208186313    -3.1393253332
| 24>  H        2.6254088186    -3.0494022366    -2.6804938263
| 25>  H        2.6198244375    -4.2868051784    -0.5333150052
| 26>  H        0.9776024264    -5.0168173718    -0.8882792000
| 27> *
| 28>
| 29>                          ****END OF INPUT****

CARTESIAN COORDINATES (ANGSTROEM)
---------------------------------
  C     -0.222734    1.396946   -0.122282
  C      0.150032   -0.073397   -0.189392
  C      1.338323   -0.424180   -1.091938
  C      1.800970   -1.771524   -0.515830
  C      1.395225   -1.651485    0.975001
  O      0.570569   -0.499846    1.107875
  N      1.067171   -2.866946   -1.149865
  C      1.670473   -3.449798   -2.342492
  C      1.666491   -4.193246   -1.051921
  H      0.640002    1.997637    0.182945
  H     -0.568560    1.749982   -1.098967
  H     -1.025139    1.556754    0.603421
  H     -0.723730   -0.665714   -0.505930
  H      1.076638   -0.495941   -2.150215
  H      2.124787    0.329592   -0.974699
  H      2.889851   -1.911187   -0.620856
  H      0.855580   -2.555629    1.286956
  H      2.264939   -1.523952    1.629818
  H      0.983912   -3.720819   -3.139325
  H      2.625409   -3.049402   -2.680494
  H      2.619824   -4.286805   -0.533315
  H      0.977602   -5.016817   -0.888279

 Total Charge           Charge          ....    0
 Multiplicity           Mult            ....    1
 Number of Electrons    NEL             ....   70
 Basis Dimension        Dim             ....  357

ORBITAL ENERGIES
----------------

  NO   OCC          E(Eh)            E(eV)
   0   2.0000     -20.540079      -558.9240
   1   2.0000     -15.561994      -423.4634
   2   2.0000     -11.268534      -306.6324
   3   2.0000     -11.265050      -306.5376
   4   2.0000     -11.260206      -306.4058
   5   2.0000     -11.257714      -306.3380
   6   2.0000     -11.256990      -306.3183
   7   2.0000     -11.218550      -305.2723
   8   2.0000     -11.208200      -304.9906
   9   2.0000      -1.367164       -37.2024
  10   2.0000      -1.277507       -34.7627
  11   2.0000      -1.063437       -28.9376
  12   2.0000      -1.028787       -27.9947
  13   2.0000      -0.917593       -24.9690
  14   2.0000      -0.886914       -24.1342
  15   2.0000      -0.846161       -23.0252
  16   2.0000      -0.785698       -21.3799
  17   2.0000      -0.778413       -21.1817
  18   2.0000      -0.687938       -18.7198
  19   2.0000      -0.679718       -18.4961
  20   2.0000      -0.645030       -17.5522
  21   2.0000      -0.634119       -17.2552
  22   2.0000      -0.609155       -16.5759
  23   2.0000      -0.571536       -15.5523
  24   2.0000      -0.541858       -14.7447
  25   2.0000      -0.532963       -14.5027
  26   2.0000      -0.525147       -14.2900
  27   2.0000      -0.515246       -14.0206
  28   2.0000      -0.512365       -13.9422
  29   2.0000      -0.492176       -13.3928
  30   2.0000      -0.471921       -12.8416
  31   2.0000      -0.456162       -12.4128
  32   2.0000      -0.430835       -11.7236
  33   2.0000      -0.406246       -11.0545
  34   2.0000      -0.379302       -10.3213
  35   0.0000       0.140671         3.8279
  36   0.0000       0.149214         4.0603
  37   0.0000       0.160790         4.3753
  38   0.0000       0.170242         4.6325
  39   0.0000       0.183222         4.9857

MULLIKEN ATOMIC CHARGES
-----------------------
   0 C :   -0.382657
   1 C :    0.094279
   2 C :   -0.258715
   3 C :    0.059709
   4 C :   -0.061204
   5 O :   -0.314619
   6 N :   -0.264155
   7 C :   -0.187788
   8 C :   -0.189166
   9 H :    0.120537
  10 H :    0.122341
  11 H :    0.140058
  12 H :    0.082097
  13 H :    0.122051
  14 H :    0.112333
  15 H :    0.094362
  16 H :    0.100873
  17 H :    0.099184
  18 H :    0.132710
  19 H :    0.121062
  20 H :    0.122970
  21 H :    0.133739
Sum of atomic charges:    0.0000000

LOEWDIN ATOMIC CHARGES
----------------------
   0 C :   -0.294384
   1 C :   -0.338557
   2 C :   -0.217620
   3 C :   -0.288483
   4 C :   -0.275728
   5 O :    0.163929
   6 N :    0.110429
   7 C :   -0.269344
   8 C :   -0.269208
   9 H :    0.124026
  10 H :    0.125942
  11 H :    0.127295
  12 H :    0.138481
  13 H :    0.142261
  14 H :    0.141818
  15 H :    0.135084
  16 H :    0.126645
  17 H :    0.122199
  18 H :    0.124580
  19 H :    0.122850
  20 H :    0.123040
  21 H :    0.124745

  Mayer bond orders larger than 0.1
B(  0-C ,  1-C ) :   0.8981 B(  0-C ,  9-H ) :   0.9343 B(  0-C , 10-H ) :   0.9357
B(  0-C , 11-H ) :   0.9410 B(  1-C ,  2-C ) :   0.9621 B(  1-C ,  5-O ) :   0.9378
B(  1-C , 12-H ) :   0.9325 B(  2-C ,  3-C ) :   0.8995 B(  2-C , 13-H ) :   0.9140
B(  2-C , 14-H ) :   0.9194 B(  3-C ,  4-C ) :   0.9210 B(  3-C ,  6-N ) :   0.8521
B(  3-C , 15-H ) :   0.9062 B(  4-C ,  5-O ) :   0.9678 B(  4-C , 16-H ) :   0.9305
B(  4-C , 17-H ) :   0.9144 B(  6-N ,  7-C ) :   0.8862 B(  6-N ,  8-C ) :   0.8772
B(  7-C ,  8-C ) :   0.9483 B(  7-C , 18-H ) :   0.9269 B(  7-C , 19-H ) :   0.9217
B(  8-C , 20-H ) :   0.9228 B(  8-C , 21-H ) :   0.9284

MP2 TOTAL ENERGY:     -403.635067775 Eh
FINAL SINGLE POINT ENERGY      -403.635067775287

DIPOLE MOMENT
-------------
                                X             Y             Z
Electronic contribution:     -0.52031      -1.83986       2.00444
Nuclear contribution   :      1.10692       1.52989      -2.61853
                        -----------------------------------------
Total Dipole Moment    :      0.58661      -0.30997      -0.61409
                        -----------------------------------------
Magnitude (a.u.)       :      0.90405
Magnitude (Debye)      :      2.29791

                             ****ORCA TERMINATED NORMALLY****
TOTAL RUN TIME: 0 days 0 hours 18 minutes 26 seconds 145 msec
