                         Program Version 3.0.3 - RELEASE   -
|  1> ! RI-MP2 RIJK def2-TZVP def2-TZVP/C def2-TZVP/JK TIGHTSCF
|  2> % maxcore 2000
|  3> % mp2 density relaxed end
|  4> *xyz 0 1
|  5>  C        0.0799197200     1.5116181550    -0.0508170274
|  6>  C        0.0499194353     0.0286953371     0.0610543047
|  7>  O        0.5482765506    -0.7717616128    -1.0549106945
|  8>  C        1.1999572493    -1.6416705054    -0.1801903656
|  9>  N        1.9976680776    -2.5828927338    -0.4017340135
| 10>  C        0.6451907709    -0.9905847161     1.0375041958
| 11>  N        1.1428582930    -0.8462607960     2.3570136599
| 12>  C       -0.8893976602    -0.8303960582     0.8380775170
| 13>  O       -1.5175532718    -0.2569746615     1.9296371455
| 14>  H        1.0991092839     1.8938113235    -0.1616314067
| 15>  H       -0.5039488915     1.8327403687    -0.9200384822
| 16>  H       -0.3750318545     1.9466966571     0.8423850314
| 17>  H        2.1553596983    -2.7127059821    -1.4021538167
| 18>  H        1.2844763913    -1.7550308880     2.7889932869
| 19>  H        2.0289968445    -0.3527068717     2.3826036883
| 20>  H       -1.4670157651    -1.6032870971     0.3346418648
| 21>  H       -0.8492510815    -0.2275507285     2.6367199223
| 22> *
| 23>
| 24>                          ****END OF INPUT****

CARTESIAN COORDINATES (ANGSTROEM)
---------------------------------
  C      0.079920    1.511618   -0.050817
  C      0.049919    0.028695    0.061054
  O      0.548277   -0.771762   -1.054911
  C      1.199957   -1.641671   -0.180190
  N      1.997668   -2.582893   -0.401734
  C      0.645191   -0.990585    1.037504
  N      1.142858   -0.846261    2.357014
  C     -0.889398   -0.830396    0.838078
  O     -1.517553   -0.256975    1.929637
  H      1.099109    1.893811   -0.161631
  H     -0.503949    1.832740   -0.920038
  H     -0.375032    1.946697    0.842385
  H      2.155360   -2.712706   -1.402154
  H      1.284476   -1.755031    2.788993
  H      2.028997   -0.352707    2.382604
  H     -1.467016   -1.603287    0.334642
  H     -0.849251   -0.227551    2.636720

 Total Charge           Charge          ....    0
 Multiplicity           Mult            ....    1
 Number of Electrons    NEL             ....   68
 Basis Dimension        Dim             ....  327

ORBITAL ENERGIES
----------------

  NO   OCC          E(Eh)            E(eV)
   0   2.0000     -20.597355      -560.4825
   1   2.0000     -20.572055      -559.7941
   2   2.0000     -15.586036      -424.1176
   3   2.0000     -15.544891      -422.9980
   4   2.0000     -11.347686      -308.7862
   5   2.0000     -11.316270      -307.9314
   6   2.0000     -11.308138      -307.7101
   7   2.0000     -11.291026      -307.2444
   8   2.0000     -11.240744      -305.8762
   9   2.0000      -1.448158       -39.4064
  10   2.0000      -1.388190       -37.7746
  11   2.0000      -1.226781       -33.3824
  12   2.0000      -1.204471       -32.7753
  13   2.0000      -1.104228       -30.0476
  14   2.0000      -1.007380       -27.4122
  15   2.0000      -0.888061       -24.1654
  16   2.0000      -0.810261       -22.0483
  17   2.0000      -0.757325       -20.6079
  18   2.0000      -0.721856       -19.6427
  19   2.0000      -0.714051       -19.4303
  20   2.0000      -0.695060       -18.9135
  21   2.0000      -0.670864       -18.2551
  22   2.0000      -0.633745       -17.2451
  23   2.0000      -0.608422       -16.5560
  24   2.0000      -0.584944       -15.9171
  25   2.0000      -0.571381       -15.5481
  26   2.0000      -0.562442       -15.3048
  27   2.0000      -0.550595       -14.9824
  28   2.0000      -0.530443       -14.4341
  29   2.0000      -0.476947       -12.9784
  30   2.0000      -0.457169       -12.4402
  31   2.0000      -0.431643       -11.7456
  32   2.0000      -0.397470       -10.8157
  33   2.0000      -0.383515       -10.4360
  34   0.0000       0.115033         3.1302
  35   0.0000       0.156641         4.2624
  36   0.0000       0.165059         4.4915
  37   0.0000       0.170877         4.6498
  38   0.0000       0.187328         5.0975

MULLIKEN ATOMIC CHARGES
-----------------------
   0 C :   -0.410369
   1 C :    0.191997
   2 O :   -0.277667
   3 C :    0.099433
   4 N :   -0.366637
   5 C :    0.063330
   6 N :   -0.608745
   7 C :    0.093032
   8 O :   -0.474501
   9 H :    0.139142
  10 H :    0.152846
  11 H :    0.153432
  12 H :    0.234396
  13 H :    0.266241
  14 H :    0.259611
  15 H :    0.139537
  16 H :    0.344921
Sum of atomic charges:   -0.0000000

LOEWDIN ATOMIC CHARGES
----------------------
   0 C :   -0.262627
   1 C :   -0.245546
   2 O :    0.247941
   3 C :   -0.367245
   4 N :   -0.049475
   5 C :   -0.252813
   6 N :   -0.101610
   7 C :   -0.253950
   8 O :    0.018223
   9 H :    0.132816
  10 H :    0.140851
  11 H :    0.143764
  12 H :    0.175224
  13 H :    0.176313
  14 H :    0.171015
  15 H :    0.142395
  16 H :    0.184725

  Mayer bond orders larger than 0.1
B(  0-C ,  1-C ) :   0.8925 B(  0-C ,  9-H ) :   0.9313 B(  0-C , 10-H ) :   0.9302
B(  0-C , 11-H ) :   0.9251 B(  1-C ,  2-O ) :   0.8863 B(  1-C ,  5-C ) :   0.8209
B(  1-C ,  7-C ) :   0.8829 B(  2-O ,  3-C ) :   1.0478 B(  3-C ,  4-N ) :   2.1063
B(  3-C ,  5-C ) :   0.9646 B(  4-N , 12-H ) :   0.8477 B(  5-C ,  6-N ) :   0.9614
B(  5-C ,  7-C ) :   0.8262 B(  6-N , 13-H ) :   0.8754 B(  6-N , 14-H ) :   0.8842
B(  7-C ,  8-O ) :   0.9873 B(  7-C , 15-H ) :   0.9264 B(  8-O , 16-H ) :   0.7956

MP2 TOTAL ENERGY:     -454.378979918 Eh
FINAL SINGLE POINT ENERGY      -454.378979918269

DIPOLE MOMENT
-------------
                                X             Y             Z
Electronic contribution:     -0.04999      -3.74928      -1.73733
Nuclear contribution   :      0.52164       4.26424       2.09370
                        -----------------------------------------
Total Dipole Moment    :      0.47165       0.51496       0.35637
                        -----------------------------------------
Magnitude (a.u.)       :      0.78399
Magnitude (Debye)      :      1.99274

                             ****ORCA TERMINATED NORMALLY****
TOTAL RUN TIME: 0 days 0 hours 15 minutes 44 seconds 157 msec
