                         Program Version 3.0.3 - RELEASE   -
|  1> ! RI-MP2 RIJK def2-TZVP def2-TZVP/C def2-TZVP/JK TIGHTSCF
|  2> % maxcore 2000
|  3> % mp2 density relaxed end
|  4> *xyz 0 1
|  5>  N       -0.0614481564     1.2172186840    -0.0258350834
|  6>  C        0.0882889722    -0.1138878691    -0.1971070665
|  7>  O        1.1424176518    -0.7055004459    -0.3235737029
|  8>  C       -1.2863515128    -0.8265727064    -0.1902795863
|  9>  O       -2.3118842428    -0.2204705596     0.0561748389
| 10>  N       -1.2330010656    -2.1401540633    -0.5584096364
| 11>  C       -0.4645596718    -3.2196499546     0.0097227667
| 12>  C       -1.9704263198    -3.2348615238     0.0208832739
| 13>  H        0.7478020122     1.8121395178     0.0199988167
| 14>  H       -0.9911133783     1.5831058211     0.1041862545
| 15>  H        0.0781778175    -3.8369851169    -0.6994668274
| 16>  H        0.0549300241    -3.0281047672     0.9431533566
| 17>  H       -2.4842636517    -3.0395327742     0.9584475535
| 18>  H       -2.5064255786    -3.8694289119    -0.6786833279
| 19> *
| 20>
| 21>                          ****END OF INPUT****

CARTESIAN COORDINATES (ANGSTROEM)
---------------------------------
  N     -0.061448    1.217219   -0.025835
  C      0.088289   -0.113888   -0.197107
  O      1.142418   -0.705500   -0.323574
  C     -1.286352   -0.826573   -0.190280
  O     -2.311884   -0.220471    0.056175
  N     -1.233001   -2.140154   -0.558410
  C     -0.464560   -3.219650    0.009723
  C     -1.970426   -3.234862    0.020883
  H      0.747802    1.812140    0.019999
  H     -0.991113    1.583106    0.104186
  H      0.078178   -3.836985   -0.699467
  H      0.054930   -3.028105    0.943153
  H     -2.484264   -3.039533    0.958448
  H     -2.506426   -3.869429   -0.678683

 Total Charge           Charge          ....    0
 Multiplicity           Mult            ....    1
 Number of Electrons    NEL             ....   60
 Basis Dimension        Dim             ....  284

ORBITAL ENERGIES
----------------

  NO   OCC          E(Eh)            E(eV)
   0   2.0000     -20.556465      -559.3698
   1   2.0000     -20.539961      -558.9207
   2   2.0000     -15.596810      -424.4108
   3   2.0000     -15.593570      -424.3226
   4   2.0000     -11.375606      -309.5460
   5   2.0000     -11.370905      -309.4181
   6   2.0000     -11.286071      -307.1096
   7   2.0000     -11.283732      -307.0460
   8   2.0000      -1.423193       -38.7271
   9   2.0000      -1.391981       -37.8777
  10   2.0000      -1.306398       -35.5489
  11   2.0000      -1.225998       -33.3611
  12   2.0000      -1.019042       -27.7295
  13   2.0000      -0.890627       -24.2352
  14   2.0000      -0.865398       -23.5487
  15   2.0000      -0.774058       -21.0632
  16   2.0000      -0.751987       -20.4626
  17   2.0000      -0.701068       -19.0770
  18   2.0000      -0.688148       -18.7255
  19   2.0000      -0.678848       -18.4724
  20   2.0000      -0.628477       -17.1017
  21   2.0000      -0.604594       -16.4519
  22   2.0000      -0.554532       -15.0896
  23   2.0000      -0.543082       -14.7780
  24   2.0000      -0.526973       -14.3397
  25   2.0000      -0.512444       -13.9443
  26   2.0000      -0.503135       -13.6910
  27   2.0000      -0.429286       -11.6815
  28   2.0000      -0.418348       -11.3838
  29   2.0000      -0.405273       -11.0280
  30   0.0000       0.091624         2.4932
  31   0.0000       0.140606         3.8261
  32   0.0000       0.154144         4.1945
  33   0.0000       0.177435         4.8282
  34   0.0000       0.186495         5.0748

MULLIKEN ATOMIC CHARGES
-----------------------
   0 N :   -0.445954
   1 C :    0.233413
   2 O :   -0.342226
   3 C :    0.231568
   4 O :   -0.345689
   5 N :   -0.151339
   6 C :   -0.144967
   7 C :   -0.160279
   8 H :    0.261543
   9 H :    0.288024
  10 H :    0.140703
  11 H :    0.148857
  12 H :    0.143968
  13 H :    0.142377
Sum of atomic charges:   -0.0000000

LOEWDIN ATOMIC CHARGES
----------------------
   0 N :    0.012979
   1 C :   -0.457845
   2 O :    0.097517
   3 C :   -0.405520
   4 O :    0.109627
   5 N :    0.198474
   6 C :   -0.217570
   7 C :   -0.224230
   8 H :    0.175396
   9 H :    0.184618
  10 H :    0.131388
  11 H :    0.132536
  12 H :    0.131687
  13 H :    0.130943

  Mayer bond orders larger than 0.1
B(  0-N ,  1-C ) :   1.2265 B(  0-N ,  8-H ) :   0.8580 B(  0-N ,  9-H ) :   0.8421
B(  1-C ,  2-O ) :   1.9301 B(  1-C ,  3-C ) :   0.8640 B(  3-C ,  4-O ) :   1.8706
B(  3-C ,  5-N ) :   1.1214 B(  5-N ,  6-C ) :   0.8490 B(  5-N ,  7-C ) :   0.8558
B(  6-C ,  7-C ) :   0.9218 B(  6-C , 10-H ) :   0.9256 B(  6-C , 11-H ) :   0.9264
B(  7-C , 12-H ) :   0.9250 B(  7-C , 13-H ) :   0.9216

MP2 TOTAL ENERGY:     -415.217584797 Eh
FINAL SINGLE POINT ENERGY      -415.217584797094

DIPOLE MOMENT
-------------
                                X             Y             Z
Electronic contribution:      0.46996       3.35065      -0.99757
Nuclear contribution   :     -0.55564      -3.44425       1.40012
                        -----------------------------------------
Total Dipole Moment    :     -0.08568      -0.09360       0.40254
                        -----------------------------------------
Magnitude (a.u.)       :      0.42207
Magnitude (Debye)      :      1.07282

                             ****ORCA TERMINATED NORMALLY****
TOTAL RUN TIME: 0 days 0 hours 10 minutes 6 seconds 5 msec
