                         Program Version 3.0.3 - RELEASE   -
|  1> ! RI-MP2 RIJK def2-TZVP def2-TZVP/C def2-TZVP/JK TIGHTSCF
|  2> % maxcore 2000
|  3> % mp2 density relaxed end
|  4> *xyz 0 1
|  5>  C       -0.5544522415     1.3977743228     0.0183310199
|  6>  C        0.0866938008     0.0072660513    -0.0381710547
|  7>  C        1.0478792506    -0.1017272418    -1.2438305143
|  8>  O        1.6656184889    -1.3774959011    -1.3700369193
|  9>  C        2.1904764704    -1.9141154074    -0.1798576611
| 10>  C        3.6837933363    -1.7341787739     0.2715874962
| 11>  C        3.1528138207    -1.5938640375     1.7415133711
| 12>  C        1.8192379993    -1.2437992058     1.1123300686
| 13>  C        0.8899438191    -0.3030572284     1.2122441874
| 14>  H        0.2065774085     2.1777660360     0.1356099043
| 15>  H       -1.1207844677     1.6141748323    -0.8932476193
| 16>  H       -1.2416942681     1.4742383848     0.8668590067
| 17>  H       -0.7078238290    -0.7386803675    -0.1803102838
| 18>  H        0.5086726546     0.0465859670    -2.1848381182
| 19>  H        1.8046897974     0.6947533698    -1.1579395756
| 20>  H        1.9487843181    -2.9851691408    -0.1873329486
| 21>  H        4.3754962864    -2.5500416688     0.0514475521
| 22>  H        4.0935220866    -0.7889761587    -0.0912006793
| 23>  H        3.1522306401    -2.5559600233     2.2644332867
| 24>  H        3.6192585218    -0.8440505702     2.3836346851
| 25>  H        0.7740812866     0.3227645611     2.0940912359
| 26> *
| 27>
| 28>                          ****END OF INPUT****

CARTESIAN COORDINATES (ANGSTROEM)
---------------------------------
  C     -0.554452    1.397774    0.018331
  C      0.086694    0.007266   -0.038171
  C      1.047879   -0.101727   -1.243831
  O      1.665618   -1.377496   -1.370037
  C      2.190476   -1.914115   -0.179858
  C      3.683793   -1.734179    0.271587
  C      3.152814   -1.593864    1.741513
  C      1.819238   -1.243799    1.112330
  C      0.889944   -0.303057    1.212244
  H      0.206577    2.177766    0.135610
  H     -1.120784    1.614175   -0.893248
  H     -1.241694    1.474238    0.866859
  H     -0.707824   -0.738680   -0.180310
  H      0.508673    0.046586   -2.184838
  H      1.804690    0.694753   -1.157940
  H      1.948784   -2.985169   -0.187333
  H      4.375496   -2.550042    0.051448
  H      4.093522   -0.788976   -0.091201
  H      3.152231   -2.555960    2.264433
  H      3.619259   -0.844051    2.383635
  H      0.774081    0.322765    2.094091

 Total Charge           Charge          ....    0
 Multiplicity           Mult            ....    1
 Number of Electrons    NEL             ....   68
 Basis Dimension        Dim             ....  351

ORBITAL ENERGIES
----------------

  NO   OCC          E(Eh)            E(eV)
   0   2.0000     -20.550413      -559.2052
   1   2.0000     -11.276823      -306.8580
   2   2.0000     -11.270751      -306.6927
   3   2.0000     -11.234612      -305.7093
   4   2.0000     -11.232325      -305.6471
   5   2.0000     -11.229231      -305.5629
   6   2.0000     -11.228327      -305.5383
   7   2.0000     -11.220267      -305.3190
   8   2.0000     -11.219614      -305.3012
   9   2.0000      -1.371424       -37.3183
  10   2.0000      -1.141512       -31.0621
  11   2.0000      -1.084574       -29.5127
  12   2.0000      -0.972836       -26.4722
  13   2.0000      -0.935714       -25.4621
  14   2.0000      -0.877720       -23.8840
  15   2.0000      -0.830130       -22.5890
  16   2.0000      -0.798879       -21.7386
  17   2.0000      -0.703983       -19.1563
  18   2.0000      -0.680942       -18.5294
  19   2.0000      -0.662738       -18.0340
  20   2.0000      -0.635192       -17.2845
  21   2.0000      -0.596008       -16.2182
  22   2.0000      -0.587434       -15.9849
  23   2.0000      -0.568830       -15.4787
  24   2.0000      -0.538554       -14.6548
  25   2.0000      -0.532196       -14.4818
  26   2.0000      -0.517071       -14.0702
  27   2.0000      -0.510913       -13.9026
  28   2.0000      -0.501278       -13.6405
  29   2.0000      -0.487445       -13.2641
  30   2.0000      -0.462233       -12.5780
  31   2.0000      -0.420832       -11.4514
  32   2.0000      -0.400524       -10.8988
  33   2.0000      -0.341065        -9.2808
  34   0.0000       0.133608         3.6357
  35   0.0000       0.142399         3.8749
  36   0.0000       0.156894         4.2693
  37   0.0000       0.166421         4.5285
  38   0.0000       0.171925         4.6783

MULLIKEN ATOMIC CHARGES
-----------------------
   0 C :   -0.430920
   1 C :    0.038096
   2 C :   -0.064235
   3 O :   -0.306308
   4 C :    0.111314
   5 C :   -0.226553
   6 C :   -0.206931
   7 C :   -0.016735
   8 C :   -0.314448
   9 H :    0.130188
  10 H :    0.135637
  11 H :    0.138538
  12 H :    0.096663
  13 H :    0.118380
  14 H :    0.086886
  15 H :    0.102389
  16 H :    0.120140
  17 H :    0.117851
  18 H :    0.125432
  19 H :    0.124114
  20 H :    0.120502
Sum of atomic charges:   -0.0000000

LOEWDIN ATOMIC CHARGES
----------------------
   0 C :   -0.291147
   1 C :   -0.266894
   2 C :   -0.281075
   3 O :    0.177283
   4 C :   -0.262544
   5 C :   -0.202070
   6 C :   -0.196881
   7 C :   -0.156385
   8 C :   -0.130996
   9 H :    0.124880
  10 H :    0.124527
  11 H :    0.126017
  12 H :    0.157416
  13 H :    0.130285
  14 H :    0.122295
  15 H :    0.150130
  16 H :    0.122650
  17 H :    0.137384
  18 H :    0.140302
  19 H :    0.131362
  20 H :    0.143459

  Mayer bond orders larger than 0.1
B(  0-C ,  1-C ) :   0.8996 B(  0-C ,  9-H ) :   0.9314 B(  0-C , 10-H ) :   0.9410
B(  0-C , 11-H ) :   0.9377 B(  1-C ,  2-C ) :   0.9294 B(  1-C ,  8-C ) :   0.9069
B(  1-C , 12-H ) :   0.9082 B(  2-C ,  3-O ) :   0.9390 B(  2-C , 13-H ) :   0.9233
B(  2-C , 14-H ) :   0.9254 B(  3-O ,  4-C ) :   0.9695 B(  4-C ,  5-C ) :   0.8897
B(  4-C ,  7-C ) :   0.9128 B(  4-C , 15-H ) :   0.9353 B(  5-C ,  6-C ) :   0.9286
B(  5-C , 16-H ) :   0.9276 B(  5-C , 17-H ) :   0.9146 B(  6-C ,  7-C ) :   0.9103
B(  6-C , 18-H ) :   0.9134 B(  6-C , 19-H ) :   0.9140 B(  7-C ,  8-C ) :   1.7793
B(  8-C , 20-H ) :   0.9340

MP2 TOTAL ENERGY:     -386.396079182 Eh
FINAL SINGLE POINT ENERGY      -386.396079181671

DIPOLE MOMENT
-------------
                                X             Y             Z
Electronic contribution:      1.10384      -4.16280      -1.05089
Nuclear contribution   :     -1.08003       4.46241       1.43966
                        -----------------------------------------
Total Dipole Moment    :      0.02380       0.29961       0.38878
                        -----------------------------------------
Magnitude (a.u.)       :      0.49141
Magnitude (Debye)      :      1.24906

                             ****ORCA TERMINATED NORMALLY****
TOTAL RUN TIME: 0 days 0 hours 20 minutes 5 seconds 378 msec
