                         Program Version 3.0.3 - RELEASE   -
|  1> ! RI-MP2 RIJK def2-TZVP def2-TZVP/C def2-TZVP/JK TIGHTSCF
|  2> % maxcore 2000
|  3> % mp2 density relaxed end
|  4> *xyz 0 1
|  5>  C        0.7401930845    -0.7404850130     1.1327127769
|  6>  N       -0.0445096113    -0.0215317708     0.1302970734
|  7>  C       -1.3900422153    -0.5603895344    -0.0679249202
|  8>  C       -2.3227352244    -0.2498698114     1.0241457855
|  9>  C       -3.0556624640     0.0192050741     1.9384758124
| 10>  C       -1.9453329704    -0.0474949866    -1.4304461993
| 11>  N       -1.7754163499     1.4000744291    -1.5298077391
| 12>  C       -1.3094007197    -0.7879245111    -2.5421333524
| 13>  N       -0.8229085583    -1.3389406294    -3.4344507301
| 14>  H        1.7037683634    -0.2390217714     1.2554811158
| 15>  H        0.2524891725    -0.8056616310     2.1179984274
| 16>  H        0.9365068073    -1.7578202008     0.7787053670
| 17>  H       -0.1388701279     0.9491331905     0.4123176515
| 18>  H       -1.2965529411    -1.6502102378    -0.1469187758
| 19>  H       -3.7073583884     0.2535628235     2.7438936850
| 20>  H       -3.0168046225    -0.2689551300    -1.4574919581
| 21>  H       -0.7983819237     1.6053482284    -1.7176888587
| 22>  H       -2.3084765207     1.7622750123    -2.3133835710
| 23> *
| 24>
| 25>                          ****END OF INPUT****

CARTESIAN COORDINATES (ANGSTROEM)
---------------------------------
  C      0.740193   -0.740485    1.132713
  N     -0.044510   -0.021532    0.130297
  C     -1.390042   -0.560390   -0.067925
  C     -2.322735   -0.249870    1.024146
  C     -3.055662    0.019205    1.938476
  C     -1.945333   -0.047495   -1.430446
  N     -1.775416    1.400074   -1.529808
  C     -1.309401   -0.787925   -2.542133
  N     -0.822909   -1.338941   -3.434451
  H      1.703768   -0.239022    1.255481
  H      0.252489   -0.805662    2.117998
  H      0.936507   -1.757820    0.778705
  H     -0.138870    0.949133    0.412318
  H     -1.296553   -1.650210   -0.146919
  H     -3.707358    0.253563    2.743894
  H     -3.016805   -0.268955   -1.457492
  H     -0.798382    1.605348   -1.717689
  H     -2.308477    1.762275   -2.313384

 Total Charge           Charge          ....    0
 Multiplicity           Mult            ....    1
 Number of Electrons    NEL             ....   66
 Basis Dimension        Dim             ....  333

ORBITAL ENERGIES
----------------

  NO   OCC          E(Eh)            E(eV)
   0   2.0000     -15.573455      -423.7753
   1   2.0000     -15.572109      -423.7386
   2   2.0000     -15.566395      -423.5831
   3   2.0000     -11.321479      -308.0731
   4   2.0000     -11.309081      -307.7357
   5   2.0000     -11.271351      -306.7091
   6   2.0000     -11.255237      -306.2706
   7   2.0000     -11.245088      -305.9944
   8   2.0000     -11.238137      -305.8053
   9   2.0000      -1.257825       -34.2272
  10   2.0000      -1.219105       -33.1735
  11   2.0000      -1.197347       -32.5815
  12   2.0000      -1.064361       -28.9627
  13   2.0000      -1.008991       -27.4560
  14   2.0000      -0.929285       -25.2871
  15   2.0000      -0.876080       -23.8393
  16   2.0000      -0.757247       -20.6058
  17   2.0000      -0.725587       -19.7442
  18   2.0000      -0.713329       -19.4107
  19   2.0000      -0.677245       -18.4288
  20   2.0000      -0.648330       -17.6419
  21   2.0000      -0.615657       -16.7529
  22   2.0000      -0.594109       -16.1665
  23   2.0000      -0.581743       -15.8300
  24   2.0000      -0.560370       -15.2485
  25   2.0000      -0.543234       -14.7822
  26   2.0000      -0.528253       -14.3745
  27   2.0000      -0.482076       -13.1180
  28   2.0000      -0.461599       -12.5607
  29   2.0000      -0.436956       -11.8902
  30   2.0000      -0.418277       -11.3819
  31   2.0000      -0.403152       -10.9703
  32   2.0000      -0.389299       -10.5934
  33   0.0000       0.117267         3.1910
  34   0.0000       0.142065         3.8658
  35   0.0000       0.148495         4.0407
  36   0.0000       0.155363         4.2276
  37   0.0000       0.163118         4.4387

MULLIKEN ATOMIC CHARGES
-----------------------
   0 C :   -0.317225
   1 N :   -0.394562
   2 C :   -0.036273
   3 C :   -0.061846
   4 C :   -0.161957
   5 C :    0.225096
   6 N :   -0.571228
   7 C :   -0.248442
   8 N :   -0.051416
   9 H :    0.140460
  10 H :    0.129632
  11 H :    0.136917
  12 H :    0.223286
  13 H :    0.147044
  14 H :    0.194495
  15 H :    0.151970
  16 H :    0.251947
  17 H :    0.242101
Sum of atomic charges:    0.0000000

LOEWDIN ATOMIC CHARGES
----------------------
   0 C :   -0.340195
   1 N :   -0.008585
   2 C :   -0.272182
   3 C :   -0.092216
   4 C :   -0.086751
   5 C :   -0.290169
   6 N :   -0.117673
   7 C :   -0.178900
   8 N :    0.061086
   9 H :    0.118347
  10 H :    0.106750
  11 H :    0.118600
  12 H :    0.176804
  13 H :    0.175036
  14 H :    0.128684
  15 H :    0.174714
  16 H :    0.164249
  17 H :    0.162400

  Mayer bond orders larger than 0.1
B(  0-C ,  1-N ) :   0.9353 B(  0-C ,  9-H ) :   0.9369 B(  0-C , 10-H ) :   0.9287
B(  0-C , 11-H ) :   0.9370 B(  1-N ,  2-C ) :   0.8934 B(  1-N , 12-H ) :   0.8788
B(  2-C ,  3-C ) :   1.1158 B(  2-C ,  5-C ) :   0.8266 B(  2-C , 13-H ) :   0.9562
B(  3-C ,  4-C ) :   2.6253 B(  4-C , 14-H ) :   0.8887 B(  5-C ,  6-N ) :   0.9453
B(  5-C ,  7-C ) :   0.9217 B(  5-C , 15-H ) :   0.9221 B(  6-N , 16-H ) :   0.8861
B(  6-N , 17-H ) :   0.8898 B(  7-C ,  8-N ) :   2.8740

MP2 TOTAL ENERGY:     -397.392277440 Eh
FINAL SINGLE POINT ENERGY      -397.392277440232

DIPOLE MOMENT
-------------
                                X             Y             Z
Electronic contribution:     -3.32590      -1.12038      -4.96193
Nuclear contribution   :      2.91122       1.78350       6.03292
                        -----------------------------------------
Total Dipole Moment    :     -0.41468       0.66312       1.07099
                        -----------------------------------------
Magnitude (a.u.)       :      1.32617
Magnitude (Debye)      :      3.37085

                             ****ORCA TERMINATED NORMALLY****
TOTAL RUN TIME: 0 days 0 hours 17 minutes 6 seconds 305 msec
