                         Program Version 3.0.3 - RELEASE   -
|  1> ! RI-MP2 RIJK def2-TZVP def2-TZVP/C def2-TZVP/JK TIGHTSCF
|  2> % maxcore 2000
|  3> % mp2 density relaxed end
|  4> *xyz 0 1
|  5>  C       -0.2137315797     1.4708373124    -0.2151403295
|  6>  N       -0.2457245763     0.0413708691    -0.4595501922
|  7>  C        0.8661077829    -0.6585216091    -0.7760209916
|  8>  O        1.9868686084    -0.1942255744    -0.8810510736
|  9>  C        0.6373648319    -2.1491973317    -1.0356678082
| 10>  C        1.5653729580    -2.7880304192    -2.0115258389
| 11>  O        1.7280817914    -2.9948396498    -0.6309765058
| 12>  C       -0.6734701172    -2.8447644750    -0.8509820353
| 13>  O       -1.7449749900    -2.3138756911    -0.6718622662
| 14>  H        0.8119296263     1.8118320463    -0.3569616095
| 15>  H       -0.8708591035     2.0020558698    -0.9119619251
| 16>  H       -0.5298961026     1.7023779793     0.8077258779
| 17>  H       -1.1224313226    -0.4637982643    -0.4232961672
| 18>  H        1.2325395517    -3.6494269942    -2.5900722430
| 19>  H        2.2904304820    -2.1219528007    -2.4730235000
| 20>  H       -0.5706547007    -3.9491095674    -0.8817100617
| 21> *
| 22>
| 23>                          ****END OF INPUT****

CARTESIAN COORDINATES (ANGSTROEM)
---------------------------------
  C     -0.213732    1.470837   -0.215140
  N     -0.245725    0.041371   -0.459550
  C      0.866108   -0.658522   -0.776021
  O      1.986869   -0.194226   -0.881051
  C      0.637365   -2.149197   -1.035668
  C      1.565373   -2.788030   -2.011526
  O      1.728082   -2.994840   -0.630977
  C     -0.673470   -2.844764   -0.850982
  O     -1.744975   -2.313876   -0.671862
  H      0.811930    1.811832   -0.356962
  H     -0.870859    2.002056   -0.911962
  H     -0.529896    1.702378    0.807726
  H     -1.122431   -0.463798   -0.423296
  H      1.232540   -3.649427   -2.590072
  H      2.290430   -2.121953   -2.473023
  H     -0.570655   -3.949110   -0.881710

 Total Charge           Charge          ....    0
 Multiplicity           Mult            ....    1
 Number of Electrons    NEL             ....   68
 Basis Dimension        Dim             ....  321

ORBITAL ENERGIES
----------------

  NO   OCC          E(Eh)            E(eV)
   0   2.0000     -20.612472      -560.8939
   1   2.0000     -20.592822      -560.3592
   2   2.0000     -20.523665      -558.4773
   3   2.0000     -15.589541      -424.2130
   4   2.0000     -11.369870      -309.3899
   5   2.0000     -11.365911      -309.2821
   6   2.0000     -11.331123      -308.3355
   7   2.0000     -11.322888      -308.1114
   8   2.0000     -11.262357      -306.4643
   9   2.0000      -1.463576       -39.8259
  10   2.0000      -1.430039       -38.9134
  11   2.0000      -1.387787       -37.7636
  12   2.0000      -1.239232       -33.7212
  13   2.0000      -1.028586       -27.9892
  14   2.0000      -0.958738       -26.0886
  15   2.0000      -0.926594       -25.2139
  16   2.0000      -0.859444       -23.3866
  17   2.0000      -0.795295       -21.6411
  18   2.0000      -0.736726       -20.0473
  19   2.0000      -0.723160       -19.6782
  20   2.0000      -0.684439       -18.6245
  21   2.0000      -0.648464       -17.6456
  22   2.0000      -0.644921       -17.5492
  23   2.0000      -0.632818       -17.2199
  24   2.0000      -0.611739       -16.6463
  25   2.0000      -0.590333       -16.0638
  26   2.0000      -0.568865       -15.4796
  27   2.0000      -0.551971       -15.0199
  28   2.0000      -0.551361       -15.0033
  29   2.0000      -0.497512       -13.5380
  30   2.0000      -0.479175       -13.0390
  31   2.0000      -0.457569       -12.4511
  32   2.0000      -0.431095       -11.7307
  33   2.0000      -0.397487       -10.8162
  34   0.0000       0.091894         2.5006
  35   0.0000       0.146967         3.9992
  36   0.0000       0.151632         4.1261
  37   0.0000       0.157789         4.2936
  38   0.0000       0.176388         4.7998

MULLIKEN ATOMIC CHARGES
-----------------------
   0 C :   -0.292685
   1 N :   -0.290531
   2 C :    0.191954
   3 O :   -0.373320
   4 C :    0.201642
   5 C :   -0.074806
   6 O :   -0.299169
   7 C :    0.096243
   8 O :   -0.301459
   9 H :    0.177422
  10 H :    0.138966
  11 H :    0.141102
  12 H :    0.263400
  13 H :    0.132778
  14 H :    0.163310
  15 H :    0.125153
Sum of atomic charges:    0.0000000

LOEWDIN ATOMIC CHARGES
----------------------
   0 C :   -0.304944
   1 N :    0.103869
   2 C :   -0.437093
   3 O :    0.090365
   4 C :   -0.273846
   5 C :   -0.225600
   6 O :    0.214438
   7 C :   -0.249926
   8 O :    0.127645
   9 H :    0.134557
  10 H :    0.117561
  11 H :    0.118191
  12 H :    0.188334
  13 H :    0.124448
  14 H :    0.139274
  15 H :    0.132727

  Mayer bond orders larger than 0.1
B(  0-C ,  1-N ) :   0.8461 B(  0-C ,  9-H ) :   0.9276 B(  0-C , 10-H ) :   0.9345
B(  0-C , 11-H ) :   0.9359 B(  1-N ,  2-C ) :   1.2443 B(  1-N , 12-H ) :   0.8345
B(  2-C ,  3-O ) :   1.9295 B(  2-C ,  4-C ) :   0.8801 B(  4-C ,  5-C ) :   0.8973
B(  4-C ,  6-O ) :   0.8634 B(  4-C ,  7-C ) :   0.8477 B(  5-C ,  6-O ) :   0.8949
B(  5-C , 13-H ) :   0.9178 B(  5-C , 14-H ) :   0.8934 B(  7-C ,  8-O ) :   1.8954
B(  7-C , 15-H ) :   0.9547

MP2 TOTAL ENERGY:     -474.278736477 Eh
FINAL SINGLE POINT ENERGY      -474.278736477409

DIPOLE MOMENT
-------------
                                X             Y             Z
Electronic contribution:      0.87452      -4.69688       0.42654
Nuclear contribution   :     -1.65381       4.55323      -0.95887
                        -----------------------------------------
Total Dipole Moment    :     -0.77929      -0.14365      -0.53234
                        -----------------------------------------
Magnitude (a.u.)       :      0.95463
Magnitude (Debye)      :      2.42647

                             ****ORCA TERMINATED NORMALLY****
TOTAL RUN TIME: 0 days 0 hours 15 minutes 1 seconds 640 msec
