                         Program Version 3.0.3 - RELEASE   -
|  1> ! RI-MP2 RIJK def2-TZVP def2-TZVP/C def2-TZVP/JK TIGHTSCF
|  2> % maxcore 2000
|  3> % mp2 density relaxed end
|  4> *xyz 0 1
|  5>  O       -0.0369040892     1.4166027840     0.1269178192
|  6>  C       -0.0591715807     0.0026696085     0.0986294130
|  7>  C       -1.5024714569    -0.5433169007    -0.0197405539
|  8>  C       -1.5532669503    -2.0875511387     0.2546469202
|  9>  N       -1.9613209272    -2.2334740882     1.6591929711
| 10>  C       -2.3414947289    -1.0757618846     2.0381257000
| 11>  N       -2.3168977353    -0.0473880180     1.1079945778
| 12>  C       -2.0549094190    -0.1444444647    -1.3129121131
| 13>  C       -2.4421792722     0.2084186108    -2.3957125445
| 14>  H       -0.3717325643     1.7238035380    -0.7247122895
| 15>  H        0.5515427730    -0.4057998911    -0.7192788643
| 16>  H        0.3653090121    -0.3341875852     1.0495058922
| 17>  H       -2.2838183887    -2.5763067610    -0.3986275445
| 18>  H       -0.5815802218    -2.5605455168     0.0760634927
| 19>  H       -2.7225209448    -0.8698870243     3.0346608034
| 20>  H       -2.0947058953     0.8911307223     1.4158978114
| 21>  H       -2.8168949405     0.4983940198    -3.3465887411
| 22> *
| 23>
| 24>                          ****END OF INPUT****

CARTESIAN COORDINATES (ANGSTROEM)
---------------------------------
  O     -0.036904    1.416603    0.126918
  C     -0.059172    0.002670    0.098629
  C     -1.502471   -0.543317   -0.019741
  C     -1.553267   -2.087551    0.254647
  N     -1.961321   -2.233474    1.659193
  C     -2.341495   -1.075762    2.038126
  N     -2.316898   -0.047388    1.107995
  C     -2.054909   -0.144444   -1.312912
  C     -2.442179    0.208419   -2.395713
  H     -0.371733    1.723804   -0.724712
  H      0.551543   -0.405800   -0.719279
  H      0.365309   -0.334188    1.049506
  H     -2.283818   -2.576307   -0.398628
  H     -0.581580   -2.560546    0.076063
  H     -2.722521   -0.869887    3.034661
  H     -2.094706    0.891131    1.415898
  H     -2.816895    0.498394   -3.346589

 Total Charge           Charge          ....    0
 Multiplicity           Mult            ....    1
 Number of Electrons    NEL             ....   66
 Basis Dimension        Dim             ....  327

ORBITAL ENERGIES
----------------

  NO   OCC          E(Eh)            E(eV)
   0   2.0000     -20.573231      -559.8261
   1   2.0000     -15.581174      -423.9853
   2   2.0000     -15.542899      -422.9438
   3   2.0000     -11.310169      -307.7653
   4   2.0000     -11.306298      -307.6600
   5   2.0000     -11.294480      -307.3384
   6   2.0000     -11.265117      -306.5394
   7   2.0000     -11.248033      -306.0745
   8   2.0000     -11.240546      -305.8708
   9   2.0000      -1.381429       -37.5906
  10   2.0000      -1.310827       -35.6694
  11   2.0000      -1.162941       -31.6452
  12   2.0000      -1.082007       -29.4429
  13   2.0000      -1.012880       -27.5619
  14   2.0000      -0.929829       -25.3019
  15   2.0000      -0.855191       -23.2709
  16   2.0000      -0.801290       -21.8042
  17   2.0000      -0.753865       -20.5137
  18   2.0000      -0.724245       -19.7077
  19   2.0000      -0.703117       -19.1328
  20   2.0000      -0.677855       -18.4454
  21   2.0000      -0.627851       -17.0847
  22   2.0000      -0.600968       -16.3532
  23   2.0000      -0.583988       -15.8911
  24   2.0000      -0.580727       -15.8024
  25   2.0000      -0.547410       -14.8958
  26   2.0000      -0.517911       -14.0931
  27   2.0000      -0.506352       -13.7785
  28   2.0000      -0.470549       -12.8043
  29   2.0000      -0.446898       -12.1607
  30   2.0000      -0.406712       -11.0672
  31   2.0000      -0.393739       -10.7142
  32   2.0000      -0.357105        -9.7173
  33   0.0000       0.129216         3.5161
  34   0.0000       0.153982         4.1901
  35   0.0000       0.159948         4.3524
  36   0.0000       0.161803         4.4029
  37   0.0000       0.164900         4.4872

MULLIKEN ATOMIC CHARGES
-----------------------
   0 O :   -0.471073
   1 C :   -0.072787
   2 C :    0.030054
   3 C :   -0.143774
   4 N :   -0.277414
   5 C :    0.049919
   6 N :   -0.330747
   7 C :   -0.082733
   8 C :   -0.131089
   9 H :    0.327254
  10 H :    0.118287
  11 H :    0.141427
  12 H :    0.131575
  13 H :    0.128033
  14 H :    0.137533
  15 H :    0.247049
  16 H :    0.198486
Sum of atomic charges:   -0.0000000

LOEWDIN ATOMIC CHARGES
----------------------
   0 O :   -0.036335
   1 C :   -0.297488
   2 C :   -0.304300
   3 C :   -0.216054
   4 N :    0.054434
   5 C :   -0.317804
   6 N :    0.105722
   7 C :   -0.078739
   8 C :   -0.086491
   9 H :    0.181986
  10 H :    0.127509
  11 H :    0.139903
  12 H :    0.141232
  13 H :    0.136903
  14 H :    0.134075
  15 H :    0.185717
  16 H :    0.129730

  Mayer bond orders larger than 0.1
B(  0-O ,  1-C ) :   0.9069 B(  0-O ,  9-H ) :   0.8345 B(  1-C ,  2-C ) :   0.9538
B(  1-C , 10-H ) :   0.9274 B(  1-C , 11-H ) :   0.9162 B(  2-C ,  3-C ) :   0.8905
B(  2-C ,  6-N ) :   0.8454 B(  2-C ,  7-C ) :   1.1637 B(  3-C ,  4-N ) :   0.9414
B(  3-C , 12-H ) :   0.9165 B(  3-C , 13-H ) :   0.9183 B(  4-N ,  5-C ) :   1.7867
B(  5-C ,  6-N ) :   1.0992 B(  5-C , 14-H ) :   0.9215 B(  6-N , 15-H ) :   0.8589
B(  7-C ,  8-C ) :   2.6069 B(  8-C , 16-H ) :   0.8757

MP2 TOTAL ENERGY:     -417.268910379 Eh
FINAL SINGLE POINT ENERGY      -417.268910378939

DIPOLE MOMENT
-------------
                                X             Y             Z
Electronic contribution:     -2.06960       0.60371       0.46844
Nuclear contribution   :      2.16950       0.03731      -1.14395
                        -----------------------------------------
Total Dipole Moment    :      0.09990       0.64102      -0.67550
                        -----------------------------------------
Magnitude (a.u.)       :      0.93658
Magnitude (Debye)      :      2.38061

                             ****ORCA TERMINATED NORMALLY****
TOTAL RUN TIME: 0 days 0 hours 17 minutes 12 seconds 435 msec
