                         Program Version 3.0.3 - RELEASE   -
|  1> ! RI-MP2 RIJK def2-TZVP def2-TZVP/C def2-TZVP/JK TIGHTSCF
|  2> % maxcore 2000
|  3> % mp2 density relaxed end
|  4> *xyz 0 1
|  5>  C       -0.0568633875     1.5233448182     0.0332892463
|  6>  C        0.0754732074     0.0157030807     0.0228535451
|  7>  O        1.1311549949    -0.5660920527     0.0378136338
|  8>  N       -1.1337522431    -0.7111138740    -0.0062358834
|  9>  C       -2.4255387439    -0.2348031529    -0.0266000623
| 10>  N       -3.3035837928    -1.2017088061    -0.0515138346
| 11>  C       -2.5609088151    -2.3643328899    -0.0474271324
| 12>  O       -3.1654570102    -3.5659537578    -0.0691716841
| 13>  C       -1.2227778341    -2.1075061802    -0.0198873142
| 14>  H        0.9460286172     1.9474099016     0.0563275617
| 15>  H       -0.5812108637     1.8787792959    -0.8587802225
| 16>  H       -0.6154833130     1.8636190931     0.9103315430
| 17>  H       -2.6551002066     0.8184710672    -0.0219337937
| 18>  H       -4.1152308465    -3.3951075187    -0.0857092381
| 19>  H       -0.3447228630    -2.7246065945    -0.0085524046
| 20> *
| 21>
| 22>                          ****END OF INPUT****

CARTESIAN COORDINATES (ANGSTROEM)
---------------------------------
  C     -0.056863    1.523345    0.033289
  C      0.075473    0.015703    0.022854
  O      1.131155   -0.566092    0.037814
  N     -1.133752   -0.711114   -0.006236
  C     -2.425539   -0.234803   -0.026600
  N     -3.303584   -1.201709   -0.051514
  C     -2.560909   -2.364333   -0.047427
  O     -3.165457   -3.565954   -0.069172
  C     -1.222778   -2.107506   -0.019887
  H      0.946029    1.947410    0.056328
  H     -0.581211    1.878779   -0.858780
  H     -0.615483    1.863619    0.910332
  H     -2.655100    0.818471   -0.021934
  H     -4.115231   -3.395108   -0.085709
  H     -0.344723   -2.724607   -0.008552

 Total Charge           Charge          ....    0
 Multiplicity           Mult            ....    1
 Number of Electrons    NEL             ....   66
 Basis Dimension        Dim             ....  315

ORBITAL ENERGIES
----------------

  NO   OCC          E(Eh)            E(eV)
   0   2.0000     -20.593013      -560.3644
   1   2.0000     -20.562199      -559.5259
   2   2.0000     -15.643075      -425.6697
   3   2.0000     -15.572469      -423.7484
   4   2.0000     -11.390244      -309.9443
   5   2.0000     -11.328941      -308.2762
   6   2.0000     -11.323647      -308.1321
   7   2.0000     -11.263844      -306.5048
   8   2.0000     -11.256416      -306.3027
   9   2.0000      -1.432130       -38.9702
  10   2.0000      -1.420456       -38.6526
  11   2.0000      -1.349712       -36.7275
  12   2.0000      -1.201502       -32.6945
  13   2.0000      -1.053401       -28.6645
  14   2.0000      -1.005247       -27.3542
  15   2.0000      -0.897703       -24.4277
  16   2.0000      -0.824810       -22.4442
  17   2.0000      -0.799283       -21.7496
  18   2.0000      -0.727386       -19.7932
  19   2.0000      -0.697321       -18.9751
  20   2.0000      -0.667018       -18.1505
  21   2.0000      -0.664675       -18.0867
  22   2.0000      -0.645472       -17.5642
  23   2.0000      -0.617560       -16.8047
  24   2.0000      -0.601251       -16.3609
  25   2.0000      -0.584214       -15.8973
  26   2.0000      -0.570101       -15.5132
  27   2.0000      -0.568617       -15.4728
  28   2.0000      -0.522498       -14.2179
  29   2.0000      -0.484574       -13.1859
  30   2.0000      -0.453752       -12.3472
  31   2.0000      -0.413542       -11.2531
  32   2.0000      -0.321246        -8.7415
  33   0.0000       0.092053         2.5049
  34   0.0000       0.119222         3.2442
  35   0.0000       0.155605         4.2342
  36   0.0000       0.177085         4.8187
  37   0.0000       0.186388         5.0719

MULLIKEN ATOMIC CHARGES
-----------------------
   0 C :   -0.443433
   1 C :    0.271604
   2 O :   -0.291306
   3 N :   -0.025490
   4 C :   -0.010203
   5 N :   -0.305951
   6 C :    0.258235
   7 O :   -0.434589
   8 C :   -0.200814
   9 H :    0.173300
  10 H :    0.162459
  11 H :    0.162435
  12 H :    0.163710
  13 H :    0.344112
  14 H :    0.175934
Sum of atomic charges:   -0.0000000

LOEWDIN ATOMIC CHARGES
----------------------
   0 C :   -0.268854
   1 C :   -0.384192
   2 O :    0.154119
   3 N :    0.262034
   4 C :   -0.277915
   5 N :    0.101170
   6 C :   -0.395431
   7 O :    0.076436
   8 C :   -0.177828
   9 H :    0.142842
  10 H :    0.140334
  11 H :    0.140317
  12 H :    0.137350
  13 H :    0.201672
  14 H :    0.147946

  Mayer bond orders larger than 0.1
B(  0-C ,  1-C ) :   0.9159 B(  0-C ,  9-H ) :   0.9321 B(  0-C , 10-H ) :   0.9150
B(  0-C , 11-H ) :   0.9150 B(  1-C ,  2-O ) :   1.9727 B(  1-C ,  3-N ) :   0.9596
B(  3-N ,  4-C ) :   1.1255 B(  3-N ,  8-C ) :   1.0286 B(  4-C ,  5-N ) :   1.6090
B(  4-C , 12-H ) :   0.9160 B(  5-N ,  6-C ) :   1.1990 B(  6-C ,  7-O ) :   1.1016
B(  6-C ,  8-C ) :   1.5249 B(  7-O , 13-H ) :   0.8169 B(  8-C , 14-H ) :   0.9254

MP2 TOTAL ENERGY:     -453.271079514 Eh
FINAL SINGLE POINT ENERGY      -453.271079513940

DIPOLE MOMENT
-------------
                                X             Y             Z
Electronic contribution:     -1.25004      -5.03468      -0.06678
Nuclear contribution   :      0.96904       6.16219       0.07111
                        -----------------------------------------
Total Dipole Moment    :     -0.28100       1.12751       0.00433
                        -----------------------------------------
Magnitude (a.u.)       :      1.16201
Magnitude (Debye)      :      2.95359

                             ****ORCA TERMINATED NORMALLY****
TOTAL RUN TIME: 0 days 0 hours 13 minutes 51 seconds 889 msec
