                         Program Version 3.0.3 - RELEASE   -
|  1> ! RI-MP2 RIJK def2-TZVP def2-TZVP/C def2-TZVP/JK TIGHTSCF
|  2> % maxcore 2000
|  3> % mp2 density relaxed end
|  4> *xyz 0 1
|  5>  C        0.0509938976     1.4720566693    -0.1470413833
|  6>  C       -0.0188586578    -0.0035000226    -0.0136890898
|  7>  C       -1.0662455077    -0.8613440406     0.1555955866
|  8>  C       -0.5020747323    -2.1888487923     0.2179521649
|  9>  C        0.8363094932    -2.0257316963     0.0821664538
| 10>  O        1.1489434528    -0.7096804368    -0.0595023739
| 11>  N       -2.4132967879    -0.4323543663     0.2417490847
| 12>  C       -3.4482115619    -1.2948440518    -0.3407442962
| 13>  C       -3.3149574910    -1.1717719607     1.1329479883
| 14>  H        0.4900291056     1.7727728889    -1.1054160741
| 15>  H       -0.9623394702     1.8736126420    -0.0851688410
| 16>  H        0.6569404287     1.9229887841     0.6473524998
| 17>  H       -1.0202816122    -3.1266292492     0.3456494510
| 18>  H        1.6696806889    -2.7086293219     0.0650556196
| 19>  H       -4.2415827396    -0.7723701697    -0.8678301073
| 20>  H       -3.1302295400    -2.2271925013    -0.8009325815
| 21>  H       -2.9064284272    -2.0203493725     1.6762415993
| 22>  H       -4.0094523591    -0.5579336324     1.6996243591
| 23> *
| 24>
| 25>                          ****END OF INPUT****

CARTESIAN COORDINATES (ANGSTROEM)
---------------------------------
  C      0.050994    1.472057   -0.147041
  C     -0.018859   -0.003500   -0.013689
  C     -1.066246   -0.861344    0.155596
  C     -0.502075   -2.188849    0.217952
  C      0.836309   -2.025732    0.082166
  O      1.148943   -0.709680   -0.059502
  N     -2.413297   -0.432354    0.241749
  C     -3.448212   -1.294844   -0.340744
  C     -3.314957   -1.171772    1.132948
  H      0.490029    1.772773   -1.105416
  H     -0.962339    1.873613   -0.085169
  H      0.656940    1.922989    0.647352
  H     -1.020282   -3.126629    0.345649
  H      1.669681   -2.708629    0.065056
  H     -4.241583   -0.772370   -0.867830
  H     -3.130230   -2.227193   -0.800933
  H     -2.906428   -2.020349    1.676242
  H     -4.009452   -0.557934    1.699624

 Total Charge           Charge          ....    0
 Multiplicity           Mult            ....    1
 Number of Electrons    NEL             ....   66
 Basis Dimension        Dim             ....  333

ORBITAL ENERGIES
----------------

  NO   OCC          E(Eh)            E(eV)
   0   2.0000     -20.610890      -560.8508
   1   2.0000     -15.569495      -423.6675
   2   2.0000     -11.282301      -307.0070
   3   2.0000     -11.277181      -306.8677
   4   2.0000     -11.260822      -306.4225
   5   2.0000     -11.260086      -306.4025
   6   2.0000     -11.249667      -306.1190
   7   2.0000     -11.224986      -305.4474
   8   2.0000     -11.222008      -305.3664
   9   2.0000      -1.449278       -39.4369
  10   2.0000      -1.280223       -34.8366
  11   2.0000      -1.081096       -29.4181
  12   2.0000      -1.041823       -28.3494
  13   2.0000      -0.946757       -25.7626
  14   2.0000      -0.893058       -24.3013
  15   2.0000      -0.847204       -23.0536
  16   2.0000      -0.793108       -21.5816
  17   2.0000      -0.749389       -20.3919
  18   2.0000      -0.708578       -19.2814
  19   2.0000      -0.662501       -18.0276
  20   2.0000      -0.639154       -17.3923
  21   2.0000      -0.630591       -17.1592
  22   2.0000      -0.598890       -16.2966
  23   2.0000      -0.558787       -15.2054
  24   2.0000      -0.552538       -15.0353
  25   2.0000      -0.546269       -14.8647
  26   2.0000      -0.534791       -14.5524
  27   2.0000      -0.522555       -14.2194
  28   2.0000      -0.517513       -14.0822
  29   2.0000      -0.481719       -13.1082
  30   2.0000      -0.387623       -10.5478
  31   2.0000      -0.376913       -10.2563
  32   2.0000      -0.297539        -8.0964
  33   0.0000       0.148912         4.0521
  34   0.0000       0.149190         4.0597
  35   0.0000       0.157104         4.2750
  36   0.0000       0.181807         4.9472
  37   0.0000       0.185421         5.0456

MULLIKEN ATOMIC CHARGES
-----------------------
   0 C :   -0.451117
   1 C :    0.133952
   2 C :    0.116172
   3 C :   -0.300399
   4 C :    0.005511
   5 O :   -0.218528
   6 N :   -0.214300
   7 C :   -0.168135
   8 C :   -0.168300
   9 H :    0.143971
  10 H :    0.167410
  11 H :    0.144019
  12 H :    0.139991
  13 H :    0.145423
  14 H :    0.131373
  15 H :    0.130804
  16 H :    0.130757
  17 H :    0.131393
Sum of atomic charges:    0.0000000

LOEWDIN ATOMIC CHARGES
----------------------
   0 C :   -0.273742
   1 C :   -0.244985
   2 C :   -0.231415
   3 C :   -0.178929
   4 C :   -0.248338
   5 O :    0.352913
   6 N :    0.140567
   7 C :   -0.250215
   8 C :   -0.250277
   9 H :    0.133314
  10 H :    0.142990
  11 H :    0.133331
  12 H :    0.143617
  13 H :    0.131384
  14 H :    0.124865
  15 H :    0.125032
  16 H :    0.125010
  17 H :    0.124877

  Mayer bond orders larger than 0.1
B(  0-C ,  1-C ) :   0.8535 B(  0-C ,  9-H ) :   0.9375 B(  0-C , 10-H ) :   0.9419
B(  0-C , 11-H ) :   0.9377 B(  1-C ,  2-C ) :   1.5149 B(  1-C ,  5-O ) :   1.0448
B(  2-C ,  3-C ) :   1.1406 B(  2-C ,  6-N ) :   1.0470 B(  3-C ,  4-C ) :   1.5376
B(  3-C , 12-H ) :   0.9134 B(  4-C ,  5-O ) :   1.0454 B(  4-C , 13-H ) :   0.9368
B(  6-N ,  7-C ) :   0.8654 B(  6-N ,  8-C ) :   0.8656 B(  7-C ,  8-C ) :   0.9401
B(  7-C , 14-H ) :   0.9277 B(  7-C , 15-H ) :   0.9247 B(  8-C , 16-H ) :   0.9247
B(  8-C , 17-H ) :   0.9277

MP2 TOTAL ENERGY:     -401.241346081 Eh
FINAL SINGLE POINT ENERGY      -401.241346080647

DIPOLE MOMENT
-------------
                                X             Y             Z
Electronic contribution:      4.12950      -1.52958      -0.23938
Nuclear contribution   :     -4.46592       1.11986       0.30388
                        -----------------------------------------
Total Dipole Moment    :     -0.33642      -0.40972       0.06450
                        -----------------------------------------
Magnitude (a.u.)       :      0.53405
Magnitude (Debye)      :      1.35745

                             ****ORCA TERMINATED NORMALLY****
TOTAL RUN TIME: 0 days 0 hours 16 minutes 1 seconds 750 msec
