                         Program Version 3.0.3 - RELEASE   -
|  1> ! RI-MP2 RIJK def2-TZVP def2-TZVP/C def2-TZVP/JK TIGHTSCF
|  2> % maxcore 2000
|  3> % mp2 density relaxed end
|  4> *xyz 0 1
|  5>  O       -0.0616197295     1.4497169229     0.1062771445
|  6>  C        0.0056042034     0.0321087037     0.1034000347
|  7>  C       -1.4142761719    -0.4761299412     0.0180636390
|  8>  C       -2.2768239763    -0.3990751792     1.3132431371
|  9>  C       -2.2976124923    -1.9568223348     1.3209628019
| 10>  N       -1.5867944413    -1.9776858047    -0.0045883270
| 11>  C       -2.4342462375    -1.8718801181    -1.1468185385
| 12>  O       -3.1731754566    -2.6740485848    -1.6370638255
| 13>  C       -2.1366618379    -0.3690636154    -1.3457892822
| 14>  H        0.8332301403     1.7965366010     0.1657127179
| 15>  H        0.5791090651    -0.3522732891    -0.7547231506
| 16>  H        0.4817043000    -0.3552481023     1.0183522313
| 17>  H       -1.7849422674     0.0779802152     2.1624085031
| 18>  H       -3.2568135175     0.0625475468     1.1736347897
| 19>  H       -1.6929282004    -2.4192407056     2.1042140305
| 20>  H       -3.2739606918    -2.4458705392     1.2881228972
| 21>  H       -3.0329416023     0.2522097010    -1.3946078070
| 22>  H       -1.4877324761    -0.1234167561    -2.1903431758
| 23> *
| 24>
| 25>                          ****END OF INPUT****

CARTESIAN COORDINATES (ANGSTROEM)
---------------------------------
  O     -0.061620    1.449717    0.106277
  C      0.005604    0.032109    0.103400
  C     -1.414276   -0.476130    0.018064
  C     -2.276824   -0.399075    1.313243
  C     -2.297612   -1.956822    1.320963
  N     -1.586794   -1.977686   -0.004588
  C     -2.434246   -1.871880   -1.146819
  O     -3.173175   -2.674049   -1.637064
  C     -2.136662   -0.369064   -1.345789
  H      0.833230    1.796537    0.165713
  H      0.579109   -0.352273   -0.754723
  H      0.481704   -0.355248    1.018352
  H     -1.784942    0.077980    2.162409
  H     -3.256814    0.062548    1.173635
  H     -1.692928   -2.419241    2.104214
  H     -3.273961   -2.445871    1.288123
  H     -3.032942    0.252210   -1.394608
  H     -1.487732   -0.123417   -2.190343

 Total Charge           Charge          ....    0
 Multiplicity           Mult            ....    1
 Number of Electrons    NEL             ....   68
 Basis Dimension        Dim             ....  333

ORBITAL ENERGIES
----------------

  NO   OCC          E(Eh)            E(eV)
   0   2.0000     -20.573763      -559.8406
   1   2.0000     -20.543803      -559.0253
   2   2.0000     -15.569565      -423.6694
   3   2.0000     -11.352670      -308.9219
   4   2.0000     -11.291617      -307.2605
   5   2.0000     -11.282043      -307.0000
   6   2.0000     -11.275402      -306.8193
   7   2.0000     -11.248583      -306.0895
   8   2.0000     -11.243471      -305.9504
   9   2.0000      -1.400908       -38.1206
  10   2.0000      -1.378360       -37.5071
  11   2.0000      -1.288267       -35.0555
  12   2.0000      -1.046190       -28.4683
  13   2.0000      -1.020918       -27.7806
  14   2.0000      -0.952325       -25.9141
  15   2.0000      -0.862600       -23.4725
  16   2.0000      -0.789347       -21.4792
  17   2.0000      -0.723244       -19.6805
  18   2.0000      -0.694687       -18.9034
  19   2.0000      -0.682817       -18.5804
  20   2.0000      -0.678184       -18.4543
  21   2.0000      -0.648889       -17.6572
  22   2.0000      -0.640706       -17.4345
  23   2.0000      -0.593491       -16.1497
  24   2.0000      -0.582352       -15.8466
  25   2.0000      -0.565540       -15.3891
  26   2.0000      -0.544102       -14.8058
  27   2.0000      -0.524498       -14.2723
  28   2.0000      -0.507347       -13.8056
  29   2.0000      -0.484554       -13.1854
  30   2.0000      -0.470200       -12.7948
  31   2.0000      -0.449172       -12.2226
  32   2.0000      -0.422703       -11.5023
  33   2.0000      -0.384372       -10.4593
  34   0.0000       0.118322         3.2197
  35   0.0000       0.137152         3.7321
  36   0.0000       0.145644         3.9632
  37   0.0000       0.167065         4.5461
  38   0.0000       0.171346         4.6626

MULLIKEN ATOMIC CHARGES
-----------------------
   0 O :   -0.463911
   1 C :   -0.127607
   2 C :    0.220199
   3 C :   -0.258646
   4 C :   -0.171395
   5 N :   -0.165172
   6 C :    0.168835
   7 O :   -0.266059
   8 C :   -0.281972
   9 H :    0.321005
  10 H :    0.107868
  11 H :    0.107218
  12 H :    0.137561
  13 H :    0.122691
  14 H :    0.127991
  15 H :    0.136905
  16 H :    0.138294
  17 H :    0.146196
Sum of atomic charges:   -0.0000000

LOEWDIN ATOMIC CHARGES
----------------------
   0 O :   -0.037809
   1 C :   -0.315226
   2 C :   -0.250656
   3 C :   -0.194801
   4 C :   -0.222712
   5 N :    0.183966
   6 C :   -0.392927
   7 O :    0.146956
   8 C :   -0.168286
   9 H :    0.175642
  10 H :    0.124365
  11 H :    0.123665
  12 H :    0.136188
  13 H :    0.137179
  14 H :    0.127578
  15 H :    0.129471
  16 H :    0.147729
  17 H :    0.149680

  Mayer bond orders larger than 0.1
B(  0-O ,  1-C ) :   1.0433 B(  0-O ,  2-C ) :  -0.1066 B(  0-O ,  9-H ) :   0.8446
B(  1-C ,  2-C ) :   0.9176 B(  1-C , 10-H ) :   0.9226 B(  1-C , 11-H ) :   0.9245
B(  2-C ,  3-C ) :   0.8816 B(  2-C ,  5-N ) :   0.8821 B(  2-C ,  8-C ) :   0.9116
B(  3-C ,  4-C ) :   0.9626 B(  3-C , 12-H ) :   0.9209 B(  3-C , 13-H ) :   0.9102
B(  4-C ,  5-N ) :   0.8756 B(  4-C , 14-H ) :   0.9235 B(  4-C , 15-H ) :   0.9276
B(  5-N ,  6-C ) :   1.0142 B(  6-C ,  7-O ) :   2.0492 B(  6-C ,  8-C ) :   0.9322
B(  8-C , 16-H ) :   0.8940 B(  8-C , 17-H ) :   0.8935

MP2 TOTAL ENERGY:     -438.350290720 Eh
FINAL SINGLE POINT ENERGY      -438.350290719529

DIPOLE MOMENT
-------------
                                X             Y             Z
Electronic contribution:     -1.47154      -3.12231      -3.66422
Nuclear contribution   :      2.32548       4.10787       4.51586
                        -----------------------------------------
Total Dipole Moment    :      0.85394       0.98557       0.85165
                        -----------------------------------------
Magnitude (a.u.)       :      1.55752
Magnitude (Debye)      :      3.95889

                             ****ORCA TERMINATED NORMALLY****
TOTAL RUN TIME: 0 days 0 hours 18 minutes 24 seconds 719 msec
