                         Program Version 3.0.3 - RELEASE   -
|  1> ! RI-MP2 RIJK def2-TZVP def2-TZVP/C def2-TZVP/JK TIGHTSCF
|  2> % maxcore 2000
|  3> % mp2 density relaxed end
|  4> *xyz 0 1
|  5>  C       -0.1858146788     1.5313323945    -0.0763007431
|  6>  C       -0.0239401032     0.0115025716     0.0223772576
|  7>  C        0.7511215029    -0.5647342101    -1.1683238864
|  8>  C        0.8460944031    -2.0996480991    -1.2333529189
|  9>  C        1.6066138085    -2.5155804898    -2.4981260001
| 10>  C        1.4871459791    -2.6899249243     0.0293042062
| 11>  O       -0.5536884494    -2.5229474643    -1.3425780319
| 12>  C       -0.8752353327    -3.8221799287    -1.4007884346
| 13>  O       -2.0083132428    -4.1979620131    -1.4958421873
| 14>  H        0.7866616414     2.0357375172    -0.1106736762
| 15>  H       -0.7355109697     1.8125590026    -0.9812428267
| 16>  H       -0.7352927674     1.9273277238     0.7830327626
| 17>  H        0.4891481363    -0.2345151793     0.9596490703
| 18>  H       -1.0087060355    -0.4644361589     0.0698975901
| 19>  H        0.2786636143    -0.2269567824    -2.0988015193
| 20>  H        1.7736522145    -0.1661338393    -1.1747089054
| 21>  H        2.6209021968    -2.1057619972    -2.4750391653
| 22>  H        1.6919272357    -3.6023983289    -2.5869530094
| 23>  H        1.1014063616    -2.1344668784    -3.3898877439
| 24>  H        0.8570285331    -2.5209284978     0.9051214471
| 25>  H        1.6614739428    -3.7652246444    -0.0653861855
| 26>  H        2.4568958655    -2.2148349252     0.2066606860
| 27>  H       -0.0100554260    -4.5063193683    -1.3532432056
| 28> *
| 29>
| 30>                          ****END OF INPUT****

CARTESIAN COORDINATES (ANGSTROEM)
---------------------------------
  C     -0.185815    1.531332   -0.076301
  C     -0.023940    0.011503    0.022377
  C      0.751122   -0.564734   -1.168324
  C      0.846094   -2.099648   -1.233353
  C      1.606614   -2.515580   -2.498126
  C      1.487146   -2.689925    0.029304
  O     -0.553688   -2.522947   -1.342578
  C     -0.875235   -3.822180   -1.400788
  O     -2.008313   -4.197962   -1.495842
  H      0.786662    2.035738   -0.110674
  H     -0.735511    1.812559   -0.981243
  H     -0.735293    1.927328    0.783033
  H      0.489148   -0.234515    0.959649
  H     -1.008706   -0.464436    0.069898
  H      0.278664   -0.226957   -2.098802
  H      1.773652   -0.166134   -1.174709
  H      2.620902   -2.105762   -2.475039
  H      1.691927   -3.602398   -2.586953
  H      1.101406   -2.134467   -3.389888
  H      0.857029   -2.520928    0.905121
  H      1.661474   -3.765225   -0.065386
  H      2.456896   -2.214835    0.206661
  H     -0.010055   -4.506319   -1.353243

 Total Charge           Charge          ....    0
 Multiplicity           Mult            ....    1
 Number of Electrons    NEL             ....   72
 Basis Dimension        Dim             ....  363

ORBITAL ENERGIES
----------------

  NO   OCC          E(Eh)            E(eV)
   0   2.0000     -20.595869      -560.4421
   1   2.0000     -20.541181      -558.9540
   2   2.0000     -11.374961      -309.5284
   3   2.0000     -11.316352      -307.9336
   4   2.0000     -11.236940      -305.7727
   5   2.0000     -11.236144      -305.7510
   6   2.0000     -11.231971      -305.6375
   7   2.0000     -11.223244      -305.4000
   8   2.0000     -11.216577      -305.2186
   9   2.0000      -1.451745       -39.5040
  10   2.0000      -1.361401       -37.0456
  11   2.0000      -1.109200       -30.1829
  12   2.0000      -1.042102       -28.3570
  13   2.0000      -0.963394       -26.2153
  14   2.0000      -0.942412       -25.6443
  15   2.0000      -0.867196       -23.5976
  16   2.0000      -0.816501       -22.2181
  17   2.0000      -0.788890       -21.4668
  18   2.0000      -0.699725       -19.0405
  19   2.0000      -0.668692       -18.1960
  20   2.0000      -0.653968       -17.7954
  21   2.0000      -0.632575       -17.2132
  22   2.0000      -0.618001       -16.8167
  23   2.0000      -0.600365       -16.3368
  24   2.0000      -0.587034       -15.9740
  25   2.0000      -0.565859       -15.3978
  26   2.0000      -0.556110       -15.1325
  27   2.0000      -0.544807       -14.8250
  28   2.0000      -0.532909       -14.5012
  29   2.0000      -0.520678       -14.1684
  30   2.0000      -0.511602       -13.9214
  31   2.0000      -0.483190       -13.1483
  32   2.0000      -0.474159       -12.9025
  33   2.0000      -0.471409       -12.8277
  34   2.0000      -0.445963       -12.1353
  35   2.0000      -0.440338       -11.9822
  36   0.0000       0.122843         3.3427
  37   0.0000       0.144355         3.9281
  38   0.0000       0.153050         4.1647
  39   0.0000       0.161474         4.3939
  40   0.0000       0.168405         4.5825

MULLIKEN ATOMIC CHARGES
-----------------------
   0 C :   -0.389603
   1 C :   -0.226521
   2 C :   -0.217053
   3 C :    0.158667
   4 C :   -0.391217
   5 C :   -0.447865
   6 O :   -0.206817
   7 C :    0.191184
   8 O :   -0.280985
   9 H :    0.119013
  10 H :    0.128530
  11 H :    0.137121
  12 H :    0.108306
  13 H :    0.140554
  14 H :    0.118631
  15 H :    0.112768
  16 H :    0.140178
  17 H :    0.134800
  18 H :    0.151475
  19 H :    0.162572
  20 H :    0.140226
  21 H :    0.142834
  22 H :    0.073203
Sum of atomic charges:   -0.0000000

LOEWDIN ATOMIC CHARGES
----------------------
   0 C :   -0.318854
   1 C :   -0.292073
   2 C :   -0.230388
   3 C :   -0.362877
   4 C :   -0.270385
   5 C :   -0.271317
   6 O :    0.274436
   7 C :   -0.457592
   8 O :    0.109630
   9 H :    0.119359
  10 H :    0.121859
  11 H :    0.121898
  12 H :    0.133730
  13 H :    0.142376
  14 H :    0.148384
  15 H :    0.144783
  16 H :    0.133147
  17 H :    0.124534
  18 H :    0.133150
  19 H :    0.133088
  20 H :    0.124852
  21 H :    0.135054
  22 H :    0.103203

  Mayer bond orders larger than 0.1
B(  0-C ,  1-C ) :   0.9180 B(  0-C ,  9-H ) :   0.9372 B(  0-C , 10-H ) :   0.9420
B(  0-C , 11-H ) :   0.9438 B(  1-C ,  2-C ) :   0.9343 B(  1-C , 12-H ) :   0.9306
B(  1-C , 13-H ) :   0.9320 B(  2-C ,  3-C ) :   0.9090 B(  2-C , 14-H ) :   0.9259
B(  2-C , 15-H ) :   0.9192 B(  3-C ,  4-C ) :   0.9329 B(  3-C ,  5-C ) :   0.9200
B(  3-C ,  6-O ) :   0.8335 B(  4-C , 16-H ) :   0.9269 B(  4-C , 17-H ) :   0.9270
B(  4-C , 18-H ) :   0.9372 B(  5-C , 19-H ) :   0.9392 B(  5-C , 20-H ) :   0.9273
B(  5-C , 21-H ) :   0.9263 B(  6-O ,  7-C ) :   1.0874 B(  7-C ,  8-O ) :   2.0203
B(  7-C , 22-H ) :   0.9210

MP2 TOTAL ENERGY:     -424.757772283 Eh
FINAL SINGLE POINT ENERGY      -424.757772283164

DIPOLE MOMENT
-------------
                                X             Y             Z
Electronic contribution:     -7.47117      -9.10293      -2.59577
Nuclear contribution   :      9.11690       9.58065       2.77262
                        -----------------------------------------
Total Dipole Moment    :      1.64573       0.47772       0.17686
                        -----------------------------------------
Magnitude (a.u.)       :      1.72277
Magnitude (Debye)      :      4.37893

                             ****ORCA TERMINATED NORMALLY****
TOTAL RUN TIME: 0 days 0 hours 19 minutes 45 seconds 11 msec
