                         Program Version 3.0.3 - RELEASE   -
|  1> ! RI-MP2 RIJK def2-TZVP def2-TZVP/C def2-TZVP/JK TIGHTSCF
|  2> % maxcore 2000
|  3> % mp2 density relaxed end
|  4> *xyz 0 1
|  5>  C       -0.1267323849     1.4773101967    -0.0228566401
|  6>  C       -0.0207595712    -0.0135582085    -0.0893330536
|  7>  C        0.9154040460    -0.8552607270    -0.9550418001
|  8>  C        0.0942001544    -2.0864942816    -0.4788762683
|  9>  C        0.0009068627    -3.3440537117    -1.3014986820
| 10>  C        0.4020188431    -2.0827356471     1.0284769016
| 11>  N       -0.3320653906    -0.7868644413     1.1780129981
| 12>  C       -1.0696733463    -1.0660273761    -0.0943847460
| 13>  C       -2.5531593483    -1.0714372535    -0.2437467601
| 14>  H        0.7830962503     1.9150904368     0.4038656173
| 15>  H       -0.2711078765     1.9070713158    -1.0203406036
| 16>  H       -0.9666961177     1.7774420232     0.6094915549
| 17>  H        0.7546043655    -0.6423014103    -2.0165257084
| 18>  H        1.9910012093    -0.8511927185    -0.7384133774
| 19>  H        0.9817872967    -3.8272558684    -1.3870801359
| 20>  H       -0.6861220811    -4.0686523888    -0.8501938761
| 21>  H       -0.3528389021    -3.1346032320    -2.3171309214
| 22>  H       -0.1384495051    -2.8542358315     1.5858750080
| 23>  H        1.4532808543    -2.0710760500     1.3439044554
| 24>  H       -2.9842207833    -0.1872827248     0.2365139706
| 25>  H       -2.8482599664    -1.0640047933    -1.2991587145
| 26>  H       -3.0012903289    -1.9559774281     0.2235512917
| 27> *
| 28>
| 29>                          ****END OF INPUT****

CARTESIAN COORDINATES (ANGSTROEM)
---------------------------------
  C     -0.126732    1.477310   -0.022857
  C     -0.020760   -0.013558   -0.089333
  C      0.915404   -0.855261   -0.955042
  C      0.094200   -2.086494   -0.478876
  C      0.000907   -3.344054   -1.301499
  C      0.402019   -2.082736    1.028477
  N     -0.332065   -0.786864    1.178013
  C     -1.069673   -1.066027   -0.094385
  C     -2.553159   -1.071437   -0.243747
  H      0.783096    1.915090    0.403866
  H     -0.271108    1.907071   -1.020341
  H     -0.966696    1.777442    0.609492
  H      0.754604   -0.642301   -2.016526
  H      1.991001   -0.851193   -0.738413
  H      0.981787   -3.827256   -1.387080
  H     -0.686122   -4.068652   -0.850194
  H     -0.352839   -3.134603   -2.317131
  H     -0.138450   -2.854236    1.585875
  H      1.453281   -2.071076    1.343904
  H     -2.984221   -0.187283    0.236514
  H     -2.848260   -1.064005   -1.299159
  H     -3.001290   -1.955977    0.223551

 Total Charge           Charge          ....    0
 Multiplicity           Mult            ....    1
 Number of Electrons    NEL             ....   68
 Basis Dimension        Dim             ....  357

ORBITAL ENERGIES
----------------

  NO   OCC          E(Eh)            E(eV)
   0   2.0000     -15.546441      -423.0402
   1   2.0000     -11.255877      -306.2880
   2   2.0000     -11.254855      -306.2602
   3   2.0000     -11.243622      -305.9545
   4   2.0000     -11.240883      -305.8800
   5   2.0000     -11.223847      -305.4164
   6   2.0000     -11.223368      -305.4034
   7   2.0000     -11.220567      -305.3272
   8   2.0000     -11.215803      -305.1975
   9   2.0000      -1.304564       -35.4990
  10   2.0000      -1.045388       -28.4464
  11   2.0000      -1.022205       -27.8156
  12   2.0000      -0.995651       -27.0930
  13   2.0000      -0.949790       -25.8451
  14   2.0000      -0.907142       -24.6846
  15   2.0000      -0.818597       -22.2752
  16   2.0000      -0.728196       -19.8152
  17   2.0000      -0.691050       -18.8044
  18   2.0000      -0.644288       -17.5320
  19   2.0000      -0.618440       -16.8286
  20   2.0000      -0.612794       -16.6750
  21   2.0000      -0.591294       -16.0899
  22   2.0000      -0.567053       -15.4303
  23   2.0000      -0.563722       -15.3397
  24   2.0000      -0.551667       -15.0116
  25   2.0000      -0.550603       -14.9827
  26   2.0000      -0.540326       -14.7030
  27   2.0000      -0.529546       -14.4097
  28   2.0000      -0.501407       -13.6440
  29   2.0000      -0.455035       -12.3821
  30   2.0000      -0.431282       -11.7358
  31   2.0000      -0.404371       -11.0035
  32   2.0000      -0.394286       -10.7291
  33   2.0000      -0.349348        -9.5062
  34   0.0000       0.125255         3.4084
  35   0.0000       0.154704         4.2097
  36   0.0000       0.165925         4.5150
  37   0.0000       0.178623         4.8606
  38   0.0000       0.188097         5.1184

MULLIKEN ATOMIC CHARGES
-----------------------
   0 C :   -0.448522
   1 C :    0.043039
   2 C :   -0.180006
   3 C :    0.016876
   4 C :   -0.398976
   5 C :   -0.123794
   6 N :   -0.254660
   7 C :    0.105109
   8 C :   -0.419141
   9 H :    0.135003
  10 H :    0.127574
  11 H :    0.143164
  12 H :    0.114258
  13 H :    0.106063
  14 H :    0.137244
  15 H :    0.133113
  16 H :    0.131524
  17 H :    0.114046
  18 H :    0.099311
  19 H :    0.146964
  20 H :    0.134903
  21 H :    0.136907
Sum of atomic charges:   -0.0000000

LOEWDIN ATOMIC CHARGES
----------------------
   0 C :   -0.273014
   1 C :   -0.244826
   2 C :   -0.163082
   3 C :   -0.216808
   4 C :   -0.280229
   5 C :   -0.214860
   6 N :    0.148307
   7 C :   -0.182136
   8 C :   -0.275262
   9 H :    0.130750
  10 H :    0.127778
  11 H :    0.134107
  12 H :    0.143359
  13 H :    0.126270
  14 H :    0.131480
  15 H :    0.128241
  16 H :    0.128217
  17 H :    0.132786
  18 H :    0.119658
  19 H :    0.137171
  20 H :    0.130802
  21 H :    0.131290

  Mayer bond orders larger than 0.1
B(  0-C ,  1-C ) :   0.8787 B(  0-C ,  9-H ) :   0.9438 B(  0-C , 10-H ) :   0.9403
B(  0-C , 11-H ) :   0.9423 B(  1-C ,  2-C ) :   0.9324 B(  1-C ,  6-N ) :   0.8740
B(  1-C ,  7-C ) :   0.8316 B(  2-C ,  3-C ) :   0.9255 B(  2-C , 12-H ) :   0.9113
B(  2-C , 13-H ) :   0.9083 B(  3-C ,  4-C ) :   0.8638 B(  3-C ,  5-C ) :   0.9682
B(  3-C ,  7-C ) :   0.8586 B(  4-C , 14-H ) :   0.9364 B(  4-C , 15-H ) :   0.9420
B(  4-C , 16-H ) :   0.9396 B(  5-C ,  6-N ) :   0.9461 B(  5-C , 17-H ) :   0.9259
B(  5-C , 18-H ) :   0.9148 B(  6-N ,  7-C ) :   0.8319 B(  7-C ,  8-C ) :   0.7800
B(  8-C , 19-H ) :   0.9485 B(  8-C , 20-H ) :   0.9438 B(  8-C , 21-H ) :   0.9445

MP2 TOTAL ENERGY:     -366.508212645 Eh
FINAL SINGLE POINT ENERGY      -366.508212645356

DIPOLE MOMENT
-------------
                                X             Y             Z
Electronic contribution:      1.17543       0.49966       2.75614
Nuclear contribution   :     -1.16719      -0.77910      -3.44237
                        -----------------------------------------
Total Dipole Moment    :      0.00824      -0.27944      -0.68623
                        -----------------------------------------
Magnitude (a.u.)       :      0.74099
Magnitude (Debye)      :      1.88346

                             ****ORCA TERMINATED NORMALLY****
TOTAL RUN TIME: 0 days 0 hours 22 minutes 52 seconds 603 msec
