                         Program Version 3.0.3 - RELEASE   -
|  1> ! RI-MP2 RIJK def2-TZVP def2-TZVP/C def2-TZVP/JK TIGHTSCF
|  2> % maxcore 2000
|  3> % mp2 density relaxed end
|  4> *xyz 0 1
|  5>  N       -0.0277361669     1.4498633527     0.0695622435
|  6>  C        0.0252130662    -0.0099305612    -0.0208077971
|  7>  C        0.7355046732    -0.5490337259     1.2349940583
|  8>  O        0.6895777278    -1.9714945216     1.2956845966
|  9>  C       -0.4866914722    -2.5336499520     0.9175742787
| 10>  N       -1.4827890473    -1.9940191891     0.3591368468
| 11>  C       -1.4104914186    -0.5871594393     0.0036653105
| 12>  C        0.7379107112    -0.4702875036    -1.2338107234
| 13>  N        1.3073932818    -0.7658073652    -2.1958567304
| 14>  H        0.8985489139     1.8463934256    -0.0687484553
| 15>  H       -0.6081523546     1.8198664504    -0.6788208703
| 16>  H        1.7923211667    -0.2744914556     1.2538662048
| 17>  H        0.2355795639    -0.1166328730     2.1086795804
| 18>  H       -0.4830796483    -3.5948582876     1.1543529155
| 19>  H       -1.9875007805     0.0091247942     0.7205922641
| 20>  H       -1.8828840862    -0.4563064187    -0.9759929125
| 21> *
| 22>
| 23>                          ****END OF INPUT****

CARTESIAN COORDINATES (ANGSTROEM)
---------------------------------
  N     -0.027736    1.449863    0.069562
  C      0.025213   -0.009931   -0.020808
  C      0.735505   -0.549034    1.234994
  O      0.689578   -1.971495    1.295685
  C     -0.486691   -2.533650    0.917574
  N     -1.482789   -1.994019    0.359137
  C     -1.410491   -0.587159    0.003665
  C      0.737911   -0.470288   -1.233811
  N      1.307393   -0.765807   -2.195857
  H      0.898549    1.846393   -0.068748
  H     -0.608152    1.819866   -0.678821
  H      1.792321   -0.274491    1.253866
  H      0.235580   -0.116633    2.108680
  H     -0.483080   -3.594858    1.154353
  H     -1.987501    0.009125    0.720592
  H     -1.882884   -0.456306   -0.975993

 Total Charge           Charge          ....    0
 Multiplicity           Mult            ....    1
 Number of Electrons    NEL             ....   66
 Basis Dimension        Dim             ....  321

ORBITAL ENERGIES
----------------

  NO   OCC          E(Eh)            E(eV)
   0   2.0000     -20.616652      -561.0076
   1   2.0000     -15.587867      -424.1674
   2   2.0000     -15.580636      -423.9707
   3   2.0000     -15.564051      -423.5194
   4   2.0000     -11.349034      -308.8229
   5   2.0000     -11.332620      -308.3763
   6   2.0000     -11.320128      -308.0364
   7   2.0000     -11.285280      -307.0881
   8   2.0000     -11.277964      -306.8890
   9   2.0000      -1.451579       -39.4995
  10   2.0000      -1.259771       -34.2801
  11   2.0000      -1.232018       -33.5249
  12   2.0000      -1.213487       -33.0207
  13   2.0000      -1.067330       -29.0435
  14   2.0000      -0.959893       -26.1200
  15   2.0000      -0.921320       -25.0704
  16   2.0000      -0.812140       -22.0994
  17   2.0000      -0.742553       -20.2059
  18   2.0000      -0.728487       -19.8231
  19   2.0000      -0.688810       -18.7435
  20   2.0000      -0.673674       -18.3316
  21   2.0000      -0.648459       -17.6455
  22   2.0000      -0.617092       -16.7919
  23   2.0000      -0.610189       -16.6041
  24   2.0000      -0.583982       -15.8909
  25   2.0000      -0.572070       -15.5668
  26   2.0000      -0.534715       -14.5503
  27   2.0000      -0.525559       -14.3012
  28   2.0000      -0.488283       -13.2868
  29   2.0000      -0.474001       -12.8982
  30   2.0000      -0.444888       -12.1060
  31   2.0000      -0.424627       -11.5547
  32   2.0000      -0.408211       -11.1080
  33   0.0000       0.110644         3.0108
  34   0.0000       0.134899         3.6708
  35   0.0000       0.153827         4.1858
  36   0.0000       0.157553         4.2872
  37   0.0000       0.183554         4.9948

MULLIKEN ATOMIC CHARGES
-----------------------
   0 N :   -0.538032
   1 C :    0.265885
   2 C :   -0.057831
   3 O :   -0.262199
   4 C :    0.106310
   5 N :   -0.269985
   6 C :   -0.150818
   7 C :   -0.266715
   8 N :   -0.044678
   9 H :    0.243814
  10 H :    0.244353
  11 H :    0.142909
  12 H :    0.143897
  13 H :    0.146931
  14 H :    0.153934
  15 H :    0.142226
Sum of atomic charges:    0.0000000

LOEWDIN ATOMIC CHARGES
----------------------
   0 N :   -0.092086
   1 C :   -0.367458
   2 C :   -0.230627
   3 O :    0.234742
   4 C :   -0.346297
   5 N :    0.080542
   6 C :   -0.241377
   7 C :   -0.161377
   8 N :    0.072374
   9 H :    0.166167
  10 H :    0.168316
  11 H :    0.141493
  12 H :    0.142090
  13 H :    0.137818
  14 H :    0.149110
  15 H :    0.146570

  Mayer bond orders larger than 0.1
B(  0-N ,  1-C ) :   0.9120 B(  0-N ,  9-H ) :   0.8839 B(  0-N , 10-H ) :   0.8845
B(  1-C ,  2-C ) :   0.8764 B(  1-C ,  6-C ) :   0.8702 B(  1-C ,  7-C ) :   0.9358
B(  2-C ,  3-O ) :   0.8955 B(  2-C , 11-H ) :   0.9149 B(  2-C , 12-H ) :   0.9377
B(  3-O ,  4-C ) :   1.0452 B(  4-C ,  5-N ) :   1.8273 B(  4-C , 13-H ) :   0.9243
B(  5-N ,  6-C ) :   0.9551 B(  6-C , 14-H ) :   0.9209 B(  6-C , 15-H ) :   0.9149
B(  7-C ,  8-N ) :   2.8717

MP2 TOTAL ENERGY:     -433.363279019 Eh
FINAL SINGLE POINT ENERGY      -433.363279019268

DIPOLE MOMENT
-------------
                                X             Y             Z
Electronic contribution:      1.83273      -3.53177      -1.89776
Nuclear contribution   :     -1.97139       4.54434       2.76041
                        -----------------------------------------
Total Dipole Moment    :     -0.13867       1.01257       0.86265
                        -----------------------------------------
Magnitude (a.u.)       :      1.33742
Magnitude (Debye)      :      3.39945

                             ****ORCA TERMINATED NORMALLY****
TOTAL RUN TIME: 0 days 0 hours 16 minutes 44 seconds 65 msec
