                         Program Version 3.0.3 - RELEASE   -
|  1> ! RI-MP2 RIJK def2-TZVP def2-TZVP/C def2-TZVP/JK TIGHTSCF
|  2> % maxcore 2000
|  3> % mp2 density relaxed end
|  4> *xyz 0 1
|  5>  C       -0.1356428375     1.6492751258     0.0725402710
|  6>  C       -0.0014213542     0.1346376670    -0.0125815954
|  7>  C       -1.3740049019    -0.5587097813    -0.1317011955
|  8>  C       -1.2637100662    -2.0139085917    -0.0795725630
|  9>  N       -1.1452000991    -3.1616280268    -0.0215575275
| 10>  O        0.7674092674    -0.1816255317    -1.1783940904
| 11>  C        1.8234073290    -1.0215473388    -1.0576840662
| 12>  O        2.5133884012    -1.3130317965    -1.9837379204
| 13>  H        0.8528012540     2.1102153041     0.1353025605
| 14>  H       -0.6402169375     2.0409821915    -0.8154987581
| 15>  H       -0.7100433322     1.9364304591     0.9580497161
| 16>  H        0.5151402320    -0.2494962464     0.8765764146
| 17>  H       -2.0274112097    -0.2223484812     0.6802691862
| 18>  H       -1.8420369771    -0.2639777357    -1.0768862794
| 19>  H        1.9658884118    -1.3853382476    -0.0226315926
| 20> *
| 21>
| 22>                          ****END OF INPUT****

CARTESIAN COORDINATES (ANGSTROEM)
---------------------------------
  C     -0.135643    1.649275    0.072540
  C     -0.001421    0.134638   -0.012582
  C     -1.374005   -0.558710   -0.131701
  C     -1.263710   -2.013909   -0.079573
  N     -1.145200   -3.161628   -0.021558
  O      0.767409   -0.181626   -1.178394
  C      1.823407   -1.021547   -1.057684
  O      2.513388   -1.313032   -1.983738
  H      0.852801    2.110215    0.135303
  H     -0.640217    2.040982   -0.815499
  H     -0.710043    1.936430    0.958050
  H      0.515140   -0.249496    0.876576
  H     -2.027411   -0.222348    0.680269
  H     -1.842037   -0.263978   -1.076886
  H      1.965888   -1.385338   -0.022632

 Total Charge           Charge          ....    0
 Multiplicity           Mult            ....    1
 Number of Electrons    NEL             ....   60
 Basis Dimension        Dim             ....  290

ORBITAL ENERGIES
----------------

  NO   OCC          E(Eh)            E(eV)
   0   2.0000     -20.621985      -561.1527
   1   2.0000     -20.558899      -559.4361
   2   2.0000     -15.585311      -424.0979
   3   2.0000     -11.392377      -310.0023
   4   2.0000     -11.343913      -308.6836
   5   2.0000     -11.303201      -307.5757
   6   2.0000     -11.288230      -307.1684
   7   2.0000     -11.255913      -306.2890
   8   2.0000      -1.475035       -40.1377
   9   2.0000      -1.385728       -37.7076
  10   2.0000      -1.234512       -33.5928
  11   2.0000      -1.118215       -30.4282
  12   2.0000      -1.015776       -27.6407
  13   2.0000      -0.894158       -24.3313
  14   2.0000      -0.857362       -23.3300
  15   2.0000      -0.748381       -20.3645
  16   2.0000      -0.733531       -19.9604
  17   2.0000      -0.688188       -18.7266
  18   2.0000      -0.673977       -18.3399
  19   2.0000      -0.636139       -17.3102
  20   2.0000      -0.610575       -16.6146
  21   2.0000      -0.590888       -16.0789
  22   2.0000      -0.579161       -15.7598
  23   2.0000      -0.571746       -15.5580
  24   2.0000      -0.555186       -15.1074
  25   2.0000      -0.532877       -14.5003
  26   2.0000      -0.489306       -13.3147
  27   2.0000      -0.475351       -12.9349
  28   2.0000      -0.466953       -12.7064
  29   2.0000      -0.460538       -12.5319
  30   0.0000       0.108854         2.9621
  31   0.0000       0.133573         3.6347
  32   0.0000       0.142187         3.8691
  33   0.0000       0.155321         4.2265
  34   0.0000       0.161885         4.4051

MULLIKEN ATOMIC CHARGES
-----------------------
   0 C :   -0.371656
   1 C :    0.027622
   2 C :   -0.097003
   3 C :   -0.197419
   4 N :   -0.048324
   5 O :   -0.213900
   6 C :    0.195747
   7 O :   -0.257076
   8 H :    0.152211
   9 H :    0.146035
  10 H :    0.136676
  11 H :    0.113356
  12 H :    0.160358
  13 H :    0.165796
  14 H :    0.087575
Sum of atomic charges:    0.0000000

LOEWDIN ATOMIC CHARGES
----------------------
   0 C :   -0.281288
   1 C :   -0.318689
   2 C :   -0.224193
   3 C :   -0.193528
   4 N :    0.068730
   5 O :    0.265280
   6 C :   -0.441360
   7 O :    0.133828
   8 H :    0.133475
   9 H :    0.133368
  10 H :    0.130993
  11 H :    0.145427
  12 H :    0.169829
  13 H :    0.172024
  14 H :    0.106104

  Mayer bond orders larger than 0.1
B(  0-C ,  1-C ) :   0.9380 B(  0-C ,  8-H ) :   0.9332 B(  0-C ,  9-H ) :   0.9285
B(  0-C , 10-H ) :   0.9315 B(  1-C ,  2-C ) :   0.9102 B(  1-C ,  5-O ) :   0.8516
B(  1-C , 11-H ) :   0.9262 B(  2-C ,  3-C ) :   0.9281 B(  2-C , 12-H ) :   0.9018
B(  2-C , 13-H ) :   0.8939 B(  3-C ,  4-N ) :   2.8579 B(  5-O ,  6-C ) :   1.0418
B(  6-C ,  7-O ) :   2.0364 B(  6-C , 14-H ) :   0.9175

MP2 TOTAL ENERGY:     -399.188398320 Eh
FINAL SINGLE POINT ENERGY      -399.188398320487

DIPOLE MOMENT
-------------
                                X             Y             Z
Electronic contribution:      2.25099      -6.87882      -3.17590
Nuclear contribution   :     -3.07658       8.69801       4.41767
                        -----------------------------------------
Total Dipole Moment    :     -0.82559       1.81919       1.24177
                        -----------------------------------------
Magnitude (a.u.)       :      2.35225
Magnitude (Debye)      :      5.97893

                             ****ORCA TERMINATED NORMALLY****
TOTAL RUN TIME: 0 days 0 hours 9 minutes 55 seconds 11 msec
