                         Program Version 3.0.3 - RELEASE   -
|  1> ! RI-MP2 RIJK def2-TZVP def2-TZVP/C def2-TZVP/JK TIGHTSCF
|  2> % maxcore 2000
|  3> % mp2 density relaxed end
|  4> *xyz 0 1
|  5>  C       -0.2120720453     1.5517544822     0.7565071513
|  6>  C       -0.0661535015     0.0614881513     0.4867880260
|  7>  C        1.0750839333    -0.4653698360    -0.4608298420
|  8>  C        1.9847328281    -0.1197948207     0.7293796068
|  9>  O        3.0075207788     0.4413895374     0.9769327872
| 10>  C        0.8185914596    -0.8331849294     1.4327053311
| 11>  C        0.9329235400    -1.8779260239     0.2453909933
| 12>  C       -0.2870432109    -2.7407977673    -0.0874584341
| 13>  C        2.1786871790    -2.7682207391     0.2411881892
| 14>  H        0.7453103979     2.0321040597     0.9794625517
| 15>  H       -0.6476737845     2.0580638191    -0.1116400367
| 16>  H       -0.8804110970     1.7242187451     1.6070110832
| 17>  H       -1.0362746084    -0.3816622777     0.2693080491
| 18>  H        1.2121049153    -0.2597355252    -1.5218956785
| 19>  H        0.6684007434    -1.0394023005     2.4918741481
| 20>  H       -1.2371309281    -2.2064462378    -0.1129196551
| 21>  H       -0.1495974568    -3.2136022727    -1.0660794666
| 22>  H       -0.3824973885    -3.5460331134     0.6491697941
| 23>  H        2.0778674014    -3.5733268038     0.9776539755
| 24>  H        2.3107971851    -3.2392661450    -0.7393251183
| 25>  H        3.0932262390    -2.2161630923     0.4726677145
| 26> *
| 27>
| 28>                          ****END OF INPUT****

CARTESIAN COORDINATES (ANGSTROEM)
---------------------------------
  C     -0.212072    1.551754    0.756507
  C     -0.066154    0.061488    0.486788
  C      1.075084   -0.465370   -0.460830
  C      1.984733   -0.119795    0.729380
  O      3.007521    0.441390    0.976933
  C      0.818591   -0.833185    1.432705
  C      0.932924   -1.877926    0.245391
  C     -0.287043   -2.740798   -0.087458
  C      2.178687   -2.768221    0.241188
  H      0.745310    2.032104    0.979463
  H     -0.647674    2.058064   -0.111640
  H     -0.880411    1.724219    1.607011
  H     -1.036275   -0.381662    0.269308
  H      1.212105   -0.259736   -1.521896
  H      0.668401   -1.039402    2.491874
  H     -1.237131   -2.206446   -0.112920
  H     -0.149597   -3.213602   -1.066079
  H     -0.382497   -3.546033    0.649170
  H      2.077867   -3.573327    0.977654
  H      2.310797   -3.239266   -0.739325
  H      3.093226   -2.216163    0.472668

 Total Charge           Charge          ....    0
 Multiplicity           Mult            ....    1
 Number of Electrons    NEL             ....   68
 Basis Dimension        Dim             ....  351

ORBITAL ENERGIES
----------------

  NO   OCC          E(Eh)            E(eV)
   0   2.0000     -20.544039      -559.0317
   1   2.0000     -11.335682      -308.4596
   2   2.0000     -11.267562      -306.6060
   3   2.0000     -11.256901      -306.3158
   4   2.0000     -11.253997      -306.2368
   5   2.0000     -11.253944      -306.2354
   6   2.0000     -11.226503      -305.4887
   7   2.0000     -11.222131      -305.3697
   8   2.0000     -11.220848      -305.3348
   9   2.0000      -1.393366       -37.9154
  10   2.0000      -1.225259       -33.3410
  11   2.0000      -1.046317       -28.4717
  12   2.0000      -0.985557       -26.8184
  13   2.0000      -0.944261       -25.6946
  14   2.0000      -0.886274       -24.1167
  15   2.0000      -0.824012       -22.4225
  16   2.0000      -0.782955       -21.3053
  17   2.0000      -0.698792       -19.0151
  18   2.0000      -0.673143       -18.3171
  19   2.0000      -0.647319       -17.6145
  20   2.0000      -0.615681       -16.7535
  21   2.0000      -0.608985       -16.5713
  22   2.0000      -0.598408       -16.2835
  23   2.0000      -0.570627       -15.5276
  24   2.0000      -0.566142       -15.4055
  25   2.0000      -0.541726       -14.7411
  26   2.0000      -0.535428       -14.5697
  27   2.0000      -0.510196       -13.8831
  28   2.0000      -0.507932       -13.8215
  29   2.0000      -0.470464       -12.8020
  30   2.0000      -0.453843       -12.3497
  31   2.0000      -0.447187       -12.1686
  32   2.0000      -0.435694       -11.8558
  33   2.0000      -0.383586       -10.4379
  34   0.0000       0.128396         3.4938
  35   0.0000       0.147189         4.0052
  36   0.0000       0.162817         4.4305
  37   0.0000       0.181309         4.9337
  38   0.0000       0.185223         5.0402

MULLIKEN ATOMIC CHARGES
-----------------------
   0 C :   -0.430635
   1 C :   -0.134741
   2 C :   -0.001798
   3 C :   -0.008133
   4 O :   -0.252280
   5 C :   -0.001780
   6 C :    0.009394
   7 C :   -0.404213
   8 C :   -0.422610
   9 H :    0.151210
  10 H :    0.135053
  11 H :    0.135054
  12 H :    0.105590
  13 H :    0.149171
  14 H :    0.149173
  15 H :    0.129536
  16 H :    0.136610
  17 H :    0.136623
  18 H :    0.132507
  19 H :    0.132519
  20 H :    0.153750
Sum of atomic charges:    0.0000000

LOEWDIN ATOMIC CHARGES
----------------------
   0 C :   -0.288657
   1 C :   -0.198492
   2 C :   -0.092251
   3 C :   -0.297426
   4 O :    0.157246
   5 C :   -0.092253
   6 C :   -0.232856
   7 C :   -0.268527
   8 C :   -0.262746
   9 H :    0.133448
  10 H :    0.127576
  11 H :    0.127577
  12 H :    0.148343
  13 H :    0.131806
  14 H :    0.131806
  15 H :    0.122201
  16 H :    0.130112
  17 H :    0.130109
  18 H :    0.128586
  19 H :    0.128586
  20 H :    0.135809

  Mayer bond orders larger than 0.1
B(  0-C ,  1-C ) :   0.9217 B(  0-C ,  9-H ) :   0.9304 B(  0-C , 10-H ) :   0.9377
B(  0-C , 11-H ) :   0.9377 B(  1-C ,  2-C ) :   0.8759 B(  1-C ,  3-C ) :   0.1246
B(  1-C ,  5-C ) :   0.8759 B(  1-C , 12-H ) :   0.9270 B(  2-C ,  3-C ) :   0.7405
B(  2-C ,  6-C ) :   0.8590 B(  2-C , 13-H ) :   0.8641 B(  3-C ,  4-O ) :   2.0571
B(  3-C ,  5-C ) :   0.7405 B(  3-C ,  6-C ) :   0.1236 B(  5-C ,  6-C ) :   0.8590
B(  5-C , 14-H ) :   0.8641 B(  6-C ,  7-C ) :   0.9058 B(  6-C ,  8-C ) :   0.9318
B(  7-C , 15-H ) :   0.9303 B(  7-C , 16-H ) :   0.9369 B(  7-C , 17-H ) :   0.9369
B(  8-C , 18-H ) :   0.9360 B(  8-C , 19-H ) :   0.9360 B(  8-C , 20-H ) :   0.9234

MP2 TOTAL ENERGY:     -386.387827895 Eh
FINAL SINGLE POINT ENERGY      -386.387827895020

DIPOLE MOMENT
-------------
                                X             Y             Z
Electronic contribution:      5.39280       3.95114       1.49799
Nuclear contribution   :     -6.43967      -4.52885      -1.75201
                        -----------------------------------------
Total Dipole Moment    :     -1.04687      -0.57771      -0.25402
                        -----------------------------------------
Magnitude (a.u.)       :      1.22238
Magnitude (Debye)      :      3.10705

                             ****ORCA TERMINATED NORMALLY****
TOTAL RUN TIME: 0 days 0 hours 21 minutes 35 seconds 447 msec
