                         Program Version 3.0.3 - RELEASE   -
|  1> ! RI-MP2 RIJK def2-TZVP def2-TZVP/C def2-TZVP/JK TIGHTSCF
|  2> % maxcore 2000
|  3> % mp2 density relaxed end
|  4> *xyz 0 1
|  5>  C       -0.0087684792     1.4664842559     0.0105061669
|  6>  C        0.0072791167     0.0138127365     0.0027030712
|  7>  C        0.0340985562    -1.1919057923    -0.0038087793
|  8>  C        0.0371376926    -2.6181265583    -0.0114365964
|  9>  N        1.2261087959    -3.2514834563    -0.0216446653
| 10>  C        1.1846664185    -4.5811154687    -0.0284651867
| 11>  N        0.1042375430    -5.3661239041    -0.0264073049
| 12>  C       -1.0676810233    -4.7235063183    -0.0162270342
| 13>  C       -1.1633123643    -3.3405391624    -0.0083314721
| 14>  H        1.0076463332     1.8733589226     0.0030579988
| 15>  H       -0.5353577554     1.8590189447    -0.8664234080
| 16>  H       -0.5185889409     1.8496312956     0.9013923771
| 17>  H        2.1472885560    -5.0879580573    -0.0367074730
| 18>  H       -1.9622326662    -5.3424149977    -0.0143483512
| 19>  H       -2.1197544226    -2.8330547199    -0.0001048229
| 20> *
| 21>
| 22>                          ****END OF INPUT****

CARTESIAN COORDINATES (ANGSTROEM)
---------------------------------
  C     -0.008768    1.466484    0.010506
  C      0.007279    0.013813    0.002703
  C      0.034099   -1.191906   -0.003809
  C      0.037138   -2.618127   -0.011437
  N      1.226109   -3.251483   -0.021645
  C      1.184666   -4.581115   -0.028465
  N      0.104238   -5.366124   -0.026407
  C     -1.067681   -4.723506   -0.016227
  C     -1.163312   -3.340539   -0.008331
  H      1.007646    1.873359    0.003058
  H     -0.535358    1.859019   -0.866423
  H     -0.518589    1.849631    0.901392
  H      2.147289   -5.087958   -0.036707
  H     -1.962233   -5.342415   -0.014348
  H     -2.119754   -2.833055   -0.000105

 Total Charge           Charge          ....    0
 Multiplicity           Mult            ....    1
 Number of Electrons    NEL             ....   62
 Basis Dimension        Dim             ....  315

ORBITAL ENERGIES
----------------

  NO   OCC          E(Eh)            E(eV)
   0   2.0000     -15.573637      -423.7802
   1   2.0000     -15.572159      -423.7400
   2   2.0000     -11.322828      -308.1098
   3   2.0000     -11.312622      -307.8321
   4   2.0000     -11.297902      -307.4315
   5   2.0000     -11.260115      -306.4033
   6   2.0000     -11.252886      -306.2066
   7   2.0000     -11.250314      -306.1366
   8   2.0000     -11.234599      -305.7090
   9   2.0000      -1.313710       -35.7479
  10   2.0000      -1.200492       -32.6671
  11   2.0000      -1.095783       -29.8178
  12   2.0000      -1.062734       -28.9185
  13   2.0000      -0.982587       -26.7375
  14   2.0000      -0.900064       -24.4920
  15   2.0000      -0.892129       -24.2761
  16   2.0000      -0.764371       -20.7996
  17   2.0000      -0.709785       -19.3142
  18   2.0000      -0.659660       -17.9503
  19   2.0000      -0.647772       -17.6268
  20   2.0000      -0.617184       -16.7944
  21   2.0000      -0.602068       -16.3831
  22   2.0000      -0.601464       -16.3667
  23   2.0000      -0.589213       -16.0333
  24   2.0000      -0.582055       -15.8385
  25   2.0000      -0.472430       -12.8555
  26   2.0000      -0.457244       -12.4423
  27   2.0000      -0.420216       -11.4347
  28   2.0000      -0.397417       -10.8143
  29   2.0000      -0.395323       -10.7573
  30   2.0000      -0.351209        -9.5569
  31   0.0000       0.069431         1.8893
  32   0.0000       0.106720         2.9040
  33   0.0000       0.131565         3.5801
  34   0.0000       0.160177         4.3586
  35   0.0000       0.180025         4.8987

MULLIKEN ATOMIC CHARGES
-----------------------
   0 C :   -0.471007
   1 C :    0.082952
   2 C :    0.056772
   3 C :    0.010898
   4 N :   -0.246533
   5 C :    0.067287
   6 N :   -0.239307
   7 C :   -0.021033
   8 C :   -0.162417
   9 H :    0.171482
  10 H :    0.166822
  11 H :    0.166839
  12 H :    0.135256
  13 H :    0.137393
  14 H :    0.144598
Sum of atomic charges:   -0.0000000

LOEWDIN ATOMIC CHARGES
----------------------
   0 C :   -0.287489
   1 C :   -0.063684
   2 C :   -0.032303
   3 C :   -0.208141
   4 N :    0.169999
   5 C :   -0.281689
   6 N :    0.126099
   7 C :   -0.195943
   8 C :   -0.097517
   9 H :    0.145617
  10 H :    0.144558
  11 H :    0.144574
  12 H :    0.136051
  13 H :    0.142466
  14 H :    0.157403

  Mayer bond orders larger than 0.1
B(  0-C ,  1-C ) :   0.8472 B(  0-C ,  9-H ) :   0.9431 B(  0-C , 10-H ) :   0.9429
B(  0-C , 11-H ) :   0.9429 B(  1-C ,  2-C ) :   2.6279 B(  1-C ,  3-C ) :  -0.1602
B(  2-C ,  3-C ) :   1.1070 B(  3-C ,  4-N ) :   1.3523 B(  3-C ,  8-C ) :   1.3150
B(  4-N ,  5-C ) :   1.4044 B(  5-C ,  6-N ) :   1.3663 B(  5-C , 12-H ) :   0.9361
B(  6-N ,  7-C ) :   1.3791 B(  7-C ,  8-C ) :   1.3400 B(  7-C , 13-H ) :   0.9478
B(  8-C , 14-H ) :   0.9178

MP2 TOTAL ENERGY:     -379.001592179 Eh
FINAL SINGLE POINT ENERGY      -379.001592179254

DIPOLE MOMENT
-------------
                                X             Y             Z
Electronic contribution:      1.26543      -6.52832      -0.04203
Nuclear contribution   :     -2.08549       7.46519       0.05175
                        -----------------------------------------
Total Dipole Moment    :     -0.82006       0.93687       0.00972
                        -----------------------------------------
Magnitude (a.u.)       :      1.24512
Magnitude (Debye)      :      3.16486

                             ****ORCA TERMINATED NORMALLY****
TOTAL RUN TIME: 0 days 0 hours 13 minutes 43 seconds 459 msec
