                         Program Version 3.0.3 - RELEASE   -
|  1> ! RI-MP2 RIJK def2-TZVP def2-TZVP/C def2-TZVP/JK TIGHTSCF
|  2> % maxcore 2000
|  3> % mp2 density relaxed end
|  4> *xyz 0 1
|  5>  C       -0.1422692822     1.6265985300    -0.0684943877
|  6>  C        0.0038065637     0.1133393387     0.0005674213
|  7>  C        1.0738214776    -0.6846762223    -0.7785397027
|  8>  C        2.4249046176    -0.1097787694    -0.3047798244
|  9>  C        2.1569359398    -0.1944376896     1.2340172403
| 10>  C        2.4475672816     1.0503452537     2.0713828446
| 11>  C        0.6870172017    -0.6998211552     1.1477542130
| 12>  C       -0.0219053192    -1.1099217231     2.4088546710
| 13>  O        0.8638084016    -1.7815444574     0.1626448347
| 14>  H        0.8132345091     2.1544333104    -0.0827605661
| 15>  H       -0.6830975213     1.9077257030    -0.9790242100
| 16>  H       -0.7211188537     2.0061794787     0.7808519974
| 17>  H       -0.9635420194    -0.3642434299    -0.1808939678
| 18>  H        0.9602833472    -0.9681674274    -1.8256357304
| 19>  H        3.2610694903    -0.7357642941    -0.6239358902
| 20>  H        2.6071373059     0.9096422333    -0.6592001498
| 21>  H        2.7364443588    -1.0251914977     1.6504909364
| 22>  H        1.8819671942     1.9267110587     1.7465251733
| 23>  H        2.2092056617     0.8759448162     3.1264638573
| 24>  H        3.5109789407     1.3071764362     2.0187183579
| 25>  H       -0.1730684084    -0.2456093492     3.0639792971
| 26>  H       -0.9981768225    -1.5473876005     2.1826355564
| 27>  H        0.5679918052    -1.8516113731     2.9583681485
| 28> *
| 29>
| 30>                          ****END OF INPUT****

CARTESIAN COORDINATES (ANGSTROEM)
---------------------------------
  C     -0.142269    1.626599   -0.068494
  C      0.003807    0.113339    0.000567
  C      1.073821   -0.684676   -0.778540
  C      2.424905   -0.109779   -0.304780
  C      2.156936   -0.194438    1.234017
  C      2.447567    1.050345    2.071383
  C      0.687017   -0.699821    1.147754
  C     -0.021905   -1.109922    2.408855
  O      0.863808   -1.781544    0.162645
  H      0.813235    2.154433   -0.082761
  H     -0.683098    1.907726   -0.979024
  H     -0.721119    2.006179    0.780852
  H     -0.963542   -0.364243   -0.180894
  H      0.960283   -0.968167   -1.825636
  H      3.261069   -0.735764   -0.623936
  H      2.607137    0.909642   -0.659200
  H      2.736444   -1.025191    1.650491
  H      1.881967    1.926711    1.746525
  H      2.209206    0.875945    3.126464
  H      3.510979    1.307176    2.018718
  H     -0.173068   -0.245609    3.063979
  H     -0.998177   -1.547388    2.182636
  H      0.567992   -1.851611    2.958368

 Total Charge           Charge          ....    0
 Multiplicity           Mult            ....    1
 Number of Electrons    NEL             ....   70
 Basis Dimension        Dim             ....  363

ORBITAL ENERGIES
----------------

  NO   OCC          E(Eh)            E(eV)
   0   2.0000     -20.536169      -558.8176
   1   2.0000     -11.282626      -307.0159
   2   2.0000     -11.276581      -306.8514
   3   2.0000     -11.229132      -305.5602
   4   2.0000     -11.226238      -305.4815
   5   2.0000     -11.219721      -305.3041
   6   2.0000     -11.218427      -305.2689
   7   2.0000     -11.216360      -305.2127
   8   2.0000     -11.215831      -305.1983
   9   2.0000      -1.378279       -37.5049
  10   2.0000      -1.088320       -29.6147
  11   2.0000      -1.025312       -27.9001
  12   2.0000      -1.012334       -27.5470
  13   2.0000      -0.953773       -25.9535
  14   2.0000      -0.888683       -24.1823
  15   2.0000      -0.870280       -23.6815
  16   2.0000      -0.761129       -20.7114
  17   2.0000      -0.720136       -19.5959
  18   2.0000      -0.662876       -18.0378
  19   2.0000      -0.625304       -17.0154
  20   2.0000      -0.619308       -16.8522
  21   2.0000      -0.612965       -16.6796
  22   2.0000      -0.574050       -15.6207
  23   2.0000      -0.566120       -15.4049
  24   2.0000      -0.554775       -15.0962
  25   2.0000      -0.547635       -14.9019
  26   2.0000      -0.547252       -14.8915
  27   2.0000      -0.516883       -14.0651
  28   2.0000      -0.490776       -13.3547
  29   2.0000      -0.477671       -12.9981
  30   2.0000      -0.471695       -12.8355
  31   2.0000      -0.468066       -12.7367
  32   2.0000      -0.443819       -12.0769
  33   2.0000      -0.416668       -11.3381
  34   2.0000      -0.399318       -10.8660
  35   0.0000       0.130021         3.5380
  36   0.0000       0.157502         4.2858
  37   0.0000       0.164355         4.4723
  38   0.0000       0.167716         4.5638
  39   0.0000       0.189037         5.1440

MULLIKEN ATOMIC CHARGES
-----------------------
   0 C :   -0.425362
   1 C :   -0.046727
   2 C :    0.005640
   3 C :   -0.237606
   4 C :   -0.051833
   5 C :   -0.438519
   6 C :    0.157040
   7 C :   -0.425070
   8 O :   -0.311889
   9 H :    0.128146
  10 H :    0.139342
  11 H :    0.138426
  12 H :    0.100509
  13 H :    0.121697
  14 H :    0.121245
  15 H :    0.111599
  16 H :    0.092230
  17 H :    0.126256
  18 H :    0.134541
  19 H :    0.138547
  20 H :    0.138363
  21 H :    0.142112
  22 H :    0.141313
Sum of atomic charges:    0.0000000

LOEWDIN ATOMIC CHARGES
----------------------
   0 C :   -0.298770
   1 C :   -0.203758
   2 C :   -0.242501
   3 C :   -0.209155
   4 C :   -0.222398
   5 C :   -0.297005
   6 C :   -0.286863
   7 C :   -0.268526
   8 O :    0.172286
   9 H :    0.119293
  10 H :    0.127576
  11 H :    0.127461
  12 H :    0.159075
  13 H :    0.128494
  14 H :    0.135138
  15 H :    0.133520
  16 H :    0.155425
  17 H :    0.121202
  18 H :    0.124311
  19 H :    0.126505
  20 H :    0.132587
  21 H :    0.131751
  22 H :    0.134352

  Mayer bond orders larger than 0.1
B(  0-C ,  1-C ) :   0.8924 B(  0-C ,  9-H ) :   0.9360 B(  0-C , 10-H ) :   0.9343
B(  0-C , 11-H ) :   0.9346 B(  1-C ,  2-C ) :   0.9616 B(  1-C ,  6-C ) :   0.9223
B(  1-C , 12-H ) :   0.9178 B(  2-C ,  3-C ) :   0.9318 B(  2-C ,  8-O ) :   0.9532
B(  2-C , 13-H ) :   0.9114 B(  3-C ,  4-C ) :   0.9683 B(  3-C , 14-H ) :   0.9146
B(  3-C , 15-H ) :   0.9168 B(  4-C ,  5-C ) :   0.8930 B(  4-C ,  6-C ) :   0.9276
B(  4-C , 16-H ) :   0.9177 B(  5-C , 17-H ) :   0.9323 B(  5-C , 18-H ) :   0.9417
B(  5-C , 19-H ) :   0.9382 B(  6-C ,  7-C ) :   0.8440 B(  6-C ,  8-O ) :   0.9222
B(  7-C , 20-H ) :   0.9394 B(  7-C , 21-H ) :   0.9426 B(  7-C , 22-H ) :   0.9389

MP2 TOTAL ENERGY:     -387.614767940 Eh
FINAL SINGLE POINT ENERGY      -387.614767939696

DIPOLE MOMENT
-------------
                                X             Y             Z
Electronic contribution:     -0.30659      -5.86271      -3.45889
Nuclear contribution   :      0.27764       6.57802       3.56241
                        -----------------------------------------
Total Dipole Moment    :     -0.02895       0.71531       0.10351
                        -----------------------------------------
Magnitude (a.u.)       :      0.72334
Magnitude (Debye)      :      1.83858

                             ****ORCA TERMINATED NORMALLY****
TOTAL RUN TIME: 0 days 0 hours 22 minutes 11 seconds 351 msec
