                         Program Version 3.0.3 - RELEASE   -
|  1> ! RI-MP2 RIJK def2-TZVP def2-TZVP/C def2-TZVP/JK TIGHTSCF
|  2> % maxcore 2000
|  3> % mp2 density relaxed end
|  4> *xyz 0 1
|  5>  C        0.0173476959     1.4843968271    -0.2611983962
|  6>  C       -0.0791928363     0.0048077887     0.1358266114
|  7>  C       -1.4887455101    -0.5158826979     0.1276616369
|  8>  C       -2.6197211261    -0.1583227654     1.0981986416
|  9>  C       -3.3699372254    -1.3846846127     0.5163233293
| 10>  C       -1.9728297301    -1.9445354683     0.0229147203
| 11>  C       -2.1657908305    -1.0223094360    -1.1612673179
| 12>  C       -3.6815115666    -0.9751244615    -0.9544012941
| 13>  C       -4.4471166049    -2.0284514419    -1.7456653195
| 14>  H        1.0531937147     1.8363521362    -0.2308202509
| 15>  H       -0.3659888387     1.6449305678    -1.2741772115
| 16>  H       -0.5686736981     2.1131696902     0.4174558550
| 17>  H        0.5327665817    -0.6001158777    -0.5461513683
| 18>  H        0.3536225315    -0.1337390678     1.1358915451
| 19>  H       -2.3070328352    -0.3217738515     2.1347161446
| 20>  H       -3.1123179273     0.8187485437     1.0142445843
| 21>  H       -4.1096957608    -1.9247794512     1.1056671034
| 22>  H       -1.4577444047    -2.8882084307     0.1332852321
| 23>  H       -1.6232007945    -1.0320343323    -2.0999848544
| 24>  H       -4.1634990255     0.0056519169    -1.0688975836
| 25>  H       -3.9907886555    -3.0174127601    -1.6262990301
| 26>  H       -5.4882233942    -2.0925396864    -1.4099230220
| 27>  H       -4.4571688292    -1.7928944492    -2.8157232156
| 28> *
| 29>
| 30>                          ****END OF INPUT****

CARTESIAN COORDINATES (ANGSTROEM)
---------------------------------
  C      0.017348    1.484397   -0.261198
  C     -0.079193    0.004808    0.135827
  C     -1.488746   -0.515883    0.127662
  C     -2.619721   -0.158323    1.098199
  C     -3.369937   -1.384685    0.516323
  C     -1.972830   -1.944535    0.022915
  C     -2.165791   -1.022309   -1.161267
  C     -3.681512   -0.975124   -0.954401
  C     -4.447117   -2.028451   -1.745665
  H      1.053194    1.836352   -0.230820
  H     -0.365989    1.644931   -1.274177
  H     -0.568674    2.113170    0.417456
  H      0.532767   -0.600116   -0.546151
  H      0.353623   -0.133739    1.135892
  H     -2.307033   -0.321774    2.134716
  H     -3.112318    0.818749    1.014245
  H     -4.109696   -1.924779    1.105667
  H     -1.457744   -2.888208    0.133285
  H     -1.623201   -1.032034   -2.099985
  H     -4.163499    0.005652   -1.068898
  H     -3.990789   -3.017413   -1.626299
  H     -5.488223   -2.092540   -1.409923
  H     -4.457169   -1.792894   -2.815723

 Total Charge           Charge          ....    0
 Multiplicity           Mult            ....    1
 Number of Electrons    NEL             ....   68
 Basis Dimension        Dim             ....  363

ORBITAL ENERGIES
----------------

  NO   OCC          E(Eh)            E(eV)
   0   2.0000     -11.230031      -305.5847
   1   2.0000     -11.229580      -305.5724
   2   2.0000     -11.223649      -305.4110
   3   2.0000     -11.222779      -305.3873
   4   2.0000     -11.221921      -305.3640
   5   2.0000     -11.220794      -305.3333
   6   2.0000     -11.216892      -305.2272
   7   2.0000     -11.210284      -305.0473
   8   2.0000     -11.207947      -304.9838
   9   2.0000      -1.225298       -33.3421
  10   2.0000      -1.046223       -28.4692
  11   2.0000      -1.002870       -27.2895
  12   2.0000      -0.958457       -26.0809
  13   2.0000      -0.893235       -24.3062
  14   2.0000      -0.839814       -22.8525
  15   2.0000      -0.828155       -22.5353
  16   2.0000      -0.720640       -19.6096
  17   2.0000      -0.706833       -19.2339
  18   2.0000      -0.665555       -18.1107
  19   2.0000      -0.623630       -16.9698
  20   2.0000      -0.607973       -16.5438
  21   2.0000      -0.585970       -15.9451
  22   2.0000      -0.574136       -15.6230
  23   2.0000      -0.543744       -14.7960
  24   2.0000      -0.538846       -14.6627
  25   2.0000      -0.517039       -14.0693
  26   2.0000      -0.503782       -13.7086
  27   2.0000      -0.494943       -13.4681
  28   2.0000      -0.484246       -13.1770
  29   2.0000      -0.460060       -12.5189
  30   2.0000      -0.429995       -11.7008
  31   2.0000      -0.420765       -11.4496
  32   2.0000      -0.373007       -10.1500
  33   2.0000      -0.356777        -9.7084
  34   0.0000       0.138230         3.7614
  35   0.0000       0.149746         4.0748
  36   0.0000       0.163389         4.4461
  37   0.0000       0.167221         4.5503
  38   0.0000       0.189809         5.1650

MULLIKEN ATOMIC CHARGES
-----------------------
   0 C :   -0.401279
   1 C :   -0.226612
   2 C :    0.056243
   3 C :   -0.184786
   4 C :   -0.083961
   5 C :   -0.234515
   6 C :   -0.190475
   7 C :    0.014098
   8 C :   -0.442761
   9 H :    0.132069
  10 H :    0.127678
  11 H :    0.127220
  12 H :    0.111548
  13 H :    0.110154
  14 H :    0.107435
  15 H :    0.104261
  16 H :    0.126402
  17 H :    0.141530
  18 H :    0.124923
  19 H :    0.090193
  20 H :    0.132960
  21 H :    0.128619
  22 H :    0.129059
Sum of atomic charges:   -0.0000000

LOEWDIN ATOMIC CHARGES
----------------------
   0 C :   -0.310874
   1 C :   -0.256450
   2 C :   -0.190778
   3 C :   -0.175849
   4 C :   -0.138551
   5 C :   -0.109891
   6 C :   -0.132396
   7 C :   -0.217934
   8 C :   -0.290577
   9 H :    0.119383
  10 H :    0.121586
  11 H :    0.121657
  12 H :    0.143511
  13 H :    0.140453
  14 H :    0.138750
  15 H :    0.123928
  16 H :    0.130737
  17 H :    0.132056
  18 H :    0.139082
  19 H :    0.138618
  20 H :    0.128060
  21 H :    0.122428
  22 H :    0.123050

  Mayer bond orders larger than 0.1
B(  0-C ,  1-C ) :   0.9311 B(  0-C ,  9-H ) :   0.9406 B(  0-C , 10-H ) :   0.9383
B(  0-C , 11-H ) :   0.9383 B(  1-C ,  2-C ) :   0.9121 B(  1-C , 12-H ) :   0.9312
B(  1-C , 13-H ) :   0.9308 B(  2-C ,  3-C ) :   0.9448 B(  2-C ,  5-C ) :   0.8296
B(  2-C ,  6-C ) :   0.8227 B(  3-C ,  4-C ) :   0.9141 B(  3-C , 14-H ) :   0.9236
B(  3-C , 15-H ) :   0.9165 B(  4-C ,  5-C ) :   0.9203 B(  4-C ,  7-C ) :   0.8903
B(  4-C , 16-H ) :   0.9172 B(  5-C ,  6-C ) :   0.8932 B(  5-C , 17-H ) :   0.9090
B(  6-C ,  7-C ) :   0.9116 B(  6-C , 18-H ) :   0.9279 B(  7-C ,  8-C ) :   0.8886
B(  7-C , 19-H ) :   0.9098 B(  8-C , 20-H ) :   0.9396 B(  8-C , 21-H ) :   0.9397
B(  8-C , 22-H ) :   0.9404

MP2 TOTAL ENERGY:     -350.466824839 Eh
FINAL SINGLE POINT ENERGY      -350.466824838631

DIPOLE MOMENT
-------------
                                X             Y             Z
Electronic contribution:     -0.83950      -2.34399       1.40788
Nuclear contribution   :      0.91856       2.31431      -1.38989
                        -----------------------------------------
Total Dipole Moment    :      0.07906      -0.02968       0.01799
                        -----------------------------------------
Magnitude (a.u.)       :      0.08635
Magnitude (Debye)      :      0.21947

                             ****ORCA TERMINATED NORMALLY****
TOTAL RUN TIME: 0 days 0 hours 20 minutes 45 seconds 127 msec
