                         Program Version 3.0.3 - RELEASE   -
|  1> ! RI-MP2 RIJK def2-TZVP def2-TZVP/C def2-TZVP/JK TIGHTSCF
|  2> % maxcore 2000
|  3> % mp2 density relaxed end
|  4> *xyz 0 1
|  5>  C        0.3342125659     1.4995751224    -0.1943388490
|  6>  C        0.0992936144     0.0331526773     0.0892729139
|  7>  O        0.8955082315    -0.8476887658    -0.7568745135
|  8>  C        1.2598244805    -1.6965293021     0.3578900737
|  9>  C        2.6644325788    -1.2781798876     0.8404476970
| 10>  O        3.7781620584    -1.6135939751     0.5710657700
| 11>  C        2.0670703467    -0.2413597644     1.8209611993
| 12>  C        0.6411117588    -0.6689422232     1.3585316313
| 13>  O       -0.2624775993    -1.0777332166     2.3363096914
| 14>  H        1.3895597753     1.7662836165    -0.0950740575
| 15>  H        0.0224630430     1.7375632771    -1.2160763986
| 16>  H       -0.2553398304     2.1206503641     0.4892263478
| 17>  H       -0.9651395171    -0.2172288595    -0.0233797743
| 18>  H        0.9735591438    -2.7435442449     0.2374625461
| 19>  H        2.2492517198    -0.5550271636     2.8548785110
| 20>  H        2.3803519433     0.7981709553     1.7032594906
| 21>  H       -0.3819275434    -0.3606163399     2.9682488408
| 22> *
| 23>
| 24>                          ****END OF INPUT****

CARTESIAN COORDINATES (ANGSTROEM)
---------------------------------
  C      0.334213    1.499575   -0.194339
  C      0.099294    0.033153    0.089273
  O      0.895508   -0.847689   -0.756875
  C      1.259824   -1.696529    0.357890
  C      2.664433   -1.278180    0.840448
  O      3.778162   -1.613594    0.571066
  C      2.067070   -0.241360    1.820961
  C      0.641112   -0.668942    1.358532
  O     -0.262478   -1.077733    2.336310
  H      1.389560    1.766284   -0.095074
  H      0.022463    1.737563   -1.216076
  H     -0.255340    2.120650    0.489226
  H     -0.965140   -0.217229   -0.023380
  H      0.973559   -2.743544    0.237463
  H      2.249252   -0.555027    2.854879
  H      2.380352    0.798171    1.703259
  H     -0.381928   -0.360616    2.968249

 Total Charge           Charge          ....    0
 Multiplicity           Mult            ....    1
 Number of Electrons    NEL             ....   68
 Basis Dimension        Dim             ....  327

ORBITAL ENERGIES
----------------

  NO   OCC          E(Eh)            E(eV)
   0   2.0000     -20.589516      -560.2692
   1   2.0000     -20.572100      -559.7953
   2   2.0000     -20.564368      -559.5849
   3   2.0000     -11.342349      -308.6410
   4   2.0000     -11.315068      -307.8987
   5   2.0000     -11.301307      -307.5242
   6   2.0000     -11.300444      -307.5007
   7   2.0000     -11.255552      -306.2791
   8   2.0000     -11.234640      -305.7101
   9   2.0000      -1.419786       -38.6343
  10   2.0000      -1.402295       -38.1584
  11   2.0000      -1.383765       -37.6541
  12   2.0000      -1.115660       -30.3587
  13   2.0000      -1.040009       -28.3001
  14   2.0000      -0.928759       -25.2728
  15   2.0000      -0.907462       -24.6933
  16   2.0000      -0.793091       -21.5811
  17   2.0000      -0.742297       -20.1989
  18   2.0000      -0.735805       -20.0223
  19   2.0000      -0.684564       -18.6279
  20   2.0000      -0.674020       -18.3410
  21   2.0000      -0.642931       -17.4950
  22   2.0000      -0.637512       -17.3476
  23   2.0000      -0.605378       -16.4732
  24   2.0000      -0.587324       -15.9819
  25   2.0000      -0.580467       -15.7953
  26   2.0000      -0.569240       -15.4898
  27   2.0000      -0.541666       -14.7395
  28   2.0000      -0.532631       -14.4936
  29   2.0000      -0.510948       -13.9036
  30   2.0000      -0.476361       -12.9624
  31   2.0000      -0.445480       -12.1221
  32   2.0000      -0.435962       -11.8631
  33   2.0000      -0.395266       -10.7557
  34   0.0000       0.112707         3.0669
  35   0.0000       0.114968         3.1284
  36   0.0000       0.147957         4.0261
  37   0.0000       0.161749         4.4014
  38   0.0000       0.172242         4.6869

MULLIKEN ATOMIC CHARGES
-----------------------
   0 C :   -0.405152
   1 C :    0.048867
   2 O :   -0.323837
   3 C :    0.080991
   4 C :    0.088741
   5 O :   -0.235084
   6 C :   -0.293066
   7 C :    0.225216
   8 O :   -0.451087
   9 H :    0.132039
  10 H :    0.151611
  11 H :    0.130887
  12 H :    0.093837
  13 H :    0.131325
  14 H :    0.145614
  15 H :    0.150334
  16 H :    0.328763
Sum of atomic charges:   -0.0000000

LOEWDIN ATOMIC CHARGES
----------------------
   0 C :   -0.293547
   1 C :   -0.269164
   2 O :    0.169790
   3 C :   -0.177625
   4 C :   -0.287022
   5 O :    0.180850
   6 C :   -0.179374
   7 C :   -0.321136
   8 O :    0.026008
   9 H :    0.125888
  10 H :    0.134269
  11 H :    0.130420
  12 H :    0.144380
  13 H :    0.134983
  14 H :    0.155471
  15 H :    0.140459
  16 H :    0.185350

  Mayer bond orders larger than 0.1
B(  0-C ,  1-C ) :   0.9122 B(  0-C ,  9-H ) :   0.9329 B(  0-C , 10-H ) :   0.9325
B(  0-C , 11-H ) :   0.9289 B(  1-C ,  2-O ) :   0.9167 B(  1-C ,  7-C ) :   0.9339
B(  1-C , 12-H ) :   0.9100 B(  2-O ,  3-C ) :   0.9157 B(  3-C ,  4-C ) :   0.8261
B(  3-C ,  7-C ) :   0.9274 B(  3-C , 13-H ) :   0.8948 B(  4-C ,  5-O ) :   2.0317
B(  4-C ,  6-C ) :   0.8933 B(  6-C ,  7-C ) :   0.9174 B(  6-C , 14-H ) :   0.8814
B(  6-C , 15-H ) :   0.8927 B(  7-C ,  8-O ) :   1.0391 B(  8-O , 16-H ) :   0.8344

MP2 TOTAL ENERGY:     -458.199105719 Eh
FINAL SINGLE POINT ENERGY      -458.199105719036

DIPOLE MOMENT
-------------
                                X             Y             Z
Electronic contribution:      3.41666      -6.17856      -0.13150
Nuclear contribution   :     -4.33751       7.18639       1.06035
                        -----------------------------------------
Total Dipole Moment    :     -0.92085       1.00782       0.92885
                        -----------------------------------------
Magnitude (a.u.)       :      1.65119
Magnitude (Debye)      :      4.19700

                             ****ORCA TERMINATED NORMALLY****
TOTAL RUN TIME: 0 days 0 hours 17 minutes 41 seconds 520 msec
