                         Program Version 3.0.3 - RELEASE   -
|  1> ! RI-MP2 RIJK def2-TZVP def2-TZVP/C def2-TZVP/JK TIGHTSCF
|  2> % maxcore 2000
|  3> % mp2 density relaxed end
|  4> *xyz 0 1
|  5>  O        0.1502852284     1.3945555698    -0.0999013476
|  6>  C        0.0916613340     0.0114625467    -0.0837276753
|  7>  C        0.0428914742    -0.6865183866     1.3166374368
|  8>  O       -1.3511947226    -0.1559715449     1.4512396360
|  9>  C       -1.3251659025    -0.6435150903     0.0353661954
| 10>  C       -0.6393058099    -1.8924797821     0.6328490222
| 11>  O       -0.6964277668    -3.0763026189     0.6541081961
| 12>  H       -0.4732403214     1.6976347992     0.5760300603
| 13>  H        0.7809705863    -0.3834092167    -0.8329802540
| 14>  H        0.7026565574    -0.5963120726     2.1763401017
| 15>  H       -2.2223637610    -0.5043682837    -0.5631235953
| 16> *
| 17>
| 18>                          ****END OF INPUT****

CARTESIAN COORDINATES (ANGSTROEM)
---------------------------------
  O      0.150285    1.394556   -0.099901
  C      0.091661    0.011463   -0.083728
  C      0.042891   -0.686518    1.316637
  O     -1.351195   -0.155972    1.451240
  C     -1.325166   -0.643515    0.035366
  C     -0.639306   -1.892480    0.632849
  O     -0.696428   -3.076303    0.654108
  H     -0.473240    1.697635    0.576030
  H      0.780971   -0.383409   -0.832980
  H      0.702657   -0.596312    2.176340
  H     -2.222364   -0.504368   -0.563124

 Total Charge           Charge          ....    0
 Multiplicity           Mult            ....    1
 Number of Electrons    NEL             ....   52
 Basis Dimension        Dim             ....  241

ORBITAL ENERGIES
----------------

  NO   OCC          E(Eh)            E(eV)
   0   2.0000     -20.601045      -560.5829
   1   2.0000     -20.587376      -560.2110
   2   2.0000     -20.584382      -560.1295
   3   2.0000     -11.370312      -309.4019
   4   2.0000     -11.332548      -308.3743
   5   2.0000     -11.330743      -308.3252
   6   2.0000     -11.330668      -308.3232
   7   2.0000      -1.456164       -39.6242
   8   2.0000      -1.421749       -38.6878
   9   2.0000      -1.384316       -37.6691
  10   2.0000      -1.088736       -29.6260
  11   2.0000      -0.935504       -25.4564
  12   2.0000      -0.889186       -24.1960
  13   2.0000      -0.776662       -21.1341
  14   2.0000      -0.744766       -20.2661
  15   2.0000      -0.696726       -18.9589
  16   2.0000      -0.668588       -18.1932
  17   2.0000      -0.651727       -17.7344
  18   2.0000      -0.614238       -16.7143
  19   2.0000      -0.587084       -15.9754
  20   2.0000      -0.571940       -15.5633
  21   2.0000      -0.568193       -15.4613
  22   2.0000      -0.510271       -13.8852
  23   2.0000      -0.469123       -12.7655
  24   2.0000      -0.466319       -12.6892
  25   2.0000      -0.416076       -11.3220
  26   0.0000       0.114873         3.1259
  27   0.0000       0.153554         4.1784
  28   0.0000       0.167202         4.5498
  29   0.0000       0.170796         4.6476
  30   0.0000       0.174704         4.7539

MULLIKEN ATOMIC CHARGES
-----------------------
   0 O :   -0.453280
   1 C :    0.114517
   2 C :   -0.081218
   3 O :   -0.293291
   4 C :   -0.081218
   5 C :    0.224822
   6 O :   -0.224659
   7 H :    0.336527
   8 H :    0.130951
   9 H :    0.163425
  10 H :    0.163425
Sum of atomic charges:    0.0000000

LOEWDIN ATOMIC CHARGES
----------------------
   0 O :    0.014688
   1 C :   -0.301766
   2 C :   -0.178781
   3 O :    0.138574
   4 C :   -0.178781
   5 C :   -0.282475
   6 O :    0.191357
   7 H :    0.190198
   8 H :    0.143933
   9 H :    0.131526
  10 H :    0.131526

  Mayer bond orders larger than 0.1
B(  0-O ,  1-C ) :   0.9888 B(  0-O ,  7-H ) :   0.8128 B(  1-C ,  2-C ) :   0.8860
B(  1-C ,  4-C ) :   0.8860 B(  1-C ,  8-H ) :   0.9268 B(  2-C ,  3-O ) :   0.8579
B(  2-C ,  5-C ) :   0.9001 B(  2-C ,  9-H ) :   0.8839 B(  3-O ,  4-C ) :   0.8579
B(  4-C ,  5-C ) :   0.9001 B(  4-C , 10-H ) :   0.8839 B(  5-C ,  6-O ) :   2.0500

MP2 TOTAL ENERGY:     -379.724284489 Eh
FINAL SINGLE POINT ENERGY      -379.724284488790

DIPOLE MOMENT
-------------
                                X             Y             Z
Electronic contribution:     -0.73067      -2.28237       0.70356
Nuclear contribution   :      0.86698       2.74397      -0.83361
                        -----------------------------------------
Total Dipole Moment    :      0.13631       0.46160      -0.13005
                        -----------------------------------------
Magnitude (a.u.)       :      0.49856
Magnitude (Debye)      :      1.26724

                             ****ORCA TERMINATED NORMALLY****
TOTAL RUN TIME: 0 days 0 hours 6 minutes 26 seconds 4 msec
