                         Program Version 3.0.3 - RELEASE   -
|  1> ! RI-MP2 RIJK def2-TZVP def2-TZVP/C def2-TZVP/JK TIGHTSCF
|  2> % maxcore 2000
|  3> % mp2 density relaxed end
|  4> *xyz 0 1
|  5>  O       -0.0013269037    -0.0094644626     0.0810551084
|  6>  C       -0.0303014881     1.1899199711    -0.0077611362
|  7>  C       -1.2748203748     2.0825811142    -0.0872571951
|  8>  C       -0.8283867241     3.3401283304    -0.8646151374
|  9>  C        0.6890920276     3.3918824211    -0.6813525045
| 10>  O        1.0642137399     3.2503119774     0.6962001563
| 11>  C        1.1729271053     2.0914032766    -0.1453739246
| 12>  C        1.4925885895     4.2538132499    -1.4979914972
| 13>  C        2.1213666695     4.9948410078    -2.2048694849
| 14>  H       -2.0953594417     1.5399836285    -0.5590761760
| 15>  H       -1.5838408672     2.3324665586     0.9326482731
| 16>  H       -1.0537961141     3.2460442605    -1.9311951930
| 17>  H       -1.2942006952     4.2613888324    -0.5057791096
| 18>  H        2.1688047323     1.6947489332    -0.3124609860
| 19>  H        2.6904090748     5.6457221808    -2.8222230333
| 20> *
| 21>
| 22>                          ****END OF INPUT****

CARTESIAN COORDINATES (ANGSTROEM)
---------------------------------
  O     -0.001327   -0.009464    0.081055
  C     -0.030301    1.189920   -0.007761
  C     -1.274820    2.082581   -0.087257
  C     -0.828387    3.340128   -0.864615
  C      0.689092    3.391882   -0.681353
  O      1.064214    3.250312    0.696200
  C      1.172927    2.091403   -0.145374
  C      1.492589    4.253813   -1.497991
  C      2.121367    4.994841   -2.204869
  H     -2.095359    1.539984   -0.559076
  H     -1.583841    2.332467    0.932648
  H     -1.053796    3.246044   -1.931195
  H     -1.294201    4.261389   -0.505779
  H      2.168805    1.694749   -0.312461
  H      2.690409    5.645722   -2.822223

 Total Charge           Charge          ....    0
 Multiplicity           Mult            ....    1
 Number of Electrons    NEL             ....   64
 Basis Dimension        Dim             ....  315

ORBITAL ENERGIES
----------------

  NO   OCC          E(Eh)            E(eV)
   0   2.0000     -20.604299      -560.6715
   1   2.0000     -20.565208      -559.6078
   2   2.0000     -11.347308      -308.7760
   3   2.0000     -11.341772      -308.6253
   4   2.0000     -11.314287      -307.8774
   5   2.0000     -11.261059      -306.4290
   6   2.0000     -11.257226      -306.3247
   7   2.0000     -11.253045      -306.2109
   8   2.0000     -11.252253      -306.1894
   9   2.0000      -1.451906       -39.5084
  10   2.0000      -1.405242       -38.2386
  11   2.0000      -1.113536       -30.3009
  12   2.0000      -1.064065       -28.9547
  13   2.0000      -0.974155       -26.5081
  14   2.0000      -0.960539       -26.1376
  15   2.0000      -0.854191       -23.2437
  16   2.0000      -0.779961       -21.2238
  17   2.0000      -0.757445       -20.6111
  18   2.0000      -0.716664       -19.5014
  19   2.0000      -0.675243       -18.3743
  20   2.0000      -0.658333       -17.9142
  21   2.0000      -0.626786       -17.0557
  22   2.0000      -0.607843       -16.5402
  23   2.0000      -0.586016       -15.9463
  24   2.0000      -0.563107       -15.3229
  25   2.0000      -0.543302       -14.7840
  26   2.0000      -0.520901       -14.1744
  27   2.0000      -0.498935       -13.5767
  28   2.0000      -0.480814       -13.0836
  29   2.0000      -0.427788       -11.6407
  30   2.0000      -0.417958       -11.3732
  31   2.0000      -0.389353       -10.5948
  32   0.0000       0.109159         2.9704
  33   0.0000       0.133377         3.6294
  34   0.0000       0.145459         3.9581
  35   0.0000       0.150737         4.1018
  36   0.0000       0.163468         4.4482

MULLIKEN ATOMIC CHARGES
-----------------------
   0 O :   -0.253223
   1 C :    0.152914
   2 C :   -0.217689
   3 C :   -0.232662
   4 C :   -0.074001
   5 O :   -0.295652
   6 C :    0.002644
   7 C :    0.049203
   8 C :   -0.050993
   9 H :    0.145501
  10 H :    0.145011
  11 H :    0.136069
  12 H :    0.137188
  13 H :    0.153008
  14 H :    0.202682
Sum of atomic charges:   -0.0000000

LOEWDIN ATOMIC CHARGES
----------------------
   0 O :    0.169095
   1 C :   -0.301876
   2 C :   -0.209157
   3 C :   -0.187597
   4 C :   -0.282611
   5 O :    0.222032
   6 C :   -0.176974
   7 C :   -0.061216
   8 C :   -0.057246
   9 H :    0.149172
  10 H :    0.158467
  11 H :    0.151372
  12 H :    0.146935
  13 H :    0.148184
  14 H :    0.131420

  Mayer bond orders larger than 0.1
B(  0-O ,  1-C ) :   2.0350 B(  1-C ,  2-C ) :   0.9334 B(  1-C ,  6-C ) :   0.8821
B(  2-C ,  3-C ) :   0.9315 B(  2-C ,  6-C ) :  -0.1033 B(  2-C ,  9-H ) :   0.9158
B(  2-C , 10-H ) :   0.8971 B(  3-C ,  4-C ) :   0.9633 B(  3-C , 11-H ) :   0.9166
B(  3-C , 12-H ) :   0.9117 B(  4-C ,  5-O ) :   0.8910 B(  4-C ,  6-C ) :   0.8831
B(  4-C ,  7-C ) :   1.1350 B(  4-C ,  8-C ) :  -0.1921 B(  5-O ,  6-C ) :   0.8854
B(  6-C , 13-H ) :   0.9153 B(  7-C ,  8-C ) :   2.6313 B(  8-C , 14-H ) :   0.8648

MP2 TOTAL ENERGY:     -419.881340536 Eh
FINAL SINGLE POINT ENERGY      -419.881340536336

DIPOLE MOMENT
-------------
                                X             Y             Z
Electronic contribution:      3.42619      -1.63433       1.40624
Nuclear contribution   :     -3.67365       2.45503      -2.14369
                        -----------------------------------------
Total Dipole Moment    :     -0.24746       0.82070      -0.73745
                        -----------------------------------------
Magnitude (a.u.)       :      1.13076
Magnitude (Debye)      :      2.87416

                             ****ORCA TERMINATED NORMALLY****
TOTAL RUN TIME: 0 days 0 hours 15 minutes 6 seconds 569 msec
