                         Program Version 3.0.3 - RELEASE   -
|  1> ! RI-MP2 RIJK def2-TZVP def2-TZVP/C def2-TZVP/JK TIGHTSCF
|  2> % maxcore 2000
|  3> % mp2 density relaxed end
|  4> *xyz 0 1
|  5>  C       -0.8325214626     1.5603032087    -0.6545589739
|  6>  C       -0.0532656160     0.3128084907    -0.1636906996
|  7>  C       -0.9711332383    -0.6723260594     0.4136068011
|  8>  C       -1.7515660093    -1.4798557047     0.8439506398
|  9>  C        0.7839742450    -0.2976129302    -1.2586814907
| 10>  C        2.0312240871     0.0027265375    -1.7462964745
| 11>  N        2.3514992398    -0.8070241713    -2.8119623760
| 12>  C        1.3123442028    -1.5939508734    -2.9696916760
| 13>  N        0.3324881930    -1.3225424097    -2.0617271342
| 14>  H       -0.1324328427     2.3019177888    -1.0468244942
| 15>  H       -1.5294058076     1.2871321925    -1.4512813543
| 16>  H       -1.4015618828     2.0047919006     0.1664901863
| 17>  H        0.6354119568     0.6405630764     0.6253132682
| 18>  H       -2.4281751625    -2.1872292509     1.2563562674
| 19>  H        2.7156002970     0.7574894199    -1.3878085673
| 20>  H        1.2114462091    -2.3729221150    -3.7105670611
| 21>  H       -0.5330924787    -1.8193719905    -1.9237423108
| 22> *
| 23>
| 24>                          ****END OF INPUT****

CARTESIAN COORDINATES (ANGSTROEM)
---------------------------------
  C     -0.832521    1.560303   -0.654559
  C     -0.053266    0.312808   -0.163691
  C     -0.971133   -0.672326    0.413607
  C     -1.751566   -1.479856    0.843951
  C      0.783974   -0.297613   -1.258681
  C      2.031224    0.002727   -1.746296
  N      2.351499   -0.807024   -2.811962
  C      1.312344   -1.593951   -2.969692
  N      0.332488   -1.322542   -2.061727
  H     -0.132433    2.301918   -1.046824
  H     -1.529406    1.287132   -1.451281
  H     -1.401562    2.004792    0.166490
  H      0.635412    0.640563    0.625313
  H     -2.428175   -2.187229    1.256356
  H      2.715600    0.757489   -1.387809
  H      1.211446   -2.372922   -3.710567
  H     -0.533092   -1.819372   -1.923742

 Total Charge           Charge          ....    0
 Multiplicity           Mult            ....    1
 Number of Electrons    NEL             ....   64
 Basis Dimension        Dim             ....  327

ORBITAL ENERGIES
----------------

  NO   OCC          E(Eh)            E(eV)
   0   2.0000     -15.615273      -424.9132
   1   2.0000     -15.541394      -422.9028
   2   2.0000     -11.291296      -307.2518
   3   2.0000     -11.281918      -306.9966
   4   2.0000     -11.266837      -306.5862
   5   2.0000     -11.249146      -306.1048
   6   2.0000     -11.237894      -305.7986
   7   2.0000     -11.237183      -305.7793
   8   2.0000     -11.235088      -305.7223
   9   2.0000      -1.339146       -36.4400
  10   2.0000      -1.167811       -31.7778
  11   2.0000      -1.110692       -30.2235
  12   2.0000      -1.023174       -27.8420
  13   2.0000      -0.984881       -26.8000
  14   2.0000      -0.891625       -24.2623
  15   2.0000      -0.826093       -22.4791
  16   2.0000      -0.793586       -21.5946
  17   2.0000      -0.751360       -20.4456
  18   2.0000      -0.718626       -19.5548
  19   2.0000      -0.661102       -17.9895
  20   2.0000      -0.629345       -17.1254
  21   2.0000      -0.599768       -16.3205
  22   2.0000      -0.596838       -16.2408
  23   2.0000      -0.568108       -15.4590
  24   2.0000      -0.557141       -15.1606
  25   2.0000      -0.540278       -14.7017
  26   2.0000      -0.526521       -14.3274
  27   2.0000      -0.438453       -11.9309
  28   2.0000      -0.406383       -11.0582
  29   2.0000      -0.402425       -10.9505
  30   2.0000      -0.394881       -10.7453
  31   2.0000      -0.312600        -8.5063
  32   0.0000       0.124583         3.3901
  33   0.0000       0.144468         3.9312
  34   0.0000       0.157449         4.2844
  35   0.0000       0.160412         4.3650
  36   0.0000       0.174091         4.7373

MULLIKEN ATOMIC CHARGES
-----------------------
   0 C :   -0.359882
   1 C :   -0.127792
   2 C :   -0.074702
   3 C :   -0.156938
   4 C :    0.129912
   5 C :   -0.168069
   6 N :   -0.285188
   7 C :    0.047063
   8 N :   -0.282017
   9 H :    0.142507
  10 H :    0.127245
  11 H :    0.139439
  12 H :    0.133737
  13 H :    0.195343
  14 H :    0.133304
  15 H :    0.147240
  16 H :    0.258801
Sum of atomic charges:   -0.0000000

LOEWDIN ATOMIC CHARGES
----------------------
   0 C :   -0.258481
   1 C :   -0.235999
   2 C :   -0.086681
   3 C :   -0.099452
   4 C :   -0.208222
   5 C :   -0.239625
   6 N :    0.083267
   7 C :   -0.317683
   8 N :    0.204600
   9 H :    0.127848
  10 H :    0.127594
  11 H :    0.127228
  12 H :    0.182652
  13 H :    0.128783
  14 H :    0.134356
  15 H :    0.129663
  16 H :    0.200154

  Mayer bond orders larger than 0.1
B(  0-C ,  1-C ) :   0.9019 B(  0-C ,  9-H ) :   0.9341 B(  0-C , 10-H ) :   0.9265
B(  0-C , 11-H ) :   0.9312 B(  1-C ,  2-C ) :   1.1147 B(  1-C ,  4-C ) :   0.9045
B(  1-C , 12-H ) :   0.9282 B(  2-C ,  3-C ) :   2.6011 B(  3-C , 13-H ) :   0.8989
B(  4-C ,  5-C ) :   1.4870 B(  4-C ,  8-N ) :   1.0817 B(  5-C ,  6-N ) :   1.3034
B(  5-C , 14-H ) :   0.9447 B(  6-N ,  7-C ) :   1.5482 B(  7-C ,  8-N ) :   1.1632
B(  7-C , 15-H ) :   0.9262 B(  8-N , 16-H ) :   0.8583

MP2 TOTAL ENERGY:     -380.192768775 Eh
FINAL SINGLE POINT ENERGY      -380.192768774668

DIPOLE MOMENT
-------------
                                X             Y             Z
Electronic contribution:      2.69550      -4.17024      -1.33109
Nuclear contribution   :     -4.00660       4.01903       1.86370
                        -----------------------------------------
Total Dipole Moment    :     -1.31110      -0.15121       0.53261
                        -----------------------------------------
Magnitude (a.u.)       :      1.42321
Magnitude (Debye)      :      3.61751

                             ****ORCA TERMINATED NORMALLY****
TOTAL RUN TIME: 0 days 0 hours 16 minutes 34 seconds 893 msec
