                         Program Version 3.0.3 - RELEASE   -
|  1> ! RI-MP2 RIJK def2-TZVP def2-TZVP/C def2-TZVP/JK TIGHTSCF
|  2> % maxcore 2000
|  3> % mp2 density relaxed end
|  4> *xyz 0 1
|  5>  C       -0.1390940113     1.4739312298     0.0278994579
|  6>  C       -0.0108882154    -0.0393842465     0.0384223759
|  7>  C       -1.2773260889    -0.7590560019    -0.3793236165
|  8>  N        1.2833812665    -0.5616027274    -0.3455873532
|  9>  C        0.9337548259    -0.6827452947     1.0827467878
| 10>  C        1.6808055387     0.1992794527     2.0333277868
| 11>  O        1.5529128265     0.1406032574     3.2318053502
| 12>  C        0.6029837505    -2.0371882551     1.6148733039
| 13>  O        0.4125063742    -3.0002959916     0.9062276224
| 14>  H        0.8196661975     1.9666864430     0.1928561656
| 15>  H       -0.5167715630     1.7965798947    -0.9484065660
| 16>  H       -0.8487457630     1.8116943991     0.7895321428
| 17>  H       -1.4995812770    -0.5002263135    -1.4210443890
| 18>  H       -1.1853964152    -1.8424121056    -0.3070479966
| 19>  H       -2.1275868332    -0.4325168667     0.2278104199
| 20>  H        1.1815371363    -1.4947940325    -0.7497324492
| 21>  H        2.3787548157     0.9111543041     1.5461605610
| 22>  H        0.5769005750    -2.1023611455     2.7173866363
| 23> *
| 24>
| 25>                          ****END OF INPUT****

CARTESIAN COORDINATES (ANGSTROEM)
---------------------------------
  C     -0.139094    1.473931    0.027899
  C     -0.010888   -0.039384    0.038422
  C     -1.277326   -0.759056   -0.379324
  N      1.283381   -0.561603   -0.345587
  C      0.933755   -0.682745    1.082747
  C      1.680806    0.199279    2.033328
  O      1.552913    0.140603    3.231805
  C      0.602984   -2.037188    1.614873
  O      0.412506   -3.000296    0.906228
  H      0.819666    1.966686    0.192856
  H     -0.516772    1.796580   -0.948407
  H     -0.848746    1.811694    0.789532
  H     -1.499581   -0.500226   -1.421044
  H     -1.185396   -1.842412   -0.307048
  H     -2.127587   -0.432517    0.227810
  H      1.181537   -1.494794   -0.749732
  H      2.378755    0.911154    1.546161
  H      0.576901   -2.102361    2.717387

 Total Charge           Charge          ....    0
 Multiplicity           Mult            ....    1
 Number of Electrons    NEL             ....   68
 Basis Dimension        Dim             ....  333

ORBITAL ENERGIES
----------------

  NO   OCC          E(Eh)            E(eV)
   0   2.0000     -20.572598      -559.8089
   1   2.0000     -20.571288      -559.7732
   2   2.0000     -15.589661      -424.2162
   3   2.0000     -11.349614      -308.8387
   4   2.0000     -11.348508      -308.8086
   5   2.0000     -11.315658      -307.9147
   6   2.0000     -11.293507      -307.3120
   7   2.0000     -11.242210      -305.9161
   8   2.0000     -11.239123      -305.8321
   9   2.0000      -1.416271       -38.5387
  10   2.0000      -1.408902       -38.3382
  11   2.0000      -1.302922       -35.4543
  12   2.0000      -1.047644       -28.5078
  13   2.0000      -1.002501       -27.2794
  14   2.0000      -0.968548       -26.3555
  15   2.0000      -0.874231       -23.7890
  16   2.0000      -0.820504       -22.3271
  17   2.0000      -0.754485       -20.5306
  18   2.0000      -0.713284       -19.4094
  19   2.0000      -0.697549       -18.9813
  20   2.0000      -0.653333       -17.7781
  21   2.0000      -0.648841       -17.6559
  22   2.0000      -0.629696       -17.1349
  23   2.0000      -0.611058       -16.6277
  24   2.0000      -0.590650       -16.0724
  25   2.0000      -0.565065       -15.3762
  26   2.0000      -0.556498       -15.1431
  27   2.0000      -0.546888       -14.8816
  28   2.0000      -0.527112       -14.3435
  29   2.0000      -0.510627       -13.8949
  30   2.0000      -0.481689       -13.1074
  31   2.0000      -0.465606       -12.6698
  32   2.0000      -0.425427       -11.5765
  33   2.0000      -0.399904       -10.8819
  34   0.0000       0.094401         2.5688
  35   0.0000       0.121293         3.3005
  36   0.0000       0.129088         3.5127
  37   0.0000       0.164531         4.4771
  38   0.0000       0.180488         4.9113

MULLIKEN ATOMIC CHARGES
-----------------------
   0 C :   -0.375048
   1 C :    0.111776
   2 C :   -0.393549
   3 N :   -0.366479
   4 C :    0.089219
   5 C :    0.037985
   6 O :   -0.269464
   7 C :    0.100447
   8 O :   -0.300925
   9 H :    0.137997
  10 H :    0.140257
  11 H :    0.144446
  12 H :    0.144322
  13 H :    0.169100
  14 H :    0.140276
  15 H :    0.239959
  16 H :    0.117974
  17 H :    0.131706
Sum of atomic charges:    0.0000000

LOEWDIN ATOMIC CHARGES
----------------------
   0 C :   -0.257195
   1 C :   -0.288268
   2 C :   -0.265776
   3 N :    0.081988
   4 C :   -0.265195
   5 C :   -0.257452
   6 O :    0.139037
   7 C :   -0.254401
   8 O :    0.123909
   9 H :    0.131290
  10 H :    0.134547
  11 H :    0.133562
  12 H :    0.135722
  13 H :    0.135964
  14 H :    0.134837
  15 H :    0.182308
  16 H :    0.123613
  17 H :    0.131511

  Mayer bond orders larger than 0.1
B(  0-C ,  1-C ) :   0.9233 B(  0-C ,  9-H ) :   0.9276 B(  0-C , 10-H ) :   0.9268
B(  0-C , 11-H ) :   0.9357 B(  1-C ,  2-C ) :   0.9246 B(  1-C ,  3-N ) :   0.8953
B(  1-C ,  4-C ) :   0.7880 B(  2-C , 12-H ) :   0.9296 B(  2-C , 13-H ) :   0.9177
B(  2-C , 14-H ) :   0.9259 B(  3-N ,  4-C ) :   0.9632 B(  3-N , 15-H ) :   0.8540
B(  4-C ,  5-C ) :   0.8344 B(  4-C ,  7-C ) :   0.9059 B(  5-C ,  6-O ) :   1.9650
B(  5-C , 16-H ) :   0.9518 B(  7-C ,  8-O ) :   1.8736 B(  7-C , 17-H ) :   0.9293

MP2 TOTAL ENERGY:     -438.362021514 Eh
FINAL SINGLE POINT ENERGY      -438.362021514436

DIPOLE MOMENT
-------------
                                X             Y             Z
Electronic contribution:      5.18383      -4.53163       5.16052
Nuclear contribution   :     -5.75712       5.10726      -5.78815
                        -----------------------------------------
Total Dipole Moment    :     -0.57329       0.57564      -0.62762
                        -----------------------------------------
Magnitude (a.u.)       :      1.02661
Magnitude (Debye)      :      2.60944

                             ****ORCA TERMINATED NORMALLY****
TOTAL RUN TIME: 0 days 0 hours 19 minutes 45 seconds 513 msec
