                         Program Version 3.0.3 - RELEASE   -
|  1> ! RI-MP2 RIJK def2-TZVP def2-TZVP/C def2-TZVP/JK TIGHTSCF
|  2> % maxcore 2000
|  3> % mp2 density relaxed end
|  4> *xyz 0 1
|  5>  C        0.2216658487     1.4070192460     0.0963803196
|  6>  C        0.0292924496    -0.0978389887     0.0444712408
|  7>  O        0.7736325606    -0.6637019862     1.1295352435
|  8>  C        0.7400344007    -2.0132115514     1.2672120268
|  9>  C        1.6259155076    -2.4101434246     2.4288467444
| 10>  C        3.1194786367    -2.3164941716     2.0736652432
| 11>  N        0.0520001924    -2.7170087879     0.4705979317
| 12>  C       -0.0029932611    -4.1577944763     0.5580576691
| 13>  H        1.2784033628     1.6705532040    -0.0069769105
| 14>  H       -0.3332162941     1.8828219585    -0.7178880362
| 15>  H       -0.1410417260     1.8145972741     1.0445295450
| 16>  H       -1.0246433992    -0.3792884613     0.1433335719
| 17>  H        0.3846334375    -0.5246696294    -0.8998831487
| 18>  H        1.4054766784    -1.7296992328     3.2575434088
| 19>  H        1.3798688356    -3.4194477671     2.7643483350
| 20>  H        3.3770303510    -3.0089259669     1.2661283030
| 21>  H        3.3724696287    -1.3049567566     1.7460015357
| 22>  H        3.7392411591    -2.5625781222     2.9408379474
| 23>  H        0.3296721225    -4.5902796518    -0.3934056117
| 24>  H        0.5971677800    -4.6134890466     1.3580147710
| 25>  H       -1.0439350914    -4.4746135213     0.6963186800
| 26> *
| 27>
| 28>                          ****END OF INPUT****

CARTESIAN COORDINATES (ANGSTROEM)
---------------------------------
  C      0.221666    1.407019    0.096380
  C      0.029292   -0.097839    0.044471
  O      0.773633   -0.663702    1.129535
  C      0.740034   -2.013212    1.267212
  C      1.625916   -2.410143    2.428847
  C      3.119479   -2.316494    2.073665
  N      0.052000   -2.717009    0.470598
  C     -0.002993   -4.157794    0.558058
  H      1.278403    1.670553   -0.006977
  H     -0.333216    1.882822   -0.717888
  H     -0.141042    1.814597    1.044530
  H     -1.024643   -0.379288    0.143334
  H      0.384633   -0.524670   -0.899883
  H      1.405477   -1.729699    3.257543
  H      1.379869   -3.419448    2.764348
  H      3.377030   -3.008926    1.266128
  H      3.372470   -1.304957    1.746002
  H      3.739241   -2.562578    2.940838
  H      0.329672   -4.590280   -0.393406
  H      0.597168   -4.613489    1.358015
  H     -1.043935   -4.474614    0.696319

 Total Charge           Charge          ....    0
 Multiplicity           Mult            ....    1
 Number of Electrons    NEL             ....   64
 Basis Dimension        Dim             ....  326

ORBITAL ENERGIES
----------------

  NO   OCC          E(Eh)            E(eV)
   0   2.0000     -20.573426      -559.8314
   1   2.0000     -15.528966      -422.5646
   2   2.0000     -11.323995      -308.1416
   3   2.0000     -11.270167      -306.6768
   4   2.0000     -11.241352      -305.8927
   5   2.0000     -11.235147      -305.7239
   6   2.0000     -11.223115      -305.3965
   7   2.0000     -11.213345      -305.1306
   8   2.0000      -1.409814       -38.3630
   9   2.0000      -1.203639       -32.7527
  10   2.0000      -1.055587       -28.7240
  11   2.0000      -1.013356       -27.5748
  12   2.0000      -0.936777       -25.4910
  13   2.0000      -0.884852       -24.0781
  14   2.0000      -0.837240       -22.7825
  15   2.0000      -0.742867       -20.2144
  16   2.0000      -0.671652       -18.2766
  17   2.0000      -0.664609       -18.0849
  18   2.0000      -0.649317       -17.6688
  19   2.0000      -0.603757       -16.4291
  20   2.0000      -0.589556       -16.0426
  21   2.0000      -0.573478       -15.6051
  22   2.0000      -0.552639       -15.0381
  23   2.0000      -0.545397       -14.8410
  24   2.0000      -0.537233       -14.6189
  25   2.0000      -0.520882       -14.1739
  26   2.0000      -0.514712       -14.0060
  27   2.0000      -0.496193       -13.5021
  28   2.0000      -0.490590       -13.3496
  29   2.0000      -0.463613       -12.6156
  30   2.0000      -0.392570       -10.6824
  31   2.0000      -0.373052       -10.1513
  32   0.0000       0.133627         3.6362
  33   0.0000       0.152237         4.1426
  34   0.0000       0.165105         4.4927
  35   0.0000       0.179446         4.8830
  36   0.0000       0.189146         5.1469

MULLIKEN ATOMIC CHARGES
-----------------------
   0 C :   -0.357612
   1 C :   -0.048977
   2 O :   -0.263245
   3 C :    0.220633
   4 C :   -0.202200
   5 C :   -0.399843
   6 N :   -0.286958
   7 C :   -0.279778
   8 H :    0.126801
   9 H :    0.125642
  10 H :    0.127720
  11 H :    0.112023
  12 H :    0.107508
  13 H :    0.127143
  14 H :    0.120528
  15 H :    0.127875
  16 H :    0.142875
  17 H :    0.133589
  18 H :    0.137732
  19 H :    0.091154
  20 H :    0.137391
Sum of atomic charges:   -0.0000000

LOEWDIN ATOMIC CHARGES
----------------------
   0 C :   -0.319720
   1 C :   -0.320502
   2 O :    0.243946
   3 C :   -0.382088
   4 C :   -0.257684
   5 C :   -0.307427
   6 N :    0.069483
   7 C :   -0.339529
   8 H :    0.122621
   9 H :    0.125530
  10 H :    0.123058
  11 H :    0.124970
  12 H :    0.124266
  13 H :    0.148973
  14 H :    0.137840
  15 H :    0.122342
  16 H :    0.125800
  17 H :    0.121350
  18 H :    0.117812
  19 H :    0.101327
  20 H :    0.117631

  Mayer bond orders larger than 0.1
B(  0-C ,  1-C ) :   0.9332 B(  0-C ,  8-H ) :   0.9345 B(  0-C ,  9-H ) :   0.9375
B(  0-C , 10-H ) :   0.9343 B(  1-C ,  2-O ) :   0.8509 B(  1-C , 11-H ) :   0.9325
B(  1-C , 12-H ) :   0.9294 B(  2-O ,  3-C ) :   1.0750 B(  3-C ,  4-C ) :   0.9164
B(  3-C ,  6-N ) :   1.7819 B(  4-C ,  5-C ) :   0.9052 B(  4-C , 13-H ) :   0.9244
B(  4-C , 14-H ) :   0.9425 B(  5-C , 15-H ) :   0.9359 B(  5-C , 16-H ) :   0.9381
B(  5-C , 17-H ) :   0.9371 B(  6-N ,  7-C ) :   0.8970 B(  7-C , 18-H ) :   0.9351
B(  7-C , 19-H ) :   0.9249 B(  7-C , 20-H ) :   0.9364

MP2 TOTAL ENERGY:     -365.647479511 Eh
FINAL SINGLE POINT ENERGY      -365.647479511263

DIPOLE MOMENT
-------------
                                X             Y             Z
Electronic contribution:     -2.19663       0.15298       0.05570
Nuclear contribution   :      2.39062      -0.30208       0.13402
                        -----------------------------------------
Total Dipole Moment    :      0.19399      -0.14910       0.18972
                        -----------------------------------------
Magnitude (a.u.)       :      0.30961
Magnitude (Debye)      :      0.78696

                             ****ORCA TERMINATED NORMALLY****
TOTAL RUN TIME: 0 days 0 hours 11 minutes 56 seconds 664 msec
