                         Program Version 3.0.3 - RELEASE   -
|  1> ! RI-MP2 RIJK def2-TZVP def2-TZVP/C def2-TZVP/JK TIGHTSCF
|  2> % maxcore 2000
|  3> % mp2 density relaxed end
|  4> *xyz 0 1
|  5>  O       -0.3185829782     1.4467865941     0.0459078650
|  6>  C       -0.0862452264     0.0501995078     0.0248508058
|  7>  C        0.3134306818    -0.6696150760     1.3365930642
|  8>  C       -0.7575533656    -1.7502512783     1.0166882754
|  9>  C       -1.4198713409    -0.7664418211     0.0082333132
| 10>  O       -2.4428723462    -0.0111954715     0.6309631492
| 11>  C       -1.8938632782    -1.3339337545    -1.3098278169
| 12>  C       -3.3005168735    -1.7734691768    -1.4694745766
| 13>  N       -2.8122363313    -0.5639930675    -2.1589712457
| 14>  H        0.3723169879     1.8702333505     0.5642482760
| 15>  H        0.5646774681    -0.2236902093    -0.8151179584
| 16>  H        1.3528261359    -0.9883839566     1.4381130661
| 17>  H        0.0311752760    -0.0728187809     2.2082851063
| 18>  H       -0.3349301536    -2.6276475207     0.5198512220
| 19>  H       -1.4042584605    -2.0718371586     1.8336391654
| 20>  H       -2.1307789146     0.9067381503     0.6254325583
| 21>  H       -1.1188488352    -1.8623187513    -1.8632855346
| 22>  H       -3.5368063050    -2.6106873560    -2.1199975461
| 23>  H       -3.9628591636    -1.6404477850    -0.6196078329
| 24>  H       -3.1225114670     0.2422742613    -1.6184014556
| 25> *
| 26>
| 27>                          ****END OF INPUT****

CARTESIAN COORDINATES (ANGSTROEM)
---------------------------------
  O     -0.318583    1.446787    0.045908
  C     -0.086245    0.050200    0.024851
  C      0.313431   -0.669615    1.336593
  C     -0.757553   -1.750251    1.016688
  C     -1.419871   -0.766442    0.008233
  O     -2.442872   -0.011195    0.630963
  C     -1.893863   -1.333934   -1.309828
  C     -3.300517   -1.773469   -1.469475
  N     -2.812236   -0.563993   -2.158971
  H      0.372317    1.870233    0.564248
  H      0.564677   -0.223690   -0.815118
  H      1.352826   -0.988384    1.438113
  H      0.031175   -0.072819    2.208285
  H     -0.334930   -2.627648    0.519851
  H     -1.404258   -2.071837    1.833639
  H     -2.130779    0.906738    0.625433
  H     -1.118849   -1.862319   -1.863286
  H     -3.536806   -2.610687   -2.119998
  H     -3.962859   -1.640448   -0.619608
  H     -3.122511    0.242274   -1.618401

 Total Charge           Charge          ....    0
 Multiplicity           Mult            ....    1
 Number of Electrons    NEL             ....   70
 Basis Dimension        Dim             ....  345

ORBITAL ENERGIES
----------------

  NO   OCC          E(Eh)            E(eV)
   0   2.0000     -20.580531      -560.0247
   1   2.0000     -20.555622      -559.3469
   2   2.0000     -15.545342      -423.0103
   3   2.0000     -11.292757      -307.2915
   4   2.0000     -11.290682      -307.2351
   5   2.0000     -11.250436      -306.1399
   6   2.0000     -11.242572      -305.9259
   7   2.0000     -11.235928      -305.7451
   8   2.0000     -11.229911      -305.5814
   9   2.0000      -1.397168       -38.0189
  10   2.0000      -1.359723       -36.9999
  11   2.0000      -1.247737       -33.9527
  12   2.0000      -1.121954       -30.5299
  13   2.0000      -0.941122       -25.6092
  14   2.0000      -0.905693       -24.6452
  15   2.0000      -0.869780       -23.6679
  16   2.0000      -0.818154       -22.2631
  17   2.0000      -0.768805       -20.9202
  18   2.0000      -0.717508       -19.5244
  19   2.0000      -0.706753       -19.2317
  20   2.0000      -0.687902       -18.7188
  21   2.0000      -0.629703       -17.1351
  22   2.0000      -0.626847       -17.0574
  23   2.0000      -0.592830       -16.1317
  24   2.0000      -0.587304       -15.9814
  25   2.0000      -0.541007       -14.7216
  26   2.0000      -0.536913       -14.6101
  27   2.0000      -0.522873       -14.2281
  28   2.0000      -0.502868       -13.6837
  29   2.0000      -0.493226       -13.4214
  30   2.0000      -0.473125       -12.8744
  31   2.0000      -0.456797       -12.4301
  32   2.0000      -0.431976       -11.7547
  33   2.0000      -0.418848       -11.3974
  34   2.0000      -0.375678       -10.2227
  35   0.0000       0.125647         3.4190
  36   0.0000       0.142941         3.8896
  37   0.0000       0.162873         4.4320
  38   0.0000       0.172870         4.7040
  39   0.0000       0.181462         4.9378

MULLIKEN ATOMIC CHARGES
-----------------------
   0 O :   -0.501563
   1 C :   -0.026240
   2 C :   -0.207121
   3 C :   -0.253525
   4 C :    0.209528
   5 O :   -0.501999
   6 C :   -0.019115
   7 C :   -0.184505
   8 N :   -0.374278
   9 H :    0.333480
  10 H :    0.096065
  11 H :    0.125330
  12 H :    0.114273
  13 H :    0.125233
  14 H :    0.119562
  15 H :    0.340917
  16 H :    0.122640
  17 H :    0.119582
  18 H :    0.141197
  19 H :    0.220541
Sum of atomic charges:   -0.0000000

LOEWDIN ATOMIC CHARGES
----------------------
   0 O :   -0.024914
   1 C :   -0.289842
   2 C :   -0.233814
   3 C :   -0.191219
   4 C :   -0.340040
   5 O :    0.019662
   6 C :   -0.260060
   7 C :   -0.262097
   8 N :   -0.014658
   9 H :    0.181582
  10 H :    0.138519
  11 H :    0.124904
  12 H :    0.138530
  13 H :    0.138697
  14 H :    0.134352
  15 H :    0.180955
  16 H :    0.144548
  17 H :    0.121872
  18 H :    0.126920
  19 H :    0.166101

  Mayer bond orders larger than 0.1
B(  0-O ,  1-C ) :   0.9809 B(  0-O ,  9-H ) :   0.8357 B(  1-C ,  2-C ) :   0.9613
B(  1-C ,  4-C ) :   0.8642 B(  1-C , 10-H ) :   0.9494 B(  2-C ,  3-C ) :   0.9667
B(  2-C , 11-H ) :   0.9300 B(  2-C , 12-H ) :   0.8958 B(  3-C ,  4-C ) :   0.9024
B(  3-C , 13-H ) :   0.9176 B(  3-C , 14-H ) :   0.9116 B(  4-C ,  5-O ) :   1.0716
B(  4-C ,  6-C ) :   0.8964 B(  5-O , 15-H ) :   0.8061 B(  6-C ,  7-C ) :   0.9489
B(  6-C ,  8-N ) :   0.9518 B(  6-C , 16-H ) :   0.8979 B(  7-C ,  8-N ) :   0.9146
B(  7-C , 17-H ) :   0.9254 B(  7-C , 18-H ) :   0.9113 B(  8-N , 19-H ) :   0.8753

MP2 TOTAL ENERGY:     -439.530727276 Eh
FINAL SINGLE POINT ENERGY      -439.530727276279

DIPOLE MOMENT
-------------
                                X             Y             Z
Electronic contribution:     -1.06685       2.97794      -1.16717
Nuclear contribution   :      2.12943      -2.96135       2.06408
                        -----------------------------------------
Total Dipole Moment    :      1.06258       0.01659       0.89691
                        -----------------------------------------
Magnitude (a.u.)       :      1.39061
Magnitude (Debye)      :      3.53466

                             ****ORCA TERMINATED NORMALLY****
TOTAL RUN TIME: 0 days 0 hours 18 minutes 5 seconds 922 msec
