                         Program Version 3.0.3 - RELEASE   -
|  1> ! RI-MP2 RIJK def2-TZVP def2-TZVP/C def2-TZVP/JK TIGHTSCF
|  2> % maxcore 2000
|  3> % mp2 density relaxed end
|  4> *xyz 0 1
|  5>  C       -0.0015146933     1.5448791545     0.0207227896
|  6>  C        0.0492892793     0.0155636505    -0.0165436529
|  7>  N        0.7027789253    -0.5048472231    -1.2091583693
|  8>  C        0.0749166003    -0.8541977152    -2.3708814475
|  9>  C        1.0261038840    -1.2319735915    -3.2969050156
| 10>  C        2.2869064368    -1.1028190778    -2.6749118292
| 11>  C        2.0720248228    -0.6479551906    -1.3803463416
| 12>  C        2.9901312477    -0.3605974137    -0.3521036139
| 13>  C        3.7721155623    -0.1106828658     0.5321369591
| 14>  H        1.0085429550     1.9626551535     0.0257865570
| 15>  H       -0.5352147735     1.9392715223    -0.8489347328
| 16>  H       -0.5179524270     1.8816769842     0.9250851398
| 17>  H        0.5889358536    -0.3653282814     0.8547687645
| 18>  H       -0.9603066016    -0.4048464417     0.0127287735
| 19>  H       -1.0008273138    -0.8109655822    -2.4426199069
| 20>  H        0.8299670283    -1.5715569584    -4.3019850801
| 21>  H        3.2542816060    -1.3206104487    -3.0994409164
| 22>  H        4.4703370579     0.1016786352     1.3029792828
| 23> *
| 24>
| 25>                          ****END OF INPUT****

CARTESIAN COORDINATES (ANGSTROEM)
---------------------------------
  C     -0.001515    1.544879    0.020723
  C      0.049289    0.015564   -0.016544
  N      0.702779   -0.504847   -1.209158
  C      0.074917   -0.854198   -2.370881
  C      1.026104   -1.231974   -3.296905
  C      2.286906   -1.102819   -2.674912
  C      2.072025   -0.647955   -1.380346
  C      2.990131   -0.360597   -0.352104
  C      3.772116   -0.110683    0.532137
  H      1.008543    1.962655    0.025787
  H     -0.535215    1.939272   -0.848935
  H     -0.517952    1.881677    0.925085
  H      0.588936   -0.365328    0.854769
  H     -0.960307   -0.404846    0.012729
  H     -1.000827   -0.810966   -2.442620
  H      0.829967   -1.571557   -4.301985
  H      3.254282   -1.320610   -3.099441
  H      4.470337    0.101679    1.302979

 Total Charge           Charge          ....    0
 Multiplicity           Mult            ....    1
 Number of Electrons    NEL             ....   64
 Basis Dimension        Dim             ....  333

ORBITAL ENERGIES
----------------

  NO   OCC          E(Eh)            E(eV)
   0   2.0000     -15.611985      -424.8237
   1   2.0000     -11.276023      -306.8362
   2   2.0000     -11.270004      -306.6724
   3   2.0000     -11.258831      -306.3684
   4   2.0000     -11.240511      -305.8699
   5   2.0000     -11.228600      -305.5457
   6   2.0000     -11.224425      -305.4321
   7   2.0000     -11.220969      -305.3381
   8   2.0000     -11.212831      -305.1166
   9   2.0000      -1.309048       -35.6210
  10   2.0000      -1.094045       -29.7705
  11   2.0000      -1.055438       -28.7199
  12   2.0000      -0.996940       -27.1281
  13   2.0000      -0.973367       -26.4867
  14   2.0000      -0.871316       -23.7097
  15   2.0000      -0.809235       -22.0204
  16   2.0000      -0.783655       -21.3243
  17   2.0000      -0.722505       -19.6603
  18   2.0000      -0.701654       -19.0930
  19   2.0000      -0.639305       -17.3964
  20   2.0000      -0.625470       -17.0199
  21   2.0000      -0.600100       -16.3296
  22   2.0000      -0.584995       -15.9185
  23   2.0000      -0.557359       -15.1665
  24   2.0000      -0.545292       -14.8382
  25   2.0000      -0.533338       -14.5129
  26   2.0000      -0.517818       -14.0905
  27   2.0000      -0.503807       -13.7093
  28   2.0000      -0.427462       -11.6318
  29   2.0000      -0.399186       -10.8624
  30   2.0000      -0.342945        -9.3320
  31   2.0000      -0.285430        -7.7669
  32   0.0000       0.118181         3.2159
  33   0.0000       0.138123         3.7585
  34   0.0000       0.157455         4.2846
  35   0.0000       0.169533         4.6132
  36   0.0000       0.173817         4.7298

MULLIKEN ATOMIC CHARGES
-----------------------
   0 C :   -0.378390
   1 C :   -0.193194
   2 N :   -0.015047
   3 C :   -0.141799
   4 C :   -0.170095
   5 C :   -0.254028
   6 C :   -0.056541
   7 C :    0.075857
   8 C :   -0.160240
   9 H :    0.150493
  10 H :    0.132765
  11 H :    0.131226
  12 H :    0.148026
  13 H :    0.135422
  14 H :    0.142209
  15 H :    0.131025
  16 H :    0.132627
  17 H :    0.189686
Sum of atomic charges:   -0.0000000

LOEWDIN ATOMIC CHARGES
----------------------
   0 C :   -0.307141
   1 C :   -0.260270
   2 N :    0.286312
   3 C :   -0.213179
   4 C :   -0.190148
   5 C :   -0.144463
   6 C :   -0.206343
   7 C :   -0.086248
   8 C :   -0.088856
   9 H :    0.129059
  10 H :    0.124118
  11 H :    0.125539
  12 H :    0.145625
  13 H :    0.139516
  14 H :    0.136024
  15 H :    0.139989
  16 H :    0.143446
  17 H :    0.127020

  Mayer bond orders larger than 0.1
B(  0-C ,  1-C ) :   0.9226 B(  0-C ,  9-H ) :   0.9328 B(  0-C , 10-H ) :   0.9324
B(  0-C , 11-H ) :   0.9320 B(  1-C ,  2-N ) :   0.8515 B(  1-C , 12-H ) :   0.9262
B(  1-C , 13-H ) :   0.9339 B(  2-N ,  3-C ) :   1.1664 B(  2-N ,  6-C ) :   1.1698
B(  3-C ,  4-C ) :   1.4236 B(  3-C , 14-H ) :   0.9174 B(  4-C ,  5-C ) :   1.3267
B(  4-C , 15-H ) :   0.9328 B(  5-C ,  6-C ) :   1.3695 B(  5-C , 16-H ) :   0.9425
B(  6-C ,  7-C ) :   1.1395 B(  6-C ,  8-C ) :  -0.1288 B(  7-C ,  8-C ) :   2.6019
B(  8-C , 17-H ) :   0.8803

MP2 TOTAL ENERGY:     -364.148114732 Eh
FINAL SINGLE POINT ENERGY      -364.148114731878

DIPOLE MOMENT
-------------
                                X             Y             Z
Electronic contribution:      4.35806      -3.76665      -2.23678
Nuclear contribution   :     -4.95677       4.06236       2.75501
                        -----------------------------------------
Total Dipole Moment    :     -0.59871       0.29571       0.51823
                        -----------------------------------------
Magnitude (a.u.)       :      0.84526
Magnitude (Debye)      :      2.14848

                             ****ORCA TERMINATED NORMALLY****
TOTAL RUN TIME: 0 days 0 hours 18 minutes 54 seconds 20 msec
