                         Program Version 3.0.3 - RELEASE   -
|  1> ! RI-MP2 RIJK def2-TZVP def2-TZVP/C def2-TZVP/JK TIGHTSCF
|  2> % maxcore 2000
|  3> % mp2 density relaxed end
|  4> *xyz 0 1
|  5>  C        0.0949246690     1.3620297521    -0.2639807030
|  6>  C       -0.0201120570    -0.1212023769    -0.0262863506
|  7>  O        0.9329959567    -0.8336837186     0.2079679697
|  8>  C       -1.4187259973    -0.7291393716    -0.0783020339
|  9>  N       -2.4143231584     0.0658364600    -0.2393442504
| 10>  N       -1.3924524144    -2.0822063878     0.0492996970
| 11>  C       -2.5649004943    -2.9086060685     0.2021251286
| 12>  C       -2.1968714755    -4.3703118136    -0.0056371258
| 13>  O       -1.1966789932    -4.6924798612     0.9496557522
| 14>  H        1.1397869154     1.6624701082    -0.1807863127
| 15>  H       -0.3006122309     1.6129409608    -1.2525461553
| 16>  H       -0.5250823045     1.9053199116     0.4539329898
| 17>  H       -3.3058250843    -0.4319821101    -0.2322465557
| 18>  H       -0.5057392378    -2.4747840144     0.3374873406
| 19>  H       -3.0226054203    -2.7858626562     1.1962383942
| 20>  H       -3.3190467455    -2.6271164127    -0.5433955425
| 21>  H       -3.0957711859    -4.9915525455     0.1228921766
| 22>  H       -1.8265750994    -4.5091466110    -1.0319190243
| 23>  H       -0.8286732426    -5.5535420344     0.7324587056
| 24> *
| 25>
| 26>                          ****END OF INPUT****

CARTESIAN COORDINATES (ANGSTROEM)
---------------------------------
  C      0.094925    1.362030   -0.263981
  C     -0.020112   -0.121202   -0.026286
  O      0.932996   -0.833684    0.207968
  C     -1.418726   -0.729139   -0.078302
  N     -2.414323    0.065836   -0.239344
  N     -1.392452   -2.082206    0.049300
  C     -2.564900   -2.908606    0.202125
  C     -2.196871   -4.370312   -0.005637
  O     -1.196679   -4.692480    0.949656
  H      1.139787    1.662470   -0.180786
  H     -0.300612    1.612941   -1.252546
  H     -0.525082    1.905320    0.453933
  H     -3.305825   -0.431982   -0.232247
  H     -0.505739   -2.474784    0.337487
  H     -3.022605   -2.785863    1.196238
  H     -3.319047   -2.627116   -0.543396
  H     -3.095771   -4.991553    0.122892
  H     -1.826575   -4.509147   -1.031919
  H     -0.828673   -5.553542    0.732459

 Total Charge           Charge          ....    0
 Multiplicity           Mult            ....    1
 Number of Electrons    NEL             ....   70
 Basis Dimension        Dim             ....  339

ORBITAL ENERGIES
----------------

  NO   OCC          E(Eh)            E(eV)
   0   2.0000     -20.573895      -559.8441
   1   2.0000     -20.558695      -559.4305
   2   2.0000     -15.574442      -423.8021
   3   2.0000     -15.535379      -422.7392
   4   2.0000     -11.339552      -308.5649
   5   2.0000     -11.320123      -308.0362
   6   2.0000     -11.295772      -307.3736
   7   2.0000     -11.275711      -306.8277
   8   2.0000     -11.225655      -305.4656
   9   2.0000      -1.402993       -38.1774
  10   2.0000      -1.379992       -37.5515
  11   2.0000      -1.274763       -34.6881
  12   2.0000      -1.165950       -31.7271
  13   2.0000      -1.023024       -27.8379
  14   2.0000      -1.008010       -27.4293
  15   2.0000      -0.892142       -24.2764
  16   2.0000      -0.827404       -22.5148
  17   2.0000      -0.760202       -20.6862
  18   2.0000      -0.718286       -19.5456
  19   2.0000      -0.704087       -19.1592
  20   2.0000      -0.690238       -18.7823
  21   2.0000      -0.649546       -17.6751
  22   2.0000      -0.617398       -16.8003
  23   2.0000      -0.611640       -16.6436
  24   2.0000      -0.603047       -16.4097
  25   2.0000      -0.591386       -16.0924
  26   2.0000      -0.561915       -15.2905
  27   2.0000      -0.542299       -14.7567
  28   2.0000      -0.526938       -14.3387
  29   2.0000      -0.509800       -13.8724
  30   2.0000      -0.477071       -12.9818
  31   2.0000      -0.468924       -12.7601
  32   2.0000      -0.462946       -12.5974
  33   2.0000      -0.412394       -11.2218
  34   2.0000      -0.360374        -9.8063
  35   0.0000       0.099815         2.7161
  36   0.0000       0.122680         3.3383
  37   0.0000       0.145853         3.9689
  38   0.0000       0.156962         4.2712
  39   0.0000       0.178733         4.8636

MULLIKEN ATOMIC CHARGES
-----------------------
   0 C :   -0.360140
   1 C :    0.240366
   2 O :   -0.314593
   3 C :    0.104418
   4 N :   -0.416997
   5 N :   -0.295826
   6 C :   -0.111103
   7 C :   -0.077034
   8 O :   -0.480542
   9 H :    0.147627
  10 H :    0.149638
  11 H :    0.156771
  12 H :    0.198296
  13 H :    0.266084
  14 H :    0.129840
  15 H :    0.117419
  16 H :    0.107228
  17 H :    0.112847
  18 H :    0.325701
Sum of atomic charges:    0.0000000

LOEWDIN ATOMIC CHARGES
----------------------
   0 C :   -0.272573
   1 C :   -0.300769
   2 O :    0.145718
   3 C :   -0.375547
   4 N :   -0.073894
   5 N :    0.108861
   6 C :   -0.294139
   7 C :   -0.350142
   8 O :   -0.047718
   9 H :    0.130788
  10 H :    0.144292
  11 H :    0.145190
  12 H :    0.151571
  13 H :    0.198617
  14 H :    0.134489
  15 H :    0.137091
  16 H :    0.120506
  17 H :    0.120572
  18 H :    0.177088

  Mayer bond orders larger than 0.1
B(  0-C ,  1-C ) :   0.9510 B(  0-C ,  9-H ) :   0.9371 B(  0-C , 10-H ) :   0.9058
B(  0-C , 11-H ) :   0.9064 B(  1-C ,  2-O ) :   1.9026 B(  1-C ,  3-C ) :   0.8862
B(  3-C ,  4-N ) :   1.8962 B(  3-C ,  5-N ) :   1.1847 B(  4-N , 12-H ) :   0.8721
B(  5-N ,  6-C ) :   0.8804 B(  5-N , 13-H ) :   0.8319 B(  6-C ,  7-C ) :   0.9566
B(  6-C , 14-H ) :   0.9210 B(  6-C , 15-H ) :   0.9176 B(  7-C ,  8-O ) :   0.9867
B(  7-C , 16-H ) :   0.9247 B(  7-C , 17-H ) :   0.9289 B(  8-O , 18-H ) :   0.8439

MP2 TOTAL ENERGY:     -455.628472524 Eh
FINAL SINGLE POINT ENERGY      -455.628472524094

DIPOLE MOMENT
-------------
                                X             Y             Z
Electronic contribution:      3.35946       0.27642       0.97753
Nuclear contribution   :     -4.03834      -1.50338      -1.32669
                        -----------------------------------------
Total Dipole Moment    :     -0.67888      -1.22696      -0.34915
                        -----------------------------------------
Magnitude (a.u.)       :      1.44507
Magnitude (Debye)      :      3.67307

                             ****ORCA TERMINATED NORMALLY****
TOTAL RUN TIME: 0 days 0 hours 14 minutes 30 seconds 472 msec
