                         Program Version 3.0.3 - RELEASE   -
|  1> ! RI-MP2 RIJK def2-TZVP def2-TZVP/C def2-TZVP/JK TIGHTSCF
|  2> % maxcore 2000
|  3> % mp2 density relaxed end
|  4> *xyz 0 1
|  5>  C       -0.5400670004     1.3631493406     0.0727551498
|  6>  C       -0.0816152546    -0.0680259065    -0.0795384546
|  7>  O        0.9083362909    -0.1348316819    -1.0514932864
|  8>  C        1.3781490730    -1.4602954277    -1.3143174538
|  9>  C        1.1513985454    -2.4065098249    -0.1124649973
| 10>  O        2.0873111263    -3.4442221796    -0.1113733314
| 11>  C        1.2036196356    -1.6058743560     1.1739079540
| 12>  N        1.9201950270    -2.0191202358     2.1314290061
| 13>  O        0.4502107465    -0.4858532635     1.2031872404
| 14>  H        0.3198908275     1.9992332060     0.2945808823
| 15>  H       -1.0049057334     1.7009042554    -0.8560189002
| 16>  H       -1.2642930397     1.4395735340     0.8865379758
| 17>  H       -0.9238059558    -0.7365844178    -0.3211078992
| 18>  H        0.8934440961    -1.8582524918    -2.2147139714
| 19>  H        2.4533820578    -1.3909684584    -1.4951454004
| 20>  H        0.1320676111    -2.8238441427    -0.1817498184
| 21>  H        2.4764675561    -3.4295911417     0.7803698682
| 22>  H        1.8819030006    -1.3996263679     2.9398288566
| 23> *
| 24>
| 25>                          ****END OF INPUT****

CARTESIAN COORDINATES (ANGSTROEM)
---------------------------------
  C     -0.540067    1.363149    0.072755
  C     -0.081615   -0.068026   -0.079538
  O      0.908336   -0.134832   -1.051493
  C      1.378149   -1.460295   -1.314317
  C      1.151399   -2.406510   -0.112465
  O      2.087311   -3.444222   -0.111373
  C      1.203620   -1.605874    1.173908
  N      1.920195   -2.019120    2.131429
  O      0.450211   -0.485853    1.203187
  H      0.319891    1.999233    0.294581
  H     -1.004906    1.700904   -0.856019
  H     -1.264293    1.439574    0.886538
  H     -0.923806   -0.736584   -0.321108
  H      0.893444   -1.858252   -2.214714
  H      2.453382   -1.390968   -1.495145
  H      0.132068   -2.823844   -0.181750
  H      2.476468   -3.429591    0.780370
  H      1.881903   -1.399626    2.939829

 Total Charge           Charge          ....    0
 Multiplicity           Mult            ....    1
 Number of Electrons    NEL             ....   70
 Basis Dimension        Dim             ....  333

ORBITAL ENERGIES
----------------

  NO   OCC          E(Eh)            E(eV)
   0   2.0000     -20.608714      -560.7916
   1   2.0000     -20.585496      -560.1598
   2   2.0000     -20.559580      -559.4546
   3   2.0000     -15.547555      -423.0705
   4   2.0000     -11.364387      -309.2407
   5   2.0000     -11.352076      -308.9057
   6   2.0000     -11.307350      -307.6886
   7   2.0000     -11.296120      -307.3830
   8   2.0000     -11.234317      -305.7013
   9   2.0000      -1.468656       -39.9642
  10   2.0000      -1.388055       -37.7709
  11   2.0000      -1.377460       -37.4826
  12   2.0000      -1.208107       -32.8743
  13   2.0000      -1.064952       -28.9788
  14   2.0000      -1.003659       -27.3109
  15   2.0000      -0.910222       -24.7684
  16   2.0000      -0.867895       -23.6166
  17   2.0000      -0.774974       -21.0881
  18   2.0000      -0.760304       -20.6889
  19   2.0000      -0.724430       -19.7127
  20   2.0000      -0.706182       -19.2162
  21   2.0000      -0.666197       -18.1281
  22   2.0000      -0.640460       -17.4278
  23   2.0000      -0.616893       -16.7865
  24   2.0000      -0.596124       -16.2213
  25   2.0000      -0.588601       -16.0167
  26   2.0000      -0.567882       -15.4528
  27   2.0000      -0.558392       -15.1946
  28   2.0000      -0.553247       -15.0546
  29   2.0000      -0.517431       -14.0800
  30   2.0000      -0.506264       -13.7761
  31   2.0000      -0.462545       -12.5865
  32   2.0000      -0.454184       -12.3590
  33   2.0000      -0.448726       -12.2105
  34   2.0000      -0.411065       -11.1856
  35   0.0000       0.128325         3.4919
  36   0.0000       0.150769         4.1026
  37   0.0000       0.164226         4.4688
  38   0.0000       0.165976         4.5164
  39   0.0000       0.185444         5.0462

MULLIKEN ATOMIC CHARGES
-----------------------
   0 C :   -0.363274
   1 C :    0.151040
   2 O :   -0.284705
   3 C :   -0.023200
   4 C :    0.084261
   5 O :   -0.478392
   6 C :    0.159055
   7 N :   -0.448345
   8 O :   -0.233353
   9 H :    0.141243
  10 H :    0.139417
  11 H :    0.140384
  12 H :    0.093486
  13 H :    0.111704
  14 H :    0.124367
  15 H :    0.113145
  16 H :    0.347192
  17 H :    0.225976
Sum of atomic charges:   -0.0000000

LOEWDIN ATOMIC CHARGES
----------------------
   0 C :   -0.280442
   1 C :   -0.404202
   2 O :    0.193720
   3 C :   -0.263204
   4 C :   -0.340017
   5 O :    0.001569
   6 C :   -0.402274
   7 N :   -0.066738
   8 O :    0.258554
   9 H :    0.134179
  10 H :    0.132973
  11 H :    0.132276
  12 H :    0.131125
  13 H :    0.125759
  14 H :    0.137735
  15 H :    0.150845
  16 H :    0.188186
  17 H :    0.169956

  Mayer bond orders larger than 0.1
B(  0-C ,  1-C ) :   0.9321 B(  0-C ,  9-H ) :   0.9313 B(  0-C , 10-H ) :   0.9327
B(  0-C , 11-H ) :   0.9329 B(  1-C ,  2-O ) :   1.0158 B(  1-C ,  8-O ) :   0.8672
B(  1-C , 12-H ) :   0.9311 B(  2-O ,  3-C ) :   0.8998 B(  3-C ,  4-C ) :   0.8918
B(  3-C , 13-H ) :   0.9295 B(  3-C , 14-H ) :   0.9137 B(  4-C ,  5-O ) :   1.0897
B(  4-C ,  6-C ) :   0.8922 B(  4-C , 15-H ) :   0.9317 B(  5-O , 16-H ) :   0.7906
B(  6-C ,  7-N ) :   1.9126 B(  6-C ,  8-O ) :   1.1237 B(  7-N , 17-H ) :   0.8566

MP2 TOTAL ENERGY:     -475.492397213 Eh
FINAL SINGLE POINT ENERGY      -475.492397212804

DIPOLE MOMENT
-------------
                                X             Y             Z
Electronic contribution:      2.47888      -2.88105       1.81549
Nuclear contribution   :     -3.33886       3.54988      -1.90731
                        -----------------------------------------
Total Dipole Moment    :     -0.85998       0.66884      -0.09182
                        -----------------------------------------
Magnitude (a.u.)       :      1.09332
Magnitude (Debye)      :      2.77899

                             ****ORCA TERMINATED NORMALLY****
TOTAL RUN TIME: 0 days 0 hours 16 minutes 14 seconds 410 msec
