                         Program Version 3.0.3 - RELEASE   -
|  1> ! RI-MP2 RIJK def2-TZVP def2-TZVP/C def2-TZVP/JK TIGHTSCF
|  2> % maxcore 2000
|  3> % mp2 density relaxed end
|  4> *xyz 0 1
|  5>  C       -0.0141125066     1.5506132628    -0.0686271299
|  6>  C       -0.0451304677     0.0524889687     0.0921516321
|  7>  N        1.2107116550    -0.6880923083    -0.1805999213
|  8>  C        0.6122453840    -0.7279470662     1.1801986935
|  9>  C        1.4348227910    -0.2026154973     2.3247684339
| 10>  C       -0.3047003353    -1.9227174470     1.4409252119
| 11>  O       -0.1471390309    -2.7557753777     2.3019314480
| 12>  C       -1.4273896298    -1.8304269937     0.4607052999
| 13>  C       -1.2946258272    -0.7115915658    -0.2630348092
| 14>  H        0.9575289504     1.9490020815     0.2292456072
| 15>  H       -0.1838592899     1.8287186887    -1.1149725810
| 16>  H       -0.7906411908     2.0283155712     0.5377545917
| 17>  H        1.0098401928    -1.5453237783    -0.6931988940
| 18>  H        2.1187130641     0.5771629850     1.9846425856
| 19>  H        0.7949631217     0.2029513986     3.1149569355
| 20>  H        2.0219518749    -1.0168305450     2.7599657134
| 21>  H       -2.1939876762    -2.5890626847     0.3741361714
| 22>  H       -1.9653665094    -0.3764465124    -1.0474671185
| 23> *
| 24>
| 25>                          ****END OF INPUT****

CARTESIAN COORDINATES (ANGSTROEM)
---------------------------------
  C     -0.014113    1.550613   -0.068627
  C     -0.045130    0.052489    0.092152
  N      1.210712   -0.688092   -0.180600
  C      0.612245   -0.727947    1.180199
  C      1.434823   -0.202615    2.324768
  C     -0.304700   -1.922717    1.440925
  O     -0.147139   -2.755775    2.301931
  C     -1.427390   -1.830427    0.460705
  C     -1.294626   -0.711592   -0.263035
  H      0.957529    1.949002    0.229246
  H     -0.183859    1.828719   -1.114973
  H     -0.790641    2.028316    0.537755
  H      1.009840   -1.545324   -0.693199
  H      2.118713    0.577163    1.984643
  H      0.794963    0.202951    3.114957
  H      2.021952   -1.016831    2.759966
  H     -2.193988   -2.589063    0.374136
  H     -1.965367   -0.376447   -1.047467

 Total Charge           Charge          ....    0
 Multiplicity           Mult            ....    1
 Number of Electrons    NEL             ....   66
 Basis Dimension        Dim             ....  333

ORBITAL ENERGIES
----------------

  NO   OCC          E(Eh)            E(eV)
   0   2.0000     -20.552753      -559.2688
   1   2.0000     -15.576474      -423.8574
   2   2.0000     -11.336909      -308.4930
   3   2.0000     -11.287618      -307.1517
   4   2.0000     -11.277698      -306.8818
   5   2.0000     -11.275261      -306.8154
   6   2.0000     -11.250811      -306.1501
   7   2.0000     -11.235874      -305.7437
   8   2.0000     -11.223973      -305.4198
   9   2.0000      -1.394569       -37.9482
  10   2.0000      -1.293206       -35.1899
  11   2.0000      -1.101391       -29.9704
  12   2.0000      -1.016815       -27.6690
  13   2.0000      -1.004072       -27.3222
  14   2.0000      -0.893980       -24.3264
  15   2.0000      -0.869875       -23.6705
  16   2.0000      -0.779506       -21.2114
  17   2.0000      -0.741156       -20.1679
  18   2.0000      -0.689599       -18.7649
  19   2.0000      -0.636834       -17.3291
  20   2.0000      -0.621490       -16.9116
  21   2.0000      -0.606816       -16.5123
  22   2.0000      -0.592070       -16.1111
  23   2.0000      -0.587903       -15.9977
  24   2.0000      -0.567149       -15.4329
  25   2.0000      -0.552452       -15.0330
  26   2.0000      -0.538385       -14.6502
  27   2.0000      -0.535830       -14.5807
  28   2.0000      -0.485811       -13.2196
  29   2.0000      -0.472961       -12.8699
  30   2.0000      -0.429419       -11.6851
  31   2.0000      -0.406291       -11.0557
  32   2.0000      -0.368780       -10.0350
  33   0.0000       0.073582         2.0023
  34   0.0000       0.132175         3.5967
  35   0.0000       0.156926         4.2702
  36   0.0000       0.165526         4.5042
  37   0.0000       0.176370         4.7993

MULLIKEN ATOMIC CHARGES
-----------------------
   0 C :   -0.402762
   1 C :    0.195873
   2 N :   -0.368714
   3 C :    0.067087
   4 C :   -0.400631
   5 C :    0.175547
   6 O :   -0.269482
   7 C :   -0.178336
   8 C :   -0.185050
   9 H :    0.149167
  10 H :    0.134973
  11 H :    0.136329
  12 H :    0.220695
  13 H :    0.143323
  14 H :    0.132872
  15 H :    0.153081
  16 H :    0.149839
  17 H :    0.146190
Sum of atomic charges:   -0.0000000

LOEWDIN ATOMIC CHARGES
----------------------
   0 C :   -0.259327
   1 C :   -0.269478
   2 N :    0.071889
   3 C :   -0.241392
   4 C :   -0.258618
   5 C :   -0.281728
   6 O :    0.162141
   7 C :   -0.113479
   8 C :   -0.073668
   9 H :    0.135637
  10 H :    0.131656
  11 H :    0.131649
  12 H :    0.168762
  13 H :    0.132624
  14 H :    0.132583
  15 H :    0.138797
  16 H :    0.145932
  17 H :    0.146019

  Mayer bond orders larger than 0.1
B(  0-C ,  1-C ) :   0.8749 B(  0-C ,  9-H ) :   0.9394 B(  0-C , 10-H ) :   0.9319
B(  0-C , 11-H ) :   0.9353 B(  1-C ,  2-N ) :   0.8935 B(  1-C ,  3-C ) :   0.8408
B(  1-C ,  8-C ) :   0.9265 B(  2-N ,  3-C ) :   0.8972 B(  2-N , 12-H ) :   0.8619
B(  3-C ,  4-C ) :   0.8763 B(  3-C ,  5-C ) :   0.9043 B(  4-C , 13-H ) :   0.9410
B(  4-C , 14-H ) :   0.9335 B(  4-C , 15-H ) :   0.9308 B(  5-C ,  6-O ) :   1.9966
B(  5-C ,  7-C ) :   0.9836 B(  7-C ,  8-C ) :   1.6741 B(  7-C , 16-H ) :   0.9193
B(  8-C , 17-H ) :   0.9137

MP2 TOTAL ENERGY:     -401.263873777 Eh
FINAL SINGLE POINT ENERGY      -401.263873777476

DIPOLE MOMENT
-------------
                                X             Y             Z
Electronic contribution:     -2.03166      -6.96597       0.52995
Nuclear contribution   :      1.39557       7.69795      -1.24994
                        -----------------------------------------
Total Dipole Moment    :     -0.63608       0.73198      -0.71999
                        -----------------------------------------
Magnitude (a.u.)       :      1.20780
Magnitude (Debye)      :      3.06999

                             ****ORCA TERMINATED NORMALLY****
TOTAL RUN TIME: 0 days 0 hours 19 minutes 11 seconds 708 msec
