                         Program Version 3.0.3 - RELEASE   -
|  1> ! RI-MP2 RIJK def2-TZVP def2-TZVP/C def2-TZVP/JK TIGHTSCF
|  2> % maxcore 2000
|  3> % mp2 density relaxed end
|  4> *xyz 0 1
|  5>  C       -0.0699876088     1.4711480044     0.0083809869
|  6>  N        0.0404041623     0.0279068599     0.0225905075
|  7>  C        0.1450062221    -0.8068031936    -1.0316300087
|  8>  O        0.1765172699    -0.3032720085    -2.2805159325
|  9>  N        0.1996745058    -2.0745260697    -0.7012345050
| 10>  C        0.1092117773    -2.0770476285     0.6738595307
| 11>  O        0.1450198914    -3.2293854926     1.3874323329
| 12>  C        0.0144215865    -0.8085959922     1.1609384275
| 13>  O       -0.1440578115    -0.2770724718     2.4038888475
| 14>  H        0.8191720485     1.9288900244    -0.4354294760
| 15>  H       -0.9487028055     1.7915162954    -0.5588998026
| 16>  H       -0.1708931987     1.8056316226     1.0414172267
| 17>  H        0.2354669395    -1.0607753146    -2.8757099825
| 18>  H        0.2086976134    -3.9420220433     0.7413702412
| 19>  H        0.6766545981    -0.3743169818     2.9006400965
| 20> *
| 21>
| 22>                          ****END OF INPUT****

CARTESIAN COORDINATES (ANGSTROEM)
---------------------------------
  C     -0.069988    1.471148    0.008381
  N      0.040404    0.027907    0.022591
  C      0.145006   -0.806803   -1.031630
  O      0.176517   -0.303272   -2.280516
  N      0.199675   -2.074526   -0.701235
  C      0.109212   -2.077048    0.673860
  O      0.145020   -3.229385    1.387432
  C      0.014422   -0.808596    1.160938
  O     -0.144058   -0.277072    2.403889
  H      0.819172    1.928890   -0.435429
  H     -0.948703    1.791516   -0.558900
  H     -0.170893    1.805632    1.041417
  H      0.235467   -1.060775   -2.875710
  H      0.208698   -3.942022    0.741370
  H      0.676655   -0.374317    2.900640

 Total Charge           Charge          ....    0
 Multiplicity           Mult            ....    1
 Number of Electrons    NEL             ....   68
 Basis Dimension        Dim             ....  315

ORBITAL ENERGIES
----------------

  NO   OCC          E(Eh)            E(eV)
   0   2.0000     -20.613970      -560.9346
   1   2.0000     -20.590291      -560.2903
   2   2.0000     -20.579263      -559.9902
   3   2.0000     -15.613871      -424.8750
   4   2.0000     -15.542500      -422.9329
   5   2.0000     -11.363128      -309.2064
   6   2.0000     -11.302220      -307.5491
   7   2.0000     -11.296747      -307.4001
   8   2.0000     -11.274832      -306.8038
   9   2.0000      -1.449953       -39.4552
  10   2.0000      -1.412993       -38.4495
  11   2.0000      -1.394421       -37.9441
  12   2.0000      -1.317790       -35.8589
  13   2.0000      -1.187664       -32.3180
  14   2.0000      -0.996071       -27.1045
  15   2.0000      -0.959183       -26.1007
  16   2.0000      -0.842768       -22.9329
  17   2.0000      -0.802851       -21.8467
  18   2.0000      -0.752264       -20.4702
  19   2.0000      -0.727335       -19.7918
  20   2.0000      -0.701209       -19.0809
  21   2.0000      -0.673452       -18.3255
  22   2.0000      -0.647523       -17.6200
  23   2.0000      -0.626271       -17.0417
  24   2.0000      -0.615471       -16.7478
  25   2.0000      -0.596513       -16.2319
  26   2.0000      -0.578636       -15.7455
  27   2.0000      -0.564087       -15.3496
  28   2.0000      -0.551997       -15.0206
  29   2.0000      -0.521194       -14.1824
  30   2.0000      -0.500111       -13.6087
  31   2.0000      -0.453920       -12.3518
  32   2.0000      -0.387449       -10.5430
  33   2.0000      -0.284719        -7.7476
  34   0.0000       0.126412         3.4398
  35   0.0000       0.143603         3.9076
  36   0.0000       0.162767         4.4291
  37   0.0000       0.164888         4.4868
  38   0.0000       0.189530         5.1574

MULLIKEN ATOMIC CHARGES
-----------------------
   0 C :   -0.324291
   1 N :   -0.049765
   2 C :    0.292637
   3 O :   -0.434931
   4 N :   -0.350969
   5 C :    0.181227
   6 O :   -0.446746
   7 C :    0.082641
   8 O :   -0.468671
   9 H :    0.151081
  10 H :    0.152747
  11 H :    0.171493
  12 H :    0.350874
  13 H :    0.339713
  14 H :    0.352961
Sum of atomic charges:   -0.0000000

LOEWDIN ATOMIC CHARGES
----------------------
   0 C :   -0.267691
   1 N :    0.241112
   2 C :   -0.463638
   3 O :    0.076907
   4 N :    0.074229
   5 C :   -0.401621
   6 O :    0.055354
   7 C :   -0.350489
   8 O :    0.050058
   9 H :    0.124877
  10 H :    0.126587
  11 H :    0.132334
  12 H :    0.206395
  13 H :    0.197116
  14 H :    0.198471

  Mayer bond orders larger than 0.1
B(  0-C ,  1-N ) :   0.8622 B(  0-C ,  9-H ) :   0.9295 B(  0-C , 10-H ) :   0.9298
B(  0-C , 11-H ) :   0.9256 B(  1-N ,  2-C ) :   1.2286 B(  1-N ,  7-C ) :   1.0249
B(  2-C ,  3-O ) :   1.0943 B(  2-C ,  4-N ) :   1.5536 B(  3-O , 12-H ) :   0.8145
B(  4-N ,  5-C ) :   1.2251 B(  5-C ,  6-O ) :   1.1034 B(  5-C ,  7-C ) :   1.5331
B(  6-O , 13-H ) :   0.8228 B(  7-C ,  8-O ) :   1.0863 B(  8-O , 14-H ) :   0.8250

MP2 TOTAL ENERGY:     -490.353331310 Eh
FINAL SINGLE POINT ENERGY      -490.353331309854

DIPOLE MOMENT
-------------
                                X             Y             Z
Electronic contribution:      0.12944      -4.50759       0.02641
Nuclear contribution   :      0.36225       5.14686      -0.32077
                        -----------------------------------------
Total Dipole Moment    :      0.49170       0.63927      -0.29436
                        -----------------------------------------
Magnitude (a.u.)       :      0.85853
Magnitude (Debye)      :      2.18221

                             ****ORCA TERMINATED NORMALLY****
TOTAL RUN TIME: 0 days 0 hours 13 minutes 42 seconds 939 msec
