                         Program Version 3.0.3 - RELEASE   -
|  1> ! RI-MP2 RIJK def2-TZVP def2-TZVP/C def2-TZVP/JK TIGHTSCF
|  2> % maxcore 2000
|  3> % mp2 density relaxed end
|  4> *xyz 0 1
|  5>  C       -0.0488843300     1.4204413971     0.2184686833
|  6>  C        1.2725008050     0.7692705128    -0.0203747683
|  7>  O        1.6864327991     0.0418463448     1.1827739172
|  8>  C        0.6126328203    -0.8162310647     0.9896836689
|  9>  N        0.3994737490    -1.9671587210     1.4357541356
| 10>  C       -0.7379250554    -2.6190326728     0.7507392733
| 11>  C       -1.5692292171    -1.7423524314    -0.2296231611
| 12>  N       -0.7836512219    -0.7968397054    -1.0672995140
| 13>  C        0.0106302493    -0.0644865562    -0.1297817224
| 14>  H       -0.3112125002     1.7635401096     1.2151623177
| 15>  H       -0.4143849535     2.0287167052    -0.6045467429
| 16>  H        2.0522007196     1.0464955691    -0.7164450928
| 17>  H       -0.3213833273    -3.4839930972     0.2164530273
| 18>  H       -1.4135490678    -3.0305976697     1.5097152785
| 19>  H       -2.1524376650    -2.3916060614    -0.8892424582
| 20>  H       -2.2823038081    -1.1341391084     0.3382510464
| 21>  H       -0.1765408159    -1.3311889506    -1.6849311985
| 22> *
| 23>
| 24>                          ****END OF INPUT****

CARTESIAN COORDINATES (ANGSTROEM)
---------------------------------
  C     -0.048884    1.420441    0.218469
  C      1.272501    0.769271   -0.020375
  O      1.686433    0.041846    1.182774
  C      0.612633   -0.816231    0.989684
  N      0.399474   -1.967159    1.435754
  C     -0.737925   -2.619033    0.750739
  C     -1.569229   -1.742352   -0.229623
  N     -0.783651   -0.796840   -1.067300
  C      0.010630   -0.064487   -0.129782
  H     -0.311213    1.763540    1.215162
  H     -0.414385    2.028717   -0.604547
  H      2.052201    1.046496   -0.716445
  H     -0.321383   -3.483993    0.216453
  H     -1.413549   -3.030598    1.509715
  H     -2.152438   -2.391606   -0.889242
  H     -2.282304   -1.134139    0.338251
  H     -0.176541   -1.331189   -1.684931

 Total Charge           Charge          ....    0
 Multiplicity           Mult            ....    1
 Number of Electrons    NEL             ....   66
 Basis Dimension        Dim             ....  327

ORBITAL ENERGIES
----------------

  NO   OCC          E(Eh)            E(eV)
   0   2.0000     -20.592221      -560.3428
   1   2.0000     -15.572875      -423.7595
   2   2.0000     -15.546379      -423.0385
   3   2.0000     -11.331030      -308.3330
   4   2.0000     -11.320649      -308.0505
   5   2.0000     -11.287308      -307.1433
   6   2.0000     -11.266360      -306.5732
   7   2.0000     -11.260543      -306.4150
   8   2.0000     -11.256914      -306.3162
   9   2.0000      -1.440618       -39.2012
  10   2.0000      -1.255606       -34.1668
  11   2.0000      -1.209602       -32.9149
  12   2.0000      -1.124525       -30.5999
  13   2.0000      -0.996989       -27.1295
  14   2.0000      -0.889564       -24.2063
  15   2.0000      -0.867128       -23.5958
  16   2.0000      -0.832908       -22.6646
  17   2.0000      -0.738763       -20.1028
  18   2.0000      -0.706556       -19.2264
  19   2.0000      -0.689554       -18.7637
  20   2.0000      -0.637249       -17.3404
  21   2.0000      -0.629799       -17.1377
  22   2.0000      -0.611656       -16.6440
  23   2.0000      -0.592667       -16.1273
  24   2.0000      -0.559807       -15.2331
  25   2.0000      -0.554914       -15.1000
  26   2.0000      -0.542198       -14.7539
  27   2.0000      -0.515358       -14.0236
  28   2.0000      -0.494080       -13.4446
  29   2.0000      -0.457958       -12.4617
  30   2.0000      -0.409127       -11.1329
  31   2.0000      -0.382518       -10.4088
  32   2.0000      -0.368654       -10.0316
  33   0.0000       0.129006         3.5104
  34   0.0000       0.153547         4.1782
  35   0.0000       0.157100         4.2749
  36   0.0000       0.171277         4.6607
  37   0.0000       0.179192         4.8761

MULLIKEN ATOMIC CHARGES
-----------------------
   0 C :   -0.209942
   1 C :    0.010377
   2 O :   -0.268605
   3 C :    0.137862
   4 N :   -0.187802
   5 C :   -0.108909
   6 C :   -0.174065
   7 N :   -0.299596
   8 C :   -0.065071
   9 H :    0.147931
  10 H :    0.135707
  11 H :    0.156922
  12 H :    0.117998
  13 H :    0.124733
  14 H :    0.141760
  15 H :    0.122103
  16 H :    0.218596
Sum of atomic charges:    0.0000000

LOEWDIN ATOMIC CHARGES
----------------------
   0 C :   -0.164993
   1 C :   -0.176609
   2 O :    0.235231
   3 C :   -0.340720
   4 N :    0.110830
   5 C :   -0.282745
   6 C :   -0.285642
   7 N :    0.021446
   8 C :   -0.263218
   9 H :    0.138983
  10 H :    0.149738
  11 H :    0.138485
  12 H :    0.132092
  13 H :    0.136128
  14 H :    0.135010
  15 H :    0.137459
  16 H :    0.178525

  Mayer bond orders larger than 0.1
B(  0-C ,  1-C ) :   0.8962 B(  0-C ,  8-C ) :   0.8547 B(  0-C ,  9-H ) :   0.9055
B(  0-C , 10-H ) :   0.9139 B(  1-C ,  2-O ) :   0.9011 B(  1-C ,  8-C ) :   0.8564
B(  1-C , 11-H ) :   0.9054 B(  2-O ,  3-C ) :   1.0567 B(  3-C ,  4-N ) :   1.9167
B(  3-C ,  8-C ) :   0.9571 B(  4-N ,  5-C ) :   0.8822 B(  5-C ,  6-C ) :   0.9252
B(  5-C , 12-H ) :   0.9227 B(  5-C , 13-H ) :   0.9235 B(  6-C ,  7-N ) :   0.9273
B(  6-C , 14-H ) :   0.9282 B(  6-C , 15-H ) :   0.9316 B(  7-N ,  8-C ) :   1.0454
B(  7-N , 16-H ) :   0.8733

MP2 TOTAL ENERGY:     -417.244822640 Eh
FINAL SINGLE POINT ENERGY      -417.244822640476

DIPOLE MOMENT
-------------
                                X             Y             Z
Electronic contribution:      4.78089       1.45681       2.11988
Nuclear contribution   :     -5.35450      -1.21180      -3.13207
                        -----------------------------------------
Total Dipole Moment    :     -0.57361       0.24501      -1.01219
                        -----------------------------------------
Magnitude (a.u.)       :      1.18894
Magnitude (Debye)      :      3.02205

                             ****ORCA TERMINATED NORMALLY****
TOTAL RUN TIME: 0 days 0 hours 17 minutes 43 seconds 402 msec
