                         Program Version 3.0.3 - RELEASE   -
|  1> ! RI-MP2 RIJK def2-TZVP def2-TZVP/C def2-TZVP/JK TIGHTSCF
|  2> % maxcore 2000
|  3> % mp2 density relaxed end
|  4> *xyz 0 1
|  5>  C       -0.1673324909     1.4179597355    -0.2403598953
|  6>  O       -0.2519875355     0.0007660322    -0.2151748865
|  7>  C        0.6651038989    -0.6349579534    -1.0431216087
|  8>  C        0.5035694272    -2.1581423147    -0.8726424386
|  9>  N        0.0052406581    -2.5617903227    -2.1723380270
| 10>  C       -0.2136772610    -1.4735347517    -2.9962044421
| 11>  O        0.3982149214    -0.3784705573    -2.4226498657
| 12>  N       -0.8262168688    -1.5040845593    -4.0953539161
| 13>  C       -0.9694504043    -0.2879943835    -4.8719492189
| 14>  H        0.8393317297     1.7594931815     0.0424346379
| 15>  H       -0.4113985835     1.8157904618    -1.2312996037
| 16>  H       -0.8888855564     1.7898245320     0.4891795867
| 17>  H        1.6805502894    -0.2635150214    -0.8504238315
| 18>  H        1.4579380713    -2.6401172685    -0.6319653617
| 19>  H       -0.2024072091    -2.3487578608    -0.0582032997
| 20>  H       -0.6327095618    -3.3339862797    -2.2673599410
| 21>  H       -2.0097271468    -0.1907810500    -5.2034375103
| 22>  H       -0.6908373815     0.6259070841    -4.3324162556
| 23>  H       -0.3539115162    -0.3458192641    -5.7790960223
| 24> *
| 25>
| 26>                          ****END OF INPUT****

CARTESIAN COORDINATES (ANGSTROEM)
---------------------------------
  C     -0.167332    1.417960   -0.240360
  O     -0.251988    0.000766   -0.215175
  C      0.665104   -0.634958   -1.043122
  C      0.503569   -2.158142   -0.872642
  N      0.005241   -2.561790   -2.172338
  C     -0.213677   -1.473535   -2.996204
  O      0.398215   -0.378471   -2.422650
  N     -0.826217   -1.504085   -4.095354
  C     -0.969450   -0.287994   -4.871949
  H      0.839332    1.759493    0.042435
  H     -0.411399    1.815790   -1.231300
  H     -0.888886    1.789825    0.489180
  H      1.680550   -0.263515   -0.850424
  H      1.457938   -2.640117   -0.631965
  H     -0.202407   -2.348758   -0.058203
  H     -0.632710   -3.333986   -2.267360
  H     -2.009727   -0.190781   -5.203438
  H     -0.690837    0.625907   -4.332416
  H     -0.353912   -0.345819   -5.779096

 Total Charge           Charge          ....    0
 Multiplicity           Mult            ....    1
 Number of Electrons    NEL             ....   70
 Basis Dimension        Dim             ....  339

ORBITAL ENERGIES
----------------

  NO   OCC          E(Eh)            E(eV)
   0   2.0000     -20.595654      -560.4362
   1   2.0000     -20.579112      -559.9861
   2   2.0000     -15.574921      -423.8152
   3   2.0000     -15.514205      -422.1630
   4   2.0000     -11.357187      -309.0448
   5   2.0000     -11.355998      -309.0124
   6   2.0000     -11.282415      -307.0101
   7   2.0000     -11.277666      -306.8809
   8   2.0000     -11.228909      -305.5542
   9   2.0000      -1.461369       -39.7659
  10   2.0000      -1.386937       -37.7405
  11   2.0000      -1.241999       -33.7965
  12   2.0000      -1.189652       -32.3721
  13   2.0000      -1.022825       -27.8325
  14   2.0000      -0.941386       -25.6164
  15   2.0000      -0.904046       -24.6004
  16   2.0000      -0.866604       -23.5815
  17   2.0000      -0.802122       -21.8268
  18   2.0000      -0.725413       -19.7395
  19   2.0000      -0.718564       -19.5531
  20   2.0000      -0.662430       -18.0256
  21   2.0000      -0.654687       -17.8149
  22   2.0000      -0.621922       -16.9234
  23   2.0000      -0.614909       -16.7325
  24   2.0000      -0.604027       -16.4364
  25   2.0000      -0.584268       -15.8987
  26   2.0000      -0.571731       -15.5576
  27   2.0000      -0.546507       -14.8712
  28   2.0000      -0.536216       -14.5912
  29   2.0000      -0.523448       -14.2438
  30   2.0000      -0.495973       -13.4961
  31   2.0000      -0.461991       -12.5714
  32   2.0000      -0.444962       -12.1080
  33   2.0000      -0.397959       -10.8290
  34   2.0000      -0.343250        -9.3403
  35   0.0000       0.138802         3.7770
  36   0.0000       0.150581         4.0975
  37   0.0000       0.162724         4.4279
  38   0.0000       0.177000         4.8164
  39   0.0000       0.192798         5.2463

MULLIKEN ATOMIC CHARGES
-----------------------
   0 C :   -0.227507
   1 O :   -0.299949
   2 C :    0.207779
   3 C :   -0.108267
   4 N :   -0.322566
   5 C :    0.236173
   6 O :   -0.295566
   7 N :   -0.287190
   8 C :   -0.261475
   9 H :    0.113784
  10 H :    0.142944
  11 H :    0.144416
  12 H :    0.092656
  13 H :    0.112960
  14 H :    0.133973
  15 H :    0.247747
  16 H :    0.128185
  17 H :    0.114918
  18 H :    0.126984
Sum of atomic charges:   -0.0000000

LOEWDIN ATOMIC CHARGES
----------------------
   0 C :   -0.340225
   1 O :    0.166726
   2 C :   -0.380609
   3 C :   -0.253007
   4 N :    0.082925
   5 C :   -0.461914
   6 O :    0.242528
   7 N :    0.038859
   8 C :   -0.340554
   9 H :    0.104457
  10 H :    0.108783
  11 H :    0.115446
  12 H :    0.128936
  13 H :    0.129428
  14 H :    0.137208
  15 H :    0.187568
  16 H :    0.113737
  17 H :    0.105184
  18 H :    0.114524

  Mayer bond orders larger than 0.1
B(  0-C ,  1-O ) :   0.8847 B(  0-C ,  9-H ) :   0.9345 B(  0-C , 10-H ) :   0.9359
B(  0-C , 11-H ) :   0.9375 B(  1-O ,  2-C ) :   1.0287 B(  2-C ,  3-C ) :   0.9223
B(  2-C ,  6-O ) :   0.9321 B(  2-C , 12-H ) :   0.9373 B(  3-C ,  4-N ) :   0.9453
B(  3-C , 13-H ) :   0.9181 B(  3-C , 14-H ) :   0.9271 B(  4-N ,  5-C ) :   1.1123
B(  4-N , 15-H ) :   0.8670 B(  5-C ,  6-O ) :   1.0190 B(  5-C ,  7-N ) :   1.9375
B(  7-N ,  8-C ) :   0.8855 B(  8-C , 16-H ) :   0.9386 B(  8-C , 17-H ) :   0.9312
B(  8-C , 18-H ) :   0.9352

MP2 TOTAL ENERGY:     -455.614838280 Eh
FINAL SINGLE POINT ENERGY      -455.614838280311

DIPOLE MOMENT
-------------
                                X             Y             Z
Electronic contribution:      0.63048      -4.24165       0.16525
Nuclear contribution   :     -0.22979       4.55041       0.90408
                        -----------------------------------------
Total Dipole Moment    :      0.40068       0.30875       1.06933
                        -----------------------------------------
Magnitude (a.u.)       :      1.18294
Magnitude (Debye)      :      3.00679

                             ****ORCA TERMINATED NORMALLY****
TOTAL RUN TIME: 0 days 0 hours 25 minutes 4 seconds 999 msec
