                         Program Version 3.0.3 - RELEASE   -
|  1> ! RI-MP2 RIJK def2-TZVP def2-TZVP/C def2-TZVP/JK TIGHTSCF
|  2> % maxcore 2000
|  3> % mp2 density relaxed end
|  4> *xyz 0 1
|  5>  C        0.0004978341     1.5218028018     0.0501190845
|  6>  C        0.0298131914     0.0142629903     0.0153269026
|  7>  C       -0.0222300566    -0.7020084824    -1.1804318470
|  8>  C        0.0027370547    -2.0901465260    -1.2181941257
|  9>  C        0.0842534605    -2.8192967327    -0.0242087866
| 10>  N        0.1737756828    -4.2139076696    -0.0426855232
| 11>  C        0.1357302402    -2.1223553834     1.1866438346
| 12>  C        0.1098638488    -0.7320436141     1.2020315253
| 13>  O        0.1623106572    -0.1330871032     2.4289269669
| 14>  H        0.9039524972     1.9487944627     0.5082467059
| 15>  H       -0.0645519117     1.9295570978    -0.9616233501
| 16>  H       -0.8627832575     1.9126223098     0.6074021168
| 17>  H       -0.0871491329    -0.1508125979    -2.1146173153
| 18>  H       -0.0354069809    -2.6121883759    -2.1689688500
| 19>  H       -0.2340675116    -4.6471591002    -0.8585419693
| 20>  H       -0.1380971861    -4.6660478428     0.8047043232
| 21>  H        0.2013767900    -2.6505775007     2.1321543956
| 22>  H        0.1386590404     0.8217435764     2.3135313619
| 23> *
| 24>
| 25>                          ****END OF INPUT****

CARTESIAN COORDINATES (ANGSTROEM)
---------------------------------
  C      0.000498    1.521803    0.050119
  C      0.029813    0.014263    0.015327
  C     -0.022230   -0.702008   -1.180432
  C      0.002737   -2.090147   -1.218194
  C      0.084253   -2.819297   -0.024209
  N      0.173776   -4.213908   -0.042686
  C      0.135730   -2.122355    1.186644
  C      0.109864   -0.732044    1.202032
  O      0.162311   -0.133087    2.428927
  H      0.903952    1.948794    0.508247
  H     -0.064552    1.929557   -0.961623
  H     -0.862783    1.912622    0.607402
  H     -0.087149   -0.150813   -2.114617
  H     -0.035407   -2.612188   -2.168969
  H     -0.234068   -4.647159   -0.858542
  H     -0.138097   -4.666048    0.804704
  H      0.201377   -2.650578    2.132154
  H      0.138659    0.821744    2.313531

 Total Charge           Charge          ....    0
 Multiplicity           Mult            ....    1
 Number of Electrons    NEL             ....   66
 Basis Dimension        Dim             ....  333

ORBITAL ENERGIES
----------------

  NO   OCC          E(Eh)            E(eV)
   0   2.0000     -20.583622      -560.1088
   1   2.0000     -15.561299      -423.4445
   2   2.0000     -11.296119      -307.3830
   3   2.0000     -11.276315      -306.8441
   4   2.0000     -11.234758      -305.7133
   5   2.0000     -11.232054      -305.6397
   6   2.0000     -11.222898      -305.3906
   7   2.0000     -11.212091      -305.0965
   8   2.0000     -11.211947      -305.0926
   9   2.0000      -1.401448       -38.1353
  10   2.0000      -1.220941       -33.2235
  11   2.0000      -1.126577       -30.6557
  12   2.0000      -1.027853       -27.9693
  13   2.0000      -1.001051       -27.2400
  14   2.0000      -0.923106       -25.1190
  15   2.0000      -0.829209       -22.5639
  16   2.0000      -0.814059       -22.1517
  17   2.0000      -0.727776       -19.8038
  18   2.0000      -0.695213       -18.9177
  19   2.0000      -0.663195       -18.0465
  20   2.0000      -0.632217       -17.2035
  21   2.0000      -0.609039       -16.5728
  22   2.0000      -0.601236       -16.3605
  23   2.0000      -0.587231       -15.9794
  24   2.0000      -0.561284       -15.2733
  25   2.0000      -0.559292       -15.2191
  26   2.0000      -0.543932       -14.8011
  27   2.0000      -0.521121       -14.1804
  28   2.0000      -0.506685       -13.7876
  29   2.0000      -0.488190       -13.2843
  30   2.0000      -0.430373       -11.7110
  31   2.0000      -0.319989        -8.7073
  32   2.0000      -0.286704        -7.8016
  33   0.0000       0.130779         3.5587
  34   0.0000       0.132950         3.6178
  35   0.0000       0.137777         3.7491
  36   0.0000       0.157251         4.2790
  37   0.0000       0.167871         4.5680

MULLIKEN ATOMIC CHARGES
-----------------------
   0 C :   -0.531339
   1 C :    0.081276
   2 C :   -0.177437
   3 C :   -0.252202
   4 C :    0.327995
   5 N :   -0.509635
   6 C :   -0.328598
   7 C :    0.207914
   8 O :   -0.420916
   9 H :    0.153569
  10 H :    0.145289
  11 H :    0.152540
  12 H :    0.109884
  13 H :    0.108363
  14 H :    0.243014
  15 H :    0.244014
  16 H :    0.111424
  17 H :    0.334845
Sum of atomic charges:    0.0000000

LOEWDIN ATOMIC CHARGES
----------------------
   0 C :   -0.284049
   1 C :   -0.177308
   2 C :   -0.136854
   3 C :   -0.147399
   4 C :   -0.246086
   5 N :   -0.072204
   6 C :   -0.111425
   7 C :   -0.250437
   8 O :    0.074203
   9 H :    0.127848
  10 H :    0.134775
  11 H :    0.127511
  12 H :    0.147176
  13 H :    0.143928
  14 H :    0.165698
  15 H :    0.165740
  16 H :    0.151140
  17 H :    0.187745

  Mayer bond orders larger than 0.1
B(  0-C ,  1-C ) :   0.8286 B(  0-C ,  9-H ) :   0.9394 B(  0-C , 10-H ) :   0.9368
B(  0-C , 11-H ) :   0.9400 B(  1-C ,  2-C ) :   1.3030 B(  1-C ,  7-C ) :   1.2331
B(  2-C ,  3-C ) :   1.4048 B(  2-C , 12-H ) :   0.9283 B(  3-C ,  4-C ) :   1.2907
B(  3-C , 13-H ) :   0.9291 B(  4-C ,  5-N ) :   0.9864 B(  4-C ,  6-C ) :   1.2914
B(  5-N , 14-H ) :   0.8781 B(  5-N , 15-H ) :   0.8782 B(  6-C ,  7-C ) :   1.4091
B(  6-C , 16-H ) :   0.9217 B(  7-C ,  8-O ) :   1.0817 B(  8-O , 17-H ) :   0.8316

MP2 TOTAL ENERGY:     -401.324192511 Eh
FINAL SINGLE POINT ENERGY      -401.324192511470

DIPOLE MOMENT
-------------
                                X             Y             Z
Electronic contribution:      0.35300      -2.72563       2.11603
Nuclear contribution   :     -0.77832       2.84757      -2.39185
                        -----------------------------------------
Total Dipole Moment    :     -0.42533       0.12195      -0.27581
                        -----------------------------------------
Magnitude (a.u.)       :      0.52139
Magnitude (Debye)      :      1.32527

                             ****ORCA TERMINATED NORMALLY****
TOTAL RUN TIME: 0 days 0 hours 17 minutes 2 seconds 456 msec
