                         Program Version 3.0.3 - RELEASE   -
|  1> ! RI-MP2 RIJK def2-TZVP def2-TZVP/C def2-TZVP/JK TIGHTSCF
|  2> % maxcore 2000
|  3> % mp2 density relaxed end
|  4> *xyz 0 1
|  5>  C        0.0362986377     1.5406200625     0.0934339892
|  6>  C       -0.0129636634     0.0099747659     0.0618057564
|  7>  C       -1.4291994805    -0.5442214130    -0.0299241194
|  8>  C       -2.3672751634    -0.3515568398     1.2022229795
|  9>  C       -2.6575376013    -1.8854782282     1.2187765266
| 10>  C       -1.6654935935    -2.0886968862     0.0520606531
| 11>  O       -2.2883417768    -2.4330486065    -1.2053260694
| 12>  C       -2.4807797530    -1.2432588370    -1.8324303360
| 13>  N       -2.0771724082    -0.1647328943    -1.3024214783
| 14>  H        1.0695596066     1.8971928471     0.1416735251
| 15>  H       -0.4331447936     1.9574728673    -0.8009124646
| 16>  H       -0.4933999825     1.9378895479     0.9660213771
| 17>  H        0.5614217356    -0.3628296448    -0.7956792435
| 18>  H        0.4645174578    -0.4002953259     0.9614680874
| 19>  H       -1.8478543012     0.0094786314     2.0938770473
| 20>  H       -3.2269798662     0.2928968178     1.0113073273
| 21>  H       -2.3820634722    -2.3996574987     2.1423538183
| 22>  H       -3.6793436470    -2.1677330109     0.9566573241
| 23>  H       -0.8243212771    -2.7655485815     0.2111280536
| 24>  H       -2.9862103176    -1.3229427531    -2.7890246338
| 25> *
| 26>
| 27>                          ****END OF INPUT****

CARTESIAN COORDINATES (ANGSTROEM)
---------------------------------
  C      0.036299    1.540620    0.093434
  C     -0.012964    0.009975    0.061806
  C     -1.429199   -0.544221   -0.029924
  C     -2.367275   -0.351557    1.202223
  C     -2.657538   -1.885478    1.218777
  C     -1.665494   -2.088697    0.052061
  O     -2.288342   -2.433049   -1.205326
  C     -2.480780   -1.243259   -1.832430
  N     -2.077172   -0.164733   -1.302421
  H      1.069560    1.897193    0.141674
  H     -0.433145    1.957473   -0.800912
  H     -0.493400    1.937890    0.966021
  H      0.561422   -0.362830   -0.795679
  H      0.464517   -0.400295    0.961468
  H     -1.847854    0.009479    2.093877
  H     -3.226980    0.292897    1.011307
  H     -2.382063   -2.399657    2.142354
  H     -3.679344   -2.167733    0.956657
  H     -0.824321   -2.765549    0.211128
  H     -2.986210   -1.322943   -2.789025

 Total Charge           Charge          ....    0
 Multiplicity           Mult            ....    1
 Number of Electrons    NEL             ....   68
 Basis Dimension        Dim             ....  345

ORBITAL ENERGIES
----------------

  NO   OCC          E(Eh)            E(eV)
   0   2.0000     -20.592224      -560.3429
   1   2.0000     -15.544839      -422.9966
   2   2.0000     -11.329612      -308.2944
   3   2.0000     -11.287177      -307.1397
   4   2.0000     -11.264585      -306.5249
   5   2.0000     -11.229556      -305.5718
   6   2.0000     -11.225165      -305.4523
   7   2.0000     -11.222919      -305.3911
   8   2.0000     -11.208828      -305.0077
   9   2.0000      -1.434599       -39.0374
  10   2.0000      -1.217224       -33.1224
  11   2.0000      -1.118962       -30.4485
  12   2.0000      -1.030468       -28.0405
  13   2.0000      -0.927570       -25.2405
  14   2.0000      -0.901556       -24.5326
  15   2.0000      -0.841268       -22.8921
  16   2.0000      -0.785905       -21.3856
  17   2.0000      -0.760632       -20.6979
  18   2.0000      -0.700542       -19.0627
  19   2.0000      -0.668291       -18.1851
  20   2.0000      -0.628124       -17.0921
  21   2.0000      -0.605644       -16.4804
  22   2.0000      -0.591172       -16.0866
  23   2.0000      -0.588711       -16.0196
  24   2.0000      -0.549811       -14.9611
  25   2.0000      -0.540021       -14.6947
  26   2.0000      -0.514326       -13.9955
  27   2.0000      -0.506713       -13.7884
  28   2.0000      -0.493678       -13.4337
  29   2.0000      -0.472175       -12.8485
  30   2.0000      -0.464173       -12.6308
  31   2.0000      -0.455593       -12.3973
  32   2.0000      -0.409959       -11.1555
  33   2.0000      -0.372219       -10.1286
  34   0.0000       0.135191         3.6787
  35   0.0000       0.158206         4.3050
  36   0.0000       0.163485         4.4487
  37   0.0000       0.165388         4.5004
  38   0.0000       0.179494         4.8843

MULLIKEN ATOMIC CHARGES
-----------------------
   0 C :   -0.401332
   1 C :   -0.219891
   2 C :    0.261803
   3 C :   -0.284663
   4 C :   -0.234071
   5 C :    0.010328
   6 O :   -0.272345
   7 C :    0.083943
   8 N :   -0.311337
   9 H :    0.131879
  10 H :    0.149735
  11 H :    0.120652
  12 H :    0.111259
  13 H :    0.104137
  14 H :    0.119345
  15 H :    0.124742
  16 H :    0.119300
  17 H :    0.126299
  18 H :    0.116006
  19 H :    0.144212
Sum of atomic charges:    0.0000000

LOEWDIN ATOMIC CHARGES
----------------------
   0 C :   -0.311073
   1 C :   -0.254487
   2 C :   -0.273675
   3 C :   -0.192231
   4 C :   -0.216300
   5 C :   -0.209852
   6 O :    0.229341
   7 C :   -0.339622
   8 N :    0.109025
   9 H :    0.120356
  10 H :    0.128296
  11 H :    0.120767
  12 H :    0.142748
  13 H :    0.139640
  14 H :    0.133319
  15 H :    0.134939
  16 H :    0.132058
  17 H :    0.138095
  18 H :    0.135487
  19 H :    0.133171

  Mayer bond orders larger than 0.1
B(  0-C ,  1-C ) :   0.9304 B(  0-C ,  9-H ) :   0.9381 B(  0-C , 10-H ) :   0.9359
B(  0-C , 11-H ) :   0.9357 B(  1-C ,  2-C ) :   0.9136 B(  1-C , 12-H ) :   0.9277
B(  1-C , 13-H ) :   0.9250 B(  2-C ,  3-C ) :   0.9071 B(  2-C ,  5-C ) :   0.8911
B(  2-C ,  8-N ) :   0.8883 B(  3-C ,  4-C ) :   0.9595 B(  3-C , 14-H ) :   0.9122
B(  3-C , 15-H ) :   0.9122 B(  4-C ,  5-C ) :   0.9224 B(  4-C , 16-H ) :   0.9193
B(  4-C , 17-H ) :   0.9091 B(  5-C ,  6-O ) :   0.8730 B(  5-C , 18-H ) :   0.9256
B(  6-O ,  7-C ) :   1.0636 B(  7-C ,  8-N ) :   1.8206 B(  7-C , 19-H ) :   0.9230

MP2 TOTAL ENERGY:     -402.467890802 Eh
FINAL SINGLE POINT ENERGY      -402.467890802410

DIPOLE MOMENT
-------------
                                X             Y             Z
Electronic contribution:     -3.93432      -5.35753      -5.31725
Nuclear contribution   :      4.09849       5.05471       5.81924
                        -----------------------------------------
Total Dipole Moment    :      0.16417      -0.30282       0.50199
                        -----------------------------------------
Magnitude (a.u.)       :      0.60880
Magnitude (Debye)      :      1.54746

                             ****ORCA TERMINATED NORMALLY****
TOTAL RUN TIME: 0 days 0 hours 20 minutes 38 seconds 493 msec
