                         Program Version 3.0.3 - RELEASE   -
|  1> ! RI-MP2 RIJK def2-TZVP def2-TZVP/C def2-TZVP/JK TIGHTSCF
|  2> % maxcore 2000
|  3> % mp2 density relaxed end
|  4> *xyz 0 1
|  5>  C       -0.0959777538     1.5425601806     0.2064423078
|  6>  C        0.0272177964     0.0225630257     0.0367612180
|  7>  C        0.8678623753    -0.5881081645     1.1653454017
|  8>  C       -1.3429620003    -0.6781645961    -0.0585704406
|  9>  C       -2.1769131565    -0.2439314830    -1.2511645850
| 10>  C       -3.5953861486    -0.6731020652    -1.4149145286
| 11>  N       -3.2732834802     0.7345531532    -1.2135124120
| 12>  C       -3.6957625454     1.3303788058     0.0438410217
| 13>  H        0.8919230949     2.0147887364     0.2233209238
| 14>  H       -0.6698023137     1.9948639970    -0.6077263368
| 15>  H       -0.5962667119     1.7920518440     1.1499090701
| 16>  H        0.5517768431    -0.1653656197    -0.9118423040
| 17>  H        0.3908505849    -0.4275340379     2.1399181845
| 18>  H        0.9951137913    -1.6677752084     1.0320991536
| 19>  H        1.8638943980    -0.1352390588     1.2074208415
| 20>  H       -1.1705491304    -1.7596524902    -0.1428520346
| 21>  H       -1.8963238463    -0.5370998266     0.8777351258
| 22>  H       -1.5888547754    -0.1503440318    -2.1653141015
| 23>  H       -3.9927601204    -0.9475575555    -2.3893057388
| 24>  H       -4.0425505505    -1.2109231469    -0.5779430149
| 25>  H       -3.6951267307     0.6435736575     0.9055531860
| 26>  H       -3.0527286055     2.1823753870     0.2838820448
| 27>  H       -4.7183068444     1.7023511672    -0.0796751828
| 28> *
| 29>
| 30>                          ****END OF INPUT****

CARTESIAN COORDINATES (ANGSTROEM)
---------------------------------
  C     -0.095978    1.542560    0.206442
  C      0.027218    0.022563    0.036761
  C      0.867862   -0.588108    1.165345
  C     -1.342962   -0.678165   -0.058570
  C     -2.176913   -0.243931   -1.251165
  C     -3.595386   -0.673102   -1.414915
  N     -3.273283    0.734553   -1.213512
  C     -3.695763    1.330379    0.043841
  H      0.891923    2.014789    0.223321
  H     -0.669802    1.994864   -0.607726
  H     -0.596267    1.792052    1.149909
  H      0.551777   -0.165366   -0.911842
  H      0.390851   -0.427534    2.139918
  H      0.995114   -1.667775    1.032099
  H      1.863894   -0.135239    1.207421
  H     -1.170549   -1.759652   -0.142852
  H     -1.896324   -0.537100    0.877735
  H     -1.588855   -0.150344   -2.165314
  H     -3.992760   -0.947558   -2.389306
  H     -4.042551   -1.210923   -0.577943
  H     -3.695127    0.643574    0.905553
  H     -3.052729    2.182375    0.283882
  H     -4.718307    1.702351   -0.079675

 Total Charge           Charge          ....    0
 Multiplicity           Mult            ....    1
 Number of Electrons    NEL             ....   64
 Basis Dimension        Dim             ....  338

ORBITAL ENERGIES
----------------

  NO   OCC          E(Eh)            E(eV)
   0   2.0000     -15.551257      -423.1712
   1   2.0000     -11.253072      -306.2117
   2   2.0000     -11.244281      -305.9724
   3   2.0000     -11.241091      -305.8856
   4   2.0000     -11.227553      -305.5173
   5   2.0000     -11.222711      -305.3855
   6   2.0000     -11.212230      -305.1003
   7   2.0000     -11.209387      -305.0229
   8   2.0000      -1.263720       -34.3876
   9   2.0000      -1.086259       -29.5586
  10   2.0000      -0.996956       -27.1285
  11   2.0000      -0.945690       -25.7335
  12   2.0000      -0.927723       -25.2446
  13   2.0000      -0.825845       -22.4724
  14   2.0000      -0.794669       -21.6240
  15   2.0000      -0.758425       -20.6378
  16   2.0000      -0.662468       -18.0267
  17   2.0000      -0.645586       -17.5673
  18   2.0000      -0.619979       -16.8705
  19   2.0000      -0.595304       -16.1991
  20   2.0000      -0.584156       -15.8957
  21   2.0000      -0.567992       -15.4558
  22   2.0000      -0.549953       -14.9650
  23   2.0000      -0.533606       -14.5202
  24   2.0000      -0.524691       -14.2776
  25   2.0000      -0.504843       -13.7375
  26   2.0000      -0.487618       -13.2688
  27   2.0000      -0.468040       -12.7360
  28   2.0000      -0.460699       -12.5362
  29   2.0000      -0.437838       -11.9142
  30   2.0000      -0.433613       -11.7992
  31   2.0000      -0.359694        -9.7878
  32   0.0000       0.136342         3.7100
  33   0.0000       0.155433         4.2295
  34   0.0000       0.167699         4.5633
  35   0.0000       0.172012         4.6807
  36   0.0000       0.192852         5.2478

MULLIKEN ATOMIC CHARGES
-----------------------
   0 C :   -0.426796
   1 C :   -0.025928
   2 C :   -0.395403
   3 C :   -0.246374
   4 C :   -0.045928
   5 C :   -0.176163
   6 N :   -0.226238
   7 C :   -0.301360
   8 H :    0.133363
   9 H :    0.153438
  10 H :    0.117939
  11 H :    0.086186
  12 H :    0.121523
  13 H :    0.127917
  14 H :    0.131853
  15 H :    0.123353
  16 H :    0.112278
  17 H :    0.115378
  18 H :    0.123889
  19 H :    0.110481
  20 H :    0.107376
  21 H :    0.135318
  22 H :    0.143897
Sum of atomic charges:    0.0000000

LOEWDIN ATOMIC CHARGES
----------------------
   0 C :   -0.295325
   1 C :   -0.308358
   2 C :   -0.297073
   3 C :   -0.237795
   4 C :   -0.258412
   5 C :   -0.252142
   6 N :    0.081583
   7 C :   -0.338252
   8 H :    0.123034
   9 H :    0.127298
  10 H :    0.121968
  11 H :    0.149978
  12 H :    0.122482
  13 H :    0.121636
  14 H :    0.122788
  15 H :    0.147407
  16 H :    0.141739
  17 H :    0.144670
  18 H :    0.122149
  19 H :    0.123310
  20 H :    0.101921
  21 H :    0.115975
  22 H :    0.119419

  Mayer bond orders larger than 0.1
B(  0-C ,  1-C ) :   0.9207 B(  0-C ,  8-H ) :   0.9376 B(  0-C ,  9-H ) :   0.9358
B(  0-C , 10-H ) :   0.9298 B(  1-C ,  2-C ) :   0.9134 B(  1-C ,  3-C ) :   0.9270
B(  1-C , 11-H ) :   0.9293 B(  2-C , 12-H ) :   0.9335 B(  2-C , 13-H ) :   0.9394
B(  2-C , 14-H ) :   0.9422 B(  3-C ,  4-C ) :   0.9127 B(  3-C , 15-H ) :   0.9294
B(  3-C , 16-H ) :   0.9253 B(  4-C ,  5-C ) :   0.9211 B(  4-C ,  6-N ) :   0.9082
B(  4-C , 17-H ) :   0.9254 B(  5-C ,  6-N ) :   0.9071 B(  5-C , 18-H ) :   0.9185
B(  5-C , 19-H ) :   0.9216 B(  6-N ,  7-C ) :   0.8888 B(  7-C , 20-H ) :   0.9303
B(  7-C , 21-H ) :   0.9364 B(  7-C , 22-H ) :   0.9362

MP2 TOTAL ENERGY:     -329.708175214 Eh
FINAL SINGLE POINT ENERGY      -329.708175214492

DIPOLE MOMENT
-------------
                                X             Y             Z
Electronic contribution:     -3.65662      -0.69600      -4.40486
Nuclear contribution   :      3.78904       0.36619       4.77580
                        -----------------------------------------
Total Dipole Moment    :      0.13243      -0.32981       0.37094
                        -----------------------------------------
Magnitude (a.u.)       :      0.51372
Magnitude (Debye)      :      1.30577

                             ****ORCA TERMINATED NORMALLY****
TOTAL RUN TIME: 0 days 0 hours 15 minutes 6 seconds 471 msec
