                         Program Version 3.0.3 - RELEASE   -
|  1> ! RI-MP2 RIJK def2-TZVP def2-TZVP/C def2-TZVP/JK TIGHTSCF
|  2> % maxcore 2000
|  3> % mp2 density relaxed end
|  4> *xyz 0 1
|  5>  C        0.0572342570     1.4943094061     0.0111079002
|  6>  C        0.0168501183     0.0072483034     0.0011549147
|  7>  C        0.0165498249    -0.8967351936    -0.9795351760
|  8>  C       -0.0090599435    -2.2411672429    -0.2517931616
|  9>  C       -1.0496198131    -3.2114236004    -0.8724521405
| 10>  O       -2.0928034911    -2.4201992849    -0.1694567744
| 11>  C       -1.0307091253    -2.0596898688     0.7982764287
| 12>  C       -0.0210037212    -0.8928733994     1.2286335121
| 13>  N        1.0866331156    -1.9253822292     0.8456227928
| 14>  H        0.9507356653     1.8666185849     0.5279552153
| 15>  H        0.0608631133     1.8962914736    -1.0055852621
| 16>  H       -0.8091083934     1.9137610322     0.5379319434
| 17>  H        0.0488714073    -0.7702462646    -2.0525623299
| 18>  H       -1.1881059363    -3.1806517430    -1.9565959946
| 19>  H       -1.0298613088    -4.2428193527    -0.5034429787
| 20>  H       -1.0571997486    -2.8176445596     1.5917782919
| 21>  H        0.0343291351    -0.4691095606     2.2328962346
| 22>  H        1.0619411046    -2.6734954606     1.5482000841
| 23> *
| 24>
| 25>                          ****END OF INPUT****

CARTESIAN COORDINATES (ANGSTROEM)
---------------------------------
  C      0.057234    1.494309    0.011108
  C      0.016850    0.007248    0.001155
  C      0.016550   -0.896735   -0.979535
  C     -0.009060   -2.241167   -0.251793
  C     -1.049620   -3.211424   -0.872452
  O     -2.092803   -2.420199   -0.169457
  C     -1.030709   -2.059690    0.798276
  C     -0.021004   -0.892873    1.228634
  N      1.086633   -1.925382    0.845623
  H      0.950736    1.866619    0.527955
  H      0.060863    1.896291   -1.005585
  H     -0.809108    1.913761    0.537932
  H      0.048871   -0.770246   -2.052562
  H     -1.188106   -3.180652   -1.956596
  H     -1.029861   -4.242819   -0.503443
  H     -1.057200   -2.817645    1.591778
  H      0.034329   -0.469110    2.232896
  H      1.061941   -2.673495    1.548200

 Total Charge           Charge          ....    0
 Multiplicity           Mult            ....    1
 Number of Electrons    NEL             ....   66
 Basis Dimension        Dim             ....  333

ORBITAL ENERGIES
----------------

  NO   OCC          E(Eh)            E(eV)
   0   2.0000     -20.560546      -559.4809
   1   2.0000     -15.575891      -423.8415
   2   2.0000     -11.302786      -307.5644
   3   2.0000     -11.291427      -307.2554
   4   2.0000     -11.287511      -307.1488
   5   2.0000     -11.270036      -306.6733
   6   2.0000     -11.236952      -305.7730
   7   2.0000     -11.229143      -305.5605
   8   2.0000     -11.219828      -305.3071
   9   2.0000      -1.377422       -37.4816
  10   2.0000      -1.249520       -34.0012
  11   2.0000      -1.071205       -29.1490
  12   2.0000      -0.996490       -27.1159
  13   2.0000      -0.950086       -25.8532
  14   2.0000      -0.927314       -25.2335
  15   2.0000      -0.873112       -23.7586
  16   2.0000      -0.761277       -20.7154
  17   2.0000      -0.724403       -19.7120
  18   2.0000      -0.682391       -18.5688
  19   2.0000      -0.648864       -17.6565
  20   2.0000      -0.615920       -16.7600
  21   2.0000      -0.594303       -16.1718
  22   2.0000      -0.583021       -15.8648
  23   2.0000      -0.573597       -15.6084
  24   2.0000      -0.560288       -15.2462
  25   2.0000      -0.558635       -15.2012
  26   2.0000      -0.501803       -13.6547
  27   2.0000      -0.484997       -13.1974
  28   2.0000      -0.473441       -12.8830
  29   2.0000      -0.453992       -12.3538
  30   2.0000      -0.410471       -11.1695
  31   2.0000      -0.376113       -10.2346
  32   2.0000      -0.335285        -9.1236
  33   0.0000       0.132684         3.6105
  34   0.0000       0.135404         3.6845
  35   0.0000       0.146075         3.9749
  36   0.0000       0.161296         4.3891
  37   0.0000       0.178356         4.8533

MULLIKEN ATOMIC CHARGES
-----------------------
   0 C :   -0.467525
   1 C :   -0.039245
   2 C :   -0.203796
   3 C :    0.137221
   4 C :   -0.038988
   5 O :   -0.312297
   6 C :   -0.030716
   7 C :    0.014719
   8 N :   -0.305177
   9 H :    0.149280
  10 H :    0.144334
  11 H :    0.145175
  12 H :    0.131942
  13 H :    0.123381
  14 H :    0.111580
  15 H :    0.104504
  16 H :    0.136741
  17 H :    0.198867
Sum of atomic charges:   -0.0000000

LOEWDIN ATOMIC CHARGES
----------------------
   0 C :   -0.273340
   1 C :   -0.158796
   2 C :   -0.089073
   3 C :   -0.234493
   4 C :   -0.213611
   5 O :    0.106623
   6 C :   -0.219126
   7 C :   -0.162829
   8 N :    0.027312
   9 H :    0.134893
  10 H :    0.134167
  11 H :    0.133851
  12 H :    0.138528
  13 H :    0.125185
  14 H :    0.123403
  15 H :    0.139532
  16 H :    0.131738
  17 H :    0.156036

  Mayer bond orders larger than 0.1
B(  0-C ,  1-C ) :   0.8512 B(  0-C ,  9-H ) :   0.9387 B(  0-C , 10-H ) :   0.9547
B(  0-C , 11-H ) :   0.9329 B(  1-C ,  2-C ) :   1.7343 B(  1-C ,  7-C ) :   0.9105
B(  2-C ,  3-C ) :   0.9061 B(  2-C , 12-H ) :   0.9094 B(  3-C ,  4-C ) :   0.8781
B(  3-C ,  6-C ) :   0.9764 B(  3-C ,  8-N ) :   0.9998 B(  4-C ,  5-O ) :   0.9024
B(  4-C , 13-H ) :   0.9057 B(  4-C , 14-H ) :   0.9205 B(  5-O ,  6-C ) :   0.9583
B(  6-C ,  7-C ) :   0.8218 B(  6-C , 15-H ) :   0.9628 B(  7-C ,  8-N ) :   0.9164
B(  7-C , 16-H ) :   0.9059 B(  8-N , 17-H ) :   0.8680

MP2 TOTAL ENERGY:     -401.099623212 Eh
FINAL SINGLE POINT ENERGY      -401.099623212256

DIPOLE MOMENT
-------------
                                X             Y             Z
Electronic contribution:     -1.07562      -3.62279       0.02996
Nuclear contribution   :      1.22251       3.54109       0.22767
                        -----------------------------------------
Total Dipole Moment    :      0.14689      -0.08170       0.25762
                        -----------------------------------------
Magnitude (a.u.)       :      0.30760
Magnitude (Debye)      :      0.78187

                             ****ORCA TERMINATED NORMALLY****
TOTAL RUN TIME: 0 days 0 hours 19 minutes 47 seconds 735 msec
