                         Program Version 3.0.3 - RELEASE   -
|  1> ! RI-MP2 RIJK def2-TZVP def2-TZVP/C def2-TZVP/JK TIGHTSCF
|  2> % maxcore 2000
|  3> % mp2 density relaxed end
|  4> *xyz 0 1
|  5>  O       -0.0479079862     1.2678994264    -0.4928569385
|  6>  C        0.0022832554    -0.0066189674     0.1407112656
|  7>  C       -1.3850693313    -0.5903009194     0.1237913921
|  8>  C       -1.9016744256    -1.2517008506    -1.1395711885
|  9>  C       -1.5869502390    -2.0777183667     0.0804538081
| 10>  O       -0.4396404890    -2.8814629281     0.1012006014
| 11>  H        0.8286222306     1.6593304080    -0.4331829472
| 12>  H        0.6927721104    -0.6882423735    -0.3734783695
| 13>  H        0.3495604619     0.0861946430     1.1821660616
| 14>  H       -2.1092500994    -0.0275635379     0.7055773276
| 15>  H       -2.9368524981    -1.1059544684    -1.4276916767
| 16>  H       -1.2021766115    -1.3183296993    -1.9665550110
| 17>  H       -2.4255521128    -2.4786321486     0.6498921235
| 18>  H       -0.5852161655    -3.6167486376    -0.5027687586
| 19> *
| 20>
| 21>                          ****END OF INPUT****

CARTESIAN COORDINATES (ANGSTROEM)
---------------------------------
  O     -0.047908    1.267899   -0.492857
  C      0.002283   -0.006619    0.140711
  C     -1.385069   -0.590301    0.123791
  C     -1.901674   -1.251701   -1.139571
  C     -1.586950   -2.077718    0.080454
  O     -0.439640   -2.881463    0.101201
  H      0.828622    1.659330   -0.433183
  H      0.692772   -0.688242   -0.373478
  H      0.349560    0.086195    1.182166
  H     -2.109250   -0.027564    0.705577
  H     -2.936852   -1.105954   -1.427692
  H     -1.202177   -1.318330   -1.966555
  H     -2.425552   -2.478632    0.649892
  H     -0.585216   -3.616749   -0.502769

 Total Charge           Charge          ....    0
 Multiplicity           Mult            ....    1
 Number of Electrons    NEL             ....   48
 Basis Dimension        Dim             ....  234

ORBITAL ENERGIES
----------------

  NO   OCC          E(Eh)            E(eV)
   0   2.0000     -20.564118      -559.5781
   1   2.0000     -20.549086      -559.1691
   2   2.0000     -11.283478      -307.0390
   3   2.0000     -11.271014      -306.6999
   4   2.0000     -11.227569      -305.5177
   5   2.0000     -11.222992      -305.3931
   6   2.0000      -1.373147       -37.3652
   7   2.0000      -1.351969       -36.7889
   8   2.0000      -1.132040       -30.8044
   9   2.0000      -0.941301       -25.6141
  10   2.0000      -0.826625       -22.4936
  11   2.0000      -0.774699       -21.0806
  12   2.0000      -0.708287       -19.2735
  13   2.0000      -0.690469       -18.7886
  14   2.0000      -0.661122       -17.9900
  15   2.0000      -0.615016       -16.7354
  16   2.0000      -0.601939       -16.3796
  17   2.0000      -0.558348       -15.1934
  18   2.0000      -0.540935       -14.7196
  19   2.0000      -0.509810       -13.8726
  20   2.0000      -0.479536       -13.0488
  21   2.0000      -0.447782       -12.1848
  22   2.0000      -0.412577       -11.2268
  23   2.0000      -0.397186       -10.8080
  24   0.0000       0.138576         3.7708
  25   0.0000       0.148198         4.0327
  26   0.0000       0.163542         4.4502
  27   0.0000       0.185048         5.0354
  28   0.0000       0.202213         5.5025

MULLIKEN ATOMIC CHARGES
-----------------------
   0 O :   -0.463593
   1 C :   -0.101547
   2 C :   -0.018325
   3 C :   -0.298971
   4 C :    0.004661
   5 O :   -0.474686
   6 H :    0.313159
   7 H :    0.116247
   8 H :    0.099738
   9 H :    0.125386
  10 H :    0.128897
  11 H :    0.136299
  12 H :    0.107720
  13 H :    0.325014
Sum of atomic charges:    0.0000000

LOEWDIN ATOMIC CHARGES
----------------------
   0 O :   -0.053592
   1 C :   -0.328522
   2 C :   -0.214755
   3 C :   -0.216569
   4 C :   -0.320700
   5 O :   -0.010140
   6 H :    0.170173
   7 H :    0.123024
   8 H :    0.120101
   9 H :    0.149826
  10 H :    0.131349
  11 H :    0.139441
  12 H :    0.129709
  13 H :    0.180656

  Mayer bond orders larger than 0.1
B(  0-O ,  1-C ) :   1.0189 B(  0-O ,  6-H ) :   0.8498 B(  1-C ,  2-C ) :   0.9464
B(  1-C ,  7-H ) :   0.9169 B(  1-C ,  8-H ) :   0.9348 B(  2-C ,  3-C ) :   0.8699
B(  2-C ,  4-C ) :   0.8573 B(  2-C ,  9-H ) :   0.9209 B(  3-C ,  4-C ) :   0.9095
B(  3-C , 10-H ) :   0.9203 B(  3-C , 11-H ) :   0.9246 B(  4-C ,  5-O ) :   0.9993
B(  4-C , 12-H ) :   0.9470 B(  5-O , 13-H ) :   0.8410

MP2 TOTAL ENERGY:     -307.052203905 Eh
FINAL SINGLE POINT ENERGY      -307.052203904926

DIPOLE MOMENT
-------------
                                X             Y             Z
Electronic contribution:      0.69289      -0.24159       0.38439
Nuclear contribution   :     -0.63062      -0.16415      -0.49908
                        -----------------------------------------
Total Dipole Moment    :      0.06227      -0.40574      -0.11469
                        -----------------------------------------
Magnitude (a.u.)       :      0.42621
Magnitude (Debye)      :      1.08333

                             ****ORCA TERMINATED NORMALLY****
TOTAL RUN TIME: 0 days 0 hours 4 minutes 30 seconds 699 msec
