                         Program Version 3.0.3 - RELEASE   -
|  1> ! RI-MP2 RIJK def2-TZVP def2-TZVP/C def2-TZVP/JK TIGHTSCF
|  2> % maxcore 2000
|  3> % mp2 density relaxed end
|  4> *xyz 0 1
|  5>  C        0.2268415023     1.4550929506     0.0504747184
|  6>  N       -0.2893632057     0.1229792464    -0.2577684443
|  7>  C        0.4192039431    -0.6737151349    -1.1272852407
|  8>  C        0.6809402755    -2.0111694588    -1.1568963629
|  9>  N        0.3139655797    -2.9370289708    -0.1547376054
| 10>  N        1.3618334659    -2.3023977698    -2.3412546063
| 11>  C        1.4837947858    -1.1673691390    -2.9350975981
| 12>  O        0.9246883144    -0.1138897296    -2.2609457182
| 13>  H        1.2137034204     1.4425586757     0.5372634290
| 14>  H        0.3074466172     2.0335270076    -0.8721896791
| 15>  H       -0.4834176260     1.9615175738     0.7078070994
| 16>  H       -0.5338892974    -0.4201096051     0.5612348379
| 17>  H       -0.3816389260    -3.5940994696    -0.4985546573
| 18>  H        1.1153053951    -3.4932252826     0.1298688667
| 19>  H        1.9702587059    -0.9307018741    -3.8671992092
| 20> *
| 21>
| 22>                          ****END OF INPUT****

CARTESIAN COORDINATES (ANGSTROEM)
---------------------------------
  C      0.226842    1.455093    0.050475
  N     -0.289363    0.122979   -0.257768
  C      0.419204   -0.673715   -1.127285
  C      0.680940   -2.011169   -1.156896
  N      0.313966   -2.937029   -0.154738
  N      1.361833   -2.302398   -2.341255
  C      1.483795   -1.167369   -2.935098
  O      0.924688   -0.113890   -2.260946
  H      1.213703    1.442559    0.537263
  H      0.307447    2.033527   -0.872190
  H     -0.483418    1.961518    0.707807
  H     -0.533889   -0.420110    0.561235
  H     -0.381639   -3.594099   -0.498555
  H      1.115305   -3.493225    0.129869
  H      1.970259   -0.930702   -3.867199

 Total Charge           Charge          ....    0
 Multiplicity           Mult            ....    1
 Number of Electrons    NEL             ....   60
 Basis Dimension        Dim             ....  290

ORBITAL ENERGIES
----------------

  NO   OCC          E(Eh)            E(eV)
   0   2.0000     -20.630911      -561.3956
   1   2.0000     -15.573444      -423.7750
   2   2.0000     -15.561497      -423.4499
   3   2.0000     -15.556389      -423.3109
   4   2.0000     -11.321397      -308.0709
   5   2.0000     -11.320794      -308.0545
   6   2.0000     -11.265093      -306.5388
   7   2.0000     -11.260374      -306.4104
   8   2.0000      -1.482200       -40.3327
   9   2.0000      -1.243878       -33.8476
  10   2.0000      -1.238719       -33.7073
  11   2.0000      -1.166153       -31.7326
  12   2.0000      -1.001100       -27.2413
  13   2.0000      -0.920668       -25.0527
  14   2.0000      -0.838627       -22.8202
  15   2.0000      -0.787315       -21.4239
  16   2.0000      -0.733395       -19.9567
  17   2.0000      -0.679584       -18.4924
  18   2.0000      -0.659722       -17.9520
  19   2.0000      -0.643768       -17.5178
  20   2.0000      -0.637140       -17.3375
  21   2.0000      -0.615767       -16.7559
  22   2.0000      -0.595882       -16.2148
  23   2.0000      -0.570710       -15.5298
  24   2.0000      -0.544083       -14.8052
  25   2.0000      -0.465533       -12.6678
  26   2.0000      -0.449717       -12.2374
  27   2.0000      -0.442889       -12.0516
  28   2.0000      -0.425404       -11.5758
  29   2.0000      -0.290895        -7.9156
  30   0.0000       0.133365         3.6290
  31   0.0000       0.146628         3.9899
  32   0.0000       0.161141         4.3849
  33   0.0000       0.180359         4.9078
  34   0.0000       0.188643         5.1332

MULLIKEN ATOMIC CHARGES
-----------------------
   0 C :   -0.278688
   1 N :   -0.334198
   2 C :    0.215665
   3 C :    0.028560
   4 N :   -0.554245
   5 N :   -0.249386
   6 C :    0.087499
   7 O :   -0.229423
   8 H :    0.123058
   9 H :    0.149780
  10 H :    0.141451
  11 H :    0.246209
  12 H :    0.248922
  13 H :    0.249581
  14 H :    0.155215
Sum of atomic charges:   -0.0000000

LOEWDIN ATOMIC CHARGES
----------------------
   0 C :   -0.322576
   1 N :    0.037982
   2 C :   -0.330382
   3 C :   -0.372116
   4 N :   -0.123219
   5 N :    0.103350
   6 C :   -0.333089
   7 O :    0.336605
   8 H :    0.106415
   9 H :    0.122107
  10 H :    0.118591
  11 H :    0.194284
  12 H :    0.165937
  13 H :    0.166701
  14 H :    0.129410

  Mayer bond orders larger than 0.1
B(  0-C ,  1-N ) :   0.8920 B(  0-C ,  8-H ) :   0.9273 B(  0-C ,  9-H ) :   0.9370
B(  0-C , 10-H ) :   0.9371 B(  1-N ,  2-C ) :   1.1403 B(  1-N , 11-H ) :   0.8660
B(  2-C ,  3-C ) :   1.5378 B(  2-C ,  7-O ) :   1.0416 B(  3-C ,  4-N ) :   1.1216
B(  3-C ,  5-N ) :   1.1849 B(  4-N , 12-H ) :   0.8870 B(  4-N , 13-H ) :   0.8845
B(  5-N ,  6-C ) :   1.6669 B(  6-C ,  7-O ) :   1.0341 B(  6-C , 14-H ) :   0.9280

MP2 TOTAL ENERGY:     -395.346727883 Eh
FINAL SINGLE POINT ENERGY      -395.346727882699

DIPOLE MOMENT
-------------
                                X             Y             Z
Electronic contribution:      1.10301      -2.91561      -4.51161
Nuclear contribution   :     -1.12294       3.29779       5.02934
                        -----------------------------------------
Total Dipole Moment    :     -0.01992       0.38219       0.51774
                        -----------------------------------------
Magnitude (a.u.)       :      0.64383
Magnitude (Debye)      :      1.63648

                             ****ORCA TERMINATED NORMALLY****
TOTAL RUN TIME: 0 days 0 hours 9 minutes 47 seconds 401 msec
