                         Program Version 3.0.3 - RELEASE   -
|  1> ! RI-MP2 RIJK def2-TZVP def2-TZVP/C def2-TZVP/JK TIGHTSCF
|  2> % maxcore 2000
|  3> % mp2 density relaxed end
|  4> *xyz 0 1
|  5>  N       -0.0066668198    -1.1574360965     0.0482663020
|  6>  C       -0.0019105525    -0.0045329546    -0.0271060019
|  7>  C        0.0502749870     1.4541835909    -0.1210308889
|  8>  C        1.4679572815     1.9705033329    -0.0821354357
|  9>  N        2.4985001077     1.7207610377    -1.1365365232
| 10>  C        3.2255178304     2.5727319371    -0.1369743728
| 11>  C        1.9610135606     3.4359868461     0.1370339426
| 12>  O        2.0340416737     3.3225343271     1.5847654794
| 13>  C        2.4780944079     2.0155136711     1.1194520883
| 14>  H       -0.4379461379     1.7717372086    -1.0490631873
| 15>  H       -0.5049925670     1.8919279753     0.7167360080
| 16>  H        2.8288227447     0.7535485027    -1.0895034189
| 17>  H        4.2617671663     2.8884964186    -0.2460825004
| 18>  H        1.6256627948     4.3686131170    -0.3135340859
| 19>  H        2.7576359526     1.2553585860     1.8496499648
| 20> *
| 21>
| 22>                          ****END OF INPUT****

CARTESIAN COORDINATES (ANGSTROEM)
---------------------------------
  N     -0.006667   -1.157436    0.048266
  C     -0.001911   -0.004533   -0.027106
  C      0.050275    1.454184   -0.121031
  C      1.467957    1.970503   -0.082135
  N      2.498500    1.720761   -1.136537
  C      3.225518    2.572732   -0.136974
  C      1.961014    3.435987    0.137034
  O      2.034042    3.322534    1.584765
  C      2.478094    2.015514    1.119452
  H     -0.437946    1.771737   -1.049063
  H     -0.504993    1.891928    0.716736
  H      2.828823    0.753549   -1.089503
  H      4.261767    2.888496   -0.246083
  H      1.625663    4.368613   -0.313534
  H      2.757636    1.255359    1.849650

 Total Charge           Charge          ....    0
 Multiplicity           Mult            ....    1
 Number of Electrons    NEL             ....   64
 Basis Dimension        Dim             ....  315

ORBITAL ENERGIES
----------------

  NO   OCC          E(Eh)            E(eV)
   0   2.0000     -20.574216      -559.8529
   1   2.0000     -15.580121      -423.9566
   2   2.0000     -15.578608      -423.9155
   3   2.0000     -11.323477      -308.1275
   4   2.0000     -11.322357      -308.0970
   5   2.0000     -11.314338      -307.8788
   6   2.0000     -11.299660      -307.4794
   7   2.0000     -11.299146      -307.4654
   8   2.0000     -11.284714      -307.0727
   9   2.0000      -1.435663       -39.0664
  10   2.0000      -1.272987       -34.6397
  11   2.0000      -1.228955       -33.4416
  12   2.0000      -1.077321       -29.3154
  13   2.0000      -1.010608       -27.5000
  14   2.0000      -0.919603       -25.0237
  15   2.0000      -0.884869       -24.0785
  16   2.0000      -0.742592       -20.2069
  17   2.0000      -0.733914       -19.9708
  18   2.0000      -0.697637       -18.9837
  19   2.0000      -0.689331       -18.7576
  20   2.0000      -0.665955       -18.1216
  21   2.0000      -0.625701       -17.0262
  22   2.0000      -0.614441       -16.7198
  23   2.0000      -0.566391       -15.4123
  24   2.0000      -0.544098       -14.8057
  25   2.0000      -0.523115       -14.2347
  26   2.0000      -0.492277       -13.3955
  27   2.0000      -0.475323       -12.9342
  28   2.0000      -0.470601       -12.8057
  29   2.0000      -0.456801       -12.4302
  30   2.0000      -0.423489       -11.5237
  31   2.0000      -0.408205       -11.1078
  32   0.0000       0.121868         3.3162
  33   0.0000       0.139456         3.7948
  34   0.0000       0.160101         4.3566
  35   0.0000       0.161816         4.4032
  36   0.0000       0.166798         4.5388

MULLIKEN ATOMIC CHARGES
-----------------------
   0 N :   -0.056785
   1 C :   -0.200267
   2 C :   -0.123782
   3 C :    0.040367
   4 N :   -0.346614
   5 C :   -0.066289
   6 C :    0.045047
   7 O :   -0.330174
   8 C :    0.018297
   9 H :    0.170537
  10 H :    0.181200
  11 H :    0.218585
  12 H :    0.151812
  13 H :    0.145789
  14 H :    0.152277
Sum of atomic charges:    0.0000000

LOEWDIN ATOMIC CHARGES
----------------------
   0 N :    0.062860
   1 C :   -0.185475
   2 C :   -0.207648
   3 C :   -0.224863
   4 N :    0.022333
   5 C :   -0.174604
   6 C :   -0.168364
   7 O :    0.136094
   8 C :   -0.176857
   9 H :    0.175301
  10 H :    0.180137
  11 H :    0.166616
  12 H :    0.130179
  13 H :    0.132078
  14 H :    0.132212

  Mayer bond orders larger than 0.1
B(  0-N ,  1-C ) :   2.8563 B(  1-C ,  2-C ) :   0.9293 B(  2-C ,  3-C ) :   0.8614
B(  2-C ,  9-H ) :   0.9041 B(  2-C , 10-H ) :   0.9060 B(  3-C ,  4-N ) :   0.9411
B(  3-C ,  6-C ) :   0.8745 B(  3-C ,  8-C ) :   0.8776 B(  4-N ,  5-C ) :   0.9149
B(  4-N , 11-H ) :   0.8696 B(  5-C ,  6-C ) :   0.8926 B(  5-C ,  8-C ) :   0.8625
B(  5-C , 12-H ) :   0.9008 B(  6-C ,  7-O ) :   0.9303 B(  6-C , 13-H ) :   0.8795
B(  7-O ,  8-C ) :   0.9276 B(  8-C , 14-H ) :   0.8968

MP2 TOTAL ENERGY:     -415.996243523 Eh
FINAL SINGLE POINT ENERGY      -415.996243522986

DIPOLE MOMENT
-------------
                                X             Y             Z
Electronic contribution:     -0.88290      -1.46699       0.92911
Nuclear contribution   :      1.20327       2.38763      -1.06278
                        -----------------------------------------
Total Dipole Moment    :      0.32037       0.92064      -0.13367
                        -----------------------------------------
Magnitude (a.u.)       :      0.98392
Magnitude (Debye)      :      2.50091

                             ****ORCA TERMINATED NORMALLY****
TOTAL RUN TIME: 0 days 0 hours 15 minutes 34 seconds 111 msec
