                         Program Version 3.0.3 - RELEASE   -
|  1> ! RI-MP2 RIJK def2-TZVP def2-TZVP/C def2-TZVP/JK TIGHTSCF
|  2> % maxcore 2000
|  3> % mp2 density relaxed end
|  4> *xyz 0 1
|  5>  O       -0.0940677841     1.4796075567     0.0240045479
|  6>  C        0.0130758944     0.0615881408     0.1003974000
|  7>  C       -1.3804981547    -0.4988272251     0.1032766364
|  8>  C       -2.3493547565    -0.4541640459     1.2795585773
|  9>  N       -3.1402184672    -1.5358446003     0.5710971194
| 10>  C       -3.6286635473    -0.7285052164    -0.5945974857
| 11>  C       -2.2624424764    -0.4172864404    -1.2321136434
| 12>  C       -1.8113231433    -1.8663679496    -1.5614186778
| 13>  C       -1.7767845481    -1.9996262631    -0.0398961684
| 14>  H        0.7932891994     1.8496255996     0.0512169593
| 15>  H        0.5859831286    -0.3391528399    -0.7517650071
| 16>  H        0.5380482954    -0.2471604355     1.0193190985
| 17>  H       -1.9014558576    -0.8564632368     2.1942183644
| 18>  H       -2.9119863969     0.4544625757     1.5134038030
| 19>  H       -4.2779518468    -1.3228751779    -1.2434757330
| 20>  H       -4.1891782762     0.1404693565    -0.2423379073
| 21>  H       -2.1611785754     0.4036838095    -1.9392466919
| 22>  H       -2.4822660748    -2.4980361253    -2.1510442190
| 23>  H       -0.7982855610    -1.9210707135    -1.9690728979
| 24>  H       -1.3295053813    -2.8251609890     0.5123150451
| 25> *
| 26>
| 27>                          ****END OF INPUT****

CARTESIAN COORDINATES (ANGSTROEM)
---------------------------------
  O     -0.094068    1.479608    0.024005
  C      0.013076    0.061588    0.100397
  C     -1.380498   -0.498827    0.103277
  C     -2.349355   -0.454164    1.279559
  N     -3.140218   -1.535845    0.571097
  C     -3.628664   -0.728505   -0.594597
  C     -2.262442   -0.417286   -1.232114
  C     -1.811323   -1.866368   -1.561419
  C     -1.776785   -1.999626   -0.039896
  H      0.793289    1.849626    0.051217
  H      0.585983   -0.339153   -0.751765
  H      0.538048   -0.247160    1.019319
  H     -1.901456   -0.856463    2.194218
  H     -2.911986    0.454463    1.513404
  H     -4.277952   -1.322875   -1.243476
  H     -4.189178    0.140469   -0.242338
  H     -2.161179    0.403684   -1.939247
  H     -2.482266   -2.498036   -2.151044
  H     -0.798286   -1.921071   -1.969073
  H     -1.329505   -2.825161    0.512315

 Total Charge           Charge          ....    0
 Multiplicity           Mult            ....    1
 Number of Electrons    NEL             ....   68
 Basis Dimension        Dim             ....  345

ORBITAL ENERGIES
----------------

  NO   OCC          E(Eh)            E(eV)
   0   2.0000     -20.560271      -559.4734
   1   2.0000     -15.549310      -423.1182
   2   2.0000     -11.281777      -306.9928
   3   2.0000     -11.257811      -306.3406
   4   2.0000     -11.243219      -305.9435
   5   2.0000     -11.240589      -305.8720
   6   2.0000     -11.235727      -305.7397
   7   2.0000     -11.232228      -305.6445
   8   2.0000     -11.225089      -305.4502
   9   2.0000      -1.363332       -37.0982
  10   2.0000      -1.278729       -34.7960
  11   2.0000      -1.064820       -28.9752
  12   2.0000      -1.009955       -27.4823
  13   2.0000      -0.949960       -25.8497
  14   2.0000      -0.892165       -24.2770
  15   2.0000      -0.828741       -22.5512
  16   2.0000      -0.768251       -20.9052
  17   2.0000      -0.715880       -19.4801
  18   2.0000      -0.702695       -19.1213
  19   2.0000      -0.666754       -18.1433
  20   2.0000      -0.651591       -17.7307
  21   2.0000      -0.624845       -17.0029
  22   2.0000      -0.610022       -16.5995
  23   2.0000      -0.589334       -16.0366
  24   2.0000      -0.544892       -14.8273
  25   2.0000      -0.518782       -14.1168
  26   2.0000      -0.503504       -13.7010
  27   2.0000      -0.487521       -13.2661
  28   2.0000      -0.469246       -12.7688
  29   2.0000      -0.453143       -12.3307
  30   2.0000      -0.442133       -12.0311
  31   2.0000      -0.430445       -11.7130
  32   2.0000      -0.411277       -11.1914
  33   2.0000      -0.362049        -9.8519
  34   0.0000       0.128969         3.5094
  35   0.0000       0.153000         4.1633
  36   0.0000       0.167393         4.5550
  37   0.0000       0.170697         4.6449
  38   0.0000       0.184720         5.0265

MULLIKEN ATOMIC CHARGES
-----------------------
   0 O :   -0.466044
   1 C :   -0.126947
   2 C :    0.068919
   3 C :   -0.161704
   4 N :   -0.192435
   5 C :   -0.165586
   6 C :   -0.090161
   7 C :   -0.261401
   8 C :   -0.076522
   9 H :    0.313285
  10 H :    0.100385
  11 H :    0.101969
  12 H :    0.108431
  13 H :    0.115702
  14 H :    0.114701
  15 H :    0.120107
  16 H :    0.136732
  17 H :    0.119403
  18 H :    0.119805
  19 H :    0.121362
Sum of atomic charges:   -0.0000000

LOEWDIN ATOMIC CHARGES
----------------------
   0 O :   -0.045201
   1 C :   -0.314898
   2 C :   -0.204775
   3 C :   -0.215851
   4 N :    0.095025
   5 C :   -0.247052
   6 C :   -0.166857
   7 C :   -0.211024
   8 C :   -0.158957
   9 H :    0.171859
  10 H :    0.121613
  11 H :    0.121881
  12 H :    0.134982
  13 H :    0.123966
  14 H :    0.129534
  15 H :    0.130116
  16 H :    0.136096
  17 H :    0.127221
  18 H :    0.140707
  19 H :    0.131612

  Mayer bond orders larger than 0.1
B(  0-O ,  1-C ) :   1.0830 B(  0-O ,  2-C ) :  -0.1574 B(  0-O ,  9-H ) :   0.8487
B(  1-C ,  2-C ) :   0.8978 B(  1-C , 10-H ) :   0.9215 B(  1-C , 11-H ) :   0.9201
B(  2-C ,  3-C ) :   0.9636 B(  2-C ,  6-C ) :   0.8574 B(  2-C ,  8-C ) :   0.8980
B(  3-C ,  4-N ) :   0.9328 B(  3-C , 12-H ) :   0.9107 B(  3-C , 13-H ) :   0.9201
B(  4-N ,  5-C ) :   0.9323 B(  4-N ,  8-C ) :   0.9201 B(  5-C ,  6-C ) :   0.9511
B(  5-C , 14-H ) :   0.9234 B(  5-C , 15-H ) :   0.9354 B(  6-C ,  7-C ) :   0.9188
B(  6-C , 16-H ) :   0.8945 B(  7-C ,  8-C ) :   0.9507 B(  7-C , 17-H ) :   0.9154
B(  7-C , 18-H ) :   0.9157 B(  8-C , 19-H ) :   0.9101

MP2 TOTAL ENERGY:     -402.403030967 Eh
FINAL SINGLE POINT ENERGY      -402.403030966797

DIPOLE MOMENT
-------------
                                X             Y             Z
Electronic contribution:     -0.30555       0.60040       1.02084
Nuclear contribution   :      1.32917      -0.43031      -1.32964
                        -----------------------------------------
Total Dipole Moment    :      1.02362       0.17009      -0.30880
                        -----------------------------------------
Magnitude (a.u.)       :      1.08263
Magnitude (Debye)      :      2.75182

                             ****ORCA TERMINATED NORMALLY****
TOTAL RUN TIME: 0 days 0 hours 19 minutes 17 seconds 978 msec
