                         Program Version 3.0.3 - RELEASE   -
|  1> ! RI-MP2 RIJK def2-TZVP def2-TZVP/C def2-TZVP/JK TIGHTSCF
|  2> % maxcore 2000
|  3> % mp2 density relaxed end
|  4> *xyz 0 1
|  5>  C        0.2167654599     1.4695534978     0.0596981103
|  6>  C       -0.0411940635    -0.0367755125    -0.0339475058
|  7>  C        0.6795580430    -0.6670824877    -1.2831530061
|  8>  C        1.8856671950    -1.2409980530    -0.6180592104
|  9>  C        1.7481505484    -1.2801492103     0.7413562504
| 10>  N        0.4975807146    -0.7656903173     1.1597893130
| 11>  C        2.8761313483    -1.9418303063     1.2921624126
| 12>  C        3.6695803233    -2.2918192412     0.2121050683
| 13>  N        3.0548671680    -1.8807479460    -0.9493802796
| 14>  H        1.2928536449     1.6714436843     0.0942573134
| 15>  H       -0.2047322467     1.9944714276    -0.8044512986
| 16>  H       -0.2430511193     1.8918359258     0.9603045415
| 17>  H       -1.1199927749    -0.2120138611    -0.0950877592
| 18>  H        0.0479806933    -1.4335483488    -1.7542879907
| 19>  H        0.8776543667     0.0971177600    -2.0451380447
| 20>  H        0.5540207129    -0.1538515542     1.9671233125
| 21>  H        3.0997077488    -2.1432539819     2.3282186796
| 22>  H        4.6284457251    -2.7843386680     0.1826443121
| 23>  H        3.4323072720    -1.9980609572    -1.8723333785
| 24> *
| 25>
| 26>                          ****END OF INPUT****

CARTESIAN COORDINATES (ANGSTROEM)
---------------------------------
  C      0.216765    1.469553    0.059698
  C     -0.041194   -0.036776   -0.033948
  C      0.679558   -0.667082   -1.283153
  C      1.885667   -1.240998   -0.618059
  C      1.748151   -1.280149    0.741356
  N      0.497581   -0.765690    1.159789
  C      2.876131   -1.941830    1.292162
  C      3.669580   -2.291819    0.212105
  N      3.054867   -1.880748   -0.949380
  H      1.292854    1.671444    0.094257
  H     -0.204732    1.994471   -0.804451
  H     -0.243051    1.891836    0.960305
  H     -1.119993   -0.212014   -0.095088
  H      0.047981   -1.433548   -1.754288
  H      0.877654    0.097118   -2.045138
  H      0.554021   -0.153852    1.967123
  H      3.099708   -2.143254    2.328219
  H      4.628446   -2.784339    0.182644
  H      3.432307   -1.998061   -1.872333

 Total Charge           Charge          ....    0
 Multiplicity           Mult            ....    1
 Number of Electrons    NEL             ....   66
 Basis Dimension        Dim             ....  339

ORBITAL ENERGIES
----------------

  NO   OCC          E(Eh)            E(eV)
   0   2.0000     -15.597079      -424.4181
   1   2.0000     -15.543551      -422.9615
   2   2.0000     -11.259977      -306.3995
   3   2.0000     -11.249463      -306.1134
   4   2.0000     -11.233325      -305.6743
   5   2.0000     -11.226992      -305.5020
   6   2.0000     -11.225103      -305.4506
   7   2.0000     -11.214649      -305.1661
   8   2.0000     -11.204607      -304.8929
   9   2.0000      -1.286633       -35.0111
  10   2.0000      -1.214144       -33.0385
  11   2.0000      -1.041930       -28.3524
  12   2.0000      -1.014550       -27.6073
  13   2.0000      -0.986664       -26.8485
  14   2.0000      -0.902291       -24.5526
  15   2.0000      -0.797242       -21.6941
  16   2.0000      -0.783011       -21.3068
  17   2.0000      -0.751154       -20.4399
  18   2.0000      -0.702103       -19.1052
  19   2.0000      -0.635969       -17.3056
  20   2.0000      -0.612490       -16.6667
  21   2.0000      -0.603516       -16.4225
  22   2.0000      -0.571924       -15.5629
  23   2.0000      -0.557757       -15.1773
  24   2.0000      -0.556177       -15.1343
  25   2.0000      -0.541907       -14.7460
  26   2.0000      -0.522279       -14.2119
  27   2.0000      -0.503191       -13.6925
  28   2.0000      -0.487640       -13.2694
  29   2.0000      -0.469675       -12.7805
  30   2.0000      -0.427448       -11.6315
  31   2.0000      -0.320701        -8.7267
  32   2.0000      -0.261418        -7.1135
  33   0.0000       0.133414         3.6304
  34   0.0000       0.142426         3.8756
  35   0.0000       0.163654         4.4533
  36   0.0000       0.179894         4.8952
  37   0.0000       0.186712         5.0807

MULLIKEN ATOMIC CHARGES
-----------------------
   0 C :   -0.475826
   1 C :    0.101620
   2 C :   -0.195427
   3 C :   -0.010115
   4 C :    0.099965
   5 N :   -0.306347
   6 C :   -0.325810
   7 C :   -0.050501
   8 N :   -0.300492
   9 H :    0.150403
  10 H :    0.124038
  11 H :    0.130996
  12 H :    0.101464
  13 H :    0.118543
  14 H :    0.120690
  15 H :    0.213722
  16 H :    0.123008
  17 H :    0.138662
  18 H :    0.241407
Sum of atomic charges:   -0.0000000

LOEWDIN ATOMIC CHARGES
----------------------
   0 C :   -0.306615
   1 C :   -0.262109
   2 C :   -0.200598
   3 C :   -0.230318
   4 C :   -0.235168
   5 N :    0.057010
   6 C :   -0.186078
   7 C :   -0.240847
   8 N :    0.188707
   9 H :    0.129577
  10 H :    0.123161
  11 H :    0.120820
  12 H :    0.138730
  13 H :    0.138642
  14 H :    0.138275
  15 H :    0.171164
  16 H :    0.137212
  17 H :    0.129294
  18 H :    0.189140

  Mayer bond orders larger than 0.1
B(  0-C ,  1-C ) :   0.9028 B(  0-C ,  9-H ) :   0.9360 B(  0-C , 10-H ) :   0.9335
B(  0-C , 11-H ) :   0.9363 B(  1-C ,  2-C ) :   0.9171 B(  1-C ,  5-N ) :   0.9276
B(  1-C , 12-H ) :   0.9308 B(  2-C ,  3-C ) :   0.9763 B(  2-C , 13-H ) :   0.8983
B(  2-C , 14-H ) :   0.9239 B(  3-C ,  4-C ) :   1.4439 B(  3-C ,  8-N ) :   1.0910
B(  4-C ,  5-N ) :   1.0474 B(  4-C ,  6-C ) :   1.2986 B(  5-N , 15-H ) :   0.8810
B(  6-C ,  7-C ) :   1.4794 B(  6-C , 16-H ) :   0.9337 B(  7-C ,  8-N ) :   1.1282
B(  7-C , 17-H ) :   0.9212 B(  8-N , 18-H ) :   0.8742

MP2 TOTAL ENERGY:     -381.421627947 Eh
FINAL SINGLE POINT ENERGY      -381.421627946923

DIPOLE MOMENT
-------------
                                X             Y             Z
Electronic contribution:      3.59196      -5.33369       0.74366
Nuclear contribution   :     -3.35333       5.72342      -1.46128
                        -----------------------------------------
Total Dipole Moment    :      0.23863       0.38973      -0.71762
                        -----------------------------------------
Magnitude (a.u.)       :      0.85077
Magnitude (Debye)      :      2.16249

                             ****ORCA TERMINATED NORMALLY****
TOTAL RUN TIME: 0 days 0 hours 20 minutes 21 seconds 866 msec
