                         Program Version 3.0.3 - RELEASE   -
|  1> ! RI-MP2 RIJK def2-TZVP def2-TZVP/C def2-TZVP/JK TIGHTSCF
|  2> % maxcore 2000
|  3> % mp2 density relaxed end
|  4> *xyz 0 1
|  5>  C        0.3432983897     1.3061814963     0.4401325505
|  6>  C        0.0993955436    -0.1737497257     0.7779268323
|  7>  C        0.1904666453    -0.4124402919     2.2921914895
|  8>  C       -1.2526616626    -0.5983574611     0.2271400963
|  9>  C       -1.4130023040    -0.9919090334    -1.2016360711
| 10>  N       -1.6207801627    -1.9718753825    -0.1439966160
| 11>  C       -0.6960322771    -3.0992856903    -0.0232238913
| 12>  C       -1.1660096048    -3.9848803274     1.1331634000
| 13>  O       -2.5143984559    -4.3624241920     0.9611802644
| 14>  H        1.3120584720     1.6396316367     0.8256527278
| 15>  H        0.3290986001     1.4768852383    -0.6405719876
| 16>  H       -0.4285714974     1.9421701062     0.8891698887
| 17>  H        0.8835741666    -0.7599000647     0.2832280687
| 18>  H        1.1607847279    -0.0879639148     2.6818668159
| 19>  H       -0.5856397305     0.1529638572     2.8211217827
| 20>  H        0.0614491888    -1.4685715958     2.5451534947
| 21>  H       -2.0828001471    -0.0645542893     0.6926553700
| 22>  H       -2.2922948052    -0.7076471060    -1.7747960972
| 23>  H       -0.4985245104    -1.0731835167    -1.7895643624
| 24>  H       -0.7642551426    -3.6746859014    -0.9535794995
| 25>  H        0.3563966374    -2.8096293593     0.1123418736
| 26>  H       -0.5648964351    -4.9002857567     1.1709491394
| 27>  H       -1.0184810885    -3.4543986628     2.0895873497
| 28>  H       -2.9520883875    -3.5569936129     0.6501657311
| 29> *
| 30>
| 31>                          ****END OF INPUT****

CARTESIAN COORDINATES (ANGSTROEM)
---------------------------------
  C      0.343298    1.306181    0.440133
  C      0.099396   -0.173750    0.777927
  C      0.190467   -0.412440    2.292191
  C     -1.252662   -0.598357    0.227140
  C     -1.413002   -0.991909   -1.201636
  N     -1.620780   -1.971875   -0.143997
  C     -0.696032   -3.099286   -0.023224
  C     -1.166010   -3.984880    1.133163
  O     -2.514398   -4.362424    0.961180
  H      1.312058    1.639632    0.825653
  H      0.329099    1.476885   -0.640572
  H     -0.428571    1.942170    0.889170
  H      0.883574   -0.759900    0.283228
  H      1.160785   -0.087964    2.681867
  H     -0.585640    0.152964    2.821122
  H      0.061449   -1.468572    2.545153
  H     -2.082800   -0.064554    0.692655
  H     -2.292295   -0.707647   -1.774796
  H     -0.498525   -1.073184   -1.789564
  H     -0.764255   -3.674686   -0.953579
  H      0.356397   -2.809629    0.112342
  H     -0.564896   -4.900286    1.170949
  H     -1.018481   -3.454399    2.089587
  H     -2.952088   -3.556994    0.650166

 Total Charge           Charge          ....    0
 Multiplicity           Mult            ....    1
 Number of Electrons    NEL             ....   72
 Basis Dimension        Dim             ....  369

ORBITAL ENERGIES
----------------

  NO   OCC          E(Eh)            E(eV)
   0   2.0000     -20.535643      -558.8032
   1   2.0000     -15.563368      -423.5008
   2   2.0000     -11.265558      -306.5514
   3   2.0000     -11.263252      -306.4887
   4   2.0000     -11.255809      -306.2861
   5   2.0000     -11.253763      -306.2304
   6   2.0000     -11.240667      -305.8741
   7   2.0000     -11.221782      -305.3602
   8   2.0000     -11.220396      -305.3225
   9   2.0000      -1.346806       -36.6484
  10   2.0000      -1.274352       -34.6769
  11   2.0000      -1.081747       -29.4358
  12   2.0000      -1.025242       -27.8983
  13   2.0000      -0.937275       -25.5045
  14   2.0000      -0.895113       -24.3573
  15   2.0000      -0.859396       -23.3853
  16   2.0000      -0.818805       -22.2808
  17   2.0000      -0.757004       -20.5991
  18   2.0000      -0.686951       -18.6929
  19   2.0000      -0.671963       -18.2850
  20   2.0000      -0.658322       -17.9139
  21   2.0000      -0.614642       -16.7252
  22   2.0000      -0.605826       -16.4854
  23   2.0000      -0.585427       -15.9303
  24   2.0000      -0.574891       -15.6436
  25   2.0000      -0.564861       -15.3706
  26   2.0000      -0.555517       -15.1164
  27   2.0000      -0.543002       -14.7758
  28   2.0000      -0.505900       -13.7662
  29   2.0000      -0.494944       -13.4681
  30   2.0000      -0.486676       -13.2431
  31   2.0000      -0.480623       -13.0784
  32   2.0000      -0.455068       -12.3830
  33   2.0000      -0.442389       -12.0380
  34   2.0000      -0.425246       -11.5715
  35   2.0000      -0.374934       -10.2025
  36   0.0000       0.132620         3.6088
  37   0.0000       0.150148         4.0857
  38   0.0000       0.157455         4.2846
  39   0.0000       0.163373         4.4456
  40   0.0000       0.186431         5.0730

MULLIKEN ATOMIC CHARGES
-----------------------
   0 C :   -0.397718
   1 C :   -0.039901
   2 C :   -0.393646
   3 C :   -0.077764
   4 C :   -0.182970
   5 N :   -0.246304
   6 C :   -0.157313
   7 C :    0.018458
   8 O :   -0.489733
   9 H :    0.134357
  10 H :    0.134232
  11 H :    0.125594
  12 H :    0.082258
  13 H :    0.133541
  14 H :    0.126396
  15 H :    0.128037
  16 H :    0.117687
  17 H :    0.129350
  18 H :    0.117947
  19 H :    0.124675
  20 H :    0.099276
  21 H :    0.106517
  22 H :    0.081033
  23 H :    0.325992
Sum of atomic charges:    0.0000000

LOEWDIN ATOMIC CHARGES
----------------------
   0 C :   -0.285838
   1 C :   -0.299252
   2 C :   -0.288886
   3 C :   -0.234643
   4 C :   -0.243212
   5 N :    0.103358
   6 C :   -0.306159
   7 C :   -0.356582
   8 O :   -0.051879
   9 H :    0.123905
  10 H :    0.124196
  11 H :    0.125183
  12 H :    0.150215
  13 H :    0.124217
  14 H :    0.126069
  15 H :    0.120601
  16 H :    0.146420
  17 H :    0.123596
  18 H :    0.127184
  19 H :    0.137059
  20 H :    0.125027
  21 H :    0.125679
  22 H :    0.111353
  23 H :    0.172390

  Mayer bond orders larger than 0.1
B(  0-C ,  1-C ) :   0.9217 B(  0-C ,  9-H ) :   0.9376 B(  0-C , 10-H ) :   0.9382
B(  0-C , 11-H ) :   0.9340 B(  1-C ,  2-C ) :   0.9198 B(  1-C ,  3-C ) :   0.9190
B(  1-C , 12-H ) :   0.9227 B(  2-C , 13-H ) :   0.9384 B(  2-C , 14-H ) :   0.9290
B(  2-C , 15-H ) :   0.9385 B(  3-C ,  4-C ) :   0.9408 B(  3-C ,  5-N ) :   0.9022
B(  3-C , 16-H ) :   0.9153 B(  4-C ,  5-N ) :   0.9029 B(  4-C , 17-H ) :   0.9177
B(  4-C , 18-H ) :   0.9225 B(  5-N ,  6-C ) :   0.8500 B(  6-C ,  7-C ) :   0.9569
B(  6-C , 19-H ) :   0.9251 B(  6-C , 20-H ) :   0.9098 B(  7-C ,  8-O ) :   0.9428
B(  7-C , 21-H ) :   0.9314 B(  7-C , 22-H ) :   0.9212 B(  8-O , 23-H ) :   0.8191

MP2 TOTAL ENERGY:     -404.831132659 Eh
FINAL SINGLE POINT ENERGY      -404.831132659229

DIPOLE MOMENT
-------------
                                X             Y             Z
Electronic contribution:     -5.22471      -5.64114      -2.01472
Nuclear contribution   :      6.05302       6.60483       1.73358
                        -----------------------------------------
Total Dipole Moment    :      0.82831       0.96369      -0.28114
                        -----------------------------------------
Magnitude (a.u.)       :      1.30147
Magnitude (Debye)      :      3.30808

                             ****ORCA TERMINATED NORMALLY****
TOTAL RUN TIME: 0 days 0 hours 20 minutes 7 seconds 590 msec
