                         Program Version 3.0.3 - RELEASE   -
|  1> ! RI-MP2 RIJK def2-TZVP def2-TZVP/C def2-TZVP/JK TIGHTSCF
|  2> % maxcore 2000
|  3> % mp2 density relaxed end
|  4> *xyz 0 1
|  5>  O        0.1441301525     1.3817228933     0.0963317311
|  6>  C       -0.0242875606     0.0058103574    -0.1039164759
|  7>  C       -1.4783652032    -0.3780277633     0.1564358423
|  8>  O       -2.3479979296     0.4286070965     0.3327828850
|  9>  C       -1.7138276894    -1.9018959454     0.1861608838
| 10>  C       -3.0994493368    -2.2964232284     0.0065103973
| 11>  C       -4.2432019584    -2.6262487068    -0.1482435862
| 12>  H        1.0536872343     1.6074158972    -0.1191143430
| 13>  H        0.2071970958    -0.3080277107    -1.1380026433
| 14>  H        0.6157698072    -0.6074624964     0.5551941352
| 15>  H       -1.0701831820    -2.3815319933    -0.5632783546
| 16>  H       -1.3396726009    -2.2549588723     1.1587060638
| 17>  H       -5.2573393289    -2.9098735778    -0.2839428355
| 18> *
| 19>
| 20>                          ****END OF INPUT****

CARTESIAN COORDINATES (ANGSTROEM)
---------------------------------
  O      0.144130    1.381723    0.096332
  C     -0.024288    0.005810   -0.103916
  C     -1.478365   -0.378028    0.156436
  O     -2.347998    0.428607    0.332783
  C     -1.713828   -1.901896    0.186161
  C     -3.099449   -2.296423    0.006510
  C     -4.243202   -2.626249   -0.148244
  H      1.053687    1.607416   -0.119114
  H      0.207197   -0.308028   -1.138003
  H      0.615770   -0.607462    0.555194
  H     -1.070183   -2.381532   -0.563278
  H     -1.339673   -2.254959    1.158706
  H     -5.257339   -2.909874   -0.283943

 Total Charge           Charge          ....    0
 Multiplicity           Mult            ....    1
 Number of Electrons    NEL             ....   52
 Basis Dimension        Dim             ....  253

ORBITAL ENERGIES
----------------

  NO   OCC          E(Eh)            E(eV)
   0   2.0000     -20.575661      -559.8922
   1   2.0000     -20.554322      -559.3115
   2   2.0000     -11.342448      -308.6437
   3   2.0000     -11.307828      -307.7017
   4   2.0000     -11.277660      -306.8807
   5   2.0000     -11.239019      -305.8293
   6   2.0000     -11.226693      -305.4938
   7   2.0000      -1.408511       -38.3275
   8   2.0000      -1.376835       -37.4656
   9   2.0000      -1.089017       -29.6336
  10   2.0000      -1.014672       -27.6106
  11   2.0000      -0.957259       -26.0484
  12   2.0000      -0.768966       -20.9246
  13   2.0000      -0.734486       -19.9864
  14   2.0000      -0.717221       -19.5166
  15   2.0000      -0.672866       -18.3096
  16   2.0000      -0.670017       -18.2321
  17   2.0000      -0.633076       -17.2269
  18   2.0000      -0.622875       -16.9493
  19   2.0000      -0.607195       -16.5226
  20   2.0000      -0.544242       -14.8096
  21   2.0000      -0.513492       -13.9728
  22   2.0000      -0.469606       -12.7786
  23   2.0000      -0.432148       -11.7593
  24   2.0000      -0.392793       -10.6884
  25   2.0000      -0.388422       -10.5695
  26   0.0000       0.110552         3.0083
  27   0.0000       0.132882         3.6159
  28   0.0000       0.141931         3.8621
  29   0.0000       0.168524         4.5858
  30   0.0000       0.171016         4.6536

MULLIKEN ATOMIC CHARGES
-----------------------
   0 O :   -0.431511
   1 C :   -0.106645
   2 C :    0.247155
   3 O :   -0.235011
   4 C :   -0.427517
   5 C :   -0.015464
   6 C :   -0.114506
   7 H :    0.320889
   8 H :    0.121814
   9 H :    0.116774
  10 H :    0.166583
  11 H :    0.163246
  12 H :    0.194192
Sum of atomic charges:    0.0000000

LOEWDIN ATOMIC CHARGES
----------------------
   0 O :   -0.015856
   1 C :   -0.342037
   2 C :   -0.320983
   3 O :    0.195916
   4 C :   -0.227934
   5 C :   -0.107218
   6 C :   -0.088072
   7 H :    0.178803
   8 H :    0.132046
   9 H :    0.129356
  10 H :    0.165378
  11 H :    0.172939
  12 H :    0.127663

  Mayer bond orders larger than 0.1
B(  0-O ,  1-C ) :   1.0503 B(  0-O ,  7-H ) :   0.8427 B(  1-C ,  2-C ) :   0.9040
B(  1-C ,  8-H ) :   0.9223 B(  1-C ,  9-H ) :   0.9115 B(  2-C ,  3-O ) :   2.0434
B(  2-C ,  4-C ) :   0.8588 B(  4-C ,  5-C ) :   1.1108 B(  4-C ,  6-C ) :  -0.1015
B(  4-C , 10-H ) :   0.9386 B(  4-C , 11-H ) :   0.8666 B(  5-C ,  6-C ) :   2.6272
B(  6-C , 12-H ) :   0.8938

MP2 TOTAL ENERGY:     -343.847763579 Eh
FINAL SINGLE POINT ENERGY      -343.847763579266

DIPOLE MOMENT
-------------
                                X             Y             Z
Electronic contribution:     -2.83344       1.81155       0.48851
Nuclear contribution   :      4.22091      -2.68998      -0.80043
                        -----------------------------------------
Total Dipole Moment    :      1.38747      -0.87843      -0.31192
                        -----------------------------------------
Magnitude (a.u.)       :      1.67153
Magnitude (Debye)      :      4.24868

                             ****ORCA TERMINATED NORMALLY****
TOTAL RUN TIME: 0 days 0 hours 6 minutes 20 seconds 745 msec
