                         Program Version 3.0.3 - RELEASE   -
|  1> ! RI-MP2 RIJK def2-TZVP def2-TZVP/C def2-TZVP/JK TIGHTSCF
|  2> % maxcore 2000
|  3> % mp2 density relaxed end
|  4> *xyz 0 1
|  5>  C       -0.5973341887     1.6428603776     0.0728760616
|  6>  C       -0.0736307208     0.2111572483     0.0250939073
|  7>  C       -1.2048833790    -0.7887350711    -0.2568544717
|  8>  O       -1.7793378266    -0.6413763473    -1.5442997262
|  9>  C        1.1646081365    -0.0510227345    -0.8881019446
| 10>  C        1.8169241051    -0.8669252155     0.2616958638
| 11>  O        3.1601043698    -0.6298307881     0.5903261028
| 12>  C        0.7595131832    -0.2725592954     1.2510728537
| 13>  O        1.2977269930     0.8280783097     1.9693716770
| 14>  H        0.1891929524     2.3379048089     0.3720863665
| 15>  H       -0.9575192398     1.9538937140    -0.9148649431
| 16>  H       -1.4219127030     1.7471991571     0.7881960548
| 17>  H       -0.8219577074    -1.8150807497    -0.2285386210
| 18>  H       -1.9674309359    -0.7052252283     0.5354801045
| 19>  H       -2.2221536249     0.2121259574    -1.5758521010
| 20>  H        0.9702971604    -0.5638542709    -1.8323672358
| 21>  H        1.7302281133     0.8629801828    -1.0930535445
| 22>  H        1.7129140342    -1.9467617902     0.1295154183
| 23>  H        3.2051363053     0.2993273868     0.8503437482
| 24>  H        0.2562459947    -0.9713931266     1.9336507777
| 25>  H        1.8173619381     0.4682008652     2.6961886418
| 26> *
| 27>
| 28>                          ****END OF INPUT****

CARTESIAN COORDINATES (ANGSTROEM)
---------------------------------
  C     -0.597334    1.642860    0.072876
  C     -0.073631    0.211157    0.025094
  C     -1.204883   -0.788735   -0.256854
  O     -1.779338   -0.641376   -1.544300
  C      1.164608   -0.051023   -0.888102
  C      1.816924   -0.866925    0.261696
  O      3.160104   -0.629831    0.590326
  C      0.759513   -0.272559    1.251073
  O      1.297727    0.828078    1.969372
  H      0.189193    2.337905    0.372086
  H     -0.957519    1.953894   -0.914865
  H     -1.421913    1.747199    0.788196
  H     -0.821958   -1.815081   -0.228539
  H     -1.967431   -0.705225    0.535480
  H     -2.222154    0.212126   -1.575852
  H      0.970297   -0.563854   -1.832367
  H      1.730228    0.862980   -1.093054
  H      1.712914   -1.946762    0.129515
  H      3.205136    0.299327    0.850344
  H      0.256246   -0.971393    1.933651
  H      1.817362    0.468201    2.696189

 Total Charge           Charge          ....    0
 Multiplicity           Mult            ....    1
 Number of Electrons    NEL             ....   72
 Basis Dimension        Dim             ....  351

ORBITAL ENERGIES
----------------

  NO   OCC          E(Eh)            E(eV)
   0   2.0000     -20.574451      -559.8593
   1   2.0000     -20.559535      -559.4534
   2   2.0000     -20.557366      -559.3944
   3   2.0000     -11.285960      -307.1066
   4   2.0000     -11.280056      -306.9459
   5   2.0000     -11.279649      -306.9348
   6   2.0000     -11.239868      -305.8524
   7   2.0000     -11.218639      -305.2747
   8   2.0000     -11.218394      -305.2680
   9   2.0000      -1.389839       -37.8194
  10   2.0000      -1.364729       -37.1362
  11   2.0000      -1.356782       -36.9199
  12   2.0000      -1.132102       -30.8061
  13   2.0000      -0.991608       -26.9830
  14   2.0000      -0.931206       -25.3394
  15   2.0000      -0.898780       -24.4570
  16   2.0000      -0.835944       -22.7472
  17   2.0000      -0.745087       -20.2749
  18   2.0000      -0.713062       -19.4034
  19   2.0000      -0.704913       -19.1816
  20   2.0000      -0.685924       -18.6649
  21   2.0000      -0.647677       -17.6242
  22   2.0000      -0.626727       -17.0541
  23   2.0000      -0.599807       -16.3216
  24   2.0000      -0.593999       -16.1635
  25   2.0000      -0.572328       -15.5738
  26   2.0000      -0.562147       -15.2968
  27   2.0000      -0.553899       -15.0724
  28   2.0000      -0.535935       -14.5835
  29   2.0000      -0.521939       -14.2027
  30   2.0000      -0.508880       -13.8473
  31   2.0000      -0.486415       -13.2360
  32   2.0000      -0.447504       -12.1772
  33   2.0000      -0.442482       -12.0405
  34   2.0000      -0.418911       -11.3992
  35   2.0000      -0.407319       -11.0837
  36   0.0000       0.122617         3.3366
  37   0.0000       0.142649         3.8817
  38   0.0000       0.150400         4.0926
  39   0.0000       0.172987         4.7072
  40   0.0000       0.176722         4.8088

MULLIKEN ATOMIC CHARGES
-----------------------
   0 C :   -0.452979
   1 C :    0.163963
   2 C :   -0.076650
   3 O :   -0.467905
   4 C :   -0.270684
   5 C :    0.063703
   6 O :   -0.467307
   7 C :   -0.073277
   8 O :   -0.481081
   9 H :    0.155389
  10 H :    0.129194
  11 H :    0.130966
  12 H :    0.114076
  13 H :    0.113657
  14 H :    0.317309
  15 H :    0.132446
  16 H :    0.114645
  17 H :    0.106273
  18 H :    0.318334
  19 H :    0.100134
  20 H :    0.329794
Sum of atomic charges:    0.0000000

LOEWDIN ATOMIC CHARGES
----------------------
   0 C :   -0.279677
   1 C :   -0.278122
   2 C :   -0.306924
   3 O :   -0.036770
   4 C :   -0.185698
   5 C :   -0.320656
   6 O :   -0.014781
   7 C :   -0.270128
   8 O :   -0.013557
   9 H :    0.132775
  10 H :    0.123276
  11 H :    0.127224
  12 H :    0.135065
  13 H :    0.122143
  14 H :    0.173126
  15 H :    0.134765
  16 H :    0.139828
  17 H :    0.139359
  18 H :    0.173705
  19 H :    0.125373
  20 H :    0.179673

  Mayer bond orders larger than 0.1
B(  0-C ,  1-C ) :   0.8617 B(  0-C ,  9-H ) :   0.9306 B(  0-C , 10-H ) :   0.9392
B(  0-C , 11-H ) :   0.9353 B(  1-C ,  2-C ) :   0.9294 B(  1-C ,  4-C ) :   0.8792
B(  1-C ,  7-C ) :   0.8588 B(  2-C ,  3-O ) :   0.9445 B(  2-C , 12-H ) :   0.9149
B(  2-C , 13-H ) :   0.9448 B(  3-O , 14-H ) :   0.8466 B(  4-C ,  5-C ) :   0.9216
B(  4-C , 15-H ) :   0.9157 B(  4-C , 16-H ) :   0.9059 B(  5-C ,  6-O ) :   0.9804
B(  5-C ,  7-C ) :   0.9080 B(  5-C , 17-H ) :   0.9281 B(  6-O , 18-H ) :   0.8271
B(  7-C ,  8-O ) :   1.0885 B(  7-C , 19-H ) :   0.9647 B(  8-O , 20-H ) :   0.8355

MP2 TOTAL ENERGY:     -460.623009514 Eh
FINAL SINGLE POINT ENERGY      -460.623009514031

DIPOLE MOMENT
-------------
                                X             Y             Z
Electronic contribution:      3.04139      -1.93435       1.09635
Nuclear contribution   :     -3.41946       2.32952      -0.43783
                        -----------------------------------------
Total Dipole Moment    :     -0.37807       0.39517       0.65852
                        -----------------------------------------
Magnitude (a.u.)       :      0.85600
Magnitude (Debye)      :      2.17579

                             ****ORCA TERMINATED NORMALLY****
TOTAL RUN TIME: 0 days 0 hours 17 minutes 34 seconds 635 msec
