                         Program Version 3.0.3 - RELEASE   -
|  1> ! RI-MP2 RIJK def2-TZVP def2-TZVP/C def2-TZVP/JK TIGHTSCF
|  2> % maxcore 2000
|  3> % mp2 density relaxed end
|  4> *xyz 0 1
|  5>  C       -0.3009074095     1.3765642320     0.5623994337
|  6>  C       -0.0196348350    -0.0143201252     0.0314081986
|  7>  C        1.3159940093    -0.3392161442    -0.5900515017
|  8>  C        0.9417057677    -0.9146018664     0.7558303820
|  9>  N       -1.1688576735    -0.6582994440    -0.5549998500
| 10>  C       -1.5455783172    -0.6559319306    -1.8605103846
| 11>  C       -2.7668595481    -1.2914265273    -1.9292015514
| 12>  C       -3.0538687731    -1.6361132735    -0.5922927163
| 13>  N       -2.0906276248    -1.2477005197     0.2384675943
| 14>  H        0.5975596939     1.8042671639     1.0163245820
| 15>  H       -0.6302143792     2.0450944464    -0.2401903213
| 16>  H       -1.0877877314     1.3377006309     1.3213231745
| 17>  H        1.3340206886    -1.0153045392    -1.4367071735
| 18>  H        2.0517183980     0.4562826175    -0.6316323555
| 19>  H        1.4238170239    -0.5194017891     1.6427977084
| 20>  H        0.6896590577    -1.9663608080     0.8051863766
| 21>  H       -0.9205380435    -0.2141516877    -2.6200478940
| 22>  H       -3.3546670289    -1.4830778585    -2.8121058700
| 23>  H       -3.9169742249    -2.1557842073    -0.2018322319
| 24> *
| 25>
| 26>                          ****END OF INPUT****

CARTESIAN COORDINATES (ANGSTROEM)
---------------------------------
  C     -0.300907    1.376564    0.562399
  C     -0.019635   -0.014320    0.031408
  C      1.315994   -0.339216   -0.590052
  C      0.941706   -0.914602    0.755830
  N     -1.168858   -0.658299   -0.555000
  C     -1.545578   -0.655932   -1.860510
  C     -2.766860   -1.291427   -1.929202
  C     -3.053869   -1.636113   -0.592293
  N     -2.090628   -1.247701    0.238468
  H      0.597560    1.804267    1.016325
  H     -0.630214    2.045094   -0.240190
  H     -1.087788    1.337701    1.321323
  H      1.334021   -1.015305   -1.436707
  H      2.051718    0.456283   -0.631632
  H      1.423817   -0.519402    1.642798
  H      0.689659   -1.966361    0.805186
  H     -0.920538   -0.214152   -2.620048
  H     -3.354667   -1.483078   -2.812106
  H     -3.916974   -2.155784   -0.201832

 Total Charge           Charge          ....    0
 Multiplicity           Mult            ....    1
 Number of Electrons    NEL             ....   66
 Basis Dimension        Dim             ....  339

ORBITAL ENERGIES
----------------

  NO   OCC          E(Eh)            E(eV)
   0   2.0000     -15.631977      -425.3677
   1   2.0000     -15.576595      -423.8607
   2   2.0000     -11.283252      -307.0329
   3   2.0000     -11.268647      -306.6355
   4   2.0000     -11.245806      -306.0139
   5   2.0000     -11.237471      -305.7871
   6   2.0000     -11.232256      -305.6452
   7   2.0000     -11.224083      -305.4228
   8   2.0000     -11.214659      -305.1664
   9   2.0000      -1.373075       -37.3633
  10   2.0000      -1.179789       -32.1037
  11   2.0000      -1.077693       -29.3255
  12   2.0000      -1.043479       -28.3945
  13   2.0000      -0.973200       -26.4821
  14   2.0000      -0.845002       -22.9937
  15   2.0000      -0.838832       -22.8258
  16   2.0000      -0.793662       -21.5966
  17   2.0000      -0.746763       -20.3204
  18   2.0000      -0.708143       -19.2696
  19   2.0000      -0.662525       -18.0282
  20   2.0000      -0.632423       -17.2091
  21   2.0000      -0.596468       -16.2307
  22   2.0000      -0.588340       -16.0096
  23   2.0000      -0.571214       -15.5435
  24   2.0000      -0.557572       -15.1723
  25   2.0000      -0.549688       -14.9578
  26   2.0000      -0.534896       -14.5553
  27   2.0000      -0.523104       -14.2344
  28   2.0000      -0.453214       -12.3326
  29   2.0000      -0.438954       -11.9446
  30   2.0000      -0.418348       -11.3838
  31   2.0000      -0.348714        -9.4890
  32   2.0000      -0.339128        -9.2281
  33   0.0000       0.140273         3.8170
  34   0.0000       0.147504         4.0138
  35   0.0000       0.163367         4.4454
  36   0.0000       0.178319         4.8523
  37   0.0000       0.184819         5.0292

MULLIKEN ATOMIC CHARGES
-----------------------
   0 C :   -0.408381
   1 C :    0.085336
   2 C :   -0.281137
   3 C :   -0.259407
   4 N :    0.153683
   5 C :   -0.152873
   6 C :   -0.180484
   7 C :   -0.103548
   8 N :   -0.265479
   9 H :    0.125261
  10 H :    0.134534
  11 H :    0.155870
  12 H :    0.148389
  13 H :    0.136324
  14 H :    0.136350
  15 H :    0.148764
  16 H :    0.155444
  17 H :    0.138647
  18 H :    0.132706
Sum of atomic charges:    0.0000000

LOEWDIN ATOMIC CHARGES
----------------------
   0 C :   -0.258443
   1 C :   -0.291157
   2 C :   -0.201175
   3 C :   -0.192013
   4 N :    0.235748
   5 C :   -0.219606
   6 C :   -0.210760
   7 C :   -0.276374
   8 N :    0.053259
   9 H :    0.130794
  10 H :    0.128584
  11 H :    0.135115
  12 H :    0.138177
  13 H :    0.135903
  14 H :    0.136886
  15 H :    0.142231
  16 H :    0.140209
  17 H :    0.140127
  18 H :    0.132493

  Mayer bond orders larger than 0.1
B(  0-C ,  1-C ) :   0.9396 B(  0-C ,  9-H ) :   0.9252 B(  0-C , 10-H ) :   0.9303
B(  0-C , 11-H ) :   0.9346 B(  1-C ,  2-C ) :   0.8696 B(  1-C ,  3-C ) :   0.8610
B(  1-C ,  4-N ) :   0.8875 B(  2-C ,  3-C ) :   0.9047 B(  2-C , 12-H ) :   0.9226
B(  2-C , 13-H ) :   0.9248 B(  3-C , 14-H ) :   0.9284 B(  3-C , 15-H ) :   0.9258
B(  4-N ,  5-C ) :   1.1855 B(  4-N ,  8-N ) :   1.0145 B(  5-C ,  6-C ) :   1.4356
B(  5-C , 16-H ) :   0.9130 B(  6-C ,  7-C ) :   1.3061 B(  6-C , 17-H ) :   0.9224
B(  7-C ,  8-N ) :   1.4655 B(  7-C , 18-H ) :   0.9363

MP2 TOTAL ENERGY:     -381.401030603 Eh
FINAL SINGLE POINT ENERGY      -381.401030603399

DIPOLE MOMENT
-------------
                                X             Y             Z
Electronic contribution:     -4.58167      -3.35030      -1.42286
Nuclear contribution   :      5.22349       3.77863       0.96712
                        -----------------------------------------
Total Dipole Moment    :      0.64182       0.42833      -0.45574
                        -----------------------------------------
Magnitude (a.u.)       :      0.89616
Magnitude (Debye)      :      2.27785

                             ****ORCA TERMINATED NORMALLY****
TOTAL RUN TIME: 0 days 0 hours 19 minutes 1 seconds 161 msec
