                         Program Version 3.0.3 - RELEASE   -
|  1> ! RI-MP2 RIJK def2-TZVP def2-TZVP/C def2-TZVP/JK TIGHTSCF
|  2> % maxcore 2000
|  3> % mp2 density relaxed end
|  4> *xyz 0 1
|  5>  C       -0.1676099794     1.3797194678    -0.0451703706
|  6>  N        0.1557650711    -0.0293149741     0.0904304435
|  7>  C        1.4818055855    -0.5547419408    -0.1447870488
|  8>  C        2.6304349728     0.3572427403     0.3546220347
|  9>  C        1.9890401743     0.3467716763     1.7759347201
| 10>  C        0.8596301257    -0.5648791085     1.2339064381
| 11>  C        0.5396890663    -2.0069750817     1.5438632930
| 12>  O        0.6397026516    -2.6952267004     0.2892234675
| 13>  C        1.5104947973    -1.9911601940    -0.6073397160
| 14>  H        0.6058548275     2.0766687879     0.3091809947
| 15>  H       -0.3581003254     1.5937757716    -1.1011903507
| 16>  H       -1.0868364854     1.5818659785     0.5129022099
| 17>  H        3.5964626856    -0.1506789610     0.3272625604
| 18>  H        2.7335648462     1.3227235875    -0.1485200883
| 19>  H        2.6104823035    -0.1667988090     2.5121402557
| 20>  H        1.6747080495     1.3054375801     2.1979486900
| 21>  H        1.2646625241    -2.3969748025     2.2767959640
| 22>  H       -0.4713315653    -2.1905669286     1.9199318630
| 23>  H        1.1245844431    -2.1645733025    -1.6164469288
| 24>  H        2.5418700217    -2.3761639667    -0.5533561913
| 25> *
| 26>
| 27>                          ****END OF INPUT****

CARTESIAN COORDINATES (ANGSTROEM)
---------------------------------
  C     -0.167610    1.379719   -0.045170
  N      0.155765   -0.029315    0.090430
  C      1.481806   -0.554742   -0.144787
  C      2.630435    0.357243    0.354622
  C      1.989040    0.346772    1.775935
  C      0.859630   -0.564879    1.233906
  C      0.539689   -2.006975    1.543863
  O      0.639703   -2.695227    0.289223
  C      1.510495   -1.991160   -0.607340
  H      0.605855    2.076669    0.309181
  H     -0.358100    1.593776   -1.101190
  H     -1.086836    1.581866    0.512902
  H      3.596463   -0.150679    0.327263
  H      2.733565    1.322724   -0.148520
  H      2.610482   -0.166799    2.512140
  H      1.674708    1.305438    2.197949
  H      1.264663   -2.396975    2.276796
  H     -0.471332   -2.190567    1.919932
  H      1.124584   -2.164573   -1.616447
  H      2.541870   -2.376164   -0.553356

 Total Charge           Charge          ....    0
 Multiplicity           Mult            ....    1
 Number of Electrons    NEL             ....   68
 Basis Dimension        Dim             ....  345

ORBITAL ENERGIES
----------------

  NO   OCC          E(Eh)            E(eV)
   0   2.0000     -20.544025      -559.0313
   1   2.0000     -15.566022      -423.5730
   2   2.0000     -11.274622      -306.7981
   3   2.0000     -11.274599      -306.7974
   4   2.0000     -11.255262      -306.2713
   5   2.0000     -11.254564      -306.2523
   6   2.0000     -11.248485      -306.0868
   7   2.0000     -11.242538      -305.9250
   8   2.0000     -11.242002      -305.9104
   9   2.0000      -1.371929       -37.3321
  10   2.0000      -1.288214       -35.0541
  11   2.0000      -1.073759       -29.2185
  12   2.0000      -0.995765       -27.0961
  13   2.0000      -0.983625       -26.7658
  14   2.0000      -0.884418       -24.0662
  15   2.0000      -0.875401       -23.8209
  16   2.0000      -0.765648       -20.8343
  17   2.0000      -0.721664       -19.6375
  18   2.0000      -0.689783       -18.7699
  19   2.0000      -0.666112       -18.1258
  20   2.0000      -0.632237       -17.2041
  21   2.0000      -0.627072       -17.0635
  22   2.0000      -0.593882       -16.1604
  23   2.0000      -0.570861       -15.5339
  24   2.0000      -0.562333       -15.3019
  25   2.0000      -0.548508       -14.9256
  26   2.0000      -0.548049       -14.9132
  27   2.0000      -0.519478       -14.1357
  28   2.0000      -0.478018       -13.0075
  29   2.0000      -0.473069       -12.8729
  30   2.0000      -0.438804       -11.9405
  31   2.0000      -0.422834       -11.5059
  32   2.0000      -0.401785       -10.9331
  33   2.0000      -0.347345        -9.4518
  34   0.0000       0.133988         3.6460
  35   0.0000       0.149717         4.0740
  36   0.0000       0.155325         4.2266
  37   0.0000       0.178860         4.8670
  38   0.0000       0.197760         5.3813

MULLIKEN ATOMIC CHARGES
-----------------------
   0 C :   -0.303476
   1 N :   -0.212551
   2 C :    0.061689
   3 C :   -0.257118
   4 C :   -0.257124
   5 C :    0.061690
   6 C :   -0.045127
   7 O :   -0.303134
   8 C :   -0.045118
   9 H :    0.108882
  10 H :    0.144033
  11 H :    0.144036
  12 H :    0.120720
  13 H :    0.136281
  14 H :    0.120719
  15 H :    0.136278
  16 H :    0.082336
  17 H :    0.112324
  18 H :    0.112323
  19 H :    0.082336
Sum of atomic charges:   -0.0000000

LOEWDIN ATOMIC CHARGES
----------------------
   0 C :   -0.313517
   1 N :    0.174800
   2 C :   -0.228478
   3 C :   -0.204874
   4 C :   -0.204876
   5 C :   -0.228477
   6 C :   -0.268061
   7 O :    0.144505
   8 C :   -0.268061
   9 H :    0.108082
  10 H :    0.121481
  11 H :    0.121480
  12 H :    0.138891
  13 H :    0.128227
  14 H :    0.138892
  15 H :    0.128225
  16 H :    0.124439
  17 H :    0.131442
  18 H :    0.131442
  19 H :    0.124439

  Mayer bond orders larger than 0.1
B(  0-C ,  1-N ) :   0.8692 B(  0-C ,  9-H ) :   0.9178 B(  0-C , 10-H ) :   0.9397
B(  0-C , 11-H ) :   0.9397 B(  1-N ,  2-C ) :   0.9145 B(  1-N ,  5-C ) :   0.9145
B(  2-C ,  3-C ) :   0.9169 B(  2-C ,  5-C ) :   0.7601 B(  2-C ,  8-C ) :   0.9743
B(  3-C ,  4-C ) :   0.9806 B(  3-C , 12-H ) :   0.9059 B(  3-C , 13-H ) :   0.9313
B(  4-C ,  5-C ) :   0.9169 B(  4-C , 14-H ) :   0.9059 B(  4-C , 15-H ) :   0.9313
B(  5-C ,  6-C ) :   0.9743 B(  6-C ,  7-O ) :   0.9569 B(  6-C , 16-H ) :   0.9179
B(  6-C , 17-H ) :   0.9107 B(  7-O ,  8-C ) :   0.9569 B(  8-C , 18-H ) :   0.9107
B(  8-C , 19-H ) :   0.9179

MP2 TOTAL ENERGY:     -402.397848401 Eh
FINAL SINGLE POINT ENERGY      -402.397848400951

DIPOLE MOMENT
-------------
                                X             Y             Z
Electronic contribution:     -1.72300      -4.41996      -0.80999
Nuclear contribution   :      2.38036       5.22830       1.11257
                        -----------------------------------------
Total Dipole Moment    :      0.65735       0.80834       0.30258
                        -----------------------------------------
Magnitude (a.u.)       :      1.08494
Magnitude (Debye)      :      2.75769

                             ****ORCA TERMINATED NORMALLY****
TOTAL RUN TIME: 0 days 0 hours 21 minutes 10 seconds 299 msec
