                         Program Version 3.0.3 - RELEASE   -
|  1> ! RI-MP2 RIJK def2-TZVP def2-TZVP/C def2-TZVP/JK TIGHTSCF
|  2> % maxcore 2000
|  3> % mp2 density relaxed end
|  4> *xyz 0 1
|  5>  N       -0.1576956214     1.3266795757    -0.0399937867
|  6>  C        0.1365627383    -0.0218516373     0.0663067347
|  7>  O        1.2430118935    -0.4616064227     0.2335147896
|  8>  N       -1.0393055905    -0.8093866023     0.0241745152
|  9>  C       -1.1085077992    -2.1883465454    -0.0553366546
| 10>  O       -0.1720100982    -2.9287657431    -0.2448297962
| 11>  C       -2.5227601199    -2.7598954523     0.1047975117
| 12>  O       -2.4993657948    -4.1421569086    -0.0630274017
| 13>  H        0.6659163480     1.9015439194    -0.1366600794
| 14>  H       -0.9369307375     1.6116452143    -0.6137492301
| 15>  H       -1.9145727156    -0.3266017096     0.1657833503
| 16>  H       -2.8989597376    -2.4796843826     1.1035701676
| 17>  H       -3.1885875579    -2.2824058772    -0.6329796819
| 18>  H       -1.5603212071    -4.3612341683    -0.1886073284
| 19> *
| 20>
| 21>                          ****END OF INPUT****

CARTESIAN COORDINATES (ANGSTROEM)
---------------------------------
  N     -0.157696    1.326680   -0.039994
  C      0.136563   -0.021852    0.066307
  O      1.243012   -0.461606    0.233515
  N     -1.039306   -0.809387    0.024175
  C     -1.108508   -2.188347   -0.055337
  O     -0.172010   -2.928766   -0.244830
  C     -2.522760   -2.759895    0.104798
  O     -2.499366   -4.142157   -0.063027
  H      0.665916    1.901544   -0.136660
  H     -0.936931    1.611645   -0.613749
  H     -1.914573   -0.326602    0.165783
  H     -2.898960   -2.479684    1.103570
  H     -3.188588   -2.282406   -0.632980
  H     -1.560321   -4.361234   -0.188607

 Total Charge           Charge          ....    0
 Multiplicity           Mult            ....    1
 Number of Electrons    NEL             ....   62
 Basis Dimension        Dim             ....  284

ORBITAL ENERGIES
----------------

  NO   OCC          E(Eh)            E(eV)
   0   2.0000     -20.563242      -559.5543
   1   2.0000     -20.556320      -559.3659
   2   2.0000     -20.540072      -558.9238
   3   2.0000     -15.631379      -425.3515
   4   2.0000     -15.605344      -424.6430
   5   2.0000     -11.408560      -310.4427
   6   2.0000     -11.382573      -309.7356
   7   2.0000     -11.309696      -307.7525
   8   2.0000      -1.437135       -39.1064
   9   2.0000      -1.412798       -38.4442
  10   2.0000      -1.368977       -37.2517
  11   2.0000      -1.277219       -34.7549
  12   2.0000      -1.219791       -33.1922
  13   2.0000      -1.000337       -27.2206
  14   2.0000      -0.881803       -23.9951
  15   2.0000      -0.800386       -21.7796
  16   2.0000      -0.777751       -21.1637
  17   2.0000      -0.745392       -20.2832
  18   2.0000      -0.695800       -18.9337
  19   2.0000      -0.675662       -18.3857
  20   2.0000      -0.672298       -18.2942
  21   2.0000      -0.639128       -17.3916
  22   2.0000      -0.628654       -17.1065
  23   2.0000      -0.618013       -16.8170
  24   2.0000      -0.556601       -15.1459
  25   2.0000      -0.545136       -14.8339
  26   2.0000      -0.488497       -13.2927
  27   2.0000      -0.466397       -12.6913
  28   2.0000      -0.452118       -12.3028
  29   2.0000      -0.444256       -12.0888
  30   2.0000      -0.441231       -12.0065
  31   0.0000       0.094449         2.5701
  32   0.0000       0.133412         3.6303
  33   0.0000       0.137699         3.7470
  34   0.0000       0.163423         4.4470
  35   0.0000       0.175914         4.7869

MULLIKEN ATOMIC CHARGES
-----------------------
   0 N :   -0.530812
   1 C :    0.386507
   2 O :   -0.297793
   3 N :   -0.351082
   4 C :    0.297939
   5 O :   -0.316058
   6 C :   -0.063156
   7 O :   -0.481156
   8 H :    0.274441
   9 H :    0.255248
  10 H :    0.245592
  11 H :    0.123653
  12 H :    0.115520
  13 H :    0.341159
Sum of atomic charges:    0.0000000

LOEWDIN ATOMIC CHARGES
----------------------
   0 N :   -0.057815
   1 C :   -0.535167
   2 O :    0.126620
   3 N :    0.130272
   4 C :   -0.424512
   5 O :    0.136927
   6 C :   -0.340546
   7 O :   -0.030025
   8 H :    0.180807
   9 H :    0.168154
  10 H :    0.197963
  11 H :    0.131459
  12 H :    0.129461
  13 H :    0.186402

  Mayer bond orders larger than 0.1
B(  0-N ,  1-C ) :   1.0993 B(  0-N ,  8-H ) :   0.8648 B(  0-N ,  9-H ) :   0.8682
B(  1-C ,  2-O ) :   2.0322 B(  1-C ,  3-N ) :   0.9361 B(  3-N ,  4-C ) :   1.0574
B(  3-N , 10-H ) :   0.8696 B(  4-C ,  5-O ) :   1.9079 B(  4-C ,  6-C ) :   0.9359
B(  6-C ,  7-O ) :   1.0359 B(  6-C , 11-H ) :   0.9106 B(  6-C , 12-H ) :   0.9111
B(  7-O , 13-H ) :   0.7975

MP2 TOTAL ENERGY:     -452.365985335 Eh
FINAL SINGLE POINT ENERGY      -452.365985335330

DIPOLE MOMENT
-------------
                                X             Y             Z
Electronic contribution:      3.61127      -0.92992      -0.03876
Nuclear contribution   :     -4.84854       2.93549      -0.26945
                        -----------------------------------------
Total Dipole Moment    :     -1.23727       2.00556      -0.30821
                        -----------------------------------------
Magnitude (a.u.)       :      2.37658
Magnitude (Debye)      :      6.04078

                             ****ORCA TERMINATED NORMALLY****
TOTAL RUN TIME: 0 days 0 hours 8 minutes 6 seconds 80 msec
