                         Program Version 3.0.3 - RELEASE   -
|  1> ! RI-MP2 RIJK def2-TZVP def2-TZVP/C def2-TZVP/JK TIGHTSCF
|  2> % maxcore 2000
|  3> % mp2 density relaxed end
|  4> *xyz 0 1
|  5>  C       -0.1045574544     1.5499985892    -0.0091966945
|  6>  C        0.0420240637     0.0164293117    -0.0334742378
|  7>  C        0.7422835165    -0.4435080632    -1.3254583410
|  8>  C        0.7378302312    -0.5112020849     1.2069642316
|  9>  C        0.0965568452    -1.2457673872     2.1178942531
| 10>  C        0.7581851099    -1.8082761417     3.3460708405
| 11>  O        2.1665832585    -1.6842794777     3.3395110103
| 12>  C        2.5900510196    -0.4118577482     2.8850815935
| 13>  C        2.2039875889    -0.1936630314     1.4210068079
| 14>  H        0.8691831943     2.0507929282    -0.0369163525
| 15>  H       -0.6720730147     1.8939605158    -0.8803879026
| 16>  H       -0.6290180390     1.8824502733     0.8917238576
| 17>  H       -0.9698829422    -0.4084973126    -0.0349168966
| 18>  H        1.7538233058    -0.0303230975    -1.4016152680
| 19>  H        0.8203196895    -1.5342944846    -1.3673500385
| 20>  H        0.1837481614    -0.1080610009    -2.2054905260
| 21>  H       -0.9625289541    -1.4689883716     2.0034037157
| 22>  H        0.3329362225    -1.3307662196     4.2497765509
| 23>  H        0.5491020955    -2.8817270339     3.4342936429
| 24>  H        2.1503650792     0.3847921864     3.5087174148
| 25>  H        3.6752352454    -0.3845072479     3.0195963324
| 26>  H        2.8279306183    -0.8275812759     0.7773197488
| 27>  H        2.4249107790     0.8432071844     1.1383682179
| 28> *
| 29>
| 30>                          ****END OF INPUT****

CARTESIAN COORDINATES (ANGSTROEM)
---------------------------------
  C     -0.104557    1.549999   -0.009197
  C      0.042024    0.016429   -0.033474
  C      0.742284   -0.443508   -1.325458
  C      0.737830   -0.511202    1.206964
  C      0.096557   -1.245767    2.117894
  C      0.758185   -1.808276    3.346071
  O      2.166583   -1.684279    3.339511
  C      2.590051   -0.411858    2.885082
  C      2.203988   -0.193663    1.421007
  H      0.869183    2.050793   -0.036916
  H     -0.672073    1.893961   -0.880388
  H     -0.629018    1.882450    0.891724
  H     -0.969883   -0.408497   -0.034917
  H      1.753823   -0.030323   -1.401615
  H      0.820320   -1.534294   -1.367350
  H      0.183748   -0.108061   -2.205491
  H     -0.962529   -1.468988    2.003404
  H      0.332936   -1.330766    4.249777
  H      0.549102   -2.881727    3.434294
  H      2.150365    0.384792    3.508717
  H      3.675235   -0.384507    3.019596
  H      2.827931   -0.827581    0.777320
  H      2.424911    0.843207    1.138368

 Total Charge           Charge          ....    0
 Multiplicity           Mult            ....    1
 Number of Electrons    NEL             ....   70
 Basis Dimension        Dim             ....  363

ORBITAL ENERGIES
----------------

  NO   OCC          E(Eh)            E(eV)
   0   2.0000     -20.548718      -559.1590
   1   2.0000     -11.273258      -306.7609
   2   2.0000     -11.270871      -306.6960
   3   2.0000     -11.233016      -305.6659
   4   2.0000     -11.230209      -305.5895
   5   2.0000     -11.224340      -305.4298
   6   2.0000     -11.217640      -305.2475
   7   2.0000     -11.215261      -305.1828
   8   2.0000     -11.214661      -305.1664
   9   2.0000      -1.372241       -37.3406
  10   2.0000      -1.114240       -30.3200
  11   2.0000      -1.033133       -28.1130
  12   2.0000      -1.022658       -27.8279
  13   2.0000      -0.930029       -25.3074
  14   2.0000      -0.890667       -24.2363
  15   2.0000      -0.858671       -23.3656
  16   2.0000      -0.792758       -21.5721
  17   2.0000      -0.706393       -19.2219
  18   2.0000      -0.670932       -18.2570
  19   2.0000      -0.645881       -17.5753
  20   2.0000      -0.636282       -17.3141
  21   2.0000      -0.612743       -16.6736
  22   2.0000      -0.592612       -16.1258
  23   2.0000      -0.572942       -15.5905
  24   2.0000      -0.564698       -15.3662
  25   2.0000      -0.545401       -14.8411
  26   2.0000      -0.540123       -14.6975
  27   2.0000      -0.524183       -14.2637
  28   2.0000      -0.505787       -13.7632
  29   2.0000      -0.497650       -13.5417
  30   2.0000      -0.481418       -13.1001
  31   2.0000      -0.464057       -12.6276
  32   2.0000      -0.445221       -12.1151
  33   2.0000      -0.407590       -11.0911
  34   2.0000      -0.339049        -9.2260
  35   0.0000       0.130963         3.5637
  36   0.0000       0.156897         4.2694
  37   0.0000       0.159903         4.3512
  38   0.0000       0.165403         4.5008
  39   0.0000       0.173872         4.7313

MULLIKEN ATOMIC CHARGES
-----------------------
   0 C :   -0.409077
   1 C :   -0.029903
   2 C :   -0.411851
   3 C :    0.012761
   4 C :   -0.215583
   5 C :   -0.005191
   6 O :   -0.315139
   7 C :   -0.056484
   8 C :   -0.234714
   9 H :    0.119156
  10 H :    0.131320
  11 H :    0.135426
  12 H :    0.082871
  13 H :    0.127147
  14 H :    0.137479
  15 H :    0.132318
  16 H :    0.118138
  17 H :    0.097020
  18 H :    0.125931
  19 H :    0.093551
  20 H :    0.124869
  21 H :    0.122524
  22 H :    0.117433
Sum of atomic charges:   -0.0000000

LOEWDIN ATOMIC CHARGES
----------------------
   0 C :   -0.288192
   1 C :   -0.269547
   2 C :   -0.286876
   3 C :   -0.153868
   4 C :   -0.154853
   5 C :   -0.311313
   6 O :    0.156241
   7 C :   -0.308220
   8 C :   -0.228659
   9 H :    0.120037
  10 H :    0.123488
  11 H :    0.124379
  12 H :    0.155336
  13 H :    0.122924
  14 H :    0.125506
  15 H :    0.123276
  16 H :    0.145294
  17 H :    0.125472
  18 H :    0.135874
  19 H :    0.123073
  20 H :    0.128372
  21 H :    0.147141
  22 H :    0.145116

  Mayer bond orders larger than 0.1
B(  0-C ,  1-C ) :   0.9150 B(  0-C ,  9-H ) :   0.9315 B(  0-C , 10-H ) :   0.9357
B(  0-C , 11-H ) :   0.9398 B(  1-C ,  2-C ) :   0.9126 B(  1-C ,  3-C ) :   0.8940
B(  1-C , 12-H ) :   0.9361 B(  2-C , 13-H ) :   0.9304 B(  2-C , 14-H ) :   0.9389
B(  2-C , 15-H ) :   0.9364 B(  3-C ,  4-C ) :   1.7701 B(  3-C ,  8-C ) :   0.9205
B(  4-C ,  5-C ) :   0.9355 B(  4-C , 16-H ) :   0.9121 B(  5-C ,  6-O ) :   0.9516
B(  5-C , 17-H ) :   0.9350 B(  5-C , 18-H ) :   0.9210 B(  6-O ,  7-C ) :   0.9262
B(  7-C ,  8-C ) :   0.9548 B(  7-C , 19-H ) :   0.9402 B(  7-C , 20-H ) :   0.9313
B(  8-C , 21-H ) :   0.9032 B(  8-C , 22-H ) :   0.9200

MP2 TOTAL ENERGY:     -387.623127706 Eh
FINAL SINGLE POINT ENERGY      -387.623127706254

DIPOLE MOMENT
-------------
                                X             Y             Z
Electronic contribution:      1.82498      -4.59567       6.34672
Nuclear contribution   :     -2.13034       4.99786      -6.63161
                        -----------------------------------------
Total Dipole Moment    :     -0.30536       0.40219      -0.28489
                        -----------------------------------------
Magnitude (a.u.)       :      0.57980
Magnitude (Debye)      :      1.47374

                             ****ORCA TERMINATED NORMALLY****
TOTAL RUN TIME: 0 days 0 hours 24 minutes 10 seconds 892 msec
