                         Program Version 3.0.3 - RELEASE   -
|  1> ! RI-MP2 RIJK def2-TZVP def2-TZVP/C def2-TZVP/JK TIGHTSCF
|  2> % maxcore 2000
|  3> % mp2 density relaxed end
|  4> *xyz 0 1
|  5>  C       -0.1142876615     1.5120530539     0.0872316297
|  6>  C        0.0022540090     0.0160349501    -0.0004896372
|  7>  C       -0.0202077983    -0.6653059780    -1.1494873966
|  8>  C        0.1087674204    -2.1664844226    -1.2370870195
|  9>  C        0.9186614479    -2.7700020839    -0.0727328282
| 10>  C        0.5831706404    -2.1261884664     1.2659762972
| 11>  O        1.4657410280    -1.0874719938     1.7114221558
| 12>  C        0.1341973116    -0.7286536032     1.2859389005
| 13>  H        0.7742031650     1.9463622453     0.5623253053
| 14>  H       -0.2292028711     1.9647802718    -0.9012832629
| 15>  H       -0.9742123807     1.8101889370     0.7008309842
| 16>  H       -0.1462520798    -0.1251084644    -2.0857905520
| 17>  H       -0.8960640391    -2.6140190463    -1.2681108617
| 18>  H        0.5774952306    -2.4422470168    -2.1881762644
| 19>  H        0.7547322403    -3.8511624306    -0.0221478664
| 20>  H        1.9873823321    -2.6137416794    -0.2522870683
| 21>  H        0.2534244945    -2.7896303512     2.0650385014
| 22>  H       -0.5009026693    -0.3842338116     2.1036769130
| 23> *
| 24>
| 25>                          ****END OF INPUT****

CARTESIAN COORDINATES (ANGSTROEM)
---------------------------------
  C     -0.114288    1.512053    0.087232
  C      0.002254    0.016035   -0.000490
  C     -0.020208   -0.665306   -1.149487
  C      0.108767   -2.166484   -1.237087
  C      0.918661   -2.770002   -0.072733
  C      0.583171   -2.126188    1.265976
  O      1.465741   -1.087472    1.711422
  C      0.134197   -0.728654    1.285939
  H      0.774203    1.946362    0.562325
  H     -0.229203    1.964780   -0.901283
  H     -0.974212    1.810189    0.700831
  H     -0.146252   -0.125108   -2.085791
  H     -0.896064   -2.614019   -1.268111
  H      0.577495   -2.442247   -2.188176
  H      0.754732   -3.851162   -0.022148
  H      1.987382   -2.613742   -0.252287
  H      0.253424   -2.789630    2.065039
  H     -0.500903   -0.384234    2.103677

 Total Charge           Charge          ....    0
 Multiplicity           Mult            ....    1
 Number of Electrons    NEL             ....   60
 Basis Dimension        Dim             ....  308

ORBITAL ENERGIES
----------------

  NO   OCC          E(Eh)            E(eV)
   0   2.0000     -20.558636      -559.4289
   1   2.0000     -11.281470      -306.9844
   2   2.0000     -11.280451      -306.9567
   3   2.0000     -11.233868      -305.6891
   4   2.0000     -11.231879      -305.6350
   5   2.0000     -11.228378      -305.5397
   6   2.0000     -11.228287      -305.5372
   7   2.0000     -11.222268      -305.3734
   8   2.0000      -1.400455       -38.1083
   9   2.0000      -1.110375       -30.2148
  10   2.0000      -1.042225       -28.3604
  11   2.0000      -0.953575       -25.9481
  12   2.0000      -0.923771       -25.1371
  13   2.0000      -0.855449       -23.2779
  14   2.0000      -0.814588       -22.1661
  15   2.0000      -0.704399       -19.1677
  16   2.0000      -0.683513       -18.5993
  17   2.0000      -0.634467       -17.2647
  18   2.0000      -0.620538       -16.8857
  19   2.0000      -0.602193       -16.3865
  20   2.0000      -0.577560       -15.7162
  21   2.0000      -0.555223       -15.1084
  22   2.0000      -0.543302       -14.7840
  23   2.0000      -0.536907       -14.6100
  24   2.0000      -0.507804       -13.8180
  25   2.0000      -0.490870       -13.3573
  26   2.0000      -0.468549       -12.7499
  27   2.0000      -0.438350       -11.9281
  28   2.0000      -0.423989       -11.5373
  29   2.0000      -0.342341        -9.3156
  30   0.0000       0.135351         3.6831
  31   0.0000       0.144842         3.9414
  32   0.0000       0.158526         4.3137
  33   0.0000       0.169651         4.6165
  34   0.0000       0.184796         5.0286

MULLIKEN ATOMIC CHARGES
-----------------------
   0 C :   -0.425791
   1 C :    0.023435
   2 C :   -0.159261
   3 C :   -0.191529
   4 C :   -0.229704
   5 C :    0.048435
   6 O :   -0.330417
   7 C :    0.001435
   8 H :    0.148311
   9 H :    0.132456
  10 H :    0.136080
  11 H :    0.119439
  12 H :    0.122417
  13 H :    0.125703
  14 H :    0.121335
  15 H :    0.127217
  16 H :    0.115692
  17 H :    0.114747
Sum of atomic charges:    0.0000000

LOEWDIN ATOMIC CHARGES
----------------------
   0 C :   -0.268668
   1 C :   -0.187212
   2 C :   -0.131773
   3 C :   -0.246147
   4 C :   -0.237292
   5 C :   -0.253004
   6 O :    0.156611
   7 C :   -0.221553
   8 H :    0.134461
   9 H :    0.128718
  10 H :    0.129198
  11 H :    0.143271
  12 H :    0.145748
  13 H :    0.142654
  14 H :    0.139130
  15 H :    0.149959
  16 H :    0.134418
  17 H :    0.141481

  Mayer bond orders larger than 0.1
B(  0-C ,  1-C ) :   0.9022 B(  0-C ,  8-H ) :   0.9265 B(  0-C ,  9-H ) :   0.9462
B(  0-C , 10-H ) :   0.9358 B(  1-C ,  2-C ) :   1.7382 B(  1-C ,  7-C ) :   0.9186
B(  2-C ,  3-C ) :   0.9296 B(  2-C , 11-H ) :   0.9191 B(  3-C ,  4-C ) :   0.9483
B(  3-C , 12-H ) :   0.9128 B(  3-C , 13-H ) :   0.9370 B(  4-C ,  5-C ) :   0.9027
B(  4-C , 14-H ) :   0.9350 B(  4-C , 15-H ) :   0.9230 B(  5-C ,  6-O ) :   0.9108
B(  5-C ,  7-C ) :   0.9902 B(  5-C , 16-H ) :   0.9208 B(  6-O ,  7-C ) :   0.8945
B(  7-C , 17-H ) :   0.9281

MP2 TOTAL ENERGY:     -347.190066143 Eh
FINAL SINGLE POINT ENERGY      -347.190066143500

DIPOLE MOMENT
-------------
                                X             Y             Z
Electronic contribution:      1.64556      -1.03243       3.18930
Nuclear contribution   :     -2.26684       0.81286      -3.58996
                        -----------------------------------------
Total Dipole Moment    :     -0.62128      -0.21957      -0.40066
                        -----------------------------------------
Magnitude (a.u.)       :      0.77119
Magnitude (Debye)      :      1.96021

                             ****ORCA TERMINATED NORMALLY****
TOTAL RUN TIME: 0 days 0 hours 13 minutes 26 seconds 819 msec
