                         Program Version 3.0.3 - RELEASE   -
|  1> ! RI-MP2 RIJK def2-TZVP def2-TZVP/C def2-TZVP/JK TIGHTSCF
|  2> % maxcore 2000
|  3> % mp2 density relaxed end
|  4> *xyz 0 1
|  5>  C        0.2195527814     1.3755340884     0.2641908637
|  6>  C       -0.1171542955    -0.0891383902    -0.0866749001
|  7>  C       -1.6346031197    -0.2823828118    -0.1385186793
|  8>  C        0.5845354645    -0.5280856137    -1.3886349137
|  9>  C        2.0120768553    -0.9216591879    -0.9568257916
| 10>  C        1.8928113229    -1.2044760984     0.5770102361
| 11>  N        0.4643336100    -1.0544897258     0.8662670514
| 12>  C        2.3646338121    -2.5455740390     0.9549896879
| 13>  N        2.7574343633    -3.5891971758     1.2583981590
| 14>  H        1.2996753878     1.5547318082     0.2826460784
| 15>  H       -0.2179643124     2.0663670673    -0.4641674761
| 16>  H       -0.1803306126     1.6367917585     1.2504187253
| 17>  H       -2.0817124379     0.3461077826    -0.9155615784
| 18>  H       -1.8777505962    -1.3276748698    -0.3451200279
| 19>  H       -2.0986271076    -0.0074800431     0.8153478653
| 20>  H        0.0627680634    -1.3955462840    -1.8018414540
| 21>  H        0.5802319348     0.2584206338    -2.1472856078
| 22>  H        2.3807536973    -1.7942187751    -1.4972288749
| 23>  H        2.7263863324    -0.1122544204    -1.1214141696
| 24>  H        2.5272966625    -0.4893392860     1.1234366935
| 25>  H        0.2929213441    -0.8082534577     1.8348137830
| 26> *
| 27>
| 28>                          ****END OF INPUT****

CARTESIAN COORDINATES (ANGSTROEM)
---------------------------------
  C      0.219553    1.375534    0.264191
  C     -0.117154   -0.089138   -0.086675
  C     -1.634603   -0.282383   -0.138519
  C      0.584535   -0.528086   -1.388635
  C      2.012077   -0.921659   -0.956826
  C      1.892811   -1.204476    0.577010
  N      0.464334   -1.054490    0.866267
  C      2.364634   -2.545574    0.954990
  N      2.757434   -3.589197    1.258398
  H      1.299675    1.554732    0.282646
  H     -0.217964    2.066367   -0.464167
  H     -0.180331    1.636792    1.250419
  H     -2.081712    0.346108   -0.915562
  H     -1.877751   -1.327675   -0.345120
  H     -2.098627   -0.007480    0.815348
  H      0.062768   -1.395546   -1.801841
  H      0.580232    0.258421   -2.147286
  H      2.380754   -1.794219   -1.497229
  H      2.726386   -0.112254   -1.121414
  H      2.527297   -0.489339    1.123437
  H      0.292921   -0.808253    1.834814

 Total Charge           Charge          ....    0
 Multiplicity           Mult            ....    1
 Number of Electrons    NEL             ....   68
 Basis Dimension        Dim             ....  351

ORBITAL ENERGIES
----------------

  NO   OCC          E(Eh)            E(eV)
   0   2.0000     -15.562004      -423.4637
   1   2.0000     -15.561897      -423.4608
   2   2.0000     -11.308872      -307.7300
   3   2.0000     -11.277570      -306.8783
   4   2.0000     -11.263371      -306.4919
   5   2.0000     -11.248350      -306.0832
   6   2.0000     -11.235152      -305.7240
   7   2.0000     -11.229411      -305.5678
   8   2.0000     -11.221837      -305.3617
   9   2.0000      -1.256740       -34.1976
  10   2.0000      -1.206012       -32.8173
  11   2.0000      -1.070218       -29.1221
  12   2.0000      -1.050359       -28.5817
  13   2.0000      -0.952920       -25.9303
  14   2.0000      -0.942969       -25.6595
  15   2.0000      -0.844091       -22.9689
  16   2.0000      -0.772968       -21.0335
  17   2.0000      -0.712167       -19.3791
  18   2.0000      -0.702021       -19.1030
  19   2.0000      -0.636977       -17.3330
  20   2.0000      -0.610249       -16.6057
  21   2.0000      -0.604116       -16.4388
  22   2.0000      -0.574370       -15.6294
  23   2.0000      -0.555418       -15.1137
  24   2.0000      -0.553372       -15.0580
  25   2.0000      -0.543266       -14.7830
  26   2.0000      -0.529891       -14.4191
  27   2.0000      -0.522316       -14.2129
  28   2.0000      -0.515240       -14.0204
  29   2.0000      -0.480721       -13.0811
  30   2.0000      -0.469490       -12.7755
  31   2.0000      -0.452924       -12.3247
  32   2.0000      -0.446028       -12.1370
  33   2.0000      -0.393463       -10.7067
  34   0.0000       0.108969         2.9652
  35   0.0000       0.140841         3.8325
  36   0.0000       0.155368         4.2278
  37   0.0000       0.164173         4.4674
  38   0.0000       0.177614         4.8331

MULLIKEN ATOMIC CHARGES
-----------------------
   0 C :   -0.446595
   1 C :    0.215484
   2 C :   -0.388788
   3 C :   -0.277457
   4 C :   -0.244236
   5 C :    0.091729
   6 N :   -0.374376
   7 C :   -0.197385
   8 N :   -0.056705
   9 H :    0.135301
  10 H :    0.134444
  11 H :    0.131627
  12 H :    0.126324
  13 H :    0.142851
  14 H :    0.126599
  15 H :    0.129872
  16 H :    0.123902
  17 H :    0.149435
  18 H :    0.135711
  19 H :    0.133772
  20 H :    0.208490
Sum of atomic charges:   -0.0000000

LOEWDIN ATOMIC CHARGES
----------------------
   0 C :   -0.274896
   1 C :   -0.371164
   2 C :   -0.270887
   3 C :   -0.209194
   4 C :   -0.205604
   5 C :   -0.278896
   6 N :    0.065309
   7 C :   -0.170948
   8 N :    0.058025
   9 H :    0.125008
  10 H :    0.128149
  11 H :    0.124625
  12 H :    0.127295
  13 H :    0.129412
  14 H :    0.125055
  15 H :    0.145775
  16 H :    0.140464
  17 H :    0.145063
  18 H :    0.138577
  19 H :    0.156264
  20 H :    0.172569

  Mayer bond orders larger than 0.1
B(  0-C ,  1-C ) :   0.9347 B(  0-C ,  9-H ) :   0.9272 B(  0-C , 10-H ) :   0.9353
B(  0-C , 11-H ) :   0.9347 B(  1-C ,  2-C ) :   0.9003 B(  1-C ,  3-C ) :   0.9033
B(  1-C ,  6-N ) :   0.8369 B(  2-C , 12-H ) :   0.9369 B(  2-C , 13-H ) :   0.9400
B(  2-C , 14-H ) :   0.9301 B(  3-C ,  4-C ) :   0.9456 B(  3-C , 15-H ) :   0.9224
B(  3-C , 16-H ) :   0.9326 B(  4-C ,  5-C ) :   0.8757 B(  4-C , 17-H ) :   0.9348
B(  4-C , 18-H ) :   0.9319 B(  5-C ,  6-N ) :   0.9680 B(  5-C ,  7-C ) :   0.9222
B(  5-C , 19-H ) :   0.9231 B(  6-N , 20-H ) :   0.8759 B(  7-C ,  8-N ) :   2.8945

MP2 TOTAL ENERGY:     -382.626749411 Eh
FINAL SINGLE POINT ENERGY      -382.626749411249

DIPOLE MOMENT
-------------
                                X             Y             Z
Electronic contribution:      6.45747      -8.59216       3.89042
Nuclear contribution   :     -6.98727      10.38854      -4.37297
                        -----------------------------------------
Total Dipole Moment    :     -0.52981       1.79637      -0.48254
                        -----------------------------------------
Magnitude (a.u.)       :      1.93404
Magnitude (Debye)      :      4.91594

                             ****ORCA TERMINATED NORMALLY****
TOTAL RUN TIME: 0 days 0 hours 21 minutes 18 seconds 836 msec
