                         Program Version 3.0.3 - RELEASE   -
|  1> ! RI-MP2 RIJK def2-TZVP def2-TZVP/C def2-TZVP/JK TIGHTSCF
|  2> % maxcore 2000
|  3> % mp2 density relaxed end
|  4> *xyz 0 1
|  5>  N       -0.2252172738     1.6999320262     0.1906309346
|  6>  H        0.7015977233     1.2218355080     0.2314971098
|  7>  H       -0.0828386954     2.7105947391     0.1955591652
|  8>  H       -0.7363486618     1.4384346578    -0.6516731838
|  9>  C       -0.9026476115     1.1971856063     1.4574261172
| 10>  C       -1.4145301202    -0.2538964443     1.3865238379
| 11>  C       -0.7129929830    -0.4851143744     2.7627569934
| 12>  C        0.1663956899     0.7554652441     2.4920062175
| 13>  O        1.3839060540     0.5026420572     1.7540264300
| 14>  C       -1.7018124525    -0.1468937652     3.9616905562
| 15>  O       -2.3231265370     0.9283645652     3.7616410686
| 16>  O       -1.7084108495    -0.9449524842     4.8976607936
| 17>  H       -1.6285360951     1.9069620180     1.8376677852
| 18>  H       -2.4974807949    -0.3684366932     1.3672587446
| 19>  H       -0.9579656004    -0.8146837191     0.5607865430
| 20>  H       -0.1879053278    -1.4312998733     2.9173205281
| 21>  H        0.3792037219     1.4309746595     3.3211939951
| 22>  H        1.6662497739    -0.3976322578     1.9442221939
| 23> *
| 24>
| 25>                          ****END OF INPUT****

CARTESIAN COORDINATES (ANGSTROEM)
---------------------------------
  N     -0.225217    1.699932    0.190631
  H      0.701598    1.221836    0.231497
  H     -0.082839    2.710595    0.195559
  H     -0.736349    1.438435   -0.651673
  C     -0.902648    1.197186    1.457426
  C     -1.414530   -0.253896    1.386524
  C     -0.712993   -0.485114    2.762757
  C      0.166396    0.755465    2.492006
  O      1.383906    0.502642    1.754026
  C     -1.701812   -0.146894    3.961691
  O     -2.323127    0.928365    3.761641
  O     -1.708411   -0.944952    4.897661
  H     -1.628536    1.906962    1.837668
  H     -2.497481   -0.368437    1.367259
  H     -0.957966   -0.814684    0.560787
  H     -0.187905   -1.431300    2.917321
  H      0.379204    1.430975    3.321194
  H      1.666250   -0.397632    1.944222

 Total Charge           Charge          ....    0
 Multiplicity           Mult            ....    1
 Number of Electrons    NEL             ....   70
 Basis Dimension        Dim             ....  333

ORBITAL ENERGIES
----------------

  NO   OCC          E(Eh)            E(eV)
   0   2.0000     -20.610485      -560.8398
   1   2.0000     -20.430291      -555.9365
   2   2.0000     -20.429755      -555.9219
   3   2.0000     -15.736660      -428.2163
   4   2.0000     -11.318964      -308.0047
   5   2.0000     -11.313416      -307.8537
   6   2.0000     -11.280727      -306.9642
   7   2.0000     -11.254564      -306.2523
   8   2.0000     -11.228713      -305.5488
   9   2.0000      -1.417700       -38.5776
  10   2.0000      -1.350462       -36.7480
  11   2.0000      -1.316377       -35.8204
  12   2.0000      -1.220687       -33.2166
  13   2.0000      -1.143707       -31.1219
  14   2.0000      -0.938502       -25.5379
  15   2.0000      -0.931587       -25.3498
  16   2.0000      -0.838385       -22.8136
  17   2.0000      -0.816322       -22.2133
  18   2.0000      -0.797115       -21.6906
  19   2.0000      -0.722818       -19.6689
  20   2.0000      -0.711002       -19.3474
  21   2.0000      -0.684091       -18.6151
  22   2.0000      -0.645675       -17.5697
  23   2.0000      -0.609365       -16.5817
  24   2.0000      -0.585413       -15.9299
  25   2.0000      -0.567551       -15.4439
  26   2.0000      -0.545384       -14.8407
  27   2.0000      -0.537663       -14.6305
  28   2.0000      -0.528819       -14.3899
  29   2.0000      -0.487526       -13.2663
  30   2.0000      -0.477069       -12.9817
  31   2.0000      -0.454194       -12.3593
  32   2.0000      -0.356998        -9.7144
  33   2.0000      -0.336690        -9.1618
  34   2.0000      -0.333105        -9.0643
  35   0.0000       0.052280         1.4226
  36   0.0000       0.107922         2.9367
  37   0.0000       0.118533         3.2254
  38   0.0000       0.161707         4.4003
  39   0.0000       0.162479         4.4213

MULLIKEN ATOMIC CHARGES
-----------------------
   0 N :   -0.359990
   1 H :    0.337307
   2 H :    0.315935
   3 H :    0.316691
   4 C :   -0.134406
   5 C :   -0.236308
   6 C :   -0.149131
   7 C :    0.061604
   8 O :   -0.541674
   9 C :    0.218084
  10 O :   -0.507464
  11 O :   -0.423901
  12 H :    0.213315
  13 H :    0.157278
  14 H :    0.100178
  15 H :    0.124076
  16 H :    0.153859
  17 H :    0.354549
Sum of atomic charges:    0.0000000

LOEWDIN ATOMIC CHARGES
----------------------
   0 N :    0.142070
   1 H :    0.210740
   2 H :    0.204224
   3 H :    0.202141
   4 C :   -0.223206
   5 C :   -0.205630
   6 C :   -0.194868
   7 C :   -0.257660
   8 O :   -0.047683
   9 C :   -0.666272
  10 O :   -0.066938
  11 O :   -0.004099
  12 H :    0.165135
  13 H :    0.145449
  14 H :    0.128135
  15 H :    0.137924
  16 H :    0.142885
  17 H :    0.187654

  Mayer bond orders larger than 0.1
B(  0-N ,  1-H ) :   0.7842 B(  0-N ,  2-H ) :   0.8472 B(  0-N ,  3-H ) :   0.8499
B(  0-N ,  4-C ) :   0.6994 B(  1-H ,  8-O ) :   0.1021 B(  4-C ,  5-C ) :   1.0089
B(  4-C ,  7-C ) :   0.9304 B(  4-C , 10-O ) :   0.1033 B(  4-C , 12-H ) :   0.8612
B(  5-C ,  6-C ) :   0.8555 B(  5-C , 13-H ) :   0.9168 B(  5-C , 14-H ) :   0.8959
B(  6-C ,  7-C ) :   0.9081 B(  6-C ,  9-C ) :   0.8665 B(  6-C , 15-H ) :   0.9605
B(  7-C ,  8-O ) :   0.8206 B(  7-C , 16-H ) :   0.9209 B(  8-O , 17-H ) :   0.8257
B(  9-C , 10-O ) :   1.6316 B(  9-C , 11-O ) :   1.8420

MP2 TOTAL ENERGY:     -475.436538050 Eh
FINAL SINGLE POINT ENERGY      -475.436538049523

DIPOLE MOMENT
-------------
                                X             Y             Z
Electronic contribution:     -1.11651      -0.43917       4.59007
Nuclear contribution   :      3.54049       2.11334      -9.95785
                        -----------------------------------------
Total Dipole Moment    :      2.42397       1.67417      -5.36778
                        -----------------------------------------
Magnitude (a.u.)       :      6.12303
Magnitude (Debye)      :     15.56351

                             ****ORCA TERMINATED NORMALLY****
TOTAL RUN TIME: 0 days 0 hours 16 minutes 22 seconds 575 msec
