                         Program Version 3.0.3 - RELEASE   -
|  1> ! RI-MP2 RIJK def2-TZVP def2-TZVP/C def2-TZVP/JK TIGHTSCF
|  2> % maxcore 2000
|  3> % mp2 density relaxed end
|  4> *xyz 0 1
|  5>  O        0.0434795858     1.4194449149     0.0124955727
|  6>  C        0.0577760754     0.0086473139    -0.0808648932
|  7>  C       -1.3964870234    -0.4896601196    -0.0045589128
|  8>  O       -1.2873398101    -1.9060634310     0.0313322020
|  9>  C       -2.0939234083     0.0496010491     1.2821161138
| 10>  C       -1.4289587664    -0.3950852787     2.5032414470
| 11>  N       -0.8980758840    -0.7343087119     3.4717374102
| 12>  C       -2.1760618569    -0.0493793092    -1.1663997684
| 13>  C       -2.8558090009     0.2658217741    -2.1057801031
| 14>  H        0.9449830691     1.7248451958     0.1450494676
| 15>  H        0.4886372774    -0.3432918410    -1.0271337083
| 16>  H        0.6052722311    -0.4590871528     0.7479713508
| 17>  H       -2.1271142798    -2.2823444401    -0.2527536607
| 18>  H       -2.0931664539     1.1421319360     1.2493100950
| 19>  H       -3.1344965749    -0.2889679426     1.2940533935
| 20>  H       -3.4385149900     0.5545966330    -2.9461384561
| 21> *
| 22>
| 23>                          ****END OF INPUT****

CARTESIAN COORDINATES (ANGSTROEM)
---------------------------------
  O      0.043480    1.419445    0.012496
  C      0.057776    0.008647   -0.080865
  C     -1.396487   -0.489660   -0.004559
  O     -1.287340   -1.906063    0.031332
  C     -2.093923    0.049601    1.282116
  C     -1.428959   -0.395085    2.503241
  N     -0.898076   -0.734309    3.471737
  C     -2.176062   -0.049379   -1.166400
  C     -2.855809    0.265822   -2.105780
  H      0.944983    1.724845    0.145049
  H      0.488637   -0.343292   -1.027134
  H      0.605272   -0.459087    0.747971
  H     -2.127114   -2.282344   -0.252754
  H     -2.093166    1.142132    1.249310
  H     -3.134497   -0.288968    1.294053
  H     -3.438515    0.554597   -2.946138

 Total Charge           Charge          ....    0
 Multiplicity           Mult            ....    1
 Number of Electrons    NEL             ....   66
 Basis Dimension        Dim             ....  321

ORBITAL ENERGIES
----------------

  NO   OCC          E(Eh)            E(eV)
   0   2.0000     -20.587690      -560.2195
   1   2.0000     -20.577889      -559.9528
   2   2.0000     -15.568014      -423.6272
   3   2.0000     -11.347847      -308.7906
   4   2.0000     -11.298848      -307.4573
   5   2.0000     -11.286107      -307.1106
   6   2.0000     -11.272775      -306.7478
   7   2.0000     -11.255093      -306.2667
   8   2.0000     -11.250941      -306.1537
   9   2.0000      -1.404177       -38.2096
  10   2.0000      -1.382282       -37.6138
  11   2.0000      -1.217546       -33.1311
  12   2.0000      -1.108755       -30.1708
  13   2.0000      -1.039714       -28.2921
  14   2.0000      -0.984591       -26.7921
  15   2.0000      -0.873224       -23.7616
  16   2.0000      -0.773815       -21.0566
  17   2.0000      -0.735115       -20.0035
  18   2.0000      -0.712801       -19.3963
  19   2.0000      -0.691030       -18.8039
  20   2.0000      -0.669664       -18.2225
  21   2.0000      -0.660584       -17.9754
  22   2.0000      -0.613088       -16.6830
  23   2.0000      -0.586427       -15.9575
  24   2.0000      -0.575277       -15.6541
  25   2.0000      -0.554480       -15.0882
  26   2.0000      -0.525572       -14.3015
  27   2.0000      -0.502502       -13.6738
  28   2.0000      -0.471831       -12.8392
  29   2.0000      -0.457781       -12.4569
  30   2.0000      -0.457059       -12.4372
  31   2.0000      -0.419476       -11.4145
  32   2.0000      -0.410825       -11.1791
  33   0.0000       0.116743         3.1767
  34   0.0000       0.125699         3.4204
  35   0.0000       0.150819         4.1040
  36   0.0000       0.155619         4.2346
  37   0.0000       0.163217         4.4414

MULLIKEN ATOMIC CHARGES
-----------------------
   0 O :   -0.481930
   1 C :   -0.092918
   2 C :    0.113069
   3 O :   -0.451397
   4 C :   -0.069070
   5 C :   -0.220981
   6 N :   -0.050672
   7 C :   -0.103255
   8 C :   -0.105332
   9 H :    0.329067
  10 H :    0.120790
  11 H :    0.149235
  12 H :    0.330154
  13 H :    0.177652
  14 H :    0.154207
  15 H :    0.201383
Sum of atomic charges:    0.0000000

LOEWDIN ATOMIC CHARGES
----------------------
   0 O :   -0.027421
   1 C :   -0.291522
   2 C :   -0.369894
   3 O :    0.044891
   4 C :   -0.197311
   5 C :   -0.188510
   6 N :    0.060630
   7 C :   -0.072057
   8 C :   -0.066056
   9 H :    0.181196
  10 H :    0.129876
  11 H :    0.134402
  12 H :    0.185870
  13 H :    0.176979
  14 H :    0.167606
  15 H :    0.131321

  Mayer bond orders larger than 0.1
B(  0-O ,  1-C ) :   1.0028 B(  0-O ,  9-H ) :   0.8405 B(  1-C ,  2-C ) :   0.8675
B(  1-C , 10-H ) :   0.9274 B(  1-C , 11-H ) :   0.9199 B(  2-C ,  3-O ) :   0.9762
B(  2-C ,  4-C ) :   0.9036 B(  2-C ,  7-C ) :   1.2124 B(  3-O , 12-H ) :   0.8331
B(  4-C ,  5-C ) :   0.9070 B(  4-C , 13-H ) :   0.8887 B(  4-C , 14-H ) :   0.8974
B(  5-C ,  6-N ) :   2.8844 B(  7-C ,  8-C ) :   2.5705 B(  8-C , 15-H ) :   0.8747

MP2 TOTAL ENERGY:     -437.136015131 Eh
FINAL SINGLE POINT ENERGY      -437.136015131054

DIPOLE MOMENT
-------------
                                X             Y             Z
Electronic contribution:     -0.69388      -0.93650       2.09862
Nuclear contribution   :      0.21299       1.37127      -3.55304
                        -----------------------------------------
Total Dipole Moment    :     -0.48089       0.43478      -1.45441
                        -----------------------------------------
Magnitude (a.u.)       :      1.59236
Magnitude (Debye)      :      4.04745

                             ****ORCA TERMINATED NORMALLY****
TOTAL RUN TIME: 0 days 0 hours 14 minutes 38 seconds 597 msec
