                         Program Version 3.0.3 - RELEASE   -
|  1> ! RI-MP2 RIJK def2-TZVP def2-TZVP/C def2-TZVP/JK TIGHTSCF
|  2> % maxcore 2000
|  3> % mp2 density relaxed end
|  4> *xyz 0 1
|  5>  C       -0.0186423429     1.5178758834    -0.0294496047
|  6>  C       -0.0087858701     0.0246536840     0.0476844041
|  7>  N       -0.0367327752    -0.6777845723    -1.0738201746
|  8>  O       -0.0198033375    -2.0438075905    -0.7009408023
|  9>  C        0.0184530285    -2.0806098657     0.6279893732
| 10>  C        0.0278151120    -0.8326795280     1.1749425484
| 11>  C        0.0711379837    -0.9736182020     2.6671850013
| 12>  C        0.0833818618    -2.4891398697     2.8310651279
| 13>  C        0.0524835453    -3.1224836573     1.6381545384
| 14>  H        0.8759362040     1.9392784330     0.4409756988
| 15>  H       -0.0508166939     1.8399437725    -1.0718043542
| 16>  H       -0.8883053100     1.9303593436     0.4927424262
| 17>  H        0.9603289338    -0.5221635957     3.1266690062
| 18>  H       -0.7948631087    -0.5309451861     3.1767720799
| 19>  H        0.1133845911    -2.9698048622     3.8004095914
| 20>  H        0.0527031680    -4.1884531570     1.4612771501
| 21> *
| 22>
| 23>                          ****END OF INPUT****

CARTESIAN COORDINATES (ANGSTROEM)
---------------------------------
  C     -0.018642    1.517876   -0.029450
  C     -0.008786    0.024654    0.047684
  N     -0.036733   -0.677785   -1.073820
  O     -0.019803   -2.043808   -0.700941
  C      0.018453   -2.080610    0.627989
  C      0.027815   -0.832680    1.174943
  C      0.071138   -0.973618    2.667185
  C      0.083382   -2.489140    2.831065
  C      0.052484   -3.122484    1.638155
  H      0.875936    1.939278    0.440976
  H     -0.050817    1.839944   -1.071804
  H     -0.888305    1.930359    0.492742
  H      0.960329   -0.522164    3.126669
  H     -0.794863   -0.530945    3.176772
  H      0.113385   -2.969805    3.800410
  H      0.052703   -4.188453    1.461277

 Total Charge           Charge          ....    0
 Multiplicity           Mult            ....    1
 Number of Electrons    NEL             ....   64
 Basis Dimension        Dim             ....  321

ORBITAL ENERGIES
----------------

  NO   OCC          E(Eh)            E(eV)
   0   2.0000     -20.631798      -561.4198
   1   2.0000     -15.603266      -424.5864
   2   2.0000     -11.301983      -307.5426
   3   2.0000     -11.284581      -307.0690
   4   2.0000     -11.262919      -306.4796
   5   2.0000     -11.258632      -306.3630
   6   2.0000     -11.255740      -306.2842
   7   2.0000     -11.236899      -305.7716
   8   2.0000     -11.220532      -305.3262
   9   2.0000      -1.474891       -40.1338
  10   2.0000      -1.173773       -31.9400
  11   2.0000      -1.163638       -31.6642
  12   2.0000      -1.008576       -27.4447
  13   2.0000      -0.984414       -26.7873
  14   2.0000      -0.966979       -26.3128
  15   2.0000      -0.810808       -22.0632
  16   2.0000      -0.781522       -21.2663
  17   2.0000      -0.758868       -20.6498
  18   2.0000      -0.685653       -18.6576
  19   2.0000      -0.658122       -17.9084
  20   2.0000      -0.610877       -16.6228
  21   2.0000      -0.602891       -16.4055
  22   2.0000      -0.600081       -16.3290
  23   2.0000      -0.580148       -15.7866
  24   2.0000      -0.556107       -15.1324
  25   2.0000      -0.548952       -14.9377
  26   2.0000      -0.539625       -14.6839
  27   2.0000      -0.503719       -13.7069
  28   2.0000      -0.460773       -12.5383
  29   2.0000      -0.425790       -11.5863
  30   2.0000      -0.401944       -10.9374
  31   2.0000      -0.314584        -8.5603
  32   0.0000       0.093225         2.5368
  33   0.0000       0.126992         3.4556
  34   0.0000       0.157390         4.2828
  35   0.0000       0.173049         4.7089
  36   0.0000       0.174536         4.7494

MULLIKEN ATOMIC CHARGES
-----------------------
   0 C :   -0.438345
   1 C :    0.056438
   2 N :   -0.106066
   3 O :   -0.129036
   4 C :    0.204702
   5 C :   -0.075623
   6 C :   -0.162474
   7 C :   -0.143486
   8 C :   -0.233203
   9 H :    0.143580
  10 H :    0.160834
  11 H :    0.143585
  12 H :    0.144127
  13 H :    0.144117
  14 H :    0.142534
  15 H :    0.148314
Sum of atomic charges:   -0.0000000

LOEWDIN ATOMIC CHARGES
----------------------
   0 C :   -0.266847
   1 C :   -0.284104
   2 N :    0.062439
   3 O :    0.289523
   4 C :   -0.256974
   5 C :   -0.124794
   6 C :   -0.192632
   7 C :   -0.128150
   8 C :   -0.108992
   9 H :    0.133907
  10 H :    0.138757
  11 H :    0.133903
  12 H :    0.159852
  13 H :    0.159853
  14 H :    0.137671
  15 H :    0.146587

  Mayer bond orders larger than 0.1
B(  0-C ,  1-C ) :   0.8555 B(  0-C ,  9-H ) :   0.9333 B(  0-C , 10-H ) :   0.9529
B(  0-C , 11-H ) :   0.9334 B(  1-C ,  2-N ) :   1.6453 B(  1-C ,  5-C ) :   1.1507
B(  2-N ,  3-O ) :   0.8535 B(  3-O ,  4-C ) :   1.1618 B(  4-C ,  5-C ) :   1.3908
B(  4-C ,  8-C ) :   1.0606 B(  5-C ,  6-C ) :   0.9624 B(  6-C ,  7-C ) :   0.9812
B(  6-C , 12-H ) :   0.8827 B(  6-C , 13-H ) :   0.8827 B(  7-C ,  8-C ) :   1.6824
B(  7-C , 14-H ) :   0.9261 B(  8-C , 15-H ) :   0.9237

MP2 TOTAL ENERGY:     -400.048190045 Eh
FINAL SINGLE POINT ENERGY      -400.048190045496

DIPOLE MOMENT
-------------
                                X             Y             Z
Electronic contribution:     -0.09537      -5.02220      -4.24402
Nuclear contribution   :      0.13427       5.24701       5.65499
                        -----------------------------------------
Total Dipole Moment    :      0.03889       0.22481       1.41096
                        -----------------------------------------
Magnitude (a.u.)       :      1.42929
Magnitude (Debye)      :      3.63297

                             ****ORCA TERMINATED NORMALLY****
TOTAL RUN TIME: 0 days 0 hours 17 minutes 32 seconds 651 msec
