                         Program Version 3.0.3 - RELEASE   -
|  1> ! RI-MP2 RIJK def2-TZVP def2-TZVP/C def2-TZVP/JK TIGHTSCF
|  2> % maxcore 2000
|  3> % mp2 density relaxed end
|  4> *xyz 0 1
|  5>  C        0.0030028083     1.4806197915     0.0832749311
|  6>  C        0.0360978782    -0.0087259123    -0.0020840384
|  7>  C        0.2784746703    -0.9936076573    -1.1916131122
|  8>  C       -0.6243755584    -2.0248525939    -0.5334773154
|  9>  C        0.8688050241    -2.0238486397    -0.2374315961
| 10>  C        0.6121821980    -1.0301349062     0.9531667584
| 11>  O        1.2946077805    -0.7711106225     2.1118051486
| 12>  C       -0.8865176458    -1.0562720893     0.6542567317
| 13>  H        0.9504685660     1.9212331688    -0.2490045455
| 14>  H       -0.7990212798     1.9038771178    -0.5326281383
| 15>  H       -0.1629407138     1.7984667082     1.1179237056
| 16>  H        0.5002011101    -0.8248450856    -2.2380996908
| 17>  H       -1.2297059112    -2.8031565230    -0.9800433803
| 18>  H        1.6125571310    -2.7869984747    -0.4266734701
| 19>  H        1.0922409274    -1.4657799316     2.7496744590
| 20>  H       -1.7365797648    -0.8931495101     1.3042481428
| 21> *
| 22>
| 23>                          ****END OF INPUT****

CARTESIAN COORDINATES (ANGSTROEM)
---------------------------------
  C      0.003003    1.480620    0.083275
  C      0.036098   -0.008726   -0.002084
  C      0.278475   -0.993608   -1.191613
  C     -0.624376   -2.024853   -0.533477
  C      0.868805   -2.023849   -0.237432
  C      0.612182   -1.030135    0.953167
  O      1.294608   -0.771111    2.111805
  C     -0.886518   -1.056272    0.654257
  H      0.950469    1.921233   -0.249005
  H     -0.799021    1.903877   -0.532628
  H     -0.162941    1.798467    1.117924
  H      0.500201   -0.824845   -2.238100
  H     -1.229706   -2.803157   -0.980043
  H      1.612557   -2.786998   -0.426673
  H      1.092241   -1.465780    2.749674
  H     -1.736580   -0.893150    1.304248

 Total Charge           Charge          ....    0
 Multiplicity           Mult            ....    1
 Number of Electrons    NEL             ....   58
 Basis Dimension        Dim             ....  296

ORBITAL ENERGIES
----------------

  NO   OCC          E(Eh)            E(eV)
   0   2.0000     -20.573421      -559.8313
   1   2.0000     -11.287472      -307.1477
   2   2.0000     -11.235125      -305.7233
   3   2.0000     -11.235055      -305.7214
   4   2.0000     -11.232289      -305.6461
   5   2.0000     -11.231481      -305.6241
   6   2.0000     -11.227538      -305.5168
   7   2.0000     -11.217883      -305.2541
   8   2.0000      -1.384669       -37.6788
   9   2.0000      -1.257712       -34.2241
  10   2.0000      -1.023034       -27.8382
  11   2.0000      -0.955294       -25.9949
  12   2.0000      -0.873086       -23.7579
  13   2.0000      -0.843659       -22.9571
  14   2.0000      -0.751221       -20.4418
  15   2.0000      -0.715225       -19.4623
  16   2.0000      -0.677125       -18.4255
  17   2.0000      -0.637082       -17.3359
  18   2.0000      -0.624336       -16.9891
  19   2.0000      -0.589268       -16.0348
  20   2.0000      -0.571579       -15.5535
  21   2.0000      -0.557703       -15.1759
  22   2.0000      -0.537163       -14.6170
  23   2.0000      -0.531254       -14.4562
  24   2.0000      -0.499246       -13.5852
  25   2.0000      -0.405496       -11.0341
  26   2.0000      -0.396128       -10.7792
  27   2.0000      -0.339526        -9.2390
  28   2.0000      -0.336980        -9.1697
  29   0.0000       0.139924         3.8075
  30   0.0000       0.155617         4.2346
  31   0.0000       0.169286         4.6065
  32   0.0000       0.186619         5.0782
  33   0.0000       0.193232         5.2581

MULLIKEN ATOMIC CHARGES
-----------------------
   0 C :   -0.412732
   1 C :    0.058574
   2 C :   -0.157984
   3 C :   -0.118572
   4 C :   -0.203158
   5 C :    0.207625
   6 O :   -0.446221
   7 C :   -0.228531
   8 H :    0.136955
   9 H :    0.135015
  10 H :    0.141526
  11 H :    0.133662
  12 H :    0.136344
  13 H :    0.141902
  14 H :    0.331485
  15 H :    0.144109
Sum of atomic charges:   -0.0000000

LOEWDIN ATOMIC CHARGES
----------------------
   0 C :   -0.274578
   1 C :   -0.152492
   2 C :   -0.106302
   3 C :   -0.130029
   4 C :   -0.115483
   5 C :   -0.273210
   6 O :    0.043842
   7 C :   -0.107547
   8 H :    0.131170
   9 H :    0.128662
  10 H :    0.136635
  11 H :    0.132739
  12 H :    0.131012
  13 H :    0.132881
  14 H :    0.188229
  15 H :    0.134473

  Mayer bond orders larger than 0.1
B(  0-C ,  1-C ) :   0.8587 B(  0-C ,  8-H ) :   0.9371 B(  0-C ,  9-H ) :   0.9444
B(  0-C , 10-H ) :   0.9434 B(  1-C ,  2-C ) :   0.9054 B(  1-C ,  5-C ) :   0.8992
B(  1-C ,  7-C ) :   0.8579 B(  2-C ,  3-C ) :   0.8444 B(  2-C ,  4-C ) :   0.8771
B(  2-C , 11-H ) :   0.9322 B(  3-C ,  4-C ) :   0.8558 B(  3-C ,  7-C ) :   0.8882
B(  3-C , 12-H ) :   0.9242 B(  4-C ,  5-C ) :   0.9483 B(  4-C , 13-H ) :   0.9274
B(  5-C ,  6-O ) :   1.0675 B(  5-C ,  7-C ) :   0.8840 B(  6-O , 14-H ) :   0.8306
B(  7-C , 15-H ) :   0.9239

MP2 TOTAL ENERGY:     -345.877693936 Eh
FINAL SINGLE POINT ENERGY      -345.877693935987

DIPOLE MOMENT
-------------
                                X             Y             Z
Electronic contribution:      1.17360      -3.19638       1.49052
Nuclear contribution   :     -1.46426       2.83670      -1.44250
                        -----------------------------------------
Total Dipole Moment    :     -0.29066      -0.35968       0.04802
                        -----------------------------------------
Magnitude (a.u.)       :      0.46493
Magnitude (Debye)      :      1.18176

                             ****ORCA TERMINATED NORMALLY****
TOTAL RUN TIME: 0 days 0 hours 11 minutes 20 seconds 479 msec
