                         Program Version 3.0.3 - RELEASE   -
|  1> ! RI-MP2 RIJK def2-TZVP def2-TZVP/C def2-TZVP/JK TIGHTSCF
|  2> % maxcore 2000
|  3> % mp2 density relaxed end
|  4> *xyz 0 1
|  5>  O        0.2596712072     1.3877499202     0.0504378180
|  6>  C        0.0382874729     0.0361004293     0.0447001703
|  7>  C       -0.8846698535    -0.6753026290    -0.9203830012
|  8>  O       -1.1791082573    -1.7014826093     0.0708425883
|  9>  C       -0.4432552402    -1.0038109596     1.0831141808
| 10>  C        0.9956908101    -0.9309571038     0.6744868962
| 11>  C        2.0319907571    -1.9382326537     0.1880175598
| 12>  C        2.9707766603    -1.1961185630     1.1639542379
| 13>  O        1.9126682072    -0.2821291796     1.5706344122
| 14>  H        1.0802307510     1.5219727343     0.5480987012
| 15>  H       -1.7860652353    -0.0993936163    -1.1592744032
| 16>  H       -0.4502181029    -1.0892069857    -1.8381240038
| 17>  H       -0.8249660023    -0.9869231085     2.0978540071
| 18>  H        1.8150462874    -2.9765845715     0.4413038651
| 19>  H        2.3003805175    -1.8679338825    -0.8676724534
| 20>  H        3.3330611036    -1.7799965108     2.0156891011
| 21>  H        3.8074438372    -0.6568850004     0.7086011938
| 22> *
| 23>
| 24>                          ****END OF INPUT****

CARTESIAN COORDINATES (ANGSTROEM)
---------------------------------
  O      0.259671    1.387750    0.050438
  C      0.038287    0.036100    0.044700
  C     -0.884670   -0.675303   -0.920383
  O     -1.179108   -1.701483    0.070843
  C     -0.443255   -1.003811    1.083114
  C      0.995691   -0.930957    0.674487
  C      2.031991   -1.938233    0.188018
  C      2.970777   -1.196119    1.163954
  O      1.912668   -0.282129    1.570634
  H      1.080231    1.521973    0.548099
  H     -1.786065   -0.099394   -1.159274
  H     -0.450218   -1.089207   -1.838124
  H     -0.824966   -0.986923    2.097854
  H      1.815046   -2.976585    0.441304
  H      2.300381   -1.867934   -0.867672
  H      3.333061   -1.779997    2.015689
  H      3.807444   -0.656885    0.708601

 Total Charge           Charge          ....    0
 Multiplicity           Mult            ....    1
 Number of Electrons    NEL             ....   68
 Basis Dimension        Dim             ....  327

ORBITAL ENERGIES
----------------

  NO   OCC          E(Eh)            E(eV)
   0   2.0000     -20.576156      -559.9057
   1   2.0000     -20.572740      -559.8127
   2   2.0000     -20.563769      -559.5686
   3   2.0000     -11.302258      -307.5501
   4   2.0000     -11.299475      -307.4743
   5   2.0000     -11.297042      -307.4081
   6   2.0000     -11.290034      -307.2174
   7   2.0000     -11.286760      -307.1284
   8   2.0000     -11.245167      -305.9966
   9   2.0000      -1.421518       -38.6815
  10   2.0000      -1.389247       -37.8033
  11   2.0000      -1.377164       -37.4745
  12   2.0000      -1.099695       -29.9242
  13   2.0000      -1.025433       -27.9034
  14   2.0000      -0.961519       -26.1643
  15   2.0000      -0.882704       -24.0196
  16   2.0000      -0.775084       -21.0911
  17   2.0000      -0.770328       -20.9617
  18   2.0000      -0.724887       -19.7252
  19   2.0000      -0.693158       -18.8618
  20   2.0000      -0.684841       -18.6355
  21   2.0000      -0.664516       -18.0824
  22   2.0000      -0.618094       -16.8192
  23   2.0000      -0.593837       -16.1591
  24   2.0000      -0.586696       -15.9648
  25   2.0000      -0.564750       -15.3676
  26   2.0000      -0.553831       -15.0705
  27   2.0000      -0.529694       -14.4137
  28   2.0000      -0.520083       -14.1522
  29   2.0000      -0.501321       -13.6416
  30   2.0000      -0.485604       -13.2140
  31   2.0000      -0.471769       -12.8375
  32   2.0000      -0.377075       -10.2607
  33   2.0000      -0.360622        -9.8130
  34   0.0000       0.134568         3.6618
  35   0.0000       0.153599         4.1796
  36   0.0000       0.158830         4.3220
  37   0.0000       0.180763         4.9188
  38   0.0000       0.186665         5.0794

MULLIKEN ATOMIC CHARGES
-----------------------
   0 O :   -0.448734
   1 C :    0.067147
   2 C :    0.002694
   3 O :   -0.327170
   4 C :   -0.018194
   5 C :    0.175261
   6 C :   -0.257680
   7 C :   -0.011997
   8 O :   -0.370106
   9 H :    0.339024
  10 H :    0.113271
  11 H :    0.105675
  12 H :    0.141355
  13 H :    0.140736
  14 H :    0.128713
  15 H :    0.111432
  16 H :    0.108575
Sum of atomic charges:   -0.0000000

LOEWDIN ATOMIC CHARGES
----------------------
   0 O :    0.047164
   1 C :   -0.323072
   2 C :   -0.211159
   3 O :    0.149438
   4 C :   -0.195352
   5 C :   -0.271152
   6 C :   -0.202482
   7 C :   -0.246094
   8 O :    0.154611
   9 H :    0.194843
  10 H :    0.131113
  11 H :    0.121304
  12 H :    0.133768
  13 H :    0.140767
  14 H :    0.136923
  15 H :    0.120630
  16 H :    0.118749

  Mayer bond orders larger than 0.1
B(  0-O ,  1-C ) :   1.1024 B(  0-O ,  9-H ) :   0.8099 B(  1-C ,  2-C ) :   1.0003
B(  1-C ,  4-C ) :   0.8807 B(  1-C ,  5-C ) :   0.8809 B(  2-C ,  3-O ) :   0.9245
B(  2-C , 10-H ) :   0.9016 B(  2-C , 11-H ) :   0.9161 B(  3-O ,  4-C ) :   0.9686
B(  4-C ,  5-C ) :   0.8004 B(  4-C , 12-H ) :   0.9030 B(  5-C ,  6-C ) :   0.8625
B(  5-C ,  8-O ) :   0.9010 B(  6-C ,  7-C ) :   0.9865 B(  6-C , 13-H ) :   0.9195
B(  6-C , 14-H ) :   0.9147 B(  7-C ,  8-O ) :   0.9070 B(  7-C , 15-H ) :   0.9180
B(  7-C , 16-H ) :   0.9187

MP2 TOTAL ENERGY:     -458.139637502 Eh
FINAL SINGLE POINT ENERGY      -458.139637502044

DIPOLE MOMENT
-------------
                                X             Y             Z
Electronic contribution:     -2.96099       2.06280       1.26578
Nuclear contribution   :      3.89635      -2.38016      -1.44048
                        -----------------------------------------
Total Dipole Moment    :      0.93536      -0.31736      -0.17470
                        -----------------------------------------
Magnitude (a.u.)       :      1.00306
Magnitude (Debye)      :      2.54958

                             ****ORCA TERMINATED NORMALLY****
TOTAL RUN TIME: 0 days 0 hours 16 minutes 0 seconds 414 msec
