                         Program Version 3.0.3 - RELEASE   -
|  1> ! RI-MP2 RIJK def2-TZVP def2-TZVP/C def2-TZVP/JK TIGHTSCF
|  2> % maxcore 2000
|  3> % mp2 density relaxed end
|  4> *xyz 0 1
|  5>  N        0.3450915002     0.9975775786    -0.0457889439
|  6>  C       -0.0856232477    -0.2005561223     0.4252989602
|  7>  O        0.5894950101    -0.8719868368     1.1918785624
|  8>  C       -1.4810123540    -0.6389191246    -0.0391807905
|  9>  C       -1.5310965466    -2.1593269340    -0.3377594979
| 10>  C       -1.9784091776    -2.8205364030     0.9917464339
| 11>  O       -0.9027589900    -3.2736798410     1.7926524472
| 12>  C       -2.7372026427    -1.6906764334     1.6650663952
| 13>  C       -2.4565881806    -0.5084705802     1.1206757489
| 14>  H        1.2508418733     1.3318255550     0.2416468836
| 15>  H       -0.1834756924     1.5353000794    -0.7089502780
| 16>  H       -1.7856646964    -0.0398660090    -0.9048921383
| 17>  H       -2.2842452288    -2.3352199984    -1.1116438334
| 18>  H       -0.5794449439    -2.5698395095    -0.6804297471
| 19>  H       -2.6021487581    -3.7024006417     0.8125992399
| 20>  H       -0.2707409378    -2.5349010840     1.8330458929
| 21>  H       -3.3572710409    -1.8508055338     2.5396196620
| 22>  H       -2.8067063461     0.4564518287     1.4708120929
| 23> *
| 24>
| 25>                          ****END OF INPUT****

CARTESIAN COORDINATES (ANGSTROEM)
---------------------------------
  N      0.345092    0.997578   -0.045789
  C     -0.085623   -0.200556    0.425299
  O      0.589495   -0.871987    1.191879
  C     -1.481012   -0.638919   -0.039181
  C     -1.531097   -2.159327   -0.337759
  C     -1.978409   -2.820536    0.991746
  O     -0.902759   -3.273680    1.792652
  C     -2.737203   -1.690676    1.665066
  C     -2.456588   -0.508471    1.120676
  H      1.250842    1.331826    0.241647
  H     -0.183476    1.535300   -0.708950
  H     -1.785665   -0.039866   -0.904892
  H     -2.284245   -2.335220   -1.111644
  H     -0.579445   -2.569840   -0.680430
  H     -2.602149   -3.702401    0.812599
  H     -0.270741   -2.534901    1.833046
  H     -3.357271   -1.850806    2.539620
  H     -2.806706    0.456452    1.470812

 Total Charge           Charge          ....    0
 Multiplicity           Mult            ....    1
 Number of Electrons    NEL             ....   68
 Basis Dimension        Dim             ....  333

ORBITAL ENERGIES
----------------

  NO   OCC          E(Eh)            E(eV)
   0   2.0000     -20.529225      -558.6286
   1   2.0000     -20.526397      -558.5517
   2   2.0000     -15.597963      -424.4421
   3   2.0000     -11.363712      -309.2223
   4   2.0000     -11.276234      -306.8419
   5   2.0000     -11.258269      -306.3531
   6   2.0000     -11.239714      -305.8482
   7   2.0000     -11.230386      -305.5943
   8   2.0000     -11.229550      -305.5716
   9   2.0000      -1.394855       -37.9559
  10   2.0000      -1.338216       -36.4147
  11   2.0000      -1.225827       -33.3565
  12   2.0000      -1.137711       -30.9587
  13   2.0000      -0.990532       -26.9537
  14   2.0000      -0.961564       -26.1655
  15   2.0000      -0.847927       -23.0733
  16   2.0000      -0.782836       -21.3021
  17   2.0000      -0.757148       -20.6030
  18   2.0000      -0.725075       -19.7303
  19   2.0000      -0.702251       -19.1092
  20   2.0000      -0.686666       -18.6851
  21   2.0000      -0.633490       -17.2381
  22   2.0000      -0.621420       -16.9097
  23   2.0000      -0.591070       -16.0838
  24   2.0000      -0.587115       -15.9762
  25   2.0000      -0.557239       -15.1632
  26   2.0000      -0.535726       -14.5779
  27   2.0000      -0.516114       -14.0442
  28   2.0000      -0.494818       -13.4647
  29   2.0000      -0.469311       -12.7706
  30   2.0000      -0.444091       -12.0843
  31   2.0000      -0.430340       -11.7101
  32   2.0000      -0.418521       -11.3885
  33   2.0000      -0.366081        -9.9616
  34   0.0000       0.113180         3.0798
  35   0.0000       0.136101         3.7035
  36   0.0000       0.150886         4.1058
  37   0.0000       0.170127         4.6294
  38   0.0000       0.176412         4.8004

MULLIKEN ATOMIC CHARGES
-----------------------
   0 N :   -0.468221
   1 C :    0.315926
   2 O :   -0.409074
   3 C :   -0.031895
   4 C :   -0.284934
   5 C :    0.110829
   6 O :   -0.475242
   7 C :   -0.185785
   8 C :   -0.178386
   9 H :    0.263075
  10 H :    0.261974
  11 H :    0.114882
  12 H :    0.121514
  13 H :    0.145690
  14 H :    0.097496
  15 H :    0.337817
  16 H :    0.130642
  17 H :    0.133690
Sum of atomic charges:    0.0000000

LOEWDIN ATOMIC CHARGES
----------------------
   0 N :   -0.001295
   1 C :   -0.444495
   2 O :    0.075520
   3 C :   -0.205289
   4 C :   -0.196159
   5 C :   -0.329171
   6 O :   -0.021625
   7 C :   -0.128091
   8 C :   -0.130234
   9 H :    0.176406
  10 H :    0.172384
  11 H :    0.150724
  12 H :    0.143563
  13 H :    0.144613
  14 H :    0.140284
  15 H :    0.174390
  16 H :    0.139902
  17 H :    0.138573

  Mayer bond orders larger than 0.1
B(  0-N ,  1-C ) :   1.1871 B(  0-N ,  9-H ) :   0.8547 B(  0-N , 10-H ) :   0.8686
B(  1-C ,  2-O ) :   1.8363 B(  1-C ,  3-C ) :   0.8683 B(  3-C ,  4-C ) :   0.9163
B(  3-C ,  8-C ) :   0.9090 B(  3-C , 11-H ) :   0.9017 B(  4-C ,  5-C ) :   0.9305
B(  4-C , 12-H ) :   0.9119 B(  4-C , 13-H ) :   0.9391 B(  5-C ,  6-O ) :   0.9531
B(  5-C ,  7-C ) :   0.9299 B(  5-C , 14-H ) :   0.9447 B(  6-O , 15-H ) :   0.8007
B(  7-C ,  8-C ) :   1.7785 B(  7-C , 16-H ) :   0.9268 B(  8-C , 17-H ) :   0.9149

MP2 TOTAL ENERGY:     -438.416225540 Eh
FINAL SINGLE POINT ENERGY      -438.416225539902

DIPOLE MOMENT
-------------
                                X             Y             Z
Electronic contribution:      2.33469       0.32345       1.91296
Nuclear contribution   :     -2.75545       1.40146      -3.12074
                        -----------------------------------------
Total Dipole Moment    :     -0.42076       1.72491      -1.20777
                        -----------------------------------------
Magnitude (a.u.)       :      2.14734
Magnitude (Debye)      :      5.45810

                             ****ORCA TERMINATED NORMALLY****
TOTAL RUN TIME: 0 days 0 hours 17 minutes 50 seconds 71 msec
