                         Program Version 3.0.3 - RELEASE   -
|  1> ! RI-MP2 RIJK def2-TZVP def2-TZVP/C def2-TZVP/JK TIGHTSCF
|  2> % maxcore 2000
|  3> % mp2 density relaxed end
|  4> *xyz 0 1
|  5>  C       -0.1111537163     1.5686191327     0.1329606695
|  6>  C       -0.0047986771     0.0774970864     0.0496515919
|  7>  C        0.0796597233    -0.7028326572    -1.0649853369
|  8>  C        0.0879134470    -0.4027309230    -2.5299600782
|  9>  C        1.4058911149    -0.5775064650    -3.1551037584
| 10>  N        2.4427655324    -0.7132779732    -3.6456388107
| 11>  O        0.1732369630    -2.0215391697    -0.7263167360
| 12>  C        0.1473405446    -2.0826234307     0.6298309449
| 13>  C        0.0374127140    -0.8395411128     1.1587584199
| 14>  H        0.7539859406     1.9995427565     0.6489877659
| 15>  H       -0.1641114148     2.0311187254    -0.8563824313
| 16>  H       -1.0038358721     1.8732023969     0.6901736308
| 17>  H       -0.6277797268    -1.0469197174    -3.0550268429
| 18>  H       -0.2369631943     0.6294760597    -2.6908816134
| 19>  H        0.2120464518    -3.0707766726     1.0543665970
| 20>  H       -0.0083460301    -0.5876931659     2.2071384078
| 21> *
| 22>
| 23>                          ****END OF INPUT****

CARTESIAN COORDINATES (ANGSTROEM)
---------------------------------
  C     -0.111154    1.568619    0.132961
  C     -0.004799    0.077497    0.049652
  C      0.079660   -0.702833   -1.064985
  C      0.087913   -0.402731   -2.529960
  C      1.405891   -0.577506   -3.155104
  N      2.442766   -0.713278   -3.645639
  O      0.173237   -2.021539   -0.726317
  C      0.147341   -2.082623    0.629831
  C      0.037413   -0.839541    1.158758
  H      0.753986    1.999543    0.648988
  H     -0.164111    2.031119   -0.856382
  H     -1.003836    1.873202    0.690174
  H     -0.627780   -1.046920   -3.055027
  H     -0.236963    0.629476   -2.690882
  H      0.212046   -3.070777    1.054367
  H     -0.008346   -0.587693    2.207138

 Total Charge           Charge          ....    0
 Multiplicity           Mult            ....    1
 Number of Electrons    NEL             ....   64
 Basis Dimension        Dim             ....  321

ORBITAL ENERGIES
----------------

  NO   OCC          E(Eh)            E(eV)
   0   2.0000     -20.630743      -561.3911
   1   2.0000     -15.569870      -423.6777
   2   2.0000     -11.304936      -307.6230
   3   2.0000     -11.299500      -307.4750
   4   2.0000     -11.299119      -307.4647
   5   2.0000     -11.275360      -306.8181
   6   2.0000     -11.251559      -306.1705
   7   2.0000     -11.243373      -305.9477
   8   2.0000     -11.237109      -305.7773
   9   2.0000      -1.470678       -40.0192
  10   2.0000      -1.219508       -33.1845
  11   2.0000      -1.118719       -30.4419
  12   2.0000      -1.086514       -29.5656
  13   2.0000      -1.000272       -27.2188
  14   2.0000      -0.948174       -25.8011
  15   2.0000      -0.816075       -22.2065
  16   2.0000      -0.770156       -20.9570
  17   2.0000      -0.728420       -19.8213
  18   2.0000      -0.702131       -19.1059
  19   2.0000      -0.654766       -17.8171
  20   2.0000      -0.635341       -17.2885
  21   2.0000      -0.608574       -16.5601
  22   2.0000      -0.593241       -16.1429
  23   2.0000      -0.582801       -15.8588
  24   2.0000      -0.577463       -15.7136
  25   2.0000      -0.557216       -15.1626
  26   2.0000      -0.555063       -15.1040
  27   2.0000      -0.523880       -14.2555
  28   2.0000      -0.463024       -12.5995
  29   2.0000      -0.460656       -12.5351
  30   2.0000      -0.398641       -10.8476
  31   2.0000      -0.327206        -8.9037
  32   0.0000       0.119491         3.2515
  33   0.0000       0.131731         3.5846
  34   0.0000       0.150387         4.0922
  35   0.0000       0.169584         4.6146
  36   0.0000       0.171331         4.6622

MULLIKEN ATOMIC CHARGES
-----------------------
   0 C :   -0.421249
   1 C :    0.005873
   2 C :    0.194348
   3 C :   -0.193791
   4 C :   -0.158184
   5 N :   -0.062361
   6 O :   -0.218353
   7 C :   -0.004030
   8 C :   -0.219926
   9 H :    0.155317
  10 H :    0.127015
  11 H :    0.150278
  12 H :    0.175813
  13 H :    0.174129
  14 H :    0.151819
  15 H :    0.143301
Sum of atomic charges:   -0.0000000

LOEWDIN ATOMIC CHARGES
----------------------
   0 C :   -0.264712
   1 C :   -0.179630
   2 C :   -0.224276
   3 C :   -0.210950
   4 C :   -0.180737
   5 N :    0.061798
   6 O :    0.362428
   7 C :   -0.234545
   8 C :   -0.159108
   9 H :    0.135855
  10 H :    0.128330
  11 H :    0.133882
  12 H :    0.175832
  13 H :    0.174665
  14 H :    0.134600
  15 H :    0.146568

  Mayer bond orders larger than 0.1
B(  0-C ,  1-C ) :   0.8347 B(  0-C ,  9-H ) :   0.9366 B(  0-C , 10-H ) :   0.9548
B(  0-C , 11-H ) :   0.9398 B(  1-C ,  2-C ) :   1.5103 B(  1-C ,  8-C ) :   1.1882
B(  2-C ,  3-C ) :   0.8842 B(  2-C ,  6-O ) :   1.0374 B(  3-C ,  4-C ) :   0.9339
B(  3-C , 12-H ) :   0.9061 B(  3-C , 13-H ) :   0.9296 B(  4-C ,  5-N ) :   2.8579
B(  6-O ,  7-C ) :   1.0452 B(  7-C ,  8-C ) :   1.5502 B(  7-C , 14-H ) :   0.9384
B(  8-C , 15-H ) :   0.9213

MP2 TOTAL ENERGY:     -400.095336551 Eh
FINAL SINGLE POINT ENERGY      -400.095336550808

DIPOLE MOMENT
-------------
                                X             Y             Z
Electronic contribution:      2.67650      -5.34168      -3.78170
Nuclear contribution   :     -4.01764       5.81578       4.73116
                        -----------------------------------------
Total Dipole Moment    :     -1.34113       0.47410       0.94946
                        -----------------------------------------
Magnitude (a.u.)       :      1.71023
Magnitude (Debye)      :      4.34705

                             ****ORCA TERMINATED NORMALLY****
TOTAL RUN TIME: 0 days 0 hours 14 minutes 56 seconds 233 msec
