                         Program Version 3.0.3 - RELEASE   -
|  1> ! RI-MP2 RIJK def2-TZVP def2-TZVP/C def2-TZVP/JK TIGHTSCF
|  2> % maxcore 2000
|  3> % mp2 density relaxed end
|  4> *xyz 0 1
|  5>  O        0.2015176818     1.3302679608     0.1808109438
|  6>  C        0.0998449489    -0.0032613291    -0.0053974563
|  7>  C        0.2479362693    -0.8279533947    -1.0996743511
|  8>  C       -0.0082933023    -2.1238142588    -0.5765566062
|  9>  N       -0.2852388641    -2.1053330756     0.7209711791
| 10>  N       -0.2134257752    -0.7808808050     1.0511755393
| 11>  N       -0.0424525103    -3.3074062357    -1.3261106652
| 12>  C        1.2233949310    -3.9930033906    -1.6111731295
| 13>  C        0.2459554889    -4.5605241325    -0.6411881709
| 14>  H        0.3993444191     1.7444065241    -0.6647042022
| 15>  H        0.4867251243    -0.5534699651    -2.1135218879
| 16>  H       -0.4151814069    -0.4816925179     1.9888639416
| 17>  H        1.3138264555    -4.4040602533    -2.6123448174
| 18>  H        2.1319700423    -3.5556853178    -1.2042756339
| 19>  H        0.4919047574    -4.5013177697     0.4143975705
| 20>  H       -0.3837582898    -5.3971763191    -0.9284140137
| 21> *
| 22>
| 23>                          ****END OF INPUT****

CARTESIAN COORDINATES (ANGSTROEM)
---------------------------------
  O      0.201518    1.330268    0.180811
  C      0.099845   -0.003261   -0.005397
  C      0.247936   -0.827953   -1.099674
  C     -0.008293   -2.123814   -0.576557
  N     -0.285239   -2.105333    0.720971
  N     -0.213426   -0.780881    1.051176
  N     -0.042453   -3.307406   -1.326111
  C      1.223395   -3.993003   -1.611173
  C      0.245955   -4.560524   -0.641188
  H      0.399344    1.744407   -0.664704
  H      0.486725   -0.553470   -2.113522
  H     -0.415181   -0.481693    1.988864
  H      1.313826   -4.404060   -2.612345
  H      2.131970   -3.555685   -1.204276
  H      0.491905   -4.501318    0.414398
  H     -0.383758   -5.397176   -0.928414

 Total Charge           Charge          ....    0
 Multiplicity           Mult            ....    1
 Number of Electrons    NEL             ....   66
 Basis Dimension        Dim             ....  321

ORBITAL ENERGIES
----------------

  NO   OCC          E(Eh)            E(eV)
   0   2.0000     -20.617959      -561.0432
   1   2.0000     -15.620940      -425.0674
   2   2.0000     -15.567171      -423.6043
   3   2.0000     -15.565468      -423.5579
   4   2.0000     -11.345582      -308.7290
   5   2.0000     -11.288480      -307.1752
   6   2.0000     -11.260720      -306.4198
   7   2.0000     -11.254127      -306.2404
   8   2.0000     -11.211295      -305.0748
   9   2.0000      -1.443487       -39.2793
  10   2.0000      -1.356979       -36.9253
  11   2.0000      -1.280259       -34.8376
  12   2.0000      -1.093780       -29.7633
  13   2.0000      -1.044434       -28.4205
  14   2.0000      -0.933383       -25.3987
  15   2.0000      -0.851959       -23.1830
  16   2.0000      -0.831223       -22.6187
  17   2.0000      -0.764097       -20.7921
  18   2.0000      -0.759169       -20.6580
  19   2.0000      -0.695269       -18.9192
  20   2.0000      -0.664399       -18.0792
  21   2.0000      -0.651583       -17.7305
  22   2.0000      -0.640558       -17.4305
  23   2.0000      -0.612830       -16.6759
  24   2.0000      -0.576602       -15.6901
  25   2.0000      -0.557847       -15.1798
  26   2.0000      -0.528732       -14.3875
  27   2.0000      -0.490777       -13.3547
  28   2.0000      -0.480471       -13.0743
  29   2.0000      -0.450176       -12.2499
  30   2.0000      -0.425812       -11.5869
  31   2.0000      -0.336626        -9.1600
  32   2.0000      -0.323861        -8.8127
  33   0.0000       0.123251         3.3538
  34   0.0000       0.155735         4.2378
  35   0.0000       0.166757         4.5377
  36   0.0000       0.181408         4.9364
  37   0.0000       0.184918         5.0319

MULLIKEN ATOMIC CHARGES
-----------------------
   0 O :   -0.428778
   1 C :    0.244996
   2 C :   -0.303333
   3 C :    0.139003
   4 N :   -0.236674
   5 N :   -0.139588
   6 N :   -0.230696
   7 C :   -0.162094
   8 C :   -0.168288
   9 H :    0.348974
  10 H :    0.145357
  11 H :    0.259461
  12 H :    0.126759
  13 H :    0.126436
  14 H :    0.145105
  15 H :    0.133360
Sum of atomic charges:   -0.0000000

LOEWDIN ATOMIC CHARGES
----------------------
   0 O :    0.073645
   1 C :   -0.385236
   2 C :   -0.190246
   3 C :   -0.353458
   4 N :    0.030994
   5 N :    0.135331
   6 N :    0.145237
   7 C :   -0.245955
   8 C :   -0.248169
   9 H :    0.203800
  10 H :    0.141849
  11 H :    0.189429
  12 H :    0.123057
  13 H :    0.125363
  14 H :    0.128985
  15 H :    0.125375

  Mayer bond orders larger than 0.1
B(  0-O ,  1-C ) :   1.1104 B(  0-O ,  9-H ) :   0.8256 B(  1-C ,  2-C ) :   1.4177
B(  1-C ,  4-N ) :   0.1030 B(  1-C ,  5-N ) :   1.2172 B(  2-C ,  3-C ) :   1.2685
B(  2-C , 10-H ) :   0.8987 B(  3-C ,  4-N ) :   1.5929 B(  3-C ,  6-N ) :   1.0226
B(  4-N ,  5-N ) :   0.9851 B(  5-N , 11-H ) :   0.8679 B(  6-N ,  7-C ) :   0.8540
B(  6-N ,  8-C ) :   0.8770 B(  7-C ,  8-C ) :   0.9553 B(  7-C , 12-H ) :   0.9265
B(  7-C , 13-H ) :   0.9158 B(  8-C , 14-H ) :   0.9216 B(  8-C , 15-H ) :   0.9270

MP2 TOTAL ENERGY:     -433.326451674 Eh
FINAL SINGLE POINT ENERGY      -433.326451674309

DIPOLE MOMENT
-------------
                                X             Y             Z
Electronic contribution:     -2.07685       5.17570       2.32952
Nuclear contribution   :      2.64606      -4.44991      -2.51648
                        -----------------------------------------
Total Dipole Moment    :      0.56921       0.72578      -0.18696
                        -----------------------------------------
Magnitude (a.u.)       :      0.94112
Magnitude (Debye)      :      2.39215

                             ****ORCA TERMINATED NORMALLY****
TOTAL RUN TIME: 0 days 0 hours 16 minutes 30 seconds 150 msec
