                         Program Version 3.0.3 - RELEASE   -
|  1> ! RI-MP2 RIJK def2-TZVP def2-TZVP/C def2-TZVP/JK TIGHTSCF
|  2> % maxcore 2000
|  3> % mp2 density relaxed end
|  4> *xyz 0 1
|  5>  C       -0.6799444736     1.6563618209     0.0373914549
|  6>  C       -0.4655890566     0.1619739758     0.1500378577
|  7>  C       -1.6925629790    -0.7002682815    -0.0641773488
|  8>  O       -2.7641203427    -0.4243088099     0.8363335949
|  9>  C       -2.5548119471    -0.8334156929     2.1684041660
| 10>  C       -1.9700841113     0.2241358593     3.0163584655
| 11>  N       -1.5338998396     1.0622448933     3.6817502460
| 12>  C        0.8569263756    -0.4131534559    -0.2125181778
| 13>  N        0.4319660212    -0.3708610940     1.1963938205
| 14>  H        0.2569068053     2.1981947170     0.2002993827
| 15>  H       -1.0539446777     1.9225774020    -0.9576695968
| 16>  H       -1.4084131785     2.0055002512     0.7738717635
| 17>  H       -2.1155415483    -0.5201323512    -1.0578898044
| 18>  H       -1.4083875830    -1.7595143904     0.0081520338
| 19>  H       -3.5348681757    -1.0926413164     2.5844913937
| 20>  H       -1.9062004998    -1.7165017472     2.2289934136
| 21>  H        0.9310469008    -1.4105715866    -0.6391381393
| 22>  H        1.6261534379     0.2772009015    -0.5484938013
| 23>  H        0.8854767218     0.3941763551     1.6893992058
| 24> *
| 25>
| 26>                          ****END OF INPUT****

CARTESIAN COORDINATES (ANGSTROEM)
---------------------------------
  C     -0.679944    1.656362    0.037391
  C     -0.465589    0.161974    0.150038
  C     -1.692563   -0.700268   -0.064177
  O     -2.764120   -0.424309    0.836334
  C     -2.554812   -0.833416    2.168404
  C     -1.970084    0.224136    3.016358
  N     -1.533900    1.062245    3.681750
  C      0.856926   -0.413153   -0.212518
  N      0.431966   -0.370861    1.196394
  H      0.256907    2.198195    0.200299
  H     -1.053945    1.922577   -0.957670
  H     -1.408413    2.005500    0.773872
  H     -2.115542   -0.520132   -1.057890
  H     -1.408388   -1.759514    0.008152
  H     -3.534868   -1.092641    2.584491
  H     -1.906200   -1.716502    2.228993
  H      0.931047   -1.410572   -0.639138
  H      1.626153    0.277201   -0.548494
  H      0.885477    0.394176    1.689399

 Total Charge           Charge          ....    0
 Multiplicity           Mult            ....    1
 Number of Electrons    NEL             ....   68
 Basis Dimension        Dim             ....  339

ORBITAL ENERGIES
----------------

  NO   OCC          E(Eh)            E(eV)
   0   2.0000     -20.584489      -560.1324
   1   2.0000     -15.570197      -423.6866
   2   2.0000     -15.564457      -423.5304
   3   2.0000     -11.331994      -308.3592
   4   2.0000     -11.293323      -307.3069
   5   2.0000     -11.275529      -306.8227
   6   2.0000     -11.271707      -306.7187
   7   2.0000     -11.264562      -306.5243
   8   2.0000     -11.227502      -305.5159
   9   2.0000      -1.403801       -38.1994
  10   2.0000      -1.272791       -34.6344
  11   2.0000      -1.216716       -33.1085
  12   2.0000      -1.040920       -28.3249
  13   2.0000      -0.994932       -27.0735
  14   2.0000      -0.934826       -25.4379
  15   2.0000      -0.889161       -24.1953
  16   2.0000      -0.781242       -21.2587
  17   2.0000      -0.734804       -19.9950
  18   2.0000      -0.697024       -18.9670
  19   2.0000      -0.682560       -18.5734
  20   2.0000      -0.668387       -18.1877
  21   2.0000      -0.640544       -17.4301
  22   2.0000      -0.591045       -16.0831
  23   2.0000      -0.569280       -15.4909
  24   2.0000      -0.564172       -15.3519
  25   2.0000      -0.555962       -15.1285
  26   2.0000      -0.535039       -14.5592
  27   2.0000      -0.522632       -14.2215
  28   2.0000      -0.479479       -13.0473
  29   2.0000      -0.477248       -12.9866
  30   2.0000      -0.467213       -12.7135
  31   2.0000      -0.456476       -12.4214
  32   2.0000      -0.449267       -12.2252
  33   2.0000      -0.395092       -10.7510
  34   0.0000       0.131860         3.5881
  35   0.0000       0.150024         4.0824
  36   0.0000       0.160424         4.3654
  37   0.0000       0.166465         4.5297
  38   0.0000       0.169554         4.6138

MULLIKEN ATOMIC CHARGES
-----------------------
   0 C :   -0.389403
   1 C :    0.093799
   2 C :   -0.079218
   3 O :   -0.305020
   4 C :    0.073731
   5 C :   -0.179749
   6 N :   -0.077473
   7 C :   -0.206007
   8 N :   -0.398515
   9 H :    0.124796
  10 H :    0.132768
  11 H :    0.165649
  12 H :    0.125770
  13 H :    0.125987
  14 H :    0.160393
  15 H :    0.143617
  16 H :    0.122823
  17 H :    0.133608
  18 H :    0.232443
Sum of atomic charges:   -0.0000000

LOEWDIN ATOMIC CHARGES
----------------------
   0 C :   -0.268516
   1 C :   -0.345800
   2 C :   -0.271492
   3 O :    0.171710
   4 C :   -0.307110
   5 C :   -0.191255
   6 N :    0.056460
   7 C :   -0.244557
   8 N :    0.005682
   9 H :    0.129421
  10 H :    0.131514
  11 H :    0.135088
  12 H :    0.139221
  13 H :    0.133090
  14 H :    0.152600
  15 H :    0.150873
  16 H :    0.126131
  17 H :    0.125856
  18 H :    0.171082

  Mayer bond orders larger than 0.1
B(  0-C ,  1-C ) :   0.9490 B(  0-C ,  9-H ) :   0.9231 B(  0-C , 10-H ) :   0.9294
B(  0-C , 11-H ) :   0.9300 B(  1-C ,  2-C ) :   0.8824 B(  1-C ,  7-C ) :   0.9267
B(  1-C ,  8-N ) :   0.8289 B(  2-C ,  3-O ) :   0.9176 B(  2-C , 12-H ) :   0.9324
B(  2-C , 13-H ) :   0.9498 B(  3-O ,  4-C ) :   0.9422 B(  4-C ,  5-C ) :   0.8877
B(  4-C , 14-H ) :   0.9111 B(  4-C , 15-H ) :   0.9156 B(  5-C ,  6-N ) :   2.8402
B(  7-C ,  8-N ) :   0.9396 B(  7-C , 16-H ) :   0.9083 B(  7-C , 17-H ) :   0.9218
B(  8-N , 18-H ) :   0.8640

MP2 TOTAL ENERGY:     -418.477241459 Eh
FINAL SINGLE POINT ENERGY      -418.477241459060

DIPOLE MOMENT
-------------
                                X             Y             Z
Electronic contribution:     -3.38681      -0.55858       5.78066
Nuclear contribution   :      3.55970      -0.04663      -6.92207
                        -----------------------------------------
Total Dipole Moment    :      0.17290      -0.60521      -1.14141
                        -----------------------------------------
Magnitude (a.u.)       :      1.30345
Magnitude (Debye)      :      3.31310

                             ****ORCA TERMINATED NORMALLY****
TOTAL RUN TIME: 0 days 0 hours 18 minutes 13 seconds 265 msec
