                         Program Version 3.0.3 - RELEASE   -
|  1> ! RI-MP2 RIJK def2-TZVP def2-TZVP/C def2-TZVP/JK TIGHTSCF
|  2> % maxcore 2000
|  3> % mp2 density relaxed end
|  4> *xyz 0 1
|  5>  C       -0.0023180821     1.4102206927    -0.0822003648
|  6>  O       -0.0153029801     0.0356179385     0.2262777103
|  7>  C       -1.2879211939    -0.5812778674     0.0666846467
|  8>  C       -1.6976386141    -0.8614852353    -1.3714895278
|  9>  C       -1.9740642382    -2.1537018149    -1.5595759518
| 10>  C       -1.7387723992    -2.9550361163    -0.3213085339
| 11>  C       -0.2869807973    -2.9700013799     0.1568039267
| 12>  C       -1.2665352221    -1.9675047764     0.7088796291
| 13>  O       -1.6906979387    -2.0778811524     2.0316801519
| 14>  H        0.9977835480     1.7842828250     0.1515428487
| 15>  H       -0.2071999827     1.6052787424    -1.1453163003
| 16>  H       -0.7390167418     1.9690927262     0.5167018307
| 17>  H       -2.0464980431     0.0357880256     0.5794687368
| 18>  H       -1.7505550818    -0.0883036318    -2.1284396389
| 19>  H       -2.2937278596    -2.5992075681    -2.4954223475
| 20>  H       -2.3820439723    -3.7839505839    -0.0517373309
| 21>  H       -0.0150619592    -3.7688362825     0.8389035933
| 22>  H        0.4885512577    -2.6419042239    -0.5256537561
| 23>  H       -0.9733111994    -1.7579110676     2.5906010975
| 24> *
| 25>
| 26>                          ****END OF INPUT****

CARTESIAN COORDINATES (ANGSTROEM)
---------------------------------
  C     -0.002318    1.410221   -0.082200
  O     -0.015303    0.035618    0.226278
  C     -1.287921   -0.581278    0.066685
  C     -1.697639   -0.861485   -1.371490
  C     -1.974064   -2.153702   -1.559576
  C     -1.738772   -2.955036   -0.321309
  C     -0.286981   -2.970001    0.156804
  C     -1.266535   -1.967505    0.708880
  O     -1.690698   -2.077881    2.031680
  H      0.997784    1.784283    0.151543
  H     -0.207200    1.605279   -1.145316
  H     -0.739017    1.969093    0.516702
  H     -2.046498    0.035788    0.579469
  H     -1.750555   -0.088304   -2.128440
  H     -2.293728   -2.599208   -2.495422
  H     -2.382044   -3.783951   -0.051737
  H     -0.015062   -3.768836    0.838904
  H      0.488551   -2.641904   -0.525654
  H     -0.973311   -1.757911    2.590601

 Total Charge           Charge          ....    0
 Multiplicity           Mult            ....    1
 Number of Electrons    NEL             ....   68
 Basis Dimension        Dim             ....  339

ORBITAL ENERGIES
----------------

  NO   OCC          E(Eh)            E(eV)
   0   2.0000     -20.562967      -559.5468
   1   2.0000     -20.557376      -559.3946
   2   2.0000     -11.285041      -307.0816
   3   2.0000     -11.282445      -307.0109
   4   2.0000     -11.272749      -306.7471
   5   2.0000     -11.236834      -305.7698
   6   2.0000     -11.232915      -305.6632
   7   2.0000     -11.226144      -305.4789
   8   2.0000     -11.225168      -305.4524
   9   2.0000      -1.383340       -37.6426
  10   2.0000      -1.367209       -37.2036
  11   2.0000      -1.172806       -31.9137
  12   2.0000      -1.036756       -28.2116
  13   2.0000      -0.972695       -26.4684
  14   2.0000      -0.894530       -24.3414
  15   2.0000      -0.840628       -22.8747
  16   2.0000      -0.770763       -20.9735
  17   2.0000      -0.750459       -20.4210
  18   2.0000      -0.718857       -19.5611
  19   2.0000      -0.664036       -18.0693
  20   2.0000      -0.651328       -17.7235
  21   2.0000      -0.633649       -17.2425
  22   2.0000      -0.616933       -16.7876
  23   2.0000      -0.599798       -16.3213
  24   2.0000      -0.583526       -15.8785
  25   2.0000      -0.556289       -15.1374
  26   2.0000      -0.529849       -14.4179
  27   2.0000      -0.510879       -13.9017
  28   2.0000      -0.505252       -13.7486
  29   2.0000      -0.477876       -13.0037
  30   2.0000      -0.441232       -12.0065
  31   2.0000      -0.418618       -11.3912
  32   2.0000      -0.399823       -10.8797
  33   2.0000      -0.340343        -9.2612
  34   0.0000       0.138115         3.7583
  35   0.0000       0.148703         4.0464
  36   0.0000       0.156054         4.2464
  37   0.0000       0.171741         4.6733
  38   0.0000       0.188818         5.1380

MULLIKEN ATOMIC CHARGES
-----------------------
   0 C :   -0.229406
   1 O :   -0.305461
   2 C :    0.161150
   3 C :   -0.290208
   4 C :   -0.139197
   5 C :   -0.086934
   6 C :   -0.322458
   7 C :    0.220124
   8 O :   -0.461708
   9 H :    0.140887
  10 H :    0.112210
  11 H :    0.113877
  12 H :    0.087634
  13 H :    0.130083
  14 H :    0.132607
  15 H :    0.139046
  16 H :    0.132726
  17 H :    0.136762
  18 H :    0.328265
Sum of atomic charges:    0.0000000

LOEWDIN ATOMIC CHARGES
----------------------
   0 C :   -0.360334
   1 O :    0.154945
   2 C :   -0.264515
   3 C :   -0.136291
   4 C :   -0.123398
   5 C :   -0.161759
   6 C :   -0.173080
   7 C :   -0.317033
   8 O :    0.027358
   9 H :    0.113945
  10 H :    0.100764
  11 H :    0.101988
  12 H :    0.145863
  13 H :    0.136090
  14 H :    0.139837
  15 H :    0.150647
  16 H :    0.138894
  17 H :    0.139458
  18 H :    0.186621

  Mayer bond orders larger than 0.1
B(  0-C ,  1-O ) :   0.9216 B(  0-C ,  9-H ) :   0.9399 B(  0-C , 10-H ) :   0.9348
B(  0-C , 11-H ) :   0.9351 B(  1-O ,  2-C ) :   0.9211 B(  2-C ,  3-C ) :   0.9070
B(  2-C ,  7-C ) :   0.9493 B(  2-C , 12-H ) :   0.8972 B(  3-C ,  4-C ) :   1.7932
B(  3-C , 13-H ) :   0.9147 B(  4-C ,  5-C ) :   0.9239 B(  4-C , 14-H ) :   0.9230
B(  5-C ,  6-C ) :   0.8933 B(  5-C ,  7-C ) :   0.8840 B(  5-C , 15-H ) :   0.9075
B(  6-C ,  7-C ) :   0.8991 B(  6-C , 16-H ) :   0.9246 B(  6-C , 17-H ) :   0.8958
B(  7-C ,  8-O ) :   1.0064 B(  8-O , 18-H ) :   0.8372

MP2 TOTAL ENERGY:     -422.291849282 Eh
FINAL SINGLE POINT ENERGY      -422.291849281740

DIPOLE MOMENT
-------------
                                X             Y             Z
Electronic contribution:     -1.51696      -3.08192       1.71479
Nuclear contribution   :      1.70837       3.45950      -1.94973
                        -----------------------------------------
Total Dipole Moment    :      0.19141       0.37757      -0.23495
                        -----------------------------------------
Magnitude (a.u.)       :      0.48415
Magnitude (Debye)      :      1.23060

                             ****ORCA TERMINATED NORMALLY****
TOTAL RUN TIME: 0 days 0 hours 29 minutes 4 seconds 551 msec
