                         Program Version 3.0.3 - RELEASE   -
|  1> ! RI-MP2 RIJK def2-TZVP def2-TZVP/C def2-TZVP/JK TIGHTSCF
|  2> % maxcore 2000
|  3> % mp2 density relaxed end
|  4> *xyz 0 1
|  5>  O        0.0018200666    -0.1005046765     0.4238985089
|  6>  C        0.2008290404     0.8012376385    -0.3450995949
|  7>  C        0.9209538845     2.0876715328     0.0365759386
|  8>  N        0.8095986881     3.0559509399    -1.0383915897
|  9>  C        1.1115394049     4.2449903390    -0.8171673848
| 10>  O        1.0268354115     5.2399912402    -1.7706577711
| 11>  C        1.4238085048     6.3590618818    -1.1345884306
| 12>  N        1.7547499540     6.2202108901     0.0900900897
| 13>  O        1.5652075973     4.8295602911     0.3321577329
| 14>  H       -0.1188535036     0.7645238854    -1.4098343817
| 15>  H        0.5168770867     2.4458444389     0.9930742836
| 16>  H        1.9731176815     1.8260132270     0.2268867132
| 17>  H        1.4389927633     7.2872550218    -1.6839915241
| 18> *
| 19>
| 20>                          ****END OF INPUT****

CARTESIAN COORDINATES (ANGSTROEM)
---------------------------------
  O      0.001820   -0.100505    0.423899
  C      0.200829    0.801238   -0.345100
  C      0.920954    2.087672    0.036576
  N      0.809599    3.055951   -1.038392
  C      1.111539    4.244990   -0.817167
  O      1.026835    5.239991   -1.770658
  C      1.423809    6.359062   -1.134588
  N      1.754750    6.220211    0.090090
  O      1.565208    4.829560    0.332158
  H     -0.118854    0.764524   -1.409834
  H      0.516877    2.445844    0.993074
  H      1.973118    1.826013    0.226887
  H      1.438993    7.287255   -1.683992

 Total Charge           Charge          ....    0
 Multiplicity           Mult            ....    1
 Number of Electrons    NEL             ....   66
 Basis Dimension        Dim             ....  303

ORBITAL ENERGIES
----------------

  NO   OCC          E(Eh)            E(eV)
   0   2.0000     -20.681308      -562.7670
   1   2.0000     -20.674305      -562.5764
   2   2.0000     -20.557804      -559.4063
   3   2.0000     -15.673047      -426.4853
   4   2.0000     -15.574106      -423.7930
   5   2.0000     -11.433719      -311.1273
   6   2.0000     -11.393548      -310.0342
   7   2.0000     -11.332535      -308.3740
   8   2.0000     -11.283185      -307.0311
   9   2.0000      -1.584167       -43.1074
  10   2.0000      -1.448779       -39.4233
  11   2.0000      -1.398633       -38.0587
  12   2.0000      -1.288191       -35.0534
  13   2.0000      -1.193418       -32.4746
  14   2.0000      -1.018468       -27.7139
  15   2.0000      -0.927720       -25.2445
  16   2.0000      -0.878697       -23.9106
  17   2.0000      -0.804087       -21.8803
  18   2.0000      -0.775043       -21.0900
  19   2.0000      -0.748185       -20.3592
  20   2.0000      -0.699780       -19.0420
  21   2.0000      -0.678393       -18.4600
  22   2.0000      -0.641466       -17.4552
  23   2.0000      -0.632036       -17.1986
  24   2.0000      -0.625627       -17.0242
  25   2.0000      -0.614763       -16.7285
  26   2.0000      -0.610590       -16.6150
  27   2.0000      -0.559149       -15.2152
  28   2.0000      -0.526916       -14.3381
  29   2.0000      -0.493522       -13.4294
  30   2.0000      -0.463350       -12.6084
  31   2.0000      -0.422885       -11.5073
  32   2.0000      -0.395761       -10.7692
  33   0.0000       0.115368         3.1393
  34   0.0000       0.121057         3.2941
  35   0.0000       0.138429         3.7668
  36   0.0000       0.150248         4.0885
  37   0.0000       0.173420         4.7190

MULLIKEN ATOMIC CHARGES
-----------------------
   0 O :   -0.263990
   1 C :    0.093289
   2 C :   -0.072352
   3 N :   -0.269827
   4 C :    0.301000
   5 O :   -0.206297
   6 C :    0.107012
   7 N :   -0.114462
   8 O :   -0.148845
   9 H :    0.099592
  10 H :    0.143574
  11 H :    0.146139
  12 H :    0.185168
Sum of atomic charges:   -0.0000000

LOEWDIN ATOMIC CHARGES
----------------------
   0 O :    0.135498
   1 C :   -0.291106
   2 C :   -0.285293
   3 N :    0.093127
   4 C :   -0.466209
   5 O :    0.322015
   6 C :   -0.335712
   7 N :    0.046589
   8 O :    0.223535
   9 H :    0.113376
  10 H :    0.145309
  11 H :    0.151409
  12 H :    0.147462

  Mayer bond orders larger than 0.1
B(  0-O ,  1-C ) :   2.0011 B(  1-C ,  2-C ) :   0.8759 B(  1-C ,  9-H ) :   0.9348
B(  2-C ,  3-N ) :   0.8413 B(  2-C , 10-H ) :   0.8984 B(  2-C , 11-H ) :   0.8959
B(  3-N ,  4-C ) :   1.9140 B(  4-C ,  5-O ) :   0.9884 B(  4-C ,  8-O ) :   1.0796
B(  5-O ,  6-C ) :   1.0564 B(  6-C ,  7-N ) :   1.7390 B(  6-C , 12-H ) :   0.9174
B(  7-N ,  8-O ) :   0.8107

MP2 TOTAL ENERGY:     -489.077922715 Eh
FINAL SINGLE POINT ENERGY      -489.077922714987

DIPOLE MOMENT
-------------
                                X             Y             Z
Electronic contribution:      0.41144       3.47754      -0.65910
Nuclear contribution   :     -0.09473      -2.03207      -0.03745
                        -----------------------------------------
Total Dipole Moment    :      0.31671       1.44547      -0.69655
                        -----------------------------------------
Magnitude (a.u.)       :      1.63550
Magnitude (Debye)      :      4.15712

                             ****ORCA TERMINATED NORMALLY****
TOTAL RUN TIME: 0 days 0 hours 11 minutes 27 seconds 238 msec
