                         Program Version 3.0.3 - RELEASE   -
|  1> ! RI-MP2 RIJK def2-TZVP def2-TZVP/C def2-TZVP/JK TIGHTSCF
|  2> % maxcore 2000
|  3> % mp2 density relaxed end
|  4> *xyz 0 1
|  5>  O       -0.0595878035     1.3908202468     0.0724603114
|  6>  C        0.0166644460     0.0021238714     0.0156956846
|  7>  C       -0.5926753189    -0.7977249538     1.1303833375
|  8>  C        0.8982205198    -0.8853228640     0.8590659399
|  9>  N        1.4108226545    -1.9125726672    -0.0682614124
| 10>  C        0.2731721664    -2.2373178760    -1.0514970363
| 11>  C        1.3248663218    -2.4224947026    -2.1579461718
| 12>  C        1.7093729206    -1.1582411918    -1.3816544885
| 13>  C        0.1966082941    -0.7086848102    -1.3223122637
| 14>  H        0.7707265614     1.7518679830    -0.2586515890
| 15>  H       -0.8544816122    -0.2221623762     2.0126472140
| 16>  H       -1.2556419149    -1.6321075146     0.9310303745
| 17>  H        1.6012623406    -0.5183847832     1.5973318224
| 18>  H       -0.5337546170    -2.9182341264    -0.7778596287
| 19>  H        1.9919784037    -3.2775054380    -2.0409548965
| 20>  H        0.9834945280    -2.2901644461    -3.1856994626
| 21>  H        2.5988808853    -0.5312107008    -1.4810042619
| 22>  H       -0.3225715758    -0.3145271503    -2.1987164928
| 23> *
| 24>
| 25>                          ****END OF INPUT****

CARTESIAN COORDINATES (ANGSTROEM)
---------------------------------
  O     -0.059588    1.390820    0.072460
  C      0.016664    0.002124    0.015696
  C     -0.592675   -0.797725    1.130383
  C      0.898221   -0.885323    0.859066
  N      1.410823   -1.912573   -0.068261
  C      0.273172   -2.237318   -1.051497
  C      1.324866   -2.422495   -2.157946
  C      1.709373   -1.158241   -1.381654
  C      0.196608   -0.708685   -1.322312
  H      0.770727    1.751868   -0.258652
  H     -0.854482   -0.222162    2.012647
  H     -1.255642   -1.632108    0.931030
  H      1.601262   -0.518385    1.597332
  H     -0.533755   -2.918234   -0.777860
  H      1.991978   -3.277505   -2.040955
  H      0.983495   -2.290164   -3.185699
  H      2.598881   -0.531211   -1.481004
  H     -0.322572   -0.314527   -2.198716

 Total Charge           Charge          ....    0
 Multiplicity           Mult            ....    1
 Number of Electrons    NEL             ....   66
 Basis Dimension        Dim             ....  333

ORBITAL ENERGIES
----------------

  NO   OCC          E(Eh)            E(eV)
   0   2.0000     -20.568480      -559.6968
   1   2.0000     -15.562877      -423.4874
   2   2.0000     -11.283469      -307.0388
   3   2.0000     -11.277042      -306.8639
   4   2.0000     -11.276935      -306.8610
   5   2.0000     -11.248407      -306.0847
   6   2.0000     -11.246316      -306.0278
   7   2.0000     -11.232904      -305.6629
   8   2.0000     -11.230590      -305.5999
   9   2.0000      -1.379449       -37.5367
  10   2.0000      -1.305744       -35.5311
  11   2.0000      -1.129320       -30.7303
  12   2.0000      -1.017154       -27.6782
  13   2.0000      -0.936954       -25.4958
  14   2.0000      -0.880179       -23.9509
  15   2.0000      -0.814277       -22.1576
  16   2.0000      -0.784739       -21.3538
  17   2.0000      -0.731622       -19.9085
  18   2.0000      -0.709552       -19.3079
  19   2.0000      -0.697401       -18.9772
  20   2.0000      -0.637221       -17.3397
  21   2.0000      -0.614280       -16.7154
  22   2.0000      -0.584742       -15.9116
  23   2.0000      -0.569774       -15.5043
  24   2.0000      -0.538432       -14.6515
  25   2.0000      -0.526200       -14.3186
  26   2.0000      -0.492144       -13.3919
  27   2.0000      -0.478780       -13.0283
  28   2.0000      -0.463502       -12.6125
  29   2.0000      -0.453418       -12.3381
  30   2.0000      -0.413913       -11.2631
  31   2.0000      -0.402490       -10.9523
  32   2.0000      -0.351772        -9.5722
  33   0.0000       0.132409         3.6030
  34   0.0000       0.153402         4.1743
  35   0.0000       0.162719         4.4278
  36   0.0000       0.176665         4.8073
  37   0.0000       0.180104         4.9009

MULLIKEN ATOMIC CHARGES
-----------------------
   0 O :   -0.451074
   1 C :    0.115959
   2 C :   -0.244306
   3 C :   -0.113219
   4 N :   -0.202230
   5 C :   -0.082889
   6 C :   -0.189712
   7 C :   -0.071134
   8 C :   -0.107480
   9 H :    0.320072
  10 H :    0.130494
  11 H :    0.136017
  12 H :    0.132866
  13 H :    0.132280
  14 H :    0.121207
  15 H :    0.121431
  16 H :    0.129559
  17 H :    0.122156
Sum of atomic charges:    0.0000000

LOEWDIN ATOMIC CHARGES
----------------------
   0 O :    0.026929
   1 C :   -0.340604
   2 C :   -0.174826
   3 C :   -0.225501
   4 N :    0.148103
   5 C :   -0.178588
   6 C :   -0.204148
   7 C :   -0.169684
   8 C :   -0.140951
   9 H :    0.183069
  10 H :    0.145916
  11 H :    0.134424
  12 H :    0.140946
  13 H :    0.125176
  14 H :    0.133647
  15 H :    0.131810
  16 H :    0.122004
  17 H :    0.142278

  Mayer bond orders larger than 0.1
B(  0-O ,  1-C ) :   1.0431 B(  0-O ,  9-H ) :   0.8379 B(  1-C ,  2-C ) :   0.9141
B(  1-C ,  3-C ) :   0.8160 B(  1-C ,  8-C ) :   0.9259 B(  2-C ,  3-C ) :   0.8965
B(  2-C , 10-H ) :   0.9212 B(  2-C , 11-H ) :   0.9076 B(  3-C ,  4-N ) :   0.9628
B(  3-C , 12-H ) :   0.9394 B(  4-N ,  5-C ) :   0.8602 B(  4-N ,  7-C ) :   0.8534
B(  5-C ,  6-C ) :   0.9067 B(  5-C ,  8-C ) :   0.8585 B(  5-C , 13-H ) :   0.8966
B(  6-C ,  7-C ) :   0.9327 B(  6-C , 14-H ) :   0.9166 B(  6-C , 15-H ) :   0.9294
B(  7-C ,  8-C ) :   0.8554 B(  7-C , 16-H ) :   0.8898 B(  8-C , 17-H ) :   0.9286

MP2 TOTAL ENERGY:     -401.167659702 Eh
FINAL SINGLE POINT ENERGY      -401.167659702168

DIPOLE MOMENT
-------------
                                X             Y             Z
Electronic contribution:      0.25478       1.71769       0.96370
Nuclear contribution   :     -0.11707      -1.55068      -1.48084
                        -----------------------------------------
Total Dipole Moment    :      0.13770       0.16701      -0.51714
                        -----------------------------------------
Magnitude (a.u.)       :      0.56062
Magnitude (Debye)      :      1.42498

                             ****ORCA TERMINATED NORMALLY****
TOTAL RUN TIME: 0 days 0 hours 17 minutes 1 seconds 737 msec
