                         Program Version 3.0.3 - RELEASE   -
|  1> ! RI-MP2 RIJK def2-TZVP def2-TZVP/C def2-TZVP/JK TIGHTSCF
|  2> % maxcore 2000
|  3> % mp2 density relaxed end
|  4> *xyz 0 1
|  5>  C       -0.5764370243     1.3927549913     0.0938432944
|  6>  C       -0.0633603978    -0.0357393584    -0.0223151948
|  7>  C       -1.1689303392    -1.0315254194    -0.4067613670
|  8>  N       -1.7951357082    -0.7617766615    -1.6918877262
|  9>  C       -3.0285798314    -0.1993353626    -1.8123832114
| 10>  O       -3.7225073148     0.1678372318    -0.8881113033
| 11>  C        1.2463936130    -0.2509322797    -0.8256503433
| 12>  O        1.8555425368    -0.9593318102     0.2699734434
| 13>  C        0.7816630774    -0.5843940838     1.1568025592
| 14>  H        0.2236986763     2.0707157284     0.4068834587
| 15>  H       -0.9650045293     1.7491744323    -0.8649307966
| 16>  H       -1.3922501026     1.4613857310     0.8203326209
| 17>  H       -0.7531825465    -2.0456820969    -0.4220155330
| 18>  H       -1.9671143362    -1.0019940300     0.3400348299
| 19>  H       -1.3185987856    -1.0387308911    -2.5350309491
| 20>  H       -3.3384372429    -0.1130366763    -2.8728799582
| 21>  H        1.1872985140    -0.8680044212    -1.7323278436
| 22>  H        1.7846373904     0.6764053468    -1.0659176966
| 23>  H        1.0941731922     0.1802595805     1.8806226804
| 24>  H        0.3760237188    -1.4463333210     1.7011764162
| 25> *
| 26>
| 27>                          ****END OF INPUT****

CARTESIAN COORDINATES (ANGSTROEM)
---------------------------------
  C     -0.576437    1.392755    0.093843
  C     -0.063360   -0.035739   -0.022315
  C     -1.168930   -1.031525   -0.406761
  N     -1.795136   -0.761777   -1.691888
  C     -3.028580   -0.199335   -1.812383
  O     -3.722507    0.167837   -0.888111
  C      1.246394   -0.250932   -0.825650
  O      1.855543   -0.959332    0.269973
  C      0.781663   -0.584394    1.156803
  H      0.223699    2.070716    0.406883
  H     -0.965005    1.749174   -0.864931
  H     -1.392250    1.461386    0.820333
  H     -0.753183   -2.045682   -0.422016
  H     -1.967114   -1.001994    0.340035
  H     -1.318599   -1.038731   -2.535031
  H     -3.338437   -0.113037   -2.872880
  H      1.187299   -0.868004   -1.732328
  H      1.784637    0.676405   -1.065918
  H      1.094173    0.180260    1.880623
  H      0.376024   -1.446333    1.701176

 Total Charge           Charge          ....    0
 Multiplicity           Mult            ....    1
 Number of Electrons    NEL             ....   70
 Basis Dimension        Dim             ....  345

ORBITAL ENERGIES
----------------

  NO   OCC          E(Eh)            E(eV)
   0   2.0000     -20.553867      -559.2992
   1   2.0000     -20.527531      -558.5825
   2   2.0000     -15.595915      -424.3864
   3   2.0000     -11.354370      -308.9681
   4   2.0000     -11.283998      -307.0532
   5   2.0000     -11.281978      -306.9982
   6   2.0000     -11.273222      -306.7600
   7   2.0000     -11.249047      -306.1021
   8   2.0000     -11.221280      -305.3466
   9   2.0000      -1.388612       -37.7860
  10   2.0000      -1.384209       -37.6663
  11   2.0000      -1.243169       -33.8284
  12   2.0000      -1.081365       -29.4254
  13   2.0000      -0.957761       -26.0620
  14   2.0000      -0.941212       -25.6117
  15   2.0000      -0.909129       -24.7387
  16   2.0000      -0.816993       -22.2315
  17   2.0000      -0.759642       -20.6709
  18   2.0000      -0.734815       -19.9953
  19   2.0000      -0.682298       -18.5663
  20   2.0000      -0.664722       -18.0880
  21   2.0000      -0.656225       -17.8568
  22   2.0000      -0.618314       -16.8252
  23   2.0000      -0.600079       -16.3290
  24   2.0000      -0.586202       -15.9514
  25   2.0000      -0.572861       -15.5883
  26   2.0000      -0.563309       -15.3284
  27   2.0000      -0.551757       -15.0141
  28   2.0000      -0.542885       -14.7726
  29   2.0000      -0.506345       -13.7783
  30   2.0000      -0.457164       -12.4401
  31   2.0000      -0.451008       -12.2725
  32   2.0000      -0.434480       -11.8228
  33   2.0000      -0.425470       -11.5776
  34   2.0000      -0.396075       -10.7778
  35   0.0000       0.117285         3.1915
  36   0.0000       0.145031         3.9465
  37   0.0000       0.159321         4.3354
  38   0.0000       0.168072         4.5735
  39   0.0000       0.176138         4.7930

MULLIKEN ATOMIC CHARGES
-----------------------
   0 C :   -0.417412
   1 C :    0.123459
   2 C :   -0.216016
   3 N :   -0.338144
   4 C :    0.194831
   5 O :   -0.364539
   6 C :   -0.058628
   7 O :   -0.327633
   8 C :   -0.056193
   9 H :    0.135743
  10 H :    0.137434
  11 H :    0.148545
  12 H :    0.169607
  13 H :    0.163837
  14 H :    0.242213
  15 H :    0.084691
  16 H :    0.080476
  17 H :    0.097213
  18 H :    0.097642
  19 H :    0.102873
Sum of atomic charges:    0.0000000

LOEWDIN ATOMIC CHARGES
----------------------
   0 C :   -0.270676
   1 C :   -0.296786
   2 C :   -0.239563
   3 N :    0.087961
   4 C :   -0.440789
   5 O :    0.057164
   6 C :   -0.239109
   7 O :    0.114350
   8 C :   -0.230083
   9 H :    0.126824
  10 H :    0.130464
  11 H :    0.134213
  12 H :    0.144884
  13 H :    0.152944
  14 H :    0.183388
  15 H :    0.110292
  16 H :    0.113132
  17 H :    0.120453
  18 H :    0.120887
  19 H :    0.120048

  Mayer bond orders larger than 0.1
B(  0-C ,  1-C ) :   0.9325 B(  0-C ,  9-H ) :   0.9308 B(  0-C , 10-H ) :   0.9298
B(  0-C , 11-H ) :   0.9281 B(  1-C ,  2-C ) :   0.8790 B(  1-C ,  6-C ) :   0.9342
B(  1-C ,  8-C ) :   0.9420 B(  2-C ,  3-N ) :   0.8131 B(  2-C , 12-H ) :   0.9375
B(  2-C , 13-H ) :   0.9201 B(  3-N ,  4-C ) :   1.1583 B(  3-N , 14-H ) :   0.8718
B(  4-C ,  5-O ) :   1.8805 B(  4-C , 15-H ) :   0.9318 B(  6-C ,  7-O ) :   0.9590
B(  6-C , 16-H ) :   0.9099 B(  6-C , 17-H ) :   0.9020 B(  7-O ,  8-C ) :   0.9474
B(  8-C , 18-H ) :   0.9031 B(  8-C , 19-H ) :   0.9093

MP2 TOTAL ENERGY:     -439.568879577 Eh
FINAL SINGLE POINT ENERGY      -439.568879576578

DIPOLE MOMENT
-------------
                                X             Y             Z
Electronic contribution:     -2.25156      -2.35402      -1.43061
Nuclear contribution   :      2.73255       2.21546       0.69912
                        -----------------------------------------
Total Dipole Moment    :      0.48099      -0.13856      -0.73149
                        -----------------------------------------
Magnitude (a.u.)       :      0.88636
Magnitude (Debye)      :      2.25295

                             ****ORCA TERMINATED NORMALLY****
TOTAL RUN TIME: 0 days 0 hours 17 minutes 26 seconds 864 msec
