                         Program Version 3.0.3 - RELEASE   -
|  1> ! RI-MP2 RIJK def2-TZVP def2-TZVP/C def2-TZVP/JK TIGHTSCF
|  2> % maxcore 2000
|  3> % mp2 density relaxed end
|  4> *xyz 0 1
|  5>  O       -0.0749447687     1.4026612453     0.0713287379
|  6>  C       -0.0137326487     0.0305271074     0.0281107799
|  7>  C       -0.3097826193    -0.7835229012    -1.1746490429
|  8>  C       -1.2293741641    -0.9176902388     0.0538341017
|  9>  C       -0.5461126333    -1.7565167328     1.0815710954
| 10>  O       -0.8614550622    -2.6865124490     1.7602808915
| 11>  C        0.7298613732    -0.8229062382     1.0906619942
| 12>  C        2.0327840480    -1.3690873159     0.7874977947
| 13>  C        3.1025555472    -1.8393166389     0.5017009878
| 14>  H        0.6437239164     1.7594807339    -0.4628669897
| 15>  H       -0.7883222054    -0.2461312769    -1.9871597021
| 16>  H        0.3351915863    -1.6018577351    -1.4786105814
| 17>  H       -2.2888474284    -0.7106070848    -0.0252910220
| 18>  H        0.7250128456    -0.2937167613     2.0510959006
| 19>  H        4.0497171435    -2.2570947237     0.2650467845
| 20> *
| 21>
| 22>                          ****END OF INPUT****

CARTESIAN COORDINATES (ANGSTROEM)
---------------------------------
  O     -0.074945    1.402661    0.071329
  C     -0.013733    0.030527    0.028111
  C     -0.309783   -0.783523   -1.174649
  C     -1.229374   -0.917690    0.053834
  C     -0.546113   -1.756517    1.081571
  O     -0.861455   -2.686512    1.760281
  C      0.729861   -0.822906    1.090662
  C      2.032784   -1.369087    0.787498
  C      3.102556   -1.839317    0.501701
  H      0.643724    1.759481   -0.462867
  H     -0.788322   -0.246131   -1.987160
  H      0.335192   -1.601858   -1.478611
  H     -2.288847   -0.710607   -0.025291
  H      0.725013   -0.293717    2.051096
  H      4.049717   -2.257095    0.265047

 Total Charge           Charge          ....    0
 Multiplicity           Mult            ....    1
 Number of Electrons    NEL             ....   64
 Basis Dimension        Dim             ....  315

ORBITAL ENERGIES
----------------

  NO   OCC          E(Eh)            E(eV)
   0   2.0000     -20.596597      -560.4619
   1   2.0000     -20.558773      -559.4326
   2   2.0000     -11.349284      -308.8297
   3   2.0000     -11.329809      -308.2998
   4   2.0000     -11.281172      -306.9763
   5   2.0000     -11.264952      -306.5349
   6   2.0000     -11.262170      -306.4592
   7   2.0000     -11.247644      -306.0639
   8   2.0000     -11.237359      -305.7841
   9   2.0000      -1.413142       -38.4536
  10   2.0000      -1.403431       -38.1893
  11   2.0000      -1.213728       -33.0272
  12   2.0000      -1.067785       -29.0559
  13   2.0000      -0.991963       -26.9927
  14   2.0000      -0.904473       -24.6120
  15   2.0000      -0.835865       -22.7450
  16   2.0000      -0.770379       -20.9631
  17   2.0000      -0.729246       -19.8438
  18   2.0000      -0.718914       -19.5627
  19   2.0000      -0.682037       -18.5592
  20   2.0000      -0.672166       -18.2906
  21   2.0000      -0.656669       -17.8689
  22   2.0000      -0.609654       -16.5895
  23   2.0000      -0.603169       -16.4131
  24   2.0000      -0.569864       -15.5068
  25   2.0000      -0.555653       -15.1201
  26   2.0000      -0.519096       -14.1253
  27   2.0000      -0.452614       -12.3162
  28   2.0000      -0.438660       -11.9365
  29   2.0000      -0.424672       -11.5559
  30   2.0000      -0.395162       -10.7529
  31   2.0000      -0.377516       -10.2727
  32   0.0000       0.115681         3.1478
  33   0.0000       0.139725         3.8021
  34   0.0000       0.152220         4.1421
  35   0.0000       0.156988         4.2719
  36   0.0000       0.163016         4.4359

MULLIKEN ATOMIC CHARGES
-----------------------
   0 O :   -0.444188
   1 C :    0.183046
   2 C :   -0.290958
   3 C :   -0.122176
   4 C :    0.121768
   5 O :   -0.242201
   6 C :   -0.164413
   7 C :   -0.054379
   8 C :   -0.130486
   9 H :    0.339463
  10 H :    0.148098
  11 H :    0.159132
  12 H :    0.160279
  13 H :    0.142945
  14 H :    0.194071
Sum of atomic charges:    0.0000000

LOEWDIN ATOMIC CHARGES
----------------------
   0 O :    0.049612
   1 C :   -0.301923
   2 C :   -0.163527
   3 C :   -0.111916
   4 C :   -0.268324
   5 O :    0.177681
   6 C :   -0.149725
   7 C :   -0.091513
   8 C :   -0.088288
   9 H :    0.194560
  10 H :    0.149456
  11 H :    0.142500
  12 H :    0.148813
  13 H :    0.184321
  14 H :    0.128272

  Mayer bond orders larger than 0.1
B(  0-O ,  1-C ) :   1.0556 B(  0-O ,  9-H ) :   0.8281 B(  1-C ,  2-C ) :   0.9336
B(  1-C ,  3-C ) :   0.8246 B(  1-C ,  6-C ) :   0.9174 B(  2-C ,  3-C ) :   0.8264
B(  2-C , 10-H ) :   0.9236 B(  2-C , 11-H ) :   0.8949 B(  3-C ,  4-C ) :   0.9200
B(  3-C ,  6-C ) :  -0.1138 B(  3-C , 12-H ) :   0.8902 B(  4-C ,  5-O ) :   2.0413
B(  4-C ,  6-C ) :   0.8679 B(  6-C ,  7-C ) :   1.1532 B(  6-C ,  8-C ) :  -0.1065
B(  6-C , 13-H ) :   0.8758 B(  7-C ,  8-C ) :   2.5584 B(  8-C , 14-H ) :   0.8977

MP2 TOTAL ENERGY:     -419.855634910 Eh
FINAL SINGLE POINT ENERGY      -419.855634910480

DIPOLE MOMENT
-------------
                                X             Y             Z
Electronic contribution:     -0.50026      -1.26915       3.00801
Nuclear contribution   :      0.97030       2.09733      -4.10905
                        -----------------------------------------
Total Dipole Moment    :      0.47004       0.82818      -1.10103
                        -----------------------------------------
Magnitude (a.u.)       :      1.45571
Magnitude (Debye)      :      3.70013

                             ****ORCA TERMINATED NORMALLY****
TOTAL RUN TIME: 0 days 0 hours 15 minutes 11 seconds 651 msec
