                         Program Version 3.0.3 - RELEASE   -
|  1> ! RI-MP2 RIJK def2-TZVP def2-TZVP/C def2-TZVP/JK TIGHTSCF
|  2> % maxcore 2000
|  3> % mp2 density relaxed end
|  4> *xyz 0 1
|  5>  N       -0.0035386201     1.1216960530     0.0406436115
|  6>  C       -0.2785369138    -0.2063587884     0.1441432707
|  7>  O        0.4790878787    -1.0190143661     0.6297702978
|  8>  C       -1.6820784811    -0.6114456490    -0.3337188665
|  9>  O       -1.6951950656    -1.9493505102    -0.7884529479
| 10>  C       -1.6368180399    -2.9207905774     0.1587908470
| 11>  O       -1.5617114034    -4.0746435526    -0.1285179468
| 12>  H        0.9044343578     1.4425347294     0.3370862092
| 13>  H       -0.5808328576     1.7504971738    -0.4901545061
| 14>  H       -2.3811550920    -0.4640647084     0.5018359111
| 15>  H       -2.0258186531     0.0016947720    -1.1703329759
| 16>  H       -1.7006353298    -2.5246584860     1.1868417859
| 17> *
| 18>
| 19>                          ****END OF INPUT****

CARTESIAN COORDINATES (ANGSTROEM)
---------------------------------
  N     -0.003539    1.121696    0.040644
  C     -0.278537   -0.206359    0.144143
  O      0.479088   -1.019014    0.629770
  C     -1.682078   -0.611446   -0.333719
  O     -1.695195   -1.949351   -0.788453
  C     -1.636818   -2.920791    0.158791
  O     -1.561711   -4.074644   -0.128518
  H      0.904434    1.442535    0.337086
  H     -0.580833    1.750497   -0.490155
  H     -2.381155   -0.464065    0.501836
  H     -2.025819    0.001695   -1.170333
  H     -1.700635   -2.524658    1.186842

 Total Charge           Charge          ....    0
 Multiplicity           Mult            ....    1
 Number of Electrons    NEL             ....   54
 Basis Dimension        Dim             ....  247

ORBITAL ENERGIES
----------------

  NO   OCC          E(Eh)            E(eV)
   0   2.0000     -20.615243      -560.9693
   1   2.0000     -20.547544      -559.1271
   2   2.0000     -20.545716      -559.0774
   3   2.0000     -15.611045      -424.7981
   4   2.0000     -11.380717      -309.6851
   5   2.0000     -11.378979      -309.6377
   6   2.0000     -11.331431      -308.3439
   7   2.0000      -1.468622       -39.9632
   8   2.0000      -1.410482       -38.3812
   9   2.0000      -1.373148       -37.3653
  10   2.0000      -1.240744       -33.7624
  11   2.0000      -1.023001       -27.8373
  12   2.0000      -0.865925       -23.5630
  13   2.0000      -0.825875       -22.4732
  14   2.0000      -0.763912       -20.7871
  15   2.0000      -0.727688       -19.8014
  16   2.0000      -0.712619       -19.3913
  17   2.0000      -0.682990       -18.5851
  18   2.0000      -0.647367       -17.6157
  19   2.0000      -0.620869       -16.8947
  20   2.0000      -0.591137       -16.0857
  21   2.0000      -0.580700       -15.8016
  22   2.0000      -0.540641       -14.7116
  23   2.0000      -0.487970       -13.2783
  24   2.0000      -0.457658       -12.4535
  25   2.0000      -0.446494       -12.1497
  26   2.0000      -0.438372       -11.9287
  27   0.0000       0.103517         2.8168
  28   0.0000       0.127458         3.4683
  29   0.0000       0.156220         4.2510
  30   0.0000       0.176056         4.7907
  31   0.0000       0.180833         4.9207

MULLIKEN ATOMIC CHARGES
-----------------------
   0 N :   -0.482915
   1 C :    0.282327
   2 O :   -0.336131
   3 C :   -0.108622
   4 O :   -0.217327
   5 C :    0.220094
   6 O :   -0.264953
   7 H :    0.271029
   8 H :    0.263642
   9 H :    0.146448
  10 H :    0.144871
  11 H :    0.081537
Sum of atomic charges:    0.0000000

LOEWDIN ATOMIC CHARGES
----------------------
   0 N :   -0.012416
   1 C :   -0.488103
   2 O :    0.108827
   3 C :   -0.285296
   4 O :    0.243627
   5 C :   -0.434491
   6 O :    0.129332
   7 H :    0.179252
   8 H :    0.173587
   9 H :    0.139435
  10 H :    0.138498
  11 H :    0.107750

  Mayer bond orders larger than 0.1
B(  0-N ,  1-C ) :   1.1658 B(  0-N ,  7-H ) :   0.8528 B(  0-N ,  8-H ) :   0.8697
B(  1-C ,  2-O ) :   1.9582 B(  1-C ,  3-C ) :   0.8944 B(  3-C ,  4-O ) :   0.8983
B(  3-C ,  9-H ) :   0.9206 B(  3-C , 10-H ) :   0.9190 B(  4-O ,  5-C ) :   1.0184
B(  5-C ,  6-O ) :   2.0301 B(  5-C , 11-H ) :   0.9141

MP2 TOTAL ENERGY:     -397.090039808 Eh
FINAL SINGLE POINT ENERGY      -397.090039808115

DIPOLE MOMENT
-------------
                                X             Y             Z
Electronic contribution:      0.65683      -3.95086      -0.45378
Nuclear contribution   :     -1.16581       6.61084       0.52389
                        -----------------------------------------
Total Dipole Moment    :     -0.50898       2.65998       0.07011
                        -----------------------------------------
Magnitude (a.u.)       :      2.70915
Magnitude (Debye)      :      6.88611

                             ****ORCA TERMINATED NORMALLY****
TOTAL RUN TIME: 0 days 0 hours 5 minutes 22 seconds 535 msec
