                         Program Version 3.0.3 - RELEASE   -
|  1> ! RI-MP2 RIJK def2-TZVP def2-TZVP/C def2-TZVP/JK TIGHTSCF
|  2> % maxcore 2000
|  3> % mp2 density relaxed end
|  4> *xyz 0 1
|  5>  C       -0.0457331643     1.5193988248     0.0340223122
|  6>  C        0.0239207070     0.0114544277    -0.0178074954
|  7>  C       -0.1233606096    -0.6771947339    -1.3350559106
|  8>  C       -0.8161844510    -1.8052855327    -1.1916709080
|  9>  C       -1.1025422331    -2.0541957291     0.2773034580
| 10>  C       -0.0585088517    -3.0377097181     0.8532427871
| 11>  C        1.2282451669    -2.1753588096     0.8834401619
| 12>  C        0.6882637396    -0.7620701364     1.0907659407
| 13>  N       -0.7905952149    -0.7533379211     0.9611639532
| 14>  H        0.8072220548     1.9679779381    -0.4877876341
| 15>  H       -0.9640778589     1.8822351766    -0.4400937219
| 16>  H       -0.0374748622     1.8714462277     1.0687616176
| 17>  H        0.2776828616    -0.2759109232    -2.2582154596
| 18>  H       -1.0447916785    -2.5249494843    -1.9697091115
| 19>  H       -2.1320842989    -2.3595038077     0.4857537251
| 20>  H       -0.3507690074    -3.3260479090     1.8685409659
| 21>  H        0.0447852695    -3.9504696713     0.2586877731
| 22>  H        1.9020250466    -2.4612426226     1.6944624464
| 23>  H        1.7831358396    -2.2713523823    -0.0543703745
| 24>  H        1.0747782850    -0.1930027537     1.9336956843
| 25> *
| 26>
| 27>                          ****END OF INPUT****

CARTESIAN COORDINATES (ANGSTROEM)
---------------------------------
  C     -0.045733    1.519399    0.034022
  C      0.023921    0.011454   -0.017807
  C     -0.123361   -0.677195   -1.335056
  C     -0.816184   -1.805286   -1.191671
  C     -1.102542   -2.054196    0.277303
  C     -0.058509   -3.037710    0.853243
  C      1.228245   -2.175359    0.883440
  C      0.688264   -0.762070    1.090766
  N     -0.790595   -0.753338    0.961164
  H      0.807222    1.967978   -0.487788
  H     -0.964078    1.882235   -0.440094
  H     -0.037475    1.871446    1.068762
  H      0.277683   -0.275911   -2.258215
  H     -1.044792   -2.524949   -1.969709
  H     -2.132084   -2.359504    0.485754
  H     -0.350769   -3.326048    1.868541
  H      0.044785   -3.950470    0.258688
  H      1.902025   -2.461243    1.694462
  H      1.783136   -2.271352   -0.054370
  H      1.074778   -0.193003    1.933696

 Total Charge           Charge          ....    0
 Multiplicity           Mult            ....    1
 Number of Electrons    NEL             ....   66
 Basis Dimension        Dim             ....  345

ORBITAL ENERGIES
----------------

  NO   OCC          E(Eh)            E(eV)
   0   2.0000     -15.546461      -423.0407
   1   2.0000     -11.261850      -306.4505
   2   2.0000     -11.255290      -306.2720
   3   2.0000     -11.251756      -306.1758
   4   2.0000     -11.228533      -305.5439
   5   2.0000     -11.226601      -305.4914
   6   2.0000     -11.224333      -305.4296
   7   2.0000     -11.223500      -305.4070
   8   2.0000     -11.215375      -305.1859
   9   2.0000      -1.288606       -35.0648
  10   2.0000      -1.066653       -29.0251
  11   2.0000      -1.053946       -28.6793
  12   2.0000      -0.996143       -27.1064
  13   2.0000      -0.948055       -25.7979
  14   2.0000      -0.834405       -22.7053
  15   2.0000      -0.794725       -21.6256
  16   2.0000      -0.754792       -20.5389
  17   2.0000      -0.734981       -19.9998
  18   2.0000      -0.680089       -18.5062
  19   2.0000      -0.638140       -17.3647
  20   2.0000      -0.608548       -16.5594
  21   2.0000      -0.578291       -15.7361
  22   2.0000      -0.565016       -15.3749
  23   2.0000      -0.560032       -15.2393
  24   2.0000      -0.541130       -14.7249
  25   2.0000      -0.518145       -14.0995
  26   2.0000      -0.491884       -13.3849
  27   2.0000      -0.479392       -13.0449
  28   2.0000      -0.471289       -12.8244
  29   2.0000      -0.450825       -12.2676
  30   2.0000      -0.429735       -11.6937
  31   2.0000      -0.396334       -10.7848
  32   2.0000      -0.325213        -8.8495
  33   0.0000       0.137815         3.7501
  34   0.0000       0.144344         3.9278
  35   0.0000       0.159403         4.3376
  36   0.0000       0.170932         4.6513
  37   0.0000       0.178444         4.8557

MULLIKEN ATOMIC CHARGES
-----------------------
   0 C :   -0.443374
   1 C :    0.259431
   2 C :   -0.242692
   3 C :   -0.204483
   4 C :    0.136637
   5 C :   -0.281433
   6 C :   -0.192443
   7 C :   -0.157330
   8 N :   -0.258603
   9 H :    0.125418
  10 H :    0.134320
  11 H :    0.139978
  12 H :    0.127752
  13 H :    0.127485
  14 H :    0.122292
  15 H :    0.121241
  16 H :    0.116431
  17 H :    0.126654
  18 H :    0.124760
  19 H :    0.117957
Sum of atomic charges:    0.0000000

LOEWDIN ATOMIC CHARGES
----------------------
   0 C :   -0.264205
   1 C :   -0.269764
   2 C :   -0.119225
   3 C :   -0.130732
   4 C :   -0.235067
   5 C :   -0.225758
   6 C :   -0.236463
   7 C :   -0.194962
   8 N :    0.168429
   9 H :    0.127363
  10 H :    0.129609
  11 H :    0.131851
  12 H :    0.142711
  13 H :    0.138951
  14 H :    0.143684
  15 H :    0.139376
  16 H :    0.135166
  17 H :    0.137480
  18 H :    0.141589
  19 H :    0.139967

  Mayer bond orders larger than 0.1
B(  0-C ,  1-C ) :   0.8622 B(  0-C ,  9-H ) :   0.9379 B(  0-C , 10-H ) :   0.9392
B(  0-C , 11-H ) :   0.9422 B(  1-C ,  2-C ) :   0.9014 B(  1-C ,  7-C ) :   0.9368
B(  1-C ,  8-N ) :   0.8371 B(  2-C ,  3-C ) :   1.8213 B(  2-C , 12-H ) :   0.9278
B(  3-C ,  4-C ) :   0.9276 B(  3-C , 13-H ) :   0.9247 B(  4-C ,  5-C ) :   0.8939
B(  4-C ,  8-N ) :   0.9125 B(  4-C , 14-H ) :   0.9164 B(  5-C ,  6-C ) :   0.9565
B(  5-C , 15-H ) :   0.9165 B(  5-C , 16-H ) :   0.9248 B(  6-C ,  7-C ) :   0.9091
B(  6-C , 17-H ) :   0.9319 B(  6-C , 18-H ) :   0.9195 B(  7-C ,  8-N ) :   0.9324
B(  7-C , 19-H ) :   0.9033

MP2 TOTAL ENERGY:     -365.352195904 Eh
FINAL SINGLE POINT ENERGY      -365.352195904247

DIPOLE MOMENT
-------------
                                X             Y             Z
Electronic contribution:     -1.85817      -0.47347      -0.37253
Nuclear contribution   :      2.30940       0.16473       0.03960
                        -----------------------------------------
Total Dipole Moment    :      0.45123      -0.30874      -0.33294
                        -----------------------------------------
Magnitude (a.u.)       :      0.64014
Magnitude (Debye)      :      1.62711

                             ****ORCA TERMINATED NORMALLY****
TOTAL RUN TIME: 0 days 0 hours 21 minutes 30 seconds 863 msec
