                         Program Version 3.0.3 - RELEASE   -
|  1> ! RI-MP2 RIJK def2-TZVP def2-TZVP/C def2-TZVP/JK TIGHTSCF
|  2> % maxcore 2000
|  3> % mp2 density relaxed end
|  4> *xyz 0 1
|  5>  C       -0.0138767811     1.5263555762     0.0211491586
|  6>  C        0.0190777880     0.0156336422     0.0348913357
|  7>  C        0.9628961895    -0.8146809368    -0.8942082417
|  8>  C        0.6910008646    -1.9344004303     0.1482027501
|  9>  C        0.6495500833    -0.7992101946     1.2086295937
| 10>  C       -0.8007498484    -2.2129968711    -0.0778228164
| 11>  O       -1.3181923724    -2.9466053690     1.0212511622
| 12>  C       -1.3145852046    -0.7372396601    -0.1710955455
| 13>  H        0.9867387844     1.9487756026     0.1633338171
| 14>  H       -0.4048005131     1.9066679136    -0.9300716780
| 15>  H       -0.6563385173     1.9148021128     0.8201905234
| 16>  H        0.6526110288    -0.9798892143    -1.9319356983
| 17>  H        1.9966673425    -0.4610097421    -0.8648918874
| 18>  H        1.3367340195    -2.8059482354     0.2514295566
| 19>  H        1.6471862520    -0.4376225667     1.4707596893
| 20>  H        0.0517612089    -0.9654287907     2.1075285443
| 21>  H       -0.9675018049    -2.7644463969    -1.0145259519
| 22>  H       -2.2666674821    -3.0448349615     0.8936978425
| 23>  H       -2.0390465525    -0.5275640492     0.6230667029
| 24>  H       -1.7789568453    -0.5037301589    -1.1351443271
| 25> *
| 26>
| 27>                          ****END OF INPUT****

CARTESIAN COORDINATES (ANGSTROEM)
---------------------------------
  C     -0.013877    1.526356    0.021149
  C      0.019078    0.015634    0.034891
  C      0.962896   -0.814681   -0.894208
  C      0.691001   -1.934400    0.148203
  C      0.649550   -0.799210    1.208630
  C     -0.800750   -2.212997   -0.077823
  O     -1.318192   -2.946605    1.021251
  C     -1.314585   -0.737240   -0.171096
  H      0.986739    1.948776    0.163334
  H     -0.404801    1.906668   -0.930072
  H     -0.656339    1.914802    0.820191
  H      0.652611   -0.979889   -1.931936
  H      1.996667   -0.461010   -0.864892
  H      1.336734   -2.805948    0.251430
  H      1.647186   -0.437623    1.470760
  H      0.051761   -0.965429    2.107529
  H     -0.967502   -2.764446   -1.014526
  H     -2.266667   -3.044835    0.893698
  H     -2.039047   -0.527564    0.623067
  H     -1.778957   -0.503730   -1.135144

 Total Charge           Charge          ....    0
 Multiplicity           Mult            ....    1
 Number of Electrons    NEL             ....   62
 Basis Dimension        Dim             ....  320

ORBITAL ENERGIES
----------------

  NO   OCC          E(Eh)            E(eV)
   0   2.0000     -20.550139      -559.1977
   1   2.0000     -11.274579      -306.7969
   2   2.0000     -11.234730      -305.7125
   3   2.0000     -11.223757      -305.4139
   4   2.0000     -11.219003      -305.2846
   5   2.0000     -11.216913      -305.2277
   6   2.0000     -11.213002      -305.1213
   7   2.0000     -11.212100      -305.0967
   8   2.0000      -1.357388       -36.9364
   9   2.0000      -1.178736       -32.0750
  10   2.0000      -0.993893       -27.0452
  11   2.0000      -0.968028       -26.3414
  12   2.0000      -0.894470       -24.3398
  13   2.0000      -0.884153       -24.0590
  14   2.0000      -0.750362       -20.4184
  15   2.0000      -0.730725       -19.8840
  16   2.0000      -0.686244       -18.6736
  17   2.0000      -0.655203       -17.8290
  18   2.0000      -0.633909       -17.2495
  19   2.0000      -0.601743       -16.3743
  20   2.0000      -0.569749       -15.5037
  21   2.0000      -0.561767       -15.2865
  22   2.0000      -0.533639       -14.5210
  23   2.0000      -0.523770       -14.2525
  24   2.0000      -0.512259       -13.9393
  25   2.0000      -0.478755       -13.0276
  26   2.0000      -0.463334       -12.6080
  27   2.0000      -0.444135       -12.0855
  28   2.0000      -0.425108       -11.5678
  29   2.0000      -0.421028       -11.4568
  30   2.0000      -0.412710       -11.2304
  31   0.0000       0.134064         3.6481
  32   0.0000       0.146063         3.9746
  33   0.0000       0.166603         4.5335
  34   0.0000       0.176138         4.7930
  35   0.0000       0.194706         5.2982

MULLIKEN ATOMIC CHARGES
-----------------------
   0 C :   -0.395329
   1 C :    0.091798
   2 C :   -0.287692
   3 C :   -0.000136
   4 C :   -0.283957
   5 C :    0.004245
   6 O :   -0.464725
   7 C :   -0.264730
   8 H :    0.128078
   9 H :    0.128335
  10 H :    0.132546
  11 H :    0.112173
  12 H :    0.115929
  13 H :    0.123726
  14 H :    0.114332
  15 H :    0.123341
  16 H :    0.086456
  17 H :    0.314177
  18 H :    0.109734
  19 H :    0.111698
Sum of atomic charges:    0.0000000

LOEWDIN ATOMIC CHARGES
----------------------
   0 C :   -0.278768
   1 C :   -0.267015
   2 C :   -0.175973
   3 C :   -0.192119
   4 C :   -0.174474
   5 C :   -0.312007
   6 O :   -0.020882
   7 C :   -0.198145
   8 H :    0.125999
   9 H :    0.126955
  10 H :    0.128180
  11 H :    0.126727
  12 H :    0.137806
  13 H :    0.134283
  14 H :    0.137247
  15 H :    0.131377
  16 H :    0.128800
  17 H :    0.172596
  18 H :    0.136484
  19 H :    0.132927

  Mayer bond orders larger than 0.1
B(  0-C ,  1-C ) :   0.8567 B(  0-C ,  8-H ) :   0.9402 B(  0-C ,  9-H ) :   0.9403
B(  0-C , 10-H ) :   0.9432 B(  1-C ,  2-C ) :   0.9002 B(  1-C ,  4-C ) :   0.9208
B(  1-C ,  7-C ) :   0.9226 B(  2-C ,  3-C ) :   0.9078 B(  2-C , 11-H ) :   0.9233
B(  2-C , 12-H ) :   0.9183 B(  3-C ,  4-C ) :   0.9225 B(  3-C ,  5-C ) :   0.8824
B(  3-C , 13-H ) :   0.9176 B(  4-C , 14-H ) :   0.9242 B(  4-C , 15-H ) :   0.9138
B(  5-C ,  6-O ) :   1.0688 B(  5-C ,  7-C ) :   0.9441 B(  5-C , 16-H ) :   0.9595
B(  6-O , 17-H ) :   0.8467 B(  7-C , 18-H ) :   0.9145 B(  7-C , 19-H ) :   0.9142

MP2 TOTAL ENERGY:     -348.406305161 Eh
FINAL SINGLE POINT ENERGY      -348.406305161363

DIPOLE MOMENT
-------------
                                X             Y             Z
Electronic contribution:     -0.98355      -4.77653       1.16193
Nuclear contribution   :      0.66016       5.05297      -1.57304
                        -----------------------------------------
Total Dipole Moment    :     -0.32339       0.27644      -0.41111
                        -----------------------------------------
Magnitude (a.u.)       :      0.59162
Magnitude (Debye)      :      1.50377

                             ****ORCA TERMINATED NORMALLY****
TOTAL RUN TIME: 0 days 0 hours 15 minutes 27 seconds 316 msec
