                         Program Version 3.0.3 - RELEASE   -
|  1> ! RI-MP2 RIJK def2-TZVP def2-TZVP/C def2-TZVP/JK TIGHTSCF
|  2> % maxcore 2000
|  3> % mp2 density relaxed end
|  4> *xyz 0 1
|  5>  C       -0.0285263538     1.6320850973     0.0731787616
|  6>  C       -0.0006013898     0.1004001426    -0.0131428485
|  7>  C        0.7315750682    -0.4816112436    -1.2378306320
|  8>  C        0.0630781619    -0.0102014016    -2.5439587810
|  9>  C        2.2435042510    -0.0908608154    -1.2768749615
| 10>  C        2.9151273185    -1.3078803611    -1.8601424168
| 11>  C        2.1029112267    -2.3618688117    -1.8769379661
| 12>  C        0.7520540279    -2.0607856534    -1.2661720482
| 13>  C        0.5990824573    -2.7864962059     0.0837194416
| 14>  H        0.9815866056     2.0551004945     0.0674795350
| 15>  H       -0.5822597356     2.0820113277    -0.7559332555
| 16>  H       -0.5131166298     1.9527216811     1.0008498976
| 17>  H        0.4686862633    -0.2860499229     0.8985848066
| 18>  H       -1.0337299922    -0.2725083549    -0.0044326819
| 19>  H        0.1268744413     1.0751030240    -2.6662613628
| 20>  H        0.5495683312    -0.4701360274    -3.4099448358
| 21>  H       -0.9964970269    -0.2896745029    -2.5654540185
| 22>  H        2.4170480074     0.8146519820    -1.8707590317
| 23>  H        2.6355873595     0.1261830493    -0.2722981568
| 24>  H        3.9450520275    -1.3025702918    -2.2010788138
| 25>  H        2.3689006995    -3.3548705905    -2.2255139099
| 26>  H       -0.0610651899    -2.4153611272    -1.9146730151
| 27>  H        1.3784831949    -2.4889632449     0.7925570297
| 28>  H       -0.3753040777    -2.5962315522     0.5435526704
| 29>  H        0.6890117342    -3.8681678112    -0.0636700966
| 30> *
| 31>
| 32>                          ****END OF INPUT****

CARTESIAN COORDINATES (ANGSTROEM)
---------------------------------
  C     -0.028526    1.632085    0.073179
  C     -0.000601    0.100400   -0.013143
  C      0.731575   -0.481611   -1.237831
  C      0.063078   -0.010201   -2.543959
  C      2.243504   -0.090861   -1.276875
  C      2.915127   -1.307880   -1.860142
  C      2.102911   -2.361869   -1.876938
  C      0.752054   -2.060786   -1.266172
  C      0.599082   -2.786496    0.083719
  H      0.981587    2.055100    0.067480
  H     -0.582260    2.082011   -0.755933
  H     -0.513117    1.952722    1.000850
  H      0.468686   -0.286050    0.898585
  H     -1.033730   -0.272508   -0.004433
  H      0.126874    1.075103   -2.666261
  H      0.549568   -0.470136   -3.409945
  H     -0.996497   -0.289675   -2.565454
  H      2.417048    0.814652   -1.870759
  H      2.635587    0.126183   -0.272298
  H      3.945052   -1.302570   -2.201079
  H      2.368901   -3.354871   -2.225514
  H     -0.061065   -2.415361   -1.914673
  H      1.378483   -2.488963    0.792557
  H     -0.375304   -2.596232    0.543553
  H      0.689012   -3.868168   -0.063670

 Total Charge           Charge          ....    0
 Multiplicity           Mult            ....    1
 Number of Electrons    NEL             ....   70
 Basis Dimension        Dim             ....  375

ORBITAL ENERGIES
----------------

  NO   OCC          E(Eh)            E(eV)
   0   2.0000     -11.230343      -305.5932
   1   2.0000     -11.224282      -305.4282
   2   2.0000     -11.217661      -305.2481
   3   2.0000     -11.216631      -305.2200
   4   2.0000     -11.214563      -305.1638
   5   2.0000     -11.214372      -305.1586
   6   2.0000     -11.210226      -305.0458
   7   2.0000     -11.209456      -305.0248
   8   2.0000     -11.205028      -304.9043
   9   2.0000      -1.144275       -31.1373
  10   2.0000      -1.045208       -28.4415
  11   2.0000      -1.001962       -27.2648
  12   2.0000      -0.972472       -26.4623
  13   2.0000      -0.913674       -24.8623
  14   2.0000      -0.867504       -23.6060
  15   2.0000      -0.831222       -22.6187
  16   2.0000      -0.725558       -19.7434
  17   2.0000      -0.716692       -19.5022
  18   2.0000      -0.662468       -18.0267
  19   2.0000      -0.615105       -16.7379
  20   2.0000      -0.605438       -16.4748
  21   2.0000      -0.587091       -15.9756
  22   2.0000      -0.573204       -15.5977
  23   2.0000      -0.562170       -15.2974
  24   2.0000      -0.540088       -14.6965
  25   2.0000      -0.530368       -14.4321
  26   2.0000      -0.513131       -13.9630
  27   2.0000      -0.506877       -13.7928
  28   2.0000      -0.495759       -13.4903
  29   2.0000      -0.490846       -13.3566
  30   2.0000      -0.468166       -12.7395
  31   2.0000      -0.443386       -12.0651
  32   2.0000      -0.439841       -11.9687
  33   2.0000      -0.425170       -11.5695
  34   2.0000      -0.340468        -9.2646
  35   0.0000       0.130038         3.5385
  36   0.0000       0.151813         4.1311
  37   0.0000       0.163907         4.4601
  38   0.0000       0.168340         4.5808
  39   0.0000       0.176541         4.8039

MULLIKEN ATOMIC CHARGES
-----------------------
   0 C :   -0.417282
   1 C :   -0.229786
   2 C :    0.164653
   3 C :   -0.502687
   4 C :   -0.233592
   5 C :   -0.186977
   6 C :   -0.228669
   7 C :    0.054866
   8 C :   -0.440261
   9 H :    0.130115
  10 H :    0.131405
  11 H :    0.135513
  12 H :    0.116962
  13 H :    0.112173
  14 H :    0.133136
  15 H :    0.152867
  16 H :    0.129959
  17 H :    0.123777
  18 H :    0.114868
  19 H :    0.119150
  20 H :    0.120163
  21 H :    0.095687
  22 H :    0.135552
  23 H :    0.134727
  24 H :    0.133680
Sum of atomic charges:    0.0000000

LOEWDIN ATOMIC CHARGES
----------------------
   0 C :   -0.315060
   1 C :   -0.256701
   2 C :   -0.248091
   3 C :   -0.270895
   4 C :   -0.202853
   5 C :   -0.158708
   6 C :   -0.144726
   7 C :   -0.213287
   8 C :   -0.290077
   9 H :    0.121558
  10 H :    0.119875
  11 H :    0.121376
  12 H :    0.141064
  13 H :    0.139300
  14 H :    0.121412
  15 H :    0.131998
  16 H :    0.124018
  17 H :    0.140607
  18 H :    0.143578
  19 H :    0.134614
  20 H :    0.136420
  21 H :    0.154514
  22 H :    0.124149
  23 H :    0.121392
  24 H :    0.124526

  Mayer bond orders larger than 0.1
B(  0-C ,  1-C ) :   0.9151 B(  0-C ,  9-H ) :   0.9372 B(  0-C , 10-H ) :   0.9426
B(  0-C , 11-H ) :   0.9426 B(  1-C ,  2-C ) :   0.8875 B(  1-C , 12-H ) :   0.9306
B(  1-C , 13-H ) :   0.9385 B(  2-C ,  3-C ) :   0.8865 B(  2-C ,  4-C ) :   0.9173
B(  2-C ,  7-C ) :   0.8628 B(  3-C , 14-H ) :   0.9389 B(  3-C , 15-H ) :   0.9351
B(  3-C , 16-H ) :   0.9369 B(  4-C ,  5-C ) :   0.9566 B(  4-C , 17-H ) :   0.9226
B(  4-C , 18-H ) :   0.9021 B(  5-C ,  6-C ) :   1.8007 B(  5-C , 19-H ) :   0.9353
B(  6-C ,  7-C ) :   0.9333 B(  6-C , 20-H ) :   0.9303 B(  7-C ,  8-C ) :   0.8572
B(  7-C , 21-H ) :   0.9198 B(  8-C , 22-H ) :   0.9436 B(  8-C , 23-H ) :   0.9347
B(  8-C , 24-H ) :   0.9372

MP2 TOTAL ENERGY:     -351.729686541 Eh
FINAL SINGLE POINT ENERGY      -351.729686540524

DIPOLE MOMENT
-------------
                                X             Y             Z
Electronic contribution:      3.76833      -3.13624      -2.36721
Nuclear contribution   :     -3.81536       3.15000       2.43712
                        -----------------------------------------
Total Dipole Moment    :     -0.04704       0.01376       0.06991
                        -----------------------------------------
Magnitude (a.u.)       :      0.08537
Magnitude (Debye)      :      0.21700

                             ****ORCA TERMINATED NORMALLY****
TOTAL RUN TIME: 0 days 0 hours 24 minutes 37 seconds 350 msec
