                         Program Version 3.0.3 - RELEASE   -
|  1> ! RI-MP2 RIJK def2-TZVP def2-TZVP/C def2-TZVP/JK TIGHTSCF
|  2> % maxcore 2000
|  3> % mp2 density relaxed end
|  4> *xyz 0 1
|  5>  C        0.0020162042     1.4773609529     0.0128281890
|  6>  N       -0.0087354724     0.0274100707     0.0349944071
|  7>  C       -0.1048119942    -0.8262211764    -1.0390277594
|  8>  N       -0.0956560515    -2.1219305202    -0.7401715528
|  9>  C        0.0124557516    -2.0962036660     0.6115128091
| 10>  C        0.0670435789    -0.8215332275     1.1168179847
| 11>  N        0.1752145669    -0.8753435331     2.4617396928
| 12>  N        0.1904202481    -2.0860235960     2.8257490457
| 13>  O        0.0824435547    -2.9608833972     1.6066035910
| 14>  H        0.9319564409     1.8611638198     0.4412795630
| 15>  H       -0.0771872698     1.8123389425    -1.0226293566
| 16>  H       -0.8420953286     1.8764666837     0.5819416863
| 17>  H       -0.1805573688    -0.4334827931    -2.0432690299
| 18> *
| 19>
| 20>                          ****END OF INPUT****

CARTESIAN COORDINATES (ANGSTROEM)
---------------------------------
  C      0.002016    1.477361    0.012828
  N     -0.008735    0.027410    0.034994
  C     -0.104812   -0.826221   -1.039028
  N     -0.095656   -2.121931   -0.740172
  C      0.012456   -2.096204    0.611513
  C      0.067044   -0.821533    1.116818
  N      0.175215   -0.875344    2.461740
  N      0.190420   -2.086024    2.825749
  O      0.082444   -2.960883    1.606604
  H      0.931956    1.861164    0.441280
  H     -0.077187    1.812339   -1.022629
  H     -0.842095    1.876467    0.581942
  H     -0.180557   -0.433483   -2.043269

 Total Charge           Charge          ....    0
 Multiplicity           Mult            ....    1
 Number of Electrons    NEL             ....   64
 Basis Dimension        Dim             ....  303

ORBITAL ENERGIES
----------------

  NO   OCC          E(Eh)            E(eV)
   0   2.0000     -20.647603      -561.8498
   1   2.0000     -15.692393      -427.0117
   2   2.0000     -15.659607      -426.1196
   3   2.0000     -15.659332      -426.1121
   4   2.0000     -15.583048      -424.0363
   5   2.0000     -11.347635      -308.7848
   6   2.0000     -11.334266      -308.4211
   7   2.0000     -11.308409      -307.7175
   8   2.0000     -11.296424      -307.3913
   9   2.0000      -1.506967       -41.0066
  10   2.0000      -1.376365       -37.4528
  11   2.0000      -1.330784       -36.2125
  12   2.0000      -1.222490       -33.2656
  13   2.0000      -1.075518       -29.2663
  14   2.0000      -1.002705       -27.2850
  15   2.0000      -0.911297       -24.7977
  16   2.0000      -0.844688       -22.9851
  17   2.0000      -0.830867       -22.6090
  18   2.0000      -0.719324       -19.5738
  19   2.0000      -0.718779       -19.5590
  20   2.0000      -0.704321       -19.1655
  21   2.0000      -0.656036       -17.8517
  22   2.0000      -0.652601       -17.7582
  23   2.0000      -0.604421       -16.4471
  24   2.0000      -0.587075       -15.9751
  25   2.0000      -0.564712       -15.3666
  26   2.0000      -0.563093       -15.3225
  27   2.0000      -0.522984       -14.2311
  28   2.0000      -0.484462       -13.1829
  29   2.0000      -0.464164       -12.6305
  30   2.0000      -0.409464       -11.1421
  31   2.0000      -0.334181        -9.0935
  32   0.0000       0.077789         2.1168
  33   0.0000       0.116873         3.1803
  34   0.0000       0.151399         4.1198
  35   0.0000       0.164466         4.4753
  36   0.0000       0.171897         4.6776

MULLIKEN ATOMIC CHARGES
-----------------------
   0 C :   -0.316907
   1 N :   -0.059374
   2 C :    0.003079
   3 N :   -0.274408
   4 C :    0.167627
   5 C :    0.068084
   6 N :   -0.111631
   7 N :    0.002962
   8 O :   -0.131340
   9 H :    0.167117
  10 H :    0.155523
  11 H :    0.167076
  12 H :    0.162193
Sum of atomic charges:   -0.0000000

LOEWDIN ATOMIC CHARGES
----------------------
   0 C :   -0.256426
   1 N :    0.244364
   2 C :   -0.255919
   3 N :    0.117684
   4 C :   -0.393848
   5 C :   -0.313587
   6 N :    0.042153
   7 N :    0.023582
   8 O :    0.260139
   9 H :    0.130730
  10 H :    0.132489
  11 H :    0.130735
  12 H :    0.137903

  Mayer bond orders larger than 0.1
B(  0-C ,  1-N ) :   0.8596 B(  0-C ,  9-H ) :   0.9262 B(  0-C , 10-H ) :   0.9267
B(  0-C , 11-H ) :   0.9261 B(  1-N ,  2-C ) :   1.1708 B(  1-N ,  5-C ) :   1.0984
B(  2-C ,  3-N ) :   1.5035 B(  2-C , 12-H ) :   0.9169 B(  3-N ,  4-C ) :   1.3021
B(  4-C ,  5-C ) :   1.2895 B(  4-C ,  8-O ) :   1.1741 B(  5-C ,  6-N ) :   1.2853
B(  6-N ,  7-N ) :   1.4143 B(  7-N ,  8-O ) :   0.8007

MP2 TOTAL ENERGY:     -448.160410086 Eh
FINAL SINGLE POINT ENERGY      -448.160410086487

DIPOLE MOMENT
-------------
                                X             Y             Z
Electronic contribution:      0.22908      -6.97229       3.74472
Nuclear contribution   :     -0.29315       9.01128      -4.80681
                        -----------------------------------------
Total Dipole Moment    :     -0.06407       2.03899      -1.06209
                        -----------------------------------------
Magnitude (a.u.)       :      2.29992
Magnitude (Debye)      :      5.84593

                             ****ORCA TERMINATED NORMALLY****
TOTAL RUN TIME: 0 days 0 hours 16 minutes 32 seconds 799 msec
