                         Program Version 3.0.3 - RELEASE   -
|  1> ! RI-MP2 RIJK def2-TZVP def2-TZVP/C def2-TZVP/JK TIGHTSCF
|  2> % maxcore 2000
|  3> % mp2 density relaxed end
|  4> *xyz 0 1
|  5>  C       -0.0690741247     1.4770609330     0.0635767044
|  6>  C        0.0155437291    -0.0143376708    -0.0058728920
|  7>  C       -0.0345992568    -0.7837372876    -1.0949200190
|  8>  C        0.0205506366    -2.2575621885    -0.7826018770
|  9>  C        0.4903090383    -2.2630182830     0.7055320660
| 10>  C        0.1182605764    -0.8531014898     1.2521730773
| 11>  C       -0.0489952915    -3.3661543647     1.4933758706
| 12>  N       -0.4840656905    -4.2374826552     2.1164608348
| 13>  H        0.8193795644     1.9033791940     0.5462345940
| 14>  H       -0.1641610175     1.9214762159    -0.9304855268
| 15>  H       -0.9309903401     1.7960187434     0.6634797996
| 16>  H       -0.1495768508    -0.4134305618    -2.1079135330
| 17>  H       -0.9652897806    -2.7284781524    -0.8898827199
| 18>  H        0.7078233676    -2.8209919229    -1.4216514897
| 19>  H        1.5817023876    -2.3534041088     0.7148322383
| 20>  H        0.8661800417    -0.4833227609     1.9617505146
| 21>  H       -0.8395145892    -0.8703937200     1.7890111578
| 22> *
| 23>
| 24>                          ****END OF INPUT****

CARTESIAN COORDINATES (ANGSTROEM)
---------------------------------
  C     -0.069074    1.477061    0.063577
  C      0.015544   -0.014338   -0.005873
  C     -0.034599   -0.783737   -1.094920
  C      0.020551   -2.257562   -0.782602
  C      0.490309   -2.263018    0.705532
  C      0.118261   -0.853101    1.252173
  C     -0.048995   -3.366154    1.493376
  N     -0.484066   -4.237483    2.116461
  H      0.819380    1.903379    0.546235
  H     -0.164161    1.921476   -0.930486
  H     -0.930990    1.796019    0.663480
  H     -0.149577   -0.413431   -2.107914
  H     -0.965290   -2.728478   -0.889883
  H      0.707823   -2.820992   -1.421651
  H      1.581702   -2.353404    0.714832
  H      0.866180   -0.483323    1.961751
  H     -0.839515   -0.870394    1.789011

 Total Charge           Charge          ....    0
 Multiplicity           Mult            ....    1
 Number of Electrons    NEL             ....   58
 Basis Dimension        Dim             ....  302

ORBITAL ENERGIES
----------------

  NO   OCC          E(Eh)            E(eV)
   0   2.0000     -15.563584      -423.5066
   1   2.0000     -11.283648      -307.0437
   2   2.0000     -11.267414      -306.6019
   3   2.0000     -11.252007      -306.1827
   4   2.0000     -11.250767      -306.1489
   5   2.0000     -11.249077      -306.1029
   6   2.0000     -11.236259      -305.7542
   7   2.0000     -11.234441      -305.7047
   8   2.0000      -1.215700       -33.0809
   9   2.0000      -1.162631       -31.6368
  10   2.0000      -1.044995       -28.4358
  11   2.0000      -0.991563       -26.9818
  12   2.0000      -0.935994       -25.4697
  13   2.0000      -0.843518       -22.9533
  14   2.0000      -0.732632       -19.9359
  15   2.0000      -0.709088       -19.2953
  16   2.0000      -0.673812       -18.3354
  17   2.0000      -0.602470       -16.3941
  18   2.0000      -0.592884       -16.1332
  19   2.0000      -0.574817       -15.6416
  20   2.0000      -0.567616       -15.4456
  21   2.0000      -0.543777       -14.7969
  22   2.0000      -0.537254       -14.6194
  23   2.0000      -0.530168       -14.4266
  24   2.0000      -0.517213       -14.0741
  25   2.0000      -0.506134       -13.7726
  26   2.0000      -0.449202       -12.2234
  27   2.0000      -0.442070       -12.0293
  28   2.0000      -0.354323        -9.6416
  29   0.0000       0.119191         3.2434
  30   0.0000       0.140205         3.8152
  31   0.0000       0.146093         3.9754
  32   0.0000       0.162304         4.4165
  33   0.0000       0.171686         4.6718

MULLIKEN ATOMIC CHARGES
-----------------------
   0 C :   -0.423701
   1 C :    0.026742
   2 C :   -0.203614
   3 C :   -0.179912
   4 C :    0.050952
   5 C :   -0.228575
   6 C :   -0.217647
   7 N :   -0.059149
   8 H :    0.142313
   9 H :    0.140240
  10 H :    0.142656
  11 H :    0.131228
  12 H :    0.135033
  13 H :    0.133201
  14 H :    0.135718
  15 H :    0.135925
  16 H :    0.138591
Sum of atomic charges:   -0.0000000

LOEWDIN ATOMIC CHARGES
----------------------
   0 C :   -0.271119
   1 C :   -0.190754
   2 C :   -0.140673
   3 C :   -0.197434
   4 C :   -0.208452
   5 C :   -0.170338
   6 C :   -0.176940
   7 N :    0.055309
   8 H :    0.132430
   9 H :    0.131907
  10 H :    0.133652
  11 H :    0.140368
  12 H :    0.148786
  13 H :    0.141062
  14 H :    0.177957
  15 H :    0.143056
  16 H :    0.151183

  Mayer bond orders larger than 0.1
B(  0-C ,  1-C ) :   0.8938 B(  0-C ,  8-H ) :   0.9346 B(  0-C ,  9-H ) :   0.9472
B(  0-C , 10-H ) :   0.9255 B(  1-C ,  2-C ) :   1.7483 B(  1-C ,  5-C ) :   0.9261
B(  2-C ,  3-C ) :   0.9400 B(  2-C , 11-H ) :   0.9219 B(  3-C ,  4-C ) :   0.9228
B(  3-C , 12-H ) :   0.9081 B(  3-C , 13-H ) :   0.9270 B(  4-C ,  5-C ) :   0.9147
B(  4-C ,  6-C ) :   0.9359 B(  4-C , 14-H ) :   0.9090 B(  5-C , 15-H ) :   0.9237
B(  5-C , 16-H ) :   0.9032 B(  6-C ,  7-N ) :   2.8806

MP2 TOTAL ENERGY:     -326.167620259 Eh
FINAL SINGLE POINT ENERGY      -326.167620259153

DIPOLE MOMENT
-------------
                                X             Y             Z
Electronic contribution:     -0.38542      -7.42178       2.74279
Nuclear contribution   :      0.86078       8.81371      -3.59132
                        -----------------------------------------
Total Dipole Moment    :      0.47536       1.39193      -0.84853
                        -----------------------------------------
Magnitude (a.u.)       :      1.69807
Magnitude (Debye)      :      4.31615

                             ****ORCA TERMINATED NORMALLY****
TOTAL RUN TIME: 0 days 0 hours 13 minutes 22 seconds 9 msec
