                         Program Version 3.0.3 - RELEASE   -
|  1> ! RI-MP2 RIJK def2-TZVP def2-TZVP/C def2-TZVP/JK TIGHTSCF
|  2> % maxcore 2000
|  3> % mp2 density relaxed end
|  4> *xyz 0 1
|  5>  C        0.1489356187     1.6564633950    -0.3400902586
|  6>  O       -0.3233763504     0.3382466517    -0.5231582524
|  7>  C        0.6135313390    -0.5276191566    -1.1103884076
|  8>  C        1.7705277618    -0.9876943737    -0.2130891349
|  9>  C        2.0534769462    -2.4013746145    -0.7083514913
| 10>  O        3.0224159156    -3.0756583492    -0.5192365365
| 11>  O        0.9984216668    -2.8349198155    -1.4512867472
| 12>  C       -0.0719003846    -1.8655862569    -1.4831389790
| 13>  C       -1.1922382416    -2.2911428638    -0.5439164488
| 14>  H        0.9901902791     1.6998394518     0.3663374181
| 15>  H        0.4711566696     2.1052367151    -1.2920911265
| 16>  H       -0.6803116277     2.2406733311     0.0644871362
| 17>  H        1.0241234604    -0.0698430276    -2.0247012031
| 18>  H        2.6768516858    -0.3837959887    -0.2619376686
| 19>  H        1.4481269104    -1.0374750159     0.8332098174
| 20>  H       -0.4358931923    -1.8466901438    -2.5137137940
| 21>  H       -0.8529750168    -2.3225127412     0.4955069007
| 22>  H       -2.0238406725    -1.5866267190    -0.6090310655
| 23>  H       -1.5431706875    -3.2879079085    -0.8227303983
| 24> *
| 25>
| 26>                          ****END OF INPUT****

CARTESIAN COORDINATES (ANGSTROEM)
---------------------------------
  C      0.148936    1.656463   -0.340090
  O     -0.323376    0.338247   -0.523158
  C      0.613531   -0.527619   -1.110388
  C      1.770528   -0.987694   -0.213089
  C      2.053477   -2.401375   -0.708351
  O      3.022416   -3.075658   -0.519237
  O      0.998422   -2.834920   -1.451287
  C     -0.071900   -1.865586   -1.483139
  C     -1.192238   -2.291143   -0.543916
  H      0.990190    1.699839    0.366337
  H      0.471157    2.105237   -1.292091
  H     -0.680312    2.240673    0.064487
  H      1.024123   -0.069843   -2.024701
  H      2.676852   -0.383796   -0.261938
  H      1.448127   -1.037475    0.833210
  H     -0.435893   -1.846690   -2.513714
  H     -0.852975   -2.322513    0.495507
  H     -2.023841   -1.586627   -0.609031
  H     -1.543171   -3.287908   -0.822730

 Total Charge           Charge          ....    0
 Multiplicity           Mult            ....    1
 Number of Electrons    NEL             ....   70
 Basis Dimension        Dim             ....  339

ORBITAL ENERGIES
----------------

  NO   OCC          E(Eh)            E(eV)
   0   2.0000     -20.598877      -560.5239
   1   2.0000     -20.581075      -560.0395
   2   2.0000     -20.539830      -558.9172
   3   2.0000     -11.379409      -309.6495
   4   2.0000     -11.309284      -307.7413
   5   2.0000     -11.305462      -307.6373
   6   2.0000     -11.291133      -307.2474
   7   2.0000     -11.255234      -306.2705
   8   2.0000     -11.226240      -305.4815
   9   2.0000      -1.458020       -39.6747
  10   2.0000      -1.404001       -38.2048
  11   2.0000      -1.365971       -37.1700
  12   2.0000      -1.088092       -29.6085
  13   2.0000      -1.036262       -28.1981
  14   2.0000      -0.957897       -26.0657
  15   2.0000      -0.905166       -24.6308
  16   2.0000      -0.824417       -22.4335
  17   2.0000      -0.778147       -21.1745
  18   2.0000      -0.719537       -19.5796
  19   2.0000      -0.695044       -18.9131
  20   2.0000      -0.674729       -18.3603
  21   2.0000      -0.653365       -17.7790
  22   2.0000      -0.642136       -17.4734
  23   2.0000      -0.630111       -17.1462
  24   2.0000      -0.593395       -16.1471
  25   2.0000      -0.589536       -16.0421
  26   2.0000      -0.571855       -15.5610
  27   2.0000      -0.557017       -15.1572
  28   2.0000      -0.537979       -14.6392
  29   2.0000      -0.517846       -14.0913
  30   2.0000      -0.508163       -13.8278
  31   2.0000      -0.482597       -13.1321
  32   2.0000      -0.459359       -12.4998
  33   2.0000      -0.450210       -12.2508
  34   2.0000      -0.426765       -11.6129
  35   0.0000       0.123605         3.3635
  36   0.0000       0.145533         3.9601
  37   0.0000       0.152131         4.1397
  38   0.0000       0.164529         4.4771
  39   0.0000       0.169269         4.6060

MULLIKEN ATOMIC CHARGES
-----------------------
   0 C :   -0.227924
   1 O :   -0.296751
   2 C :    0.029305
   3 C :   -0.287443
   4 C :    0.250617
   5 O :   -0.279245
   6 O :   -0.223603
   7 C :    0.129195
   8 C :   -0.408176
   9 H :    0.122032
  10 H :    0.117806
  11 H :    0.147246
  12 H :    0.094771
  13 H :    0.152270
  14 H :    0.148904
  15 H :    0.112176
  16 H :    0.127949
  17 H :    0.142685
  18 H :    0.148186
Sum of atomic charges:    0.0000000

LOEWDIN ATOMIC CHARGES
----------------------
   0 C :   -0.347121
   1 O :    0.166949
   2 C :   -0.311534
   3 C :   -0.212047
   4 C :   -0.465927
   5 O :    0.140152
   6 O :    0.275658
   7 C :   -0.274714
   8 C :   -0.287675
   9 H :    0.104578
  10 H :    0.105003
  11 H :    0.116396
  12 H :    0.141983
  13 H :    0.150585
  14 H :    0.161373
  15 H :    0.145270
  16 H :    0.127643
  17 H :    0.133312
  18 H :    0.130116

  Mayer bond orders larger than 0.1
B(  0-C ,  1-O ) :   0.9075 B(  0-C ,  9-H ) :   0.9356 B(  0-C , 10-H ) :   0.9331
B(  0-C , 11-H ) :   0.9397 B(  1-O ,  2-C ) :   0.9758 B(  2-C ,  3-C ) :   0.9172
B(  2-C ,  7-C ) :   0.9040 B(  2-C , 12-H ) :   0.9369 B(  3-C ,  4-C ) :   0.9285
B(  3-C , 13-H ) :   0.9133 B(  3-C , 14-H ) :   0.8962 B(  4-C ,  5-O ) :   2.0453
B(  4-C ,  6-O ) :   1.1173 B(  6-O ,  7-C ) :   0.8647 B(  7-C ,  8-C ) :   0.9449
B(  7-C , 15-H ) :   0.9232 B(  8-C , 16-H ) :   0.9230 B(  8-C , 17-H ) :   0.9252
B(  8-C , 18-H ) :   0.9348

MP2 TOTAL ENERGY:     -459.467149075 Eh
FINAL SINGLE POINT ENERGY      -459.467149075471

DIPOLE MOMENT
-------------
                                X             Y             Z
Electronic contribution:      5.36137      -6.52493      -1.70576
Nuclear contribution   :     -6.19074       8.07333       1.69224
                        -----------------------------------------
Total Dipole Moment    :     -0.82937       1.54840      -0.01352
                        -----------------------------------------
Magnitude (a.u.)       :      1.75658
Magnitude (Debye)      :      4.46488

                             ****ORCA TERMINATED NORMALLY****
TOTAL RUN TIME: 0 days 0 hours 27 minutes 30 seconds 619 msec
