                         Program Version 3.0.3 - RELEASE   -
|  1> ! RI-MP2 RIJK def2-TZVP def2-TZVP/C def2-TZVP/JK TIGHTSCF
|  2> % maxcore 2000
|  3> % mp2 density relaxed end
|  4> *xyz 0 1
|  5>  C        0.2885326504     1.4929851972    -0.0152830055
|  6>  C       -0.1126695125     0.0095569972    -0.0450702375
|  7>  O       -1.5163808437    -0.1309110791    -0.0170529294
|  8>  C        0.5163432858    -0.7649921516    -1.2084257368
|  9>  C        1.8525334647    -1.2300693961    -0.6096084244
| 10>  O        1.6238883725    -1.3628397689     0.8125576994
| 11>  C        0.4977978273    -0.7110074269     1.1664005538
| 12>  O        0.0395152973    -0.7179579459     2.2754808879
| 13>  H        1.3725558946     1.6293874555    -0.0941010532
| 14>  H       -0.1922943095     2.0072845170    -0.8518011849
| 15>  H       -0.0464726003     1.9530041020     0.9186240224
| 16>  H       -1.7679469306    -0.1245919500     0.9175179817
| 17>  H       -0.1239151282    -1.6197634156    -1.4412578008
| 18>  H        0.6503610898    -0.1697857344    -2.1138167802
| 19>  H        2.1866255458    -2.2014465895    -0.9780308251
| 20>  H        2.6563547166    -0.5017884109    -0.7608933576
| 21> *
| 22>
| 23>                          ****END OF INPUT****

CARTESIAN COORDINATES (ANGSTROEM)
---------------------------------
  C      0.288533    1.492985   -0.015283
  C     -0.112670    0.009557   -0.045070
  O     -1.516381   -0.130911   -0.017053
  C      0.516343   -0.764992   -1.208426
  C      1.852533   -1.230069   -0.609608
  O      1.623888   -1.362840    0.812558
  C      0.497798   -0.711007    1.166401
  O      0.039515   -0.717958    2.275481
  H      1.372556    1.629387   -0.094101
  H     -0.192294    2.007285   -0.851801
  H     -0.046473    1.953004    0.918624
  H     -1.767947   -0.124592    0.917518
  H     -0.123915   -1.619763   -1.441258
  H      0.650361   -0.169786   -2.113817
  H      2.186626   -2.201447   -0.978031
  H      2.656355   -0.501788   -0.760893

 Total Charge           Charge          ....    0
 Multiplicity           Mult            ....    1
 Number of Electrons    NEL             ....   62
 Basis Dimension        Dim             ....  296

ORBITAL ENERGIES
----------------

  NO   OCC          E(Eh)            E(eV)
   0   2.0000     -20.613645      -560.9258
   1   2.0000     -20.571347      -559.7748
   2   2.0000     -20.552368      -559.2584
   3   2.0000     -11.382775      -309.7411
   4   2.0000     -11.317232      -307.9575
   5   2.0000     -11.311358      -307.7977
   6   2.0000     -11.251922      -306.1804
   7   2.0000     -11.239456      -305.8411
   8   2.0000      -1.471796       -40.0496
   9   2.0000      -1.388176       -37.7742
  10   2.0000      -1.372537       -37.3486
  11   2.0000      -1.096506       -29.8374
  12   2.0000      -1.012822       -27.5603
  13   2.0000      -0.938958       -25.5503
  14   2.0000      -0.846989       -23.0478
  15   2.0000      -0.786077       -21.3903
  16   2.0000      -0.720962       -19.6184
  17   2.0000      -0.706730       -19.2311
  18   2.0000      -0.683248       -18.5921
  19   2.0000      -0.643228       -17.5031
  20   2.0000      -0.625335       -17.0162
  21   2.0000      -0.611340       -16.6354
  22   2.0000      -0.597927       -16.2704
  23   2.0000      -0.566937       -15.4271
  24   2.0000      -0.555811       -15.1244
  25   2.0000      -0.541368       -14.7314
  26   2.0000      -0.526269       -14.3205
  27   2.0000      -0.514993       -14.0137
  28   2.0000      -0.465860       -12.6767
  29   2.0000      -0.461215       -12.5503
  30   2.0000      -0.436443       -11.8762
  31   0.0000       0.124680         3.3927
  32   0.0000       0.152373         4.1463
  33   0.0000       0.162044         4.4094
  34   0.0000       0.168023         4.5721
  35   0.0000       0.179757         4.8914

MULLIKEN ATOMIC CHARGES
-----------------------
   0 C :   -0.420982
   1 C :    0.223913
   2 O :   -0.469285
   3 C :   -0.257511
   4 C :   -0.071659
   5 O :   -0.211895
   6 C :    0.224908
   7 O :   -0.307694
   8 H :    0.130712
   9 H :    0.144714
  10 H :    0.142067
  11 H :    0.335993
  12 H :    0.140056
  13 H :    0.139395
  14 H :    0.135072
  15 H :    0.122195
Sum of atomic charges:    0.0000000

LOEWDIN ATOMIC CHARGES
----------------------
   0 C :   -0.259230
   1 C :   -0.387751
   2 O :    0.022398
   3 C :   -0.211294
   4 C :   -0.252045
   5 O :    0.266661
   6 C :   -0.449632
   7 O :    0.134171
   8 H :    0.129360
   9 H :    0.132782
  10 H :    0.132913
  11 H :    0.188808
  12 H :    0.151398
  13 H :    0.144259
  14 H :    0.130895
  15 H :    0.126306

  Mayer bond orders larger than 0.1
B(  0-C ,  1-C ) :   0.9120 B(  0-C ,  8-H ) :   0.9195 B(  0-C ,  9-H ) :   0.9324
B(  0-C , 10-H ) :   0.9250 B(  1-C ,  2-O ) :   1.0323 B(  1-C ,  3-C ) :   0.8644
B(  1-C ,  6-C ) :   0.8926 B(  2-O , 11-H ) :   0.8175 B(  3-C ,  4-C ) :   0.9375
B(  3-C , 12-H ) :   0.9212 B(  3-C , 13-H ) :   0.9248 B(  4-C ,  5-O ) :   0.8550
B(  4-C , 14-H ) :   0.9301 B(  4-C , 15-H ) :   0.9227 B(  5-O ,  6-C ) :   1.1509
B(  6-C ,  7-O ) :   1.9777

MP2 TOTAL ENERGY:     -420.267724853 Eh
FINAL SINGLE POINT ENERGY      -420.267724853394

DIPOLE MOMENT
-------------
                                X             Y             Z
Electronic contribution:     -1.02077      -3.71697       5.24047
Nuclear contribution   :      1.60535       4.05636      -6.43601
                        -----------------------------------------
Total Dipole Moment    :      0.58458       0.33939      -1.19554
                        -----------------------------------------
Magnitude (a.u.)       :      1.37341
Magnitude (Debye)      :      3.49092

                             ****ORCA TERMINATED NORMALLY****
TOTAL RUN TIME: 0 days 0 hours 12 minutes 1 seconds 838 msec
