                         Program Version 3.0.3 - RELEASE   -
|  1> ! RI-MP2 RIJK def2-TZVP def2-TZVP/C def2-TZVP/JK TIGHTSCF
|  2> % maxcore 2000
|  3> % mp2 density relaxed end
|  4> *xyz 0 1
|  5>  C        0.1799285867     1.4701768566     0.1223960769
|  6>  C       -0.0754351128    -0.0337212604     0.1827935336
|  7>  C       -1.5366109680    -0.4139629437    -0.0259550199
|  8>  O       -2.3925943967     0.4198684248    -0.2243136736
|  9>  C       -1.8607720554    -1.8999537936     0.0248795114
| 10>  C       -3.3388754825    -2.2070187080    -0.1995193622
| 11>  N       -3.5576792087    -3.6497597966    -0.2103046540
| 12>  C       -3.8621994980    -4.2650213807     1.0789673536
| 13>  C       -4.9223406669    -4.0919617206     0.0480293097
| 14>  H        1.2408995769     1.6887729519     0.2722053310
| 15>  H       -0.1255087275     1.8786365044    -0.8441474912
| 16>  H       -0.3939137499     1.9947135562     0.8906011301
| 17>  H        0.5198760883    -0.5682599831    -0.5704976743
| 18>  H        0.2472514080    -0.4536611389     1.1456013911
| 19>  H       -1.2527290326    -2.4230455050    -0.7246330187
| 20>  H       -1.5258596295    -2.2972800105     0.9930412803
| 21>  H       -3.9454146541    -1.6943234329     0.5665270406
| 22>  H       -3.6536262764    -1.8036279940    -1.1671266166
| 23>  H       -3.4178401626    -5.2397497824     1.2588877278
| 24>  H       -3.9141648837    -3.6180285042     1.9540387431
| 25>  H       -5.6776582988    -3.3307005095     0.2376209313
| 26>  H       -5.2655178657    -4.9380217496    -0.5404985899
| 27> *
| 28>
| 29>                          ****END OF INPUT****

CARTESIAN COORDINATES (ANGSTROEM)
---------------------------------
  C      0.179929    1.470177    0.122396
  C     -0.075435   -0.033721    0.182794
  C     -1.536611   -0.413963   -0.025955
  O     -2.392594    0.419868   -0.224314
  C     -1.860772   -1.899954    0.024880
  C     -3.338875   -2.207019   -0.199519
  N     -3.557679   -3.649760   -0.210305
  C     -3.862199   -4.265021    1.078967
  C     -4.922341   -4.091962    0.048029
  H      1.240900    1.688773    0.272205
  H     -0.125509    1.878637   -0.844147
  H     -0.393914    1.994714    0.890601
  H      0.519876   -0.568260   -0.570498
  H      0.247251   -0.453661    1.145601
  H     -1.252729   -2.423046   -0.724633
  H     -1.525860   -2.297280    0.993041
  H     -3.945415   -1.694323    0.566527
  H     -3.653626   -1.803628   -1.167127
  H     -3.417840   -5.239750    1.258888
  H     -3.914165   -3.618029    1.954039
  H     -5.677658   -3.330701    0.237621
  H     -5.265518   -4.938022   -0.540499

 Total Charge           Charge          ....    0
 Multiplicity           Mult            ....    1
 Number of Electrons    NEL             ....   70
 Basis Dimension        Dim             ....  357

ORBITAL ENERGIES
----------------

  NO   OCC          E(Eh)            E(eV)
   0   2.0000     -20.542344      -558.9856
   1   2.0000     -15.559922      -423.4070
   2   2.0000     -11.327116      -308.2265
   3   2.0000     -11.254969      -306.2633
   4   2.0000     -11.253857      -306.2330
   5   2.0000     -11.252244      -306.1891
   6   2.0000     -11.238887      -305.8257
   7   2.0000     -11.235019      -305.7204
   8   2.0000     -11.216805      -305.2248
   9   2.0000      -1.386822       -37.7374
  10   2.0000      -1.274427       -34.6789
  11   2.0000      -1.070047       -29.1175
  12   2.0000      -1.041171       -28.3317
  13   2.0000      -0.944614       -25.7043
  14   2.0000      -0.871250       -23.7079
  15   2.0000      -0.843495       -22.9527
  16   2.0000      -0.803265       -21.8580
  17   2.0000      -0.729264       -19.8443
  18   2.0000      -0.682317       -18.5668
  19   2.0000      -0.672129       -18.2896
  20   2.0000      -0.644367       -17.5341
  21   2.0000      -0.630638       -17.1605
  22   2.0000      -0.618946       -16.8424
  23   2.0000      -0.601107       -16.3570
  24   2.0000      -0.552278       -15.0282
  25   2.0000      -0.536304       -14.5936
  26   2.0000      -0.527554       -14.3555
  27   2.0000      -0.520951       -14.1758
  28   2.0000      -0.513920       -13.9845
  29   2.0000      -0.495540       -13.4843
  30   2.0000      -0.485362       -13.2074
  31   2.0000      -0.465261       -12.6604
  32   2.0000      -0.453414       -12.3380
  33   2.0000      -0.407058       -11.0766
  34   2.0000      -0.376567       -10.2469
  35   0.0000       0.124891         3.3985
  36   0.0000       0.143284         3.8990
  37   0.0000       0.155190         4.2229
  38   0.0000       0.160669         4.3720
  39   0.0000       0.178354         4.8533

MULLIKEN ATOMIC CHARGES
-----------------------
   0 C :   -0.362717
   1 C :   -0.227647
   2 C :    0.178759
   3 O :   -0.304566
   4 C :   -0.246045
   5 C :   -0.137847
   6 N :   -0.217944
   7 C :   -0.188365
   8 C :   -0.169455
   9 H :    0.131723
  10 H :    0.133255
  11 H :    0.131709
  12 H :    0.132064
  13 H :    0.129944
  14 H :    0.144541
  15 H :    0.133266
  16 H :    0.105593
  17 H :    0.130006
  18 H :    0.128899
  19 H :    0.120969
  20 H :    0.123929
  21 H :    0.129928
Sum of atomic charges:   -0.0000000

LOEWDIN ATOMIC CHARGES
----------------------
   0 C :   -0.312432
   1 C :   -0.270593
   2 C :   -0.322429
   3 O :    0.152496
   4 C :   -0.241012
   5 C :   -0.290138
   6 N :    0.087683
   7 C :   -0.273950
   8 C :   -0.270159
   9 H :    0.120968
  10 H :    0.126826
  11 H :    0.126403
  12 H :    0.150266
  13 H :    0.149328
  14 H :    0.155777
  15 H :    0.151802
  16 H :    0.127511
  17 H :    0.139938
  18 H :    0.123174
  19 H :    0.121483
  20 H :    0.123026
  21 H :    0.124031

  Mayer bond orders larger than 0.1
B(  0-C ,  1-C ) :   0.9376 B(  0-C ,  9-H ) :   0.9393 B(  0-C , 10-H ) :   0.9358
B(  0-C , 11-H ) :   0.9359 B(  1-C ,  2-C ) :   0.9271 B(  1-C , 12-H ) :   0.9161
B(  1-C , 13-H ) :   0.9151 B(  2-C ,  3-O ) :   1.9430 B(  2-C ,  4-C ) :   0.9203
B(  4-C ,  5-C ) :   0.9478 B(  4-C , 14-H ) :   0.9077 B(  4-C , 15-H ) :   0.9090
B(  5-C ,  6-N ) :   0.9004 B(  5-C , 16-H ) :   0.9347 B(  5-C , 17-H ) :   0.9209
B(  6-N ,  7-C ) :   0.8887 B(  6-N ,  8-C ) :   0.8907 B(  7-C ,  8-C ) :   0.9437
B(  7-C , 18-H ) :   0.9274 B(  7-C , 19-H ) :   0.9211 B(  8-C , 20-H ) :   0.9263
B(  8-C , 21-H ) :   0.9273

MP2 TOTAL ENERGY:     -403.640669139 Eh
FINAL SINGLE POINT ENERGY      -403.640669139293

DIPOLE MOMENT
-------------
                                X             Y             Z
Electronic contribution:     -2.89257      -0.40572      -1.65287
Nuclear contribution   :      3.33909      -0.05295       2.12318
                        -----------------------------------------
Total Dipole Moment    :      0.44652      -0.45867       0.47032
                        -----------------------------------------
Magnitude (a.u.)       :      0.79433
Magnitude (Debye)      :      2.01902

                             ****ORCA TERMINATED NORMALLY****
TOTAL RUN TIME: 0 days 0 hours 16 minutes 36 seconds 164 msec
