                         Program Version 3.0.3 - RELEASE   -
|  1> ! RI-MP2 RIJK def2-TZVP def2-TZVP/C def2-TZVP/JK TIGHTSCF
|  2> % maxcore 2000
|  3> % mp2 density relaxed end
|  4> *xyz 0 1
|  5>  O        0.0658491939    -0.1029467079    -0.0014347020
|  6>  C       -0.0141065679     1.1084098950     0.0095157597
|  7>  C        1.1638738491     1.9623684861     0.0032353764
|  8>  C        1.3624447701     3.3384861122     0.0130604836
|  9>  N        2.7003429006     3.6370239972    -0.0001209007
| 10>  C        3.3077380911     2.4665088974    -0.0175121457
| 11>  N        2.4305350314     1.4346316340    -0.0160959623
| 12>  C        0.3483362097     4.3341394638     0.0336746526
| 13>  N       -0.5016846704     5.1192475422     0.0504982950
| 14>  H       -0.9832498174     1.6412144381     0.0259995582
| 15>  H        4.3776308080     2.3212822868    -0.0313786550
| 16>  H        2.6139861017     0.4418792152    -0.0268845198
| 17> *
| 18>
| 19>                          ****END OF INPUT****

CARTESIAN COORDINATES (ANGSTROEM)
---------------------------------
  O      0.065849   -0.102947   -0.001435
  C     -0.014107    1.108410    0.009516
  C      1.163874    1.962368    0.003235
  C      1.362445    3.338486    0.013060
  N      2.700343    3.637024   -0.000121
  C      3.307738    2.466509   -0.017512
  N      2.430535    1.434632   -0.016096
  C      0.348336    4.334139    0.033675
  N     -0.501685    5.119248    0.050498
  H     -0.983250    1.641214    0.026000
  H      4.377631    2.321282   -0.031379
  H      2.613986    0.441879   -0.026885

 Total Charge           Charge          ....    0
 Multiplicity           Mult            ....    1
 Number of Electrons    NEL             ....   62
 Basis Dimension        Dim             ....  297

ORBITAL ENERGIES
----------------

  NO   OCC          E(Eh)            E(eV)
   0   2.0000     -20.586741      -560.1937
   1   2.0000     -15.669863      -426.3987
   2   2.0000     -15.600115      -424.5007
   3   2.0000     -15.593368      -424.3171
   4   2.0000     -11.370923      -309.4185
   5   2.0000     -11.352281      -308.9113
   6   2.0000     -11.334867      -308.4374
   7   2.0000     -11.319332      -308.0147
   8   2.0000     -11.294184      -307.3304
   9   2.0000      -1.427453       -38.8430
  10   2.0000      -1.395122       -37.9632
  11   2.0000      -1.242188       -33.8017
  12   2.0000      -1.219990       -33.1976
  13   2.0000      -1.094197       -29.7746
  14   2.0000      -0.949330       -25.8326
  15   2.0000      -0.892085       -24.2749
  16   2.0000      -0.875797       -23.8317
  17   2.0000      -0.782555       -21.2944
  18   2.0000      -0.714990       -19.4559
  19   2.0000      -0.690880       -18.7998
  20   2.0000      -0.663926       -18.0664
  21   2.0000      -0.663807       -18.0631
  22   2.0000      -0.647992       -17.6327
  23   2.0000      -0.576673       -15.6921
  24   2.0000      -0.563874       -15.3438
  25   2.0000      -0.523156       -14.2358
  26   2.0000      -0.503992       -13.7143
  27   2.0000      -0.489785       -13.3277
  28   2.0000      -0.462787       -12.5931
  29   2.0000      -0.441618       -12.0170
  30   2.0000      -0.368134       -10.0174
  31   0.0000       0.036887         1.0038
  32   0.0000       0.118704         3.2301
  33   0.0000       0.127987         3.4827
  34   0.0000       0.151067         4.1107
  35   0.0000       0.158690         4.3182

MULLIKEN ATOMIC CHARGES
-----------------------
   0 O :   -0.294460
   1 C :    0.122654
   2 C :    0.020538
   3 C :    0.242636
   4 N :   -0.268921
   5 C :    0.083940
   6 N :   -0.242798
   7 C :   -0.204827
   8 N :   -0.037357
   9 H :    0.125867
  10 H :    0.173872
  11 H :    0.278856
Sum of atomic charges:    0.0000000

LOEWDIN ATOMIC CHARGES
----------------------
   0 O :    0.124563
   1 C :   -0.266711
   2 C :   -0.195202
   3 C :   -0.219900
   4 N :    0.147204
   5 C :   -0.261791
   6 N :    0.239535
   7 C :   -0.143823
   8 N :    0.090313
   9 H :    0.133100
  10 H :    0.140940
  11 H :    0.211774

  Mayer bond orders larger than 0.1
B(  0-O ,  1-C ) :   1.9192 B(  1-C ,  2-C ) :   0.8926 B(  1-C ,  9-H ) :   0.9701
B(  2-C ,  3-C ) :   1.3141 B(  2-C ,  6-N ) :   1.1533 B(  3-C ,  4-N ) :   1.2865
B(  3-C ,  7-C ) :   0.9221 B(  4-N ,  5-C ) :   1.4943 B(  5-C ,  6-N ) :   1.2031
B(  5-C , 10-H ) :   0.9185 B(  6-N , 11-H ) :   0.8441 B(  7-C ,  8-N ) :   2.8452

MP2 TOTAL ENERGY:     -431.006011901 Eh
FINAL SINGLE POINT ENERGY      -431.006011901225

DIPOLE MOMENT
-------------
                                X             Y             Z
Electronic contribution:     -0.91614       1.52025       0.02365
Nuclear contribution   :      2.23146      -2.96207      -0.05193
                        -----------------------------------------
Total Dipole Moment    :      1.31532      -1.44183      -0.02828
                        -----------------------------------------
Magnitude (a.u.)       :      1.95185
Magnitude (Debye)      :      4.96121

                             ****ORCA TERMINATED NORMALLY****
TOTAL RUN TIME: 0 days 0 hours 12 minutes 53 seconds 605 msec
