                         Program Version 3.0.3 - RELEASE   -
|  1> ! RI-MP2 RIJK def2-TZVP def2-TZVP/C def2-TZVP/JK TIGHTSCF
|  2> % maxcore 2000
|  3> % mp2 density relaxed end
|  4> *xyz 0 1
|  5>  C        0.0095417833     1.5359255503     0.0744773448
|  6>  C        0.0104471216     0.0219898249    -0.0427186784
|  7>  C        0.7707059640    -0.5186300044    -1.2532738911
|  8>  C        0.8213252081    -2.0319325499    -1.1678921515
|  9>  C       -0.1219241766    -2.8778265181    -1.9988569071
| 10>  C        1.3467452239    -2.8320846455    -2.3332357543
| 11>  N        1.1387542456    -2.5534749341     0.1325006839
| 12>  C        1.0365991550    -1.7752565740     1.1264444955
| 13>  O        0.6050826961    -0.4913350233     1.1697782570
| 14>  H        1.0335639885     1.9206892435     0.1023150874
| 15>  H       -0.5061153839     1.9800128022    -0.7823380687
| 16>  H       -0.5013955112     1.8500903863     0.9885480458
| 17>  H       -1.0228861660    -0.3512432848    -0.0748497871
| 18>  H        0.2892589208    -0.1825557296    -2.1772862511
| 19>  H        1.7883476432    -0.1064472182    -1.2430772157
| 20>  H       -0.5081105622    -3.7782504617    -1.5368097358
| 21>  H       -0.8186458405    -2.3624617992    -2.6523496370
| 22>  H        1.6582644381    -2.2917345044    -3.2210573498
| 23>  H        1.9461304930    -3.7006654438    -2.0880354818
| 24>  H        1.3178257892    -2.1079681163     2.1235571251
| 25> *
| 26>
| 27>                          ****END OF INPUT****

CARTESIAN COORDINATES (ANGSTROEM)
---------------------------------
  C      0.009542    1.535926    0.074477
  C      0.010447    0.021990   -0.042719
  C      0.770706   -0.518630   -1.253274
  C      0.821325   -2.031933   -1.167892
  C     -0.121924   -2.877827   -1.998857
  C      1.346745   -2.832085   -2.333236
  N      1.138754   -2.553475    0.132501
  C      1.036599   -1.775257    1.126444
  O      0.605083   -0.491335    1.169778
  H      1.033564    1.920689    0.102315
  H     -0.506115    1.980013   -0.782338
  H     -0.501396    1.850090    0.988548
  H     -1.022886   -0.351243   -0.074850
  H      0.289259   -0.182556   -2.177286
  H      1.788348   -0.106447   -1.243077
  H     -0.508111   -3.778250   -1.536810
  H     -0.818646   -2.362462   -2.652350
  H      1.658264   -2.291735   -3.221057
  H      1.946130   -3.700665   -2.088035
  H      1.317826   -2.107968    2.123557

 Total Charge           Charge          ....    0
 Multiplicity           Mult            ....    1
 Number of Electrons    NEL             ....   68
 Basis Dimension        Dim             ....  345

ORBITAL ENERGIES
----------------

  NO   OCC          E(Eh)            E(eV)
   0   2.0000     -20.589041      -560.2563
   1   2.0000     -15.542742      -422.9395
   2   2.0000     -11.326038      -308.1972
   3   2.0000     -11.295895      -307.3769
   4   2.0000     -11.263985      -306.5086
   5   2.0000     -11.232971      -305.6647
   6   2.0000     -11.225314      -305.4563
   7   2.0000     -11.222930      -305.3915
   8   2.0000     -11.220468      -305.3245
   9   2.0000      -1.422302       -38.7028
  10   2.0000      -1.229083       -33.4451
  11   2.0000      -1.126575       -30.6557
  12   2.0000      -1.063299       -28.9338
  13   2.0000      -0.961143       -26.1540
  14   2.0000      -0.875270       -23.8173
  15   2.0000      -0.830835       -22.6082
  16   2.0000      -0.818438       -22.2708
  17   2.0000      -0.733177       -19.9508
  18   2.0000      -0.695990       -18.9389
  19   2.0000      -0.685515       -18.6538
  20   2.0000      -0.650332       -17.6964
  21   2.0000      -0.613777       -16.7017
  22   2.0000      -0.604580       -16.4515
  23   2.0000      -0.573507       -15.6059
  24   2.0000      -0.565695       -15.3933
  25   2.0000      -0.549013       -14.9394
  26   2.0000      -0.527600       -14.3567
  27   2.0000      -0.517461       -14.0808
  28   2.0000      -0.504788       -13.7360
  29   2.0000      -0.503367       -13.6973
  30   2.0000      -0.444100       -12.0846
  31   2.0000      -0.433388       -11.7931
  32   2.0000      -0.397917       -10.8279
  33   2.0000      -0.351556        -9.5663
  34   0.0000       0.132917         3.6168
  35   0.0000       0.156869         4.2686
  36   0.0000       0.164078         4.4648
  37   0.0000       0.173327         4.7165
  38   0.0000       0.182133         4.9561

MULLIKEN ATOMIC CHARGES
-----------------------
   0 C :   -0.372975
   1 C :    0.070901
   2 C :   -0.268810
   3 C :    0.212927
   4 C :   -0.301808
   5 C :   -0.278238
   6 N :   -0.278725
   7 C :    0.071749
   8 O :   -0.257588
   9 H :    0.131232
  10 H :    0.126810
  11 H :    0.146119
  12 H :    0.096777
  13 H :    0.123609
  14 H :    0.125036
  15 H :    0.134137
  16 H :    0.123455
  17 H :    0.126857
  18 H :    0.132592
  19 H :    0.135945
Sum of atomic charges:    0.0000000

LOEWDIN ATOMIC CHARGES
----------------------
   0 C :   -0.288594
   1 C :   -0.304813
   2 C :   -0.204418
   3 C :   -0.304882
   4 C :   -0.206161
   5 C :   -0.202727
   6 N :    0.121090
   7 C :   -0.351803
   8 O :    0.237591
   9 H :    0.127918
  10 H :    0.128767
  11 H :    0.129202
  12 H :    0.145989
  13 H :    0.150067
  14 H :    0.150037
  15 H :    0.137136
  16 H :    0.131405
  17 H :    0.132706
  18 H :    0.138745
  19 H :    0.132747

  Mayer bond orders larger than 0.1
B(  0-C ,  1-C ) :   0.9136 B(  0-C ,  9-H ) :   0.9332 B(  0-C , 10-H ) :   0.9330
B(  0-C , 11-H ) :   0.9395 B(  1-C ,  2-C ) :   0.9308 B(  1-C ,  8-O ) :   0.8642
B(  1-C , 12-H ) :   0.9395 B(  2-C ,  3-C ) :   0.9302 B(  2-C , 13-H ) :   0.9024
B(  2-C , 14-H ) :   0.9177 B(  3-C ,  4-C ) :   0.8288 B(  3-C ,  5-C ) :   0.8358
B(  3-C ,  6-N ) :   0.9792 B(  4-C ,  5-C ) :   0.9558 B(  4-C , 15-H ) :   0.9254
B(  4-C , 16-H ) :   0.9220 B(  5-C , 17-H ) :   0.9259 B(  5-C , 18-H ) :   0.9226
B(  6-N ,  7-C ) :   1.8318 B(  7-C ,  8-O ) :   1.0718 B(  7-C , 19-H ) :   0.9272

MP2 TOTAL ENERGY:     -402.464665117 Eh
FINAL SINGLE POINT ENERGY      -402.464665116930

DIPOLE MOMENT
-------------
                                X             Y             Z
Electronic contribution:      1.58969      -3.48655       4.70946
Nuclear contribution   :     -1.94769       4.18875      -5.15883
                        -----------------------------------------
Total Dipole Moment    :     -0.35800       0.70219      -0.44938
                        -----------------------------------------
Magnitude (a.u.)       :      0.90729
Magnitude (Debye)      :      2.30615

                             ****ORCA TERMINATED NORMALLY****
TOTAL RUN TIME: 0 days 0 hours 18 minutes 43 seconds 264 msec
