                         Program Version 3.0.3 - RELEASE   -
|  1> ! RI-MP2 RIJK def2-TZVP def2-TZVP/C def2-TZVP/JK TIGHTSCF
|  2> % maxcore 2000
|  3> % mp2 density relaxed end
|  4> *xyz 0 1
|  5>  N       -0.0634557774     1.3894618340     0.1642152041
|  6>  C        0.0594275866     0.0072220719     0.0462540941
|  7>  N       -1.0208664296    -0.7699228428     0.0250117575
|  8>  N       -0.5557890936    -2.0731203475    -0.0039767682
|  9>  C        0.7853616590    -2.0620363744    -0.0241904272
| 10>  C        1.2549118081    -0.7676932983     0.0118915630
| 11>  C        2.6902042150    -0.9127409711     0.0100095853
| 12>  C        2.9291611205    -2.2484712611    -0.0288735286
| 13>  O        1.7467055148    -2.9962003850    -0.0495728595
| 14>  H        0.5889907158     1.9001027684    -0.4155887023
| 15>  H       -1.0127881797     1.6924499114    -0.0147705502
| 16>  H       -1.2094321371    -2.8334870338    -0.0244181855
| 17>  H        3.4498143886    -0.1471906957     0.0374465539
| 18>  H        3.8285156089    -2.8399869959    -0.0463192564
| 19> *
| 20>
| 21>                          ****END OF INPUT****

CARTESIAN COORDINATES (ANGSTROEM)
---------------------------------
  N     -0.063456    1.389462    0.164215
  C      0.059428    0.007222    0.046254
  N     -1.020866   -0.769923    0.025012
  N     -0.555789   -2.073120   -0.003977
  C      0.785362   -2.062036   -0.024190
  C      1.254912   -0.767693    0.011892
  C      2.690204   -0.912741    0.010010
  C      2.929161   -2.248471   -0.028874
  O      1.746706   -2.996200   -0.049573
  H      0.588991    1.900103   -0.415589
  H     -1.012788    1.692450   -0.014771
  H     -1.209432   -2.833487   -0.024418
  H      3.449814   -0.147191    0.037447
  H      3.828516   -2.839987   -0.046319

 Total Charge           Charge          ....    0
 Multiplicity           Mult            ....    1
 Number of Electrons    NEL             ....   64
 Basis Dimension        Dim             ....  309

ORBITAL ENERGIES
----------------

  NO   OCC          E(Eh)            E(eV)
   0   2.0000     -20.635775      -561.5280
   1   2.0000     -15.627675      -425.2506
   2   2.0000     -15.568499      -423.6404
   3   2.0000     -15.566185      -423.5774
   4   2.0000     -11.333156      -308.3908
   5   2.0000     -11.305521      -307.6389
   6   2.0000     -11.294369      -307.3354
   7   2.0000     -11.251318      -306.1639
   8   2.0000     -11.218096      -305.2599
   9   2.0000      -1.473051       -40.0838
  10   2.0000      -1.356630       -36.9158
  11   2.0000      -1.217409       -33.1274
  12   2.0000      -1.102042       -29.9881
  13   2.0000      -1.068779       -29.0829
  14   2.0000      -1.007466       -27.4146
  15   2.0000      -0.849160       -23.1068
  16   2.0000      -0.815444       -22.1894
  17   2.0000      -0.793576       -21.5943
  18   2.0000      -0.743474       -20.2310
  19   2.0000      -0.687896       -18.7186
  20   2.0000      -0.670632       -18.2488
  21   2.0000      -0.653140       -17.7728
  22   2.0000      -0.625863       -17.0306
  23   2.0000      -0.598959       -16.2985
  24   2.0000      -0.585165       -15.9232
  25   2.0000      -0.578187       -15.7333
  26   2.0000      -0.533413       -14.5149
  27   2.0000      -0.488381       -13.2895
  28   2.0000      -0.454214       -12.3598
  29   2.0000      -0.414318       -11.2742
  30   2.0000      -0.329502        -8.9662
  31   2.0000      -0.300678        -8.1819
  32   0.0000       0.134363         3.6562
  33   0.0000       0.145288         3.9535
  34   0.0000       0.149164         4.0590
  35   0.0000       0.174195         4.7401
  36   0.0000       0.181788         4.9467

MULLIKEN ATOMIC CHARGES
-----------------------
   0 N :   -0.527169
   1 C :    0.130990
   2 N :   -0.206813
   3 N :   -0.184605
   4 C :    0.212724
   5 C :    0.028612
   6 C :   -0.292594
   7 C :    0.030459
   8 O :   -0.244081
   9 H :    0.249668
  10 H :    0.250048
  11 H :    0.260283
  12 H :    0.140628
  13 H :    0.151849
Sum of atomic charges:   -0.0000000

LOEWDIN ATOMIC CHARGES
----------------------
   0 N :   -0.083419
   1 C :   -0.356549
   2 N :    0.023285
   3 N :    0.129748
   4 C :   -0.323939
   5 C :   -0.153958
   6 C :   -0.160359
   7 C :   -0.207255
   8 O :    0.326579
   9 H :    0.168495
  10 H :    0.171620
  11 H :    0.186825
  12 H :    0.145956
  13 H :    0.132970

  Mayer bond orders larger than 0.1
B(  0-N ,  1-C ) :   1.0288 B(  0-N ,  9-H ) :   0.8737 B(  0-N , 10-H ) :   0.8773
B(  1-C ,  2-N ) :   1.6308 B(  1-C ,  5-C ) :   1.1464 B(  2-N ,  3-N ) :   0.9626
B(  3-N ,  4-C ) :   1.2119 B(  3-N , 11-H ) :   0.8662 B(  4-C ,  5-C ) :   1.3117
B(  4-C ,  8-O ) :   1.0761 B(  5-C ,  6-C ) :   1.0847 B(  6-C ,  7-C ) :   1.6431
B(  6-C , 12-H ) :   0.9257 B(  7-C ,  8-O ) :   0.9636 B(  7-C , 13-H ) :   0.9355

MP2 TOTAL ENERGY:     -432.153043301 Eh
FINAL SINGLE POINT ENERGY      -432.153043301058

DIPOLE MOMENT
-------------
                                X             Y             Z
Electronic contribution:     -0.94351      -3.44004       0.05318
Nuclear contribution   :      1.34780       3.31970      -0.49283
                        -----------------------------------------
Total Dipole Moment    :      0.40429      -0.12034      -0.43965
                        -----------------------------------------
Magnitude (a.u.)       :      0.60928
Magnitude (Debye)      :      1.54867

                             ****ORCA TERMINATED NORMALLY****
TOTAL RUN TIME: 0 days 0 hours 15 minutes 27 seconds 161 msec
