                         Program Version 3.0.3 - RELEASE   -
|  1> ! RI-MP2 RIJK def2-TZVP def2-TZVP/C def2-TZVP/JK TIGHTSCF
|  2> % maxcore 2000
|  3> % mp2 density relaxed end
|  4> *xyz 0 1
|  5>  N       -0.0459007736     1.4735704061     0.0439849201
|  6>  C       -0.0293032027     0.0310629930    -0.0677875860
|  7>  C        0.8209619069    -0.5134591212     0.9998387721
|  8>  N        1.5186026119    -0.9389395497     1.8171061283
|  9>  C       -1.3761750869    -0.6925220187    -0.1133707659
| 10>  C       -1.8024327736    -0.7889519419    -1.5873933363
| 11>  C       -0.7072073111    -0.1487513333    -2.4387830377
| 12>  C        0.2871388816    -0.7514000253    -1.4174734240
| 13>  C       -0.8312053650    -1.7840128929    -1.0023414810
| 14>  H        0.8863111877     1.8673475399    -0.0349096188
| 15>  H       -0.6284325428     1.8796930423    -0.6788360358
| 16>  H       -2.0903021704    -0.7770631486     0.6946441757
| 17>  H       -2.8433772656    -0.9464394457    -1.8381349173
| 18>  H       -0.6213297784    -0.6496730149    -3.4063423885
| 19>  H       -0.6968887918     0.9367941357    -2.5951664880
| 20>  H        1.3181702035    -0.9750992804    -1.6800376391
| 21>  H       -0.8478180897    -2.8576221345    -0.8996470880
| 22> *
| 23>
| 24>                          ****END OF INPUT****

CARTESIAN COORDINATES (ANGSTROEM)
---------------------------------
  N     -0.045901    1.473570    0.043985
  C     -0.029303    0.031063   -0.067788
  C      0.820962   -0.513459    0.999839
  N      1.518603   -0.938940    1.817106
  C     -1.376175   -0.692522   -0.113371
  C     -1.802433   -0.788952   -1.587393
  C     -0.707207   -0.148751   -2.438783
  C      0.287139   -0.751400   -1.417473
  C     -0.831205   -1.784013   -1.002341
  H      0.886311    1.867348   -0.034910
  H     -0.628433    1.879693   -0.678836
  H     -2.090302   -0.777063    0.694644
  H     -2.843377   -0.946439   -1.838135
  H     -0.621330   -0.649673   -3.406342
  H     -0.696889    0.936794   -2.595166
  H      1.318170   -0.975099   -1.680038
  H     -0.847818   -2.857622   -0.899647

 Total Charge           Charge          ....    0
 Multiplicity           Mult            ....    1
 Number of Electrons    NEL             ....   64
 Basis Dimension        Dim             ....  327

ORBITAL ENERGIES
----------------

  NO   OCC          E(Eh)            E(eV)
   0   2.0000     -15.565233      -423.5515
   1   2.0000     -15.564300      -423.5261
   2   2.0000     -11.319561      -308.0209
   3   2.0000     -11.265564      -306.5516
   4   2.0000     -11.265272      -306.5436
   5   2.0000     -11.258679      -306.3642
   6   2.0000     -11.257893      -306.3428
   7   2.0000     -11.254394      -306.2476
   8   2.0000     -11.249118      -306.1041
   9   2.0000      -1.275858       -34.7179
  10   2.0000      -1.211743       -32.9732
  11   2.0000      -1.187746       -32.3202
  12   2.0000      -1.004488       -27.3335
  13   2.0000      -0.983401       -26.7597
  14   2.0000      -0.878854       -23.9148
  15   2.0000      -0.806754       -21.9529
  16   2.0000      -0.760383       -20.6911
  17   2.0000      -0.728475       -19.8228
  18   2.0000      -0.687089       -18.6966
  19   2.0000      -0.661780       -18.0079
  20   2.0000      -0.640004       -17.4154
  21   2.0000      -0.603353       -16.4181
  22   2.0000      -0.578428       -15.7398
  23   2.0000      -0.545624       -14.8472
  24   2.0000      -0.540828       -14.7167
  25   2.0000      -0.502359       -13.6699
  26   2.0000      -0.484202       -13.1758
  27   2.0000      -0.464332       -12.6351
  28   2.0000      -0.454946       -12.3797
  29   2.0000      -0.420064       -11.4305
  30   2.0000      -0.410246       -11.1634
  31   2.0000      -0.391148       -10.6437
  32   0.0000       0.122464         3.3324
  33   0.0000       0.148969         4.0537
  34   0.0000       0.152724         4.1558
  35   0.0000       0.162932         4.4336
  36   0.0000       0.180673         4.9164

MULLIKEN ATOMIC CHARGES
-----------------------
   0 N :   -0.542023
   1 C :    0.284327
   2 C :   -0.272019
   3 N :   -0.040810
   4 C :   -0.115838
   5 C :   -0.155390
   6 C :   -0.211996
   7 C :   -0.021942
   8 C :   -0.245914
   9 H :    0.244478
  10 H :    0.236910
  11 H :    0.155609
  12 H :    0.142490
  13 H :    0.127747
  14 H :    0.096946
  15 H :    0.155859
  16 H :    0.161567
Sum of atomic charges:   -0.0000000

LOEWDIN ATOMIC CHARGES
----------------------
   0 N :   -0.090771
   1 C :   -0.298468
   2 C :   -0.138829
   3 N :    0.066898
   4 C :   -0.112652
   5 C :   -0.158809
   6 C :   -0.201818
   7 C :   -0.112483
   8 C :   -0.110317
   9 H :    0.165450
  10 H :    0.160309
  11 H :    0.148043
  12 H :    0.141317
  13 H :    0.145513
  14 H :    0.118374
  15 H :    0.139029
  16 H :    0.139216

  Mayer bond orders larger than 0.1
B(  0-N ,  1-C ) :   0.8929 B(  0-N ,  9-H ) :   0.8764 B(  0-N , 10-H ) :   0.8888
B(  1-C ,  2-C ) :   0.9244 B(  1-C ,  4-C ) :   0.8661 B(  1-C ,  7-C ) :   0.8936
B(  2-C ,  3-N ) :   2.8960 B(  4-C ,  5-C ) :   0.8326 B(  4-C ,  8-C ) :   0.8398
B(  4-C , 11-H ) :   0.9194 B(  5-C ,  6-C ) :   0.9378 B(  5-C ,  8-C ) :   0.8457
B(  5-C , 12-H ) :   0.9317 B(  6-C ,  7-C ) :   0.8925 B(  6-C , 13-H ) :   0.9240
B(  6-C , 14-H ) :   0.9279 B(  7-C ,  8-C ) :   0.9230 B(  7-C , 15-H ) :   0.9076
B(  8-C , 16-H ) :   0.9090

MP2 TOTAL ENERGY:     -380.153368866 Eh
FINAL SINGLE POINT ENERGY      -380.153368865586

DIPOLE MOMENT
-------------
                                X             Y             Z
Electronic contribution:      2.59423      -1.38806       4.88190
Nuclear contribution   :     -3.38256       1.69485      -6.52722
                        -----------------------------------------
Total Dipole Moment    :     -0.78833       0.30679      -1.64531
                        -----------------------------------------
Magnitude (a.u.)       :      1.85004
Magnitude (Debye)      :      4.70242

                             ****ORCA TERMINATED NORMALLY****
TOTAL RUN TIME: 0 days 0 hours 20 minutes 41 seconds 995 msec
