                         Program Version 3.0.3 - RELEASE   -
|  1> ! RI-MP2 RIJK def2-TZVP def2-TZVP/C def2-TZVP/JK TIGHTSCF
|  2> % maxcore 2000
|  3> % mp2 density relaxed end
|  4> *xyz 0 1
|  5>  C       -0.3316652598     1.4643059856     0.0204391439
|  6>  C        0.0738439999    -0.0100127995    -0.1133074043
|  7>  C        0.7305719206    -0.5583290660     1.1393139681
|  8>  O        1.9472571354     0.0988135050     1.4423210486
|  9>  C       -0.0040785985    -1.0610489575     2.3675667721
| 10>  C       -1.4658116411    -1.4883916158     2.3040002974
| 11>  C       -1.5705559011    -2.5517077941     1.1767050033
| 12>  C       -0.1243222193    -3.0426368500     0.8920803674
| 13>  C        0.8163061934    -2.0148945155     1.5077005925
| 14>  H        0.5398925924     2.0982872084     0.2147201812
| 15>  H       -0.7980701834     1.8287682227    -0.8995745073
| 16>  H       -1.0456703605     1.6088921727     0.8386596207
| 17>  H       -0.8030437265    -0.6031708362    -0.3808773914
| 18>  H        0.7878759605    -0.1168063883    -0.9394272793
| 19>  H        1.7309584318     0.9583119647     1.8192071573
| 20>  H        0.3864806760    -0.7176589082     3.3202097048
| 21>  H       -1.7365005137    -1.9284658553     3.2704711432
| 22>  H       -2.1572377835    -0.6543586283     2.1388133368
| 23>  H       -2.2243899755    -3.3791384411     1.4664395738
| 24>  H       -2.0164485490    -2.1187322444     0.2778152906
| 25>  H        0.0554786931    -4.0069334659     1.3798947660
| 26>  H        0.0484061089    -3.1980354509    -0.1786220625
| 27>  H        1.7948468400    -2.3442334322     1.8388725672
| 28> *
| 29>
| 30>                          ****END OF INPUT****

CARTESIAN COORDINATES (ANGSTROEM)
---------------------------------
  C     -0.331665    1.464306    0.020439
  C      0.073844   -0.010013   -0.113307
  C      0.730572   -0.558329    1.139314
  O      1.947257    0.098814    1.442321
  C     -0.004079   -1.061049    2.367567
  C     -1.465812   -1.488392    2.304000
  C     -1.570556   -2.551708    1.176705
  C     -0.124322   -3.042637    0.892080
  C      0.816306   -2.014895    1.507701
  H      0.539893    2.098287    0.214720
  H     -0.798070    1.828768   -0.899575
  H     -1.045670    1.608892    0.838660
  H     -0.803044   -0.603171   -0.380877
  H      0.787876   -0.116806   -0.939427
  H      1.730958    0.958312    1.819207
  H      0.386481   -0.717659    3.320210
  H     -1.736501   -1.928466    3.270471
  H     -2.157238   -0.654359    2.138813
  H     -2.224390   -3.379138    1.466440
  H     -2.016449   -2.118732    0.277815
  H      0.055479   -4.006933    1.379895
  H      0.048406   -3.198035   -0.178622
  H      1.794847   -2.344233    1.838873

 Total Charge           Charge          ....    0
 Multiplicity           Mult            ....    1
 Number of Electrons    NEL             ....   70
 Basis Dimension        Dim             ....  363

ORBITAL ENERGIES
----------------

  NO   OCC          E(Eh)            E(eV)
   0   2.0000     -20.552264      -559.2555
   1   2.0000     -11.278269      -306.8973
   2   2.0000     -11.222144      -305.3701
   3   2.0000     -11.220926      -305.3369
   4   2.0000     -11.220392      -305.3224
   5   2.0000     -11.220038      -305.3128
   6   2.0000     -11.219087      -305.2869
   7   2.0000     -11.217857      -305.2534
   8   2.0000     -11.216852      -305.2261
   9   2.0000      -1.363020       -37.0897
  10   2.0000      -1.157171       -31.4882
  11   2.0000      -1.040192       -28.3051
  12   2.0000      -1.009755       -27.4768
  13   2.0000      -0.960412       -26.1341
  14   2.0000      -0.876567       -23.8526
  15   2.0000      -0.811953       -22.0944
  16   2.0000      -0.762242       -20.7416
  17   2.0000      -0.734097       -19.9758
  18   2.0000      -0.690238       -18.7823
  19   2.0000      -0.645091       -17.5538
  20   2.0000      -0.638995       -17.3879
  21   2.0000      -0.607247       -16.5240
  22   2.0000      -0.596869       -16.2416
  23   2.0000      -0.571953       -15.5636
  24   2.0000      -0.554227       -15.0813
  25   2.0000      -0.534952       -14.5568
  26   2.0000      -0.511833       -13.9277
  27   2.0000      -0.497348       -13.5335
  28   2.0000      -0.490703       -13.3527
  29   2.0000      -0.482369       -13.1259
  30   2.0000      -0.474299       -12.9063
  31   2.0000      -0.471542       -12.8313
  32   2.0000      -0.462294       -12.5796
  33   2.0000      -0.382312       -10.4032
  34   2.0000      -0.375089       -10.2067
  35   0.0000       0.129996         3.5374
  36   0.0000       0.147367         4.0101
  37   0.0000       0.163744         4.4557
  38   0.0000       0.172240         4.6869
  39   0.0000       0.184417         5.0182

MULLIKEN ATOMIC CHARGES
-----------------------
   0 C :   -0.441987
   1 C :   -0.181622
   2 C :    0.220793
   3 O :   -0.473765
   4 C :   -0.178695
   5 C :   -0.243443
   6 C :   -0.246761
   7 C :   -0.247876
   8 C :   -0.104953
   9 H :    0.120496
  10 H :    0.137777
  11 H :    0.131546
  12 H :    0.103431
  13 H :    0.118556
  14 H :    0.319616
  15 H :    0.126629
  16 H :    0.118130
  17 H :    0.112474
  18 H :    0.119210
  19 H :    0.122013
  20 H :    0.120115
  21 H :    0.120122
  22 H :    0.128193
Sum of atomic charges:   -0.0000000

LOEWDIN ATOMIC CHARGES
----------------------
   0 C :   -0.317865
   1 C :   -0.250836
   2 C :   -0.320145
   3 O :    0.020953
   4 C :   -0.178013
   5 C :   -0.236236
   6 C :   -0.251591
   7 C :   -0.234070
   8 C :   -0.165422
   9 H :    0.117752
  10 H :    0.122648
  11 H :    0.121066
  12 H :    0.143722
  13 H :    0.145141
  14 H :    0.175735
  15 H :    0.145085
  16 H :    0.140274
  17 H :    0.134259
  18 H :    0.131900
  19 H :    0.128007
  20 H :    0.140474
  21 H :    0.136892
  22 H :    0.150268

  Mayer bond orders larger than 0.1
B(  0-C ,  1-C ) :   0.8971 B(  0-C ,  9-H ) :   0.9421 B(  0-C , 10-H ) :   0.9395
B(  0-C , 11-H ) :   0.9385 B(  1-C ,  2-C ) :   0.9280 B(  1-C , 12-H ) :   0.9223
B(  1-C , 13-H ) :   0.9305 B(  2-C ,  3-O ) :   0.8872 B(  2-C ,  4-C ) :   0.8836
B(  2-C ,  8-C ) :   0.8657 B(  3-O , 14-H ) :   0.8436 B(  4-C ,  5-C ) :   0.9142
B(  4-C ,  8-C ) :   0.8636 B(  4-C , 15-H ) :   0.9247 B(  5-C ,  6-C ) :   0.9318
B(  5-C , 16-H ) :   0.9190 B(  5-C , 17-H ) :   0.9336 B(  6-C ,  7-C ) :   0.9324
B(  6-C , 18-H ) :   0.9329 B(  6-C , 19-H ) :   0.9373 B(  7-C ,  8-C ) :   0.9222
B(  7-C , 20-H ) :   0.9290 B(  7-C , 21-H ) :   0.9352 B(  8-C , 22-H ) :   0.9213

MP2 TOTAL ENERGY:     -387.620565786 Eh
FINAL SINGLE POINT ENERGY      -387.620565786030

DIPOLE MOMENT
-------------
                                X             Y             Z
Electronic contribution:      4.80963      -0.81194       2.30823
Nuclear contribution   :     -5.40006       0.95346      -2.21205
                        -----------------------------------------
Total Dipole Moment    :     -0.59043       0.14152       0.09618
                        -----------------------------------------
Magnitude (a.u.)       :      0.61473
Magnitude (Debye)      :      1.56251

                             ****ORCA TERMINATED NORMALLY****
TOTAL RUN TIME: 0 days 0 hours 21 minutes 27 seconds 959 msec
