                         Program Version 3.0.3 - RELEASE   -
|  1> ! RI-MP2 RIJK def2-TZVP def2-TZVP/C def2-TZVP/JK TIGHTSCF
|  2> % maxcore 2000
|  3> % mp2 density relaxed end
|  4> *xyz 0 1
|  5>  C        0.0574570609     1.4520239775    -0.3602258562
|  6>  C       -0.0559476714     0.0417112318     0.2464378408
|  7>  C       -1.4417470525    -0.5183463539     0.1889251755
|  8>  N       -2.3196929740    -0.5159072286     1.1702389844
|  9>  C       -3.4605874698    -1.0906278346     0.6573354933
| 10>  C       -3.2754405323    -1.4465464559    -0.6503205791
| 11>  N       -1.9795920182    -1.0742475381    -0.9403338189
| 12>  H        1.0815185383     1.8288373166    -0.2776234857
| 13>  H       -0.2172682959     1.4550562150    -1.4203445991
| 14>  H       -0.6080890449     2.1471121433     0.1591636605
| 15>  H        0.6427321213    -0.6353964086    -0.2614664789
| 16>  H        0.2342942059     0.0686689802     1.2998342393
| 17>  H       -4.3461531883    -1.2183813949     1.2611780805
| 18>  H       -3.9114250784    -1.9188094544    -1.3803184088
| 19>  H       -1.5119102607    -1.2002574855    -1.8221601974
| 20> *
| 21>
| 22>                          ****END OF INPUT****

CARTESIAN COORDINATES (ANGSTROEM)
---------------------------------
  C      0.057457    1.452024   -0.360226
  C     -0.055948    0.041711    0.246438
  C     -1.441747   -0.518346    0.188925
  N     -2.319693   -0.515907    1.170239
  C     -3.460587   -1.090628    0.657335
  C     -3.275441   -1.446546   -0.650321
  N     -1.979592   -1.074248   -0.940334
  H      1.081519    1.828837   -0.277623
  H     -0.217268    1.455056   -1.420345
  H     -0.608089    2.147112    0.159164
  H      0.642732   -0.635396   -0.261466
  H      0.234294    0.068669    1.299834
  H     -4.346153   -1.218381    1.261178
  H     -3.911425   -1.918809   -1.380318
  H     -1.511910   -1.200257   -1.822160

 Total Charge           Charge          ....    0
 Multiplicity           Mult            ....    1
 Number of Electrons    NEL             ....   52
 Basis Dimension        Dim             ....  265

ORBITAL ENERGIES
----------------

  NO   OCC          E(Eh)            E(eV)
   0   2.0000     -15.610541      -424.7844
   1   2.0000     -15.532641      -422.6646
   2   2.0000     -11.292411      -307.2821
   3   2.0000     -11.251714      -306.1747
   4   2.0000     -11.239593      -305.8449
   5   2.0000     -11.234940      -305.7183
   6   2.0000     -11.225230      -305.4540
   7   2.0000      -1.333194       -36.2781
   8   2.0000      -1.157637       -31.5009
   9   2.0000      -1.066773       -29.0284
  10   2.0000      -0.979821       -26.6623
  11   2.0000      -0.872347       -23.7378
  12   2.0000      -0.809997       -22.0411
  13   2.0000      -0.790448       -21.5092
  14   2.0000      -0.709904       -19.3175
  15   2.0000      -0.626258       -17.0414
  16   2.0000      -0.613363       -16.6904
  17   2.0000      -0.596310       -16.2264
  18   2.0000      -0.584701       -15.9105
  19   2.0000      -0.568406       -15.4671
  20   2.0000      -0.522854       -14.2276
  21   2.0000      -0.509271       -13.8580
  22   2.0000      -0.498576       -13.5669
  23   2.0000      -0.427854       -11.6425
  24   2.0000      -0.393857       -10.7174
  25   2.0000      -0.308228        -8.3873
  26   0.0000       0.118700         3.2300
  27   0.0000       0.153688         4.1821
  28   0.0000       0.176192         4.7944
  29   0.0000       0.179365         4.8808
  30   0.0000       0.189948         5.1688

MULLIKEN ATOMIC CHARGES
-----------------------
   0 C :   -0.381600
   1 C :   -0.256860
   2 C :    0.233364
   3 N :   -0.296906
   4 C :   -0.102181
   5 C :   -0.090418
   6 N :   -0.281006
   7 H :    0.131583
   8 H :    0.110820
   9 H :    0.145021
  10 H :    0.119137
  11 H :    0.144171
  12 H :    0.131986
  13 H :    0.147434
  14 H :    0.245455
Sum of atomic charges:   -0.0000000

LOEWDIN ATOMIC CHARGES
----------------------
   0 C :   -0.309715
   1 C :   -0.262298
   2 C :   -0.325152
   3 N :    0.104912
   4 C :   -0.268056
   5 C :   -0.249114
   6 N :    0.191968
   7 H :    0.120911
   8 H :    0.116433
   9 H :    0.127326
  10 H :    0.140718
  11 H :    0.154563
  12 H :    0.131495
  13 H :    0.132916
  14 H :    0.193092

  Mayer bond orders larger than 0.1
B(  0-C ,  1-C ) :   0.9118 B(  0-C ,  7-H ) :   0.9360 B(  0-C ,  8-H ) :   0.9357
B(  0-C ,  9-H ) :   0.9378 B(  1-C ,  2-C ) :   0.8865 B(  1-C , 10-H ) :   0.9426
B(  1-C , 11-H ) :   0.9469 B(  2-C ,  3-N ) :   1.5784 B(  2-C ,  6-N ) :   1.1328
B(  3-N ,  4-C ) :   1.2666 B(  4-C ,  5-C ) :   1.5273 B(  4-C , 12-H ) :   0.9414
B(  5-C ,  6-N ) :   1.1133 B(  5-C , 13-H ) :   0.9111 B(  6-N , 14-H ) :   0.8671

MP2 TOTAL ENERGY:     -304.209096746 Eh
FINAL SINGLE POINT ENERGY      -304.209096745997

DIPOLE MOMENT
-------------
                                X             Y             Z
Electronic contribution:     -4.52555      -3.90285       1.08944
Nuclear contribution   :      4.94152       3.65217      -2.42601
                        -----------------------------------------
Total Dipole Moment    :      0.41597      -0.25067      -1.33657
                        -----------------------------------------
Magnitude (a.u.)       :      1.42207
Magnitude (Debye)      :      3.61462

                             ****ORCA TERMINATED NORMALLY****
TOTAL RUN TIME: 0 days 0 hours 8 minutes 5 seconds 549 msec
