                         Program Version 3.0.3 - RELEASE   -
|  1> ! RI-MP2 RIJK def2-TZVP def2-TZVP/C def2-TZVP/JK TIGHTSCF
|  2> % maxcore 2000
|  3> % mp2 density relaxed end
|  4> *xyz 0 1
|  5>  N       -0.1112601024     1.4676636379     0.0415611745
|  6>  C       -0.0383210748     0.0345829787     0.0058835214
|  7>  C        1.0144575233    -0.5980393839    -0.7448980799
|  8>  C        1.9027881578    -1.1111304870    -1.3754355921
|  9>  C       -0.4627139668    -0.7243438220     1.2618440040
| 10>  O       -1.1844442478     0.0265819024     2.2142313191
| 11>  C       -2.3336459104     0.3889559000     1.5832348338
| 12>  N       -2.5477237055    -0.0411191368     0.4054669687
| 13>  C       -1.3629128733    -0.7705683962     0.0451724794
| 14>  H        0.7528703357     1.8547227312     0.4067261469
| 15>  H       -0.2470885896     1.8393326796    -0.8930128192
| 16>  H        2.6865321485    -1.5580079025    -1.9355469286
| 17>  H        0.1470410932    -1.5084046484     1.6898226043
| 18>  H       -2.9943422064     1.0150843790     2.1683721324
| 19>  H       -1.4690415115    -1.6064377320    -0.6335260646
| 20> *
| 21>
| 22>                          ****END OF INPUT****

CARTESIAN COORDINATES (ANGSTROEM)
---------------------------------
  N     -0.111260    1.467664    0.041561
  C     -0.038321    0.034583    0.005884
  C      1.014458   -0.598039   -0.744898
  C      1.902788   -1.111130   -1.375436
  C     -0.462714   -0.724344    1.261844
  O     -1.184444    0.026582    2.214231
  C     -2.333646    0.388956    1.583235
  N     -2.547724   -0.041119    0.405467
  C     -1.362913   -0.770568    0.045172
  H      0.752870    1.854723    0.406726
  H     -0.247089    1.839333   -0.893013
  H      2.686532   -1.558008   -1.935547
  H      0.147041   -1.508405    1.689823
  H     -2.994342    1.015084    2.168372
  H     -1.469042   -1.606438   -0.633526

 Total Charge           Charge          ....    0
 Multiplicity           Mult            ....    1
 Number of Electrons    NEL             ....   64
 Basis Dimension        Dim             ....  315

ORBITAL ENERGIES
----------------

  NO   OCC          E(Eh)            E(eV)
   0   2.0000     -20.611776      -560.8749
   1   2.0000     -15.559506      -423.3957
   2   2.0000     -15.555442      -423.2851
   3   2.0000     -11.338750      -308.5431
   4   2.0000     -11.308427      -307.7179
   5   2.0000     -11.300887      -307.5128
   6   2.0000     -11.280491      -306.9578
   7   2.0000     -11.244852      -305.9880
   8   2.0000     -11.235243      -305.7265
   9   2.0000      -1.460833       -39.7513
  10   2.0000      -1.244969       -33.8773
  11   2.0000      -1.205768       -32.8106
  12   2.0000      -1.104658       -30.0593
  13   2.0000      -1.032186       -28.0872
  14   2.0000      -0.895322       -24.3629
  15   2.0000      -0.849498       -23.1160
  16   2.0000      -0.800494       -21.7825
  17   2.0000      -0.759828       -20.6760
  18   2.0000      -0.719265       -19.5722
  19   2.0000      -0.687956       -18.7202
  20   2.0000      -0.675283       -18.3754
  21   2.0000      -0.637087       -17.3360
  22   2.0000      -0.623865       -16.9762
  23   2.0000      -0.593843       -16.1593
  24   2.0000      -0.576310       -15.6822
  25   2.0000      -0.509722       -13.8702
  26   2.0000      -0.489297       -13.3145
  27   2.0000      -0.447906       -12.1881
  28   2.0000      -0.426437       -11.6039
  29   2.0000      -0.408393       -11.1130
  30   2.0000      -0.393312       -10.7026
  31   2.0000      -0.348606        -9.4860
  32   0.0000       0.131803         3.5865
  33   0.0000       0.151424         4.1205
  34   0.0000       0.156441         4.2570
  35   0.0000       0.170439         4.6379
  36   0.0000       0.172552         4.6954

MULLIKEN ATOMIC CHARGES
-----------------------
   0 N :   -0.553456
   1 C :    0.010478
   2 C :   -0.091391
   3 C :   -0.096421
   4 C :    0.028980
   5 O :   -0.252088
   6 C :    0.134784
   7 N :   -0.268769
   8 C :   -0.045643
   9 H :    0.242966
  10 H :    0.244040
  11 H :    0.195126
  12 H :    0.154231
  13 H :    0.149464
  14 H :    0.147699
Sum of atomic charges:   -0.0000000

LOEWDIN ATOMIC CHARGES
----------------------
   0 N :   -0.078299
   1 C :   -0.304379
   2 C :   -0.081124
   3 C :   -0.087758
   4 C :   -0.203134
   5 O :    0.272419
   6 C :   -0.317092
   7 N :    0.101625
   8 C :   -0.194447
   9 H :    0.167063
  10 H :    0.168251
  11 H :    0.128442
  12 H :    0.145144
  13 H :    0.134978
  14 H :    0.148311

  Mayer bond orders larger than 0.1
B(  0-N ,  1-C ) :   0.9174 B(  0-N ,  9-H ) :   0.8840 B(  0-N , 10-H ) :   0.8848
B(  1-C ,  2-C ) :   1.2532 B(  1-C ,  3-C ) :  -0.1245 B(  1-C ,  4-C ) :   0.8132
B(  1-C ,  8-C ) :   0.7968 B(  2-C ,  3-C ) :   2.5712 B(  3-C , 11-H ) :   0.8818
B(  4-C ,  5-O ) :   0.9283 B(  4-C ,  8-C ) :   0.8956 B(  4-C , 12-H ) :   0.9242
B(  5-O ,  6-C ) :   1.0615 B(  6-C ,  7-N ) :   1.7872 B(  6-C , 13-H ) :   0.9216
B(  7-N ,  8-C ) :   0.9939 B(  8-C , 14-H ) :   0.9309

MP2 TOTAL ENERGY:     -416.041156570 Eh
FINAL SINGLE POINT ENERGY      -416.041156569711

DIPOLE MOMENT
-------------
                                X             Y             Z
Electronic contribution:     -1.51568      -0.68163       1.55284
Nuclear contribution   :      2.27980       0.64209      -1.61076
                        -----------------------------------------
Total Dipole Moment    :      0.76411      -0.03954      -0.05792
                        -----------------------------------------
Magnitude (a.u.)       :      0.76733
Magnitude (Debye)      :      1.95039

                             ****ORCA TERMINATED NORMALLY****
TOTAL RUN TIME: 0 days 0 hours 16 minutes 46 seconds 353 msec
