                         Program Version 3.0.3 - RELEASE   -
|  1> ! RI-MP2 RIJK def2-TZVP def2-TZVP/C def2-TZVP/JK TIGHTSCF
|  2> % maxcore 2000
|  3> % mp2 density relaxed end
|  4> *xyz 0 1
|  5>  O        0.0719737431     0.0996837548     0.5193367842
|  6>  C       -0.0170561173     1.2292228260     0.1193302278
|  7>  C       -1.1576795387     2.2425189888    -0.1618215547
|  8>  C       -0.0173580918     3.2733411490    -0.3936065068
|  9>  C        0.2491890305     4.3137005892     0.6931429865
| 10>  O        1.6403686548     4.6050298145     0.7497540649
| 11>  C        2.4087914133     3.4795837780     1.1528979095
| 12>  C        2.3247014121     2.3430342679     0.1205360222
| 13>  N        0.9362861720     2.1622392694    -0.2416459296
| 14>  H       -1.7678316724     2.0143610376    -1.0370430186
| 15>  H       -1.8049977725     2.4315096856     0.6971393061
| 16>  H        0.0170887089     3.7307998562    -1.3882297081
| 17>  H       -0.2608355317     5.2593634096     0.4901084075
| 18>  H       -0.0940785215     3.9307004389     1.6692372407
| 19>  H        3.4383330093     3.8306463577     1.2624849927
| 20>  H        2.0542192525     3.1153723283     2.1306835715
| 21>  H        2.9126353012     2.6001733444    -0.7692936051
| 22>  H        2.7063540582     1.4035294043     0.5297248794
| 23> *
| 24>
| 25>                          ****END OF INPUT****

CARTESIAN COORDINATES (ANGSTROEM)
---------------------------------
  O      0.071974    0.099684    0.519337
  C     -0.017056    1.229223    0.119330
  C     -1.157680    2.242519   -0.161822
  C     -0.017358    3.273341   -0.393607
  C      0.249189    4.313701    0.693143
  O      1.640369    4.605030    0.749754
  C      2.408791    3.479584    1.152898
  C      2.324701    2.343034    0.120536
  N      0.936286    2.162239   -0.241646
  H     -1.767832    2.014361   -1.037043
  H     -1.804998    2.431510    0.697139
  H      0.017089    3.730800   -1.388230
  H     -0.260836    5.259363    0.490108
  H     -0.094079    3.930700    1.669237
  H      3.438333    3.830646    1.262485
  H      2.054219    3.115372    2.130684
  H      2.912635    2.600173   -0.769294
  H      2.706354    1.403529    0.529725

 Total Charge           Charge          ....    0
 Multiplicity           Mult            ....    1
 Number of Electrons    NEL             ....   68
 Basis Dimension        Dim             ....  333

ORBITAL ENERGIES
----------------

  NO   OCC          E(Eh)            E(eV)
   0   2.0000     -20.571028      -559.7661
   1   2.0000     -20.528949      -558.6211
   2   2.0000     -15.585561      -424.1047
   3   2.0000     -11.353891      -308.9551
   4   2.0000     -11.292058      -307.2725
   5   2.0000     -11.289480      -307.2024
   6   2.0000     -11.283360      -307.0358
   7   2.0000     -11.273618      -306.7707
   8   2.0000     -11.254026      -306.2376
   9   2.0000      -1.397873       -38.0381
  10   2.0000      -1.386353       -37.7246
  11   2.0000      -1.280617       -34.8474
  12   2.0000      -1.086627       -29.5686
  13   2.0000      -0.986310       -26.8389
  14   2.0000      -0.965556       -26.2741
  15   2.0000      -0.868140       -23.6233
  16   2.0000      -0.833727       -22.6869
  17   2.0000      -0.733802       -19.9678
  18   2.0000      -0.696978       -18.9657
  19   2.0000      -0.674072       -18.3424
  20   2.0000      -0.669191       -18.2096
  21   2.0000      -0.659695       -17.9512
  22   2.0000      -0.644007       -17.5243
  23   2.0000      -0.618060       -16.8183
  24   2.0000      -0.583950       -15.8901
  25   2.0000      -0.561358       -15.2753
  26   2.0000      -0.554581       -15.0909
  27   2.0000      -0.527285       -14.3482
  28   2.0000      -0.516906       -14.0657
  29   2.0000      -0.502572       -13.6757
  30   2.0000      -0.477816       -13.0020
  31   2.0000      -0.456835       -12.4311
  32   2.0000      -0.420675       -11.4472
  33   2.0000      -0.372420       -10.1341
  34   0.0000       0.137472         3.7408
  35   0.0000       0.149747         4.0748
  36   0.0000       0.153170         4.1680
  37   0.0000       0.170429         4.6376
  38   0.0000       0.172647         4.6980

MULLIKEN ATOMIC CHARGES
-----------------------
   0 O :   -0.318263
   1 C :    0.171958
   2 C :   -0.253272
   3 C :   -0.008611
   4 C :   -0.087115
   5 O :   -0.306569
   6 C :   -0.077300
   7 C :   -0.159124
   8 N :   -0.096989
   9 H :    0.141198
  10 H :    0.133924
  11 H :    0.110543
  12 H :    0.126946
  13 H :    0.105534
  14 H :    0.130433
  15 H :    0.108873
  16 H :    0.127102
  17 H :    0.150731
Sum of atomic charges:    0.0000000

LOEWDIN ATOMIC CHARGES
----------------------
   0 O :    0.103165
   1 C :   -0.422068
   2 C :   -0.181616
   3 C :   -0.229842
   4 C :   -0.294903
   5 O :    0.153068
   6 C :   -0.310561
   7 C :   -0.265224
   8 N :    0.223530
   9 H :    0.141928
  10 H :    0.142146
  11 H :    0.140250
  12 H :    0.133219
  13 H :    0.125741
  14 H :    0.132499
  15 H :    0.123417
  16 H :    0.136506
  17 H :    0.148744

  Mayer bond orders larger than 0.1
B(  0-O ,  1-C ) :   2.0055 B(  1-C ,  2-C ) :   0.9071 B(  1-C ,  8-N ) :   1.1056
B(  2-C ,  3-C ) :   0.9010 B(  2-C ,  9-H ) :   0.9064 B(  2-C , 10-H ) :   0.9029
B(  3-C ,  4-C ) :   0.9304 B(  3-C ,  8-N ) :   0.9158 B(  3-C , 11-H ) :   0.9123
B(  4-C ,  5-O ) :   0.9088 B(  4-C , 12-H ) :   0.9302 B(  4-C , 13-H ) :   0.9223
B(  5-O ,  6-C ) :   0.9211 B(  6-C ,  7-C ) :   0.9389 B(  6-C , 14-H ) :   0.9264
B(  6-C , 15-H ) :   0.9330 B(  7-C ,  8-N ) :   0.8791 B(  7-C , 16-H ) :   0.9250
B(  7-C , 17-H ) :   0.9153

MP2 TOTAL ENERGY:     -438.386420932 Eh
FINAL SINGLE POINT ENERGY      -438.386420932053

DIPOLE MOMENT
-------------
                                X             Y             Z
Electronic contribution:     -0.53296      -3.18407      -0.92323
Nuclear contribution   :      0.56453       4.18325       0.78550
                        -----------------------------------------
Total Dipole Moment    :      0.03156       0.99918      -0.13773
                        -----------------------------------------
Magnitude (a.u.)       :      1.00912
Magnitude (Debye)      :      2.56498

                             ****ORCA TERMINATED NORMALLY****
TOTAL RUN TIME: 0 days 0 hours 18 minutes 54 seconds 32 msec
