                         Program Version 3.0.3 - RELEASE   -
|  1> ! RI-MP2 RIJK def2-TZVP def2-TZVP/C def2-TZVP/JK TIGHTSCF
|  2> % maxcore 2000
|  3> % mp2 density relaxed end
|  4> *xyz 0 1
|  5>  C       -0.1547160921     1.5561694283     0.0212576422
|  6>  C        1.3772450754     1.5408683257    -0.2470715848
|  7>  N        1.3942533003     0.1347778609     0.1844033290
|  8>  C       -0.0672640860     0.0267506936     0.2933517630
|  9>  C        2.2486742727    -0.8371929302    -0.1705891367
| 10>  N        2.0469410861    -2.1340326632    -0.1335665189
| 11>  C        3.2582531194    -2.5945528620    -0.5712955818
| 12>  N        4.1565008858    -1.6972935250    -0.8685222163
| 13>  O        3.4683814989    -0.4793518944    -0.5964623449
| 14>  H       -0.4445687252     2.1448039366     0.8919460557
| 15>  H       -0.7730933838     1.8440003004    -0.8283324472
| 16>  H        1.6634042768     1.6735003243    -1.2964095244
| 17>  H        1.9904256561     2.2009120188     0.3728072436
| 18>  H       -0.4115115045    -0.3185878496     1.2718550689
| 19>  H       -0.5069282196    -0.6094591551    -0.4821287826
| 20>  H        3.4829130097    -3.6471383689    -0.6760261947
| 21> *
| 22>
| 23>                          ****END OF INPUT****

CARTESIAN COORDINATES (ANGSTROEM)
---------------------------------
  C     -0.154716    1.556169    0.021258
  C      1.377245    1.540868   -0.247072
  N      1.394253    0.134778    0.184403
  C     -0.067264    0.026751    0.293352
  C      2.248674   -0.837193   -0.170589
  N      2.046941   -2.134033   -0.133567
  C      3.258253   -2.594553   -0.571296
  N      4.156501   -1.697294   -0.868522
  O      3.468381   -0.479352   -0.596462
  H     -0.444569    2.144804    0.891946
  H     -0.773093    1.844000   -0.828332
  H      1.663404    1.673500   -1.296410
  H      1.990426    2.200912    0.372807
  H     -0.411512   -0.318588    1.271855
  H     -0.506928   -0.609459   -0.482129
  H      3.482913   -3.647138   -0.676026

 Total Charge           Charge          ....    0
 Multiplicity           Mult            ....    1
 Number of Electrons    NEL             ....   66
 Basis Dimension        Dim             ....  321

ORBITAL ENERGIES
----------------

  NO   OCC          E(Eh)            E(eV)
   0   2.0000     -20.640259      -561.6500
   1   2.0000     -15.609855      -424.7658
   2   2.0000     -15.598872      -424.4669
   3   2.0000     -15.552010      -423.1917
   4   2.0000     -11.383534      -309.7617
   5   2.0000     -11.305123      -307.6280
   6   2.0000     -11.286832      -307.1303
   7   2.0000     -11.284279      -307.0608
   8   2.0000     -11.252684      -306.2011
   9   2.0000      -1.504093       -40.9284
  10   2.0000      -1.304714       -35.5031
  11   2.0000      -1.240459       -33.7546
  12   2.0000      -1.148069       -31.2405
  13   2.0000      -1.035145       -28.1677
  14   2.0000      -0.955981       -26.0136
  15   2.0000      -0.855975       -23.2923
  16   2.0000      -0.844067       -22.9682
  17   2.0000      -0.779926       -21.2229
  18   2.0000      -0.744745       -20.2655
  19   2.0000      -0.706866       -19.2348
  20   2.0000      -0.662806       -18.0359
  21   2.0000      -0.653201       -17.7745
  22   2.0000      -0.600112       -16.3299
  23   2.0000      -0.582854       -15.8603
  24   2.0000      -0.572968       -15.5913
  25   2.0000      -0.551626       -15.0105
  26   2.0000      -0.530120       -14.4253
  27   2.0000      -0.509364       -13.8605
  28   2.0000      -0.492447       -13.4002
  29   2.0000      -0.470028       -12.7901
  30   2.0000      -0.456857       -12.4317
  31   2.0000      -0.450482       -12.2583
  32   2.0000      -0.347679        -9.4608
  33   0.0000       0.125682         3.4200
  34   0.0000       0.144749         3.9388
  35   0.0000       0.157291         4.2801
  36   0.0000       0.161799         4.4028
  37   0.0000       0.175979         4.7886

MULLIKEN ATOMIC CHARGES
-----------------------
   0 C :   -0.226623
   1 C :   -0.143247
   2 N :   -0.094583
   3 C :   -0.129421
   4 C :    0.292608
   5 N :   -0.355546
   6 C :    0.024583
   7 N :   -0.153593
   8 O :   -0.133472
   9 H :    0.132313
  10 H :    0.131456
  11 H :    0.126015
  12 H :    0.128714
  13 H :    0.127432
  14 H :    0.125316
  15 H :    0.148048
Sum of atomic charges:   -0.0000000

LOEWDIN ATOMIC CHARGES
----------------------
   0 C :   -0.228041
   1 C :   -0.215120
   2 N :    0.190800
   3 C :   -0.208584
   4 C :   -0.451319
   5 N :    0.071732
   6 C :   -0.353801
   7 N :    0.014459
   8 O :    0.261121
   9 H :    0.133889
  10 H :    0.131621
  11 H :    0.129219
  12 H :    0.127939
  13 H :    0.128582
  14 H :    0.130391
  15 H :    0.137110

  Mayer bond orders larger than 0.1
B(  0-C ,  1-C ) :   0.9435 B(  0-C ,  3-C ) :   0.9408 B(  0-C ,  9-H ) :   0.9232
B(  0-C , 10-H ) :   0.9283 B(  1-C ,  2-N ) :   0.8837 B(  1-C , 11-H ) :   0.9137
B(  1-C , 12-H ) :   0.9242 B(  2-N ,  3-C ) :   0.8805 B(  2-N ,  4-C ) :   1.1860
B(  3-C , 13-H ) :   0.9261 B(  3-C , 14-H ) :   0.9141 B(  4-C ,  5-N ) :   1.5315
B(  4-C ,  8-O ) :   1.1676 B(  5-N ,  6-C ) :   1.2275 B(  6-C ,  7-N ) :   1.6191
B(  6-C , 15-H ) :   0.9284 B(  7-N ,  8-O ) :   0.8328

MP2 TOTAL ENERGY:     -433.319282120 Eh
FINAL SINGLE POINT ENERGY      -433.319282120108

DIPOLE MOMENT
-------------
                                X             Y             Z
Electronic contribution:      7.00417      -5.30281      -0.75736
Nuclear contribution   :     -8.23897       6.21239       0.86050
                        -----------------------------------------
Total Dipole Moment    :     -1.23480       0.90959       0.10314
                        -----------------------------------------
Magnitude (a.u.)       :      1.53711
Magnitude (Debye)      :      3.90703

                             ****ORCA TERMINATED NORMALLY****
TOTAL RUN TIME: 0 days 0 hours 14 minutes 43 seconds 168 msec
