                         Program Version 3.0.3 - RELEASE   -
|  1> ! RI-MP2 RIJK def2-TZVP def2-TZVP/C def2-TZVP/JK TIGHTSCF
|  2> % maxcore 2000
|  3> % mp2 density relaxed end
|  4> *xyz 0 1
|  5>  C        0.0992017211     1.5218376289     0.2730139298
|  6>  C       -0.1212272948     0.0465937344    -0.0831732861
|  7>  C        0.6862340512    -0.4513281262    -1.2790836829
|  8>  C        2.2488909739    -0.4192200837    -1.1977278514
|  9>  C        2.2290903036    -1.7138413166    -2.0619068128
| 10>  C        0.8261977493    -1.9923980618    -1.4622629920
| 11>  C        2.0858087605    -1.3794458713    -3.5557883300
| 12>  C        1.2702462993    -0.0794931313    -3.7440437316
| 13>  C        0.2175127475     0.1345311745    -2.6309930403
| 14>  H        1.1563998412     1.7242040385     0.4762515972
| 15>  H       -0.2169666405     2.1918591204    -0.5325519171
| 16>  H       -0.4688031953     1.7956303611     1.1676100940
| 17>  H        0.1382842993    -0.5691860811     0.7881707367
| 18>  H       -1.1895427173    -0.1306581840    -0.2716062108
| 19>  H        2.7835236436     0.4574903114    -1.5743133562
| 20>  H        2.5882333411    -0.6280923299    -0.1785506142
| 21>  H        3.0115588322    -2.4565673987    -1.8873824597
| 22>  H        0.8868213225    -2.5061142039    -0.4974317568
| 23>  H        0.0912308542    -2.5008944077    -2.0960408080
| 24>  H        3.0704617254    -1.2625502361    -4.0234670369
| 25>  H        1.6004174655    -2.2241821123    -4.0607328437
| 26>  H        1.9643883469     0.7673480687    -3.7256078266
| 27>  H        0.7981977821    -0.0537342110    -4.7313182728
| 28>  H       -0.7349040813    -0.3423116751    -2.8973501142
| 29>  H        0.0095197988     1.2065776128    -2.5408904337
| 30> *
| 31>
| 32>                          ****END OF INPUT****

CARTESIAN COORDINATES (ANGSTROEM)
---------------------------------
  C      0.099202    1.521838    0.273014
  C     -0.121227    0.046594   -0.083173
  C      0.686234   -0.451328   -1.279084
  C      2.248891   -0.419220   -1.197728
  C      2.229090   -1.713841   -2.061907
  C      0.826198   -1.992398   -1.462263
  C      2.085809   -1.379446   -3.555788
  C      1.270246   -0.079493   -3.744044
  C      0.217513    0.134531   -2.630993
  H      1.156400    1.724204    0.476252
  H     -0.216967    2.191859   -0.532552
  H     -0.468803    1.795630    1.167610
  H      0.138284   -0.569186    0.788171
  H     -1.189543   -0.130658   -0.271606
  H      2.783524    0.457490   -1.574313
  H      2.588233   -0.628092   -0.178551
  H      3.011559   -2.456567   -1.887382
  H      0.886821   -2.506114   -0.497432
  H      0.091231   -2.500894   -2.096041
  H      3.070462   -1.262550   -4.023467
  H      1.600417   -2.224182   -4.060733
  H      1.964388    0.767348   -3.725608
  H      0.798198   -0.053734   -4.731318
  H     -0.734904   -0.342312   -2.897350
  H      0.009520    1.206578   -2.540890

 Total Charge           Charge          ....    0
 Multiplicity           Mult            ....    1
 Number of Electrons    NEL             ....   70
 Basis Dimension        Dim             ....  375

ORBITAL ENERGIES
----------------

  NO   OCC          E(Eh)            E(eV)
   0   2.0000     -11.225847      -305.4708
   1   2.0000     -11.220062      -305.3134
   2   2.0000     -11.213737      -305.1413
   3   2.0000     -11.212793      -305.1156
   4   2.0000     -11.212786      -305.1154
   5   2.0000     -11.212359      -305.1038
   6   2.0000     -11.211453      -305.0791
   7   2.0000     -11.208731      -305.0051
   8   2.0000     -11.208557      -305.0004
   9   2.0000      -1.160000       -31.5652
  10   2.0000      -1.039258       -28.2797
  11   2.0000      -1.015291       -27.6275
  12   2.0000      -0.963793       -26.2261
  13   2.0000      -0.892872       -24.2963
  14   2.0000      -0.854596       -23.2547
  15   2.0000      -0.817061       -22.2334
  16   2.0000      -0.766391       -20.8546
  17   2.0000      -0.699086       -19.0231
  18   2.0000      -0.647982       -17.6325
  19   2.0000      -0.634190       -17.2572
  20   2.0000      -0.602194       -16.3865
  21   2.0000      -0.597203       -16.2507
  22   2.0000      -0.578598       -15.7445
  23   2.0000      -0.545175       -14.8350
  24   2.0000      -0.531603       -14.4656
  25   2.0000      -0.521689       -14.1959
  26   2.0000      -0.519982       -14.1494
  27   2.0000      -0.498220       -13.5572
  28   2.0000      -0.486779       -13.2459
  29   2.0000      -0.468599       -12.7512
  30   2.0000      -0.467519       -12.7218
  31   2.0000      -0.433586       -11.7985
  32   2.0000      -0.418060       -11.3760
  33   2.0000      -0.409731       -11.1493
  34   2.0000      -0.395270       -10.7559
  35   0.0000       0.131439         3.5766
  36   0.0000       0.154320         4.1993
  37   0.0000       0.161394         4.3917
  38   0.0000       0.167234         4.5507
  39   0.0000       0.185193         5.0394

MULLIKEN ATOMIC CHARGES
-----------------------
   0 C :   -0.408696
   1 C :   -0.203043
   2 C :    0.242223
   3 C :   -0.363343
   4 C :    0.069315
   5 C :   -0.333614
   6 C :   -0.288764
   7 C :   -0.225830
   8 C :   -0.332345
   9 H :    0.129076
  10 H :    0.121788
  11 H :    0.134541
  12 H :    0.104481
  13 H :    0.106364
  14 H :    0.118545
  15 H :    0.113958
  16 H :    0.107234
  17 H :    0.109702
  18 H :    0.109175
  19 H :    0.113996
  20 H :    0.109413
  21 H :    0.117435
  22 H :    0.124736
  23 H :    0.111607
  24 H :    0.112046
Sum of atomic charges:   -0.0000000

LOEWDIN ATOMIC CHARGES
----------------------
   0 C :   -0.315456
   1 C :   -0.258092
   2 C :   -0.252049
   3 C :   -0.179881
   4 C :   -0.220231
   5 C :   -0.179960
   6 C :   -0.241902
   7 C :   -0.255112
   8 C :   -0.214690
   9 H :    0.121942
  10 H :    0.117708
  11 H :    0.120834
  12 H :    0.138631
  13 H :    0.139986
  14 H :    0.126726
  15 H :    0.138786
  16 H :    0.133395
  17 H :    0.135822
  18 H :    0.125654
  19 H :    0.135646
  20 H :    0.136278
  21 H :    0.136373
  22 H :    0.133860
  23 H :    0.138489
  24 H :    0.137241

  Mayer bond orders larger than 0.1
B(  0-C ,  1-C ) :   0.9237 B(  0-C ,  9-H ) :   0.9397 B(  0-C , 10-H ) :   0.9387
B(  0-C , 11-H ) :   0.9410 B(  1-C ,  2-C ) :   0.8796 B(  1-C , 12-H ) :   0.9289
B(  1-C , 13-H ) :   0.9309 B(  2-C ,  3-C ) :   0.8997 B(  2-C ,  5-C ) :   0.8897
B(  2-C ,  8-C ) :   0.8791 B(  3-C ,  4-C ) :   0.9110 B(  3-C , 14-H ) :   0.9222
B(  3-C , 15-H ) :   0.9172 B(  4-C ,  5-C ) :   0.8935 B(  4-C ,  6-C ) :   0.8898
B(  4-C , 16-H ) :   0.9290 B(  5-C , 17-H ) :   0.9111 B(  5-C , 18-H ) :   0.9284
B(  6-C ,  7-C ) :   0.9525 B(  6-C , 19-H ) :   0.9293 B(  6-C , 20-H ) :   0.9332
B(  7-C ,  8-C ) :   0.9424 B(  7-C , 21-H ) :   0.9344 B(  7-C , 22-H ) :   0.9333
B(  8-C , 23-H ) :   0.9320 B(  8-C , 24-H ) :   0.9265

MP2 TOTAL ENERGY:     -351.724885245 Eh
FINAL SINGLE POINT ENERGY      -351.724885245335

DIPOLE MOMENT
-------------
                                X             Y             Z
Electronic contribution:      1.20430      -2.56942      -1.15818
Nuclear contribution   :     -1.20387       2.58914       1.14334
                        -----------------------------------------
Total Dipole Moment    :      0.00042       0.01973      -0.01484
                        -----------------------------------------
Magnitude (a.u.)       :      0.02469
Magnitude (Debye)      :      0.06277

                             ****ORCA TERMINATED NORMALLY****
TOTAL RUN TIME: 0 days 0 hours 21 minutes 44 seconds 751 msec
