                         Program Version 3.0.3 - RELEASE   -
|  1> ! RI-MP2 RIJK def2-TZVP def2-TZVP/C def2-TZVP/JK TIGHTSCF
|  2> % maxcore 2000
|  3> % mp2 density relaxed end
|  4> *xyz 0 1
|  5>  C       -0.2043334984     1.5642645335     0.0099986704
|  6>  C        0.0396351294     0.0562835715    -0.0035155495
|  7>  C        0.7861982647    -0.4978149423    -1.2578442428
|  8>  C        1.9023127521    -1.3350387012    -0.5892938911
|  9>  C        2.5551256041    -2.4375898422    -1.3793918659
| 10>  O        2.8962592209    -0.4136166370    -0.1046525311
| 11>  C        2.3367277828     0.1346843298     1.0963001007
| 12>  C        0.9443685862    -0.5181795250     1.1179030193
| 13>  O        1.2748655614    -1.8136443192     0.5942439704
| 14>  H        0.7166505297     2.1300890038    -0.1629394911
| 15>  H       -0.9112262201     1.8457783385    -0.7769375291
| 16>  H       -0.6286496386     1.8936426495     0.9652778450
| 17>  H       -0.9249155193    -0.4530509713     0.0884981940
| 18>  H        0.1386365565    -1.1184274812    -1.8828260865
| 19>  H        1.2172829708     0.2911083273    -1.8789116827
| 20>  H        3.0584283747    -2.0201227550    -2.2550673648
| 21>  H        3.2948707314    -2.9487463547    -0.7594973397
| 22>  H        1.8051691860    -3.1583460899    -1.7141014331
| 23>  H        2.9378466023    -0.1697134603     1.9616059187
| 24>  H        2.3159092525     1.2276532778     1.0450552981
| 25>  H        0.4822727310    -0.6092712223     2.1007444210
| 26> *
| 27>
| 28>                          ****END OF INPUT****

CARTESIAN COORDINATES (ANGSTROEM)
---------------------------------
  C     -0.204333    1.564265    0.009999
  C      0.039635    0.056284   -0.003516
  C      0.786198   -0.497815   -1.257844
  C      1.902313   -1.335039   -0.589294
  C      2.555126   -2.437590   -1.379392
  O      2.896259   -0.413617   -0.104653
  C      2.336728    0.134684    1.096300
  C      0.944369   -0.518180    1.117903
  O      1.274866   -1.813644    0.594244
  H      0.716651    2.130089   -0.162939
  H     -0.911226    1.845778   -0.776938
  H     -0.628650    1.893643    0.965278
  H     -0.924916   -0.453051    0.088498
  H      0.138637   -1.118427   -1.882826
  H      1.217283    0.291108   -1.878912
  H      3.058428   -2.020123   -2.255067
  H      3.294871   -2.948746   -0.759497
  H      1.805169   -3.158346   -1.714101
  H      2.937847   -0.169713    1.961606
  H      2.315909    1.227653    1.045055
  H      0.482273   -0.609271    2.100744

 Total Charge           Charge          ....    0
 Multiplicity           Mult            ....    1
 Number of Electrons    NEL             ....   70
 Basis Dimension        Dim             ....  351

ORBITAL ENERGIES
----------------

  NO   OCC          E(Eh)            E(eV)
   0   2.0000     -20.557596      -559.4006
   1   2.0000     -20.550509      -559.2078
   2   2.0000     -11.331117      -308.3354
   3   2.0000     -11.283016      -307.0265
   4   2.0000     -11.273532      -306.7684
   5   2.0000     -11.235555      -305.7350
   6   2.0000     -11.222665      -305.3842
   7   2.0000     -11.221663      -305.3570
   8   2.0000     -11.215475      -305.1886
   9   2.0000      -1.438936       -39.1554
  10   2.0000      -1.321070       -35.9482
  11   2.0000      -1.081144       -29.4194
  12   2.0000      -1.053377       -28.6639
  13   2.0000      -0.947343       -25.7785
  14   2.0000      -0.944643       -25.7050
  15   2.0000      -0.858329       -23.3563
  16   2.0000      -0.792961       -21.5776
  17   2.0000      -0.766629       -20.8610
  18   2.0000      -0.695002       -18.9120
  19   2.0000      -0.682311       -18.5666
  20   2.0000      -0.645533       -17.5659
  21   2.0000      -0.614622       -16.7247
  22   2.0000      -0.590638       -16.0721
  23   2.0000      -0.571905       -15.5623
  24   2.0000      -0.567320       -15.4376
  25   2.0000      -0.550710       -14.9856
  26   2.0000      -0.534171       -14.5355
  27   2.0000      -0.520574       -14.1655
  28   2.0000      -0.520267       -14.1572
  29   2.0000      -0.506163       -13.7734
  30   2.0000      -0.488914       -13.3040
  31   2.0000      -0.475422       -12.9369
  32   2.0000      -0.461068       -12.5463
  33   2.0000      -0.430038       -11.7019
  34   2.0000      -0.408921       -11.1273
  35   0.0000       0.133986         3.6460
  36   0.0000       0.152928         4.1614
  37   0.0000       0.165516         4.5039
  38   0.0000       0.176171         4.7939
  39   0.0000       0.193394         5.2625

MULLIKEN ATOMIC CHARGES
-----------------------
   0 C :   -0.449583
   1 C :   -0.045648
   2 C :   -0.231778
   3 C :    0.301260
   4 C :   -0.420500
   5 O :   -0.322451
   6 C :   -0.073875
   7 C :    0.049159
   8 O :   -0.302893
   9 H :    0.133934
  10 H :    0.140376
  11 H :    0.133309
  12 H :    0.097387
  13 H :    0.116718
  14 H :    0.116271
  15 H :    0.139193
  16 H :    0.142387
  17 H :    0.135624
  18 H :    0.102600
  19 H :    0.103418
  20 H :    0.135092
Sum of atomic charges:    0.0000000

LOEWDIN ATOMIC CHARGES
----------------------
   0 C :   -0.297619
   1 C :   -0.245934
   2 C :   -0.188291
   3 C :   -0.441450
   4 C :   -0.261216
   5 O :    0.171439
   6 C :   -0.273055
   7 C :   -0.278855
   8 O :    0.218215
   9 H :    0.123237
  10 H :    0.126836
  11 H :    0.124554
  12 H :    0.153778
  13 H :    0.136869
  14 H :    0.142083
  15 H :    0.134907
  16 H :    0.134383
  17 H :    0.132633
  18 H :    0.122551
  19 H :    0.122913
  20 H :    0.142023

  Mayer bond orders larger than 0.1
B(  0-C ,  1-C ) :   0.8891 B(  0-C ,  9-H ) :   0.9345 B(  0-C , 10-H ) :   0.9368
B(  0-C , 11-H ) :   0.9405 B(  1-C ,  2-C ) :   0.9685 B(  1-C ,  7-C ) :   0.9552
B(  1-C , 12-H ) :   0.9137 B(  2-C ,  3-C ) :   0.9599 B(  2-C , 13-H ) :   0.9160
B(  2-C , 14-H ) :   0.9030 B(  3-C ,  4-C ) :   0.8443 B(  3-C ,  5-O ) :   0.9335
B(  3-C ,  8-O ) :   0.9895 B(  4-C , 15-H ) :   0.9383 B(  4-C , 16-H ) :   0.9473
B(  4-C , 17-H ) :   0.9458 B(  5-O ,  6-C ) :   0.9433 B(  6-C ,  7-C ) :   0.9534
B(  6-C , 18-H ) :   0.9261 B(  6-C , 19-H ) :   0.9120 B(  7-C ,  8-O ) :   0.9244
B(  7-C , 20-H ) :   0.9029

MP2 TOTAL ENERGY:     -423.551721516 Eh
FINAL SINGLE POINT ENERGY      -423.551721515640

DIPOLE MOMENT
-------------
                                X             Y             Z
Electronic contribution:      2.65155      -3.27108       2.38211
Nuclear contribution   :     -3.18956       3.68975      -2.39542
                        -----------------------------------------
Total Dipole Moment    :     -0.53801       0.41867      -0.01331
                        -----------------------------------------
Magnitude (a.u.)       :      0.68185
Magnitude (Debye)      :      1.73312

                             ****ORCA TERMINATED NORMALLY****
TOTAL RUN TIME: 0 days 0 hours 19 minutes 18 seconds 81 msec
