                         Program Version 3.0.3 - RELEASE   -
|  1> ! RI-MP2 RIJK def2-TZVP def2-TZVP/C def2-TZVP/JK TIGHTSCF
|  2> % maxcore 2000
|  3> % mp2 density relaxed end
|  4> *xyz 0 1
|  5>  C       -0.0517413502     1.4473207760     0.0739450946
|  6>  O        1.4036797785     1.4886267534    -0.0524253639
|  7>  C        1.4038164999     0.1840502341    -0.7369533387
|  8>  C        2.1608603704    -1.0352141186    -0.1905227501
|  9>  C        1.0203427997    -2.1055550595    -0.0713672573
| 10>  C       -0.2208986994    -1.2513144876     0.1969905141
| 11>  C        0.0068365367    -0.0234894907    -0.2518596320
| 12>  H       -0.3998756789     1.7274002288     1.0737241774
| 13>  H       -0.5293276496     2.0917355544    -0.6762241012
| 14>  H        1.5556611561     0.3447218739    -1.8130949471
| 15>  H        2.9999464189    -1.3620152233    -0.8107932083
| 16>  H        2.5394049662    -0.7951966895     0.8080487151
| 17>  H        0.9343547121    -2.7023344436    -0.9895823030
| 18>  H        1.2041335424    -2.8155260332     0.7416026626
| 19>  H       -1.0715485027    -1.6027369746     0.7686338977
| 20> *
| 21>
| 22>                          ****END OF INPUT****

CARTESIAN COORDINATES (ANGSTROEM)
---------------------------------
  C     -0.051741    1.447321    0.073945
  O      1.403680    1.488627   -0.052425
  C      1.403816    0.184050   -0.736953
  C      2.160860   -1.035214   -0.190523
  C      1.020343   -2.105555   -0.071367
  C     -0.220899   -1.251314    0.196991
  C      0.006837   -0.023489   -0.251860
  H     -0.399876    1.727400    1.073724
  H     -0.529328    2.091736   -0.676224
  H      1.555661    0.344722   -1.813095
  H      2.999946   -1.362015   -0.810793
  H      2.539405   -0.795197    0.808049
  H      0.934355   -2.702334   -0.989582
  H      1.204134   -2.815526    0.741603
  H     -1.071549   -1.602737    0.768634

 Total Charge           Charge          ....    0
 Multiplicity           Mult            ....    1
 Number of Electrons    NEL             ....   52
 Basis Dimension        Dim             ....  265

ORBITAL ENERGIES
----------------

  NO   OCC          E(Eh)            E(eV)
   0   2.0000     -20.550996      -559.2210
   1   2.0000     -11.290382      -307.2269
   2   2.0000     -11.276651      -306.8533
   3   2.0000     -11.236056      -305.7486
   4   2.0000     -11.234940      -305.7183
   5   2.0000     -11.231379      -305.6214
   6   2.0000     -11.228367      -305.5394
   7   2.0000      -1.372152       -37.3381
   8   2.0000      -1.126213       -30.6458
   9   2.0000      -0.996027       -27.1033
  10   2.0000      -0.939955       -25.5775
  11   2.0000      -0.902228       -24.5509
  12   2.0000      -0.798440       -21.7267
  13   2.0000      -0.722841       -19.6695
  14   2.0000      -0.673695       -18.3322
  15   2.0000      -0.647224       -17.6119
  16   2.0000      -0.622985       -16.9523
  17   2.0000      -0.602187       -16.3863
  18   2.0000      -0.566367       -15.4116
  19   2.0000      -0.514434       -13.9985
  20   2.0000      -0.506429       -13.7806
  21   2.0000      -0.492778       -13.4092
  22   2.0000      -0.485922       -13.2226
  23   2.0000      -0.451943       -12.2980
  24   2.0000      -0.425433       -11.5766
  25   2.0000      -0.345835        -9.4107
  26   0.0000       0.134516         3.6604
  27   0.0000       0.146338         3.9821
  28   0.0000       0.165169         4.4945
  29   0.0000       0.173317         4.7162
  30   0.0000       0.183896         5.0041

MULLIKEN ATOMIC CHARGES
-----------------------
   0 C :   -0.008792
   1 O :   -0.317341
   2 C :    0.083448
   3 C :   -0.239489
   4 C :   -0.185124
   5 C :   -0.197822
   6 C :   -0.069416
   7 H :    0.113707
   8 H :    0.104155
   9 H :    0.090247
  10 H :    0.124617
  11 H :    0.122558
  12 H :    0.120828
  13 H :    0.122748
  14 H :    0.135674
Sum of atomic charges:    0.0000000

LOEWDIN ATOMIC CHARGES
----------------------
   0 C :   -0.229174
   1 O :    0.119982
   2 C :   -0.223201
   3 C :   -0.218178
   4 C :   -0.228707
   5 C :   -0.131841
   6 C :   -0.160354
   7 H :    0.124583
   8 H :    0.124311
   9 H :    0.137852
  10 H :    0.130282
  11 H :    0.146247
  12 H :    0.136753
  13 H :    0.135377
  14 H :    0.136069

  Mayer bond orders larger than 0.1
B(  0-C ,  1-O ) :   0.9463 B(  0-C ,  6-C ) :   0.9932 B(  0-C ,  7-H ) :   0.9150
B(  0-C ,  8-H ) :   0.8967 B(  1-O ,  2-C ) :   0.9692 B(  2-C ,  3-C ) :   0.8991
B(  2-C ,  6-C ) :   0.9670 B(  2-C ,  9-H ) :   0.9189 B(  3-C ,  4-C ) :   0.9363
B(  3-C , 10-H ) :   0.9305 B(  3-C , 11-H ) :   0.9207 B(  4-C ,  5-C ) :   0.9159
B(  4-C , 12-H ) :   0.9137 B(  4-C , 13-H ) :   0.9288 B(  5-C ,  6-C ) :   1.7237
B(  5-C , 14-H ) :   0.9190

MP2 TOTAL ENERGY:     -307.939285341 Eh
FINAL SINGLE POINT ENERGY      -307.939285341210

DIPOLE MOMENT
-------------
                                X             Y             Z
Electronic contribution:     -0.77934       3.08203      -0.23448
Nuclear contribution   :      0.42071      -3.61958       0.21405
                        -----------------------------------------
Total Dipole Moment    :     -0.35862      -0.53755      -0.02043
                        -----------------------------------------
Magnitude (a.u.)       :      0.64652
Magnitude (Debye)      :      1.64332

                             ****ORCA TERMINATED NORMALLY****
TOTAL RUN TIME: 0 days 0 hours 8 minutes 51 seconds 821 msec
