                         Program Version 3.0.3 - RELEASE   -
|  1> ! RI-MP2 RIJK def2-TZVP def2-TZVP/C def2-TZVP/JK TIGHTSCF
|  2> % maxcore 2000
|  3> % mp2 density relaxed end
|  4> *xyz 0 1
|  5>  C        0.1188267073     1.4354650945     0.0307094244
|  6>  N        0.0629320237    -0.0204195722    -0.0197452581
|  7>  C        0.2632144365    -0.6887117877     1.2553987531
|  8>  C       -0.0530119536    -0.6282028869    -1.2308014744
|  9>  O       -0.1723988189    -0.0235917207    -2.2819337558
| 10>  C       -0.0435565806    -2.1986084590    -1.2863085757
| 11>  N       -0.4203150132    -2.7099987464    -2.5947724604
| 12>  C        1.2971377035    -2.6851435796    -0.9174491431
| 13>  N        2.3556610426    -3.0282957827    -0.6053372506
| 14>  H        1.0915253615     1.7681056052     0.4129900438
| 15>  H       -0.0286768458     1.8238368359    -0.9747952688
| 16>  H       -0.6632038735     1.8205076739     0.6952194474
| 17>  H        0.0807775202    -1.7588999557     1.1895909742
| 18>  H        1.2887760910    -0.5457847999     1.6176491380
| 19>  H       -0.4254678433    -0.2709291400     1.9986286561
| 20>  H       -0.7472337056    -2.5951227436    -0.5468322190
| 21>  H       -1.4266393481    -2.6148306031    -2.6956026455
| 22>  H       -0.0254481739    -2.0789571021    -3.2900122956
| 23> *
| 24>
| 25>                          ****END OF INPUT****

CARTESIAN COORDINATES (ANGSTROEM)
---------------------------------
  C      0.118827    1.435465    0.030709
  N      0.062932   -0.020420   -0.019745
  C      0.263214   -0.688712    1.255399
  C     -0.053012   -0.628203   -1.230801
  O     -0.172399   -0.023592   -2.281934
  C     -0.043557   -2.198608   -1.286309
  N     -0.420315   -2.709999   -2.594772
  C      1.297138   -2.685144   -0.917449
  N      2.355661   -3.028296   -0.605337
  H      1.091525    1.768106    0.412990
  H     -0.028677    1.823837   -0.974795
  H     -0.663204    1.820508    0.695219
  H      0.080778   -1.758900    1.189591
  H      1.288776   -0.545785    1.617649
  H     -0.425468   -0.270929    1.998629
  H     -0.747234   -2.595123   -0.546832
  H     -1.426639   -2.614831   -2.695603
  H     -0.025448   -2.078957   -3.290012

 Total Charge           Charge          ....    0
 Multiplicity           Mult            ....    1
 Number of Electrons    NEL             ....   68
 Basis Dimension        Dim             ....  333

ORBITAL ENERGIES
----------------

  NO   OCC          E(Eh)            E(eV)
   0   2.0000     -20.539406      -558.9056
   1   2.0000     -15.611410      -424.8081
   2   2.0000     -15.581042      -423.9817
   3   2.0000     -15.569813      -423.6762
   4   2.0000     -11.376080      -309.5589
   5   2.0000     -11.334218      -308.4198
   6   2.0000     -11.285853      -307.1037
   7   2.0000     -11.282651      -307.0165
   8   2.0000     -11.269840      -306.6679
   9   2.0000      -1.409026       -38.3416
  10   2.0000      -1.269311       -34.5397
  11   2.0000      -1.240566       -33.7575
  12   2.0000      -1.207819       -32.8664
  13   2.0000      -1.020778       -27.7768
  14   2.0000      -0.989342       -26.9214
  15   2.0000      -0.942253       -25.6400
  16   2.0000      -0.778935       -21.1959
  17   2.0000      -0.740732       -20.1563
  18   2.0000      -0.733294       -19.9539
  19   2.0000      -0.683006       -18.5855
  20   2.0000      -0.670148       -18.2357
  21   2.0000      -0.643470       -17.5097
  22   2.0000      -0.613509       -16.6944
  23   2.0000      -0.598052       -16.2738
  24   2.0000      -0.579302       -15.7636
  25   2.0000      -0.576415       -15.6850
  26   2.0000      -0.568347       -15.4655
  27   2.0000      -0.550738       -14.9863
  28   2.0000      -0.542562       -14.7639
  29   2.0000      -0.489981       -13.3331
  30   2.0000      -0.474739       -12.9183
  31   2.0000      -0.451438       -12.2843
  32   2.0000      -0.427820       -11.6416
  33   2.0000      -0.395726       -10.7683
  34   0.0000       0.107168         2.9162
  35   0.0000       0.131627         3.5817
  36   0.0000       0.145258         3.9527
  37   0.0000       0.159279         4.3342
  38   0.0000       0.176477         4.8022

MULLIKEN ATOMIC CHARGES
-----------------------
   0 C :   -0.323160
   1 N :   -0.099603
   2 C :   -0.319058
   3 C :    0.181515
   4 O :   -0.375123
   5 C :    0.069503
   6 N :   -0.500966
   7 C :   -0.149205
   8 N :   -0.055099
   9 H :    0.142069
  10 H :    0.186450
  11 H :    0.138894
  12 H :    0.152662
  13 H :    0.158609
  14 H :    0.146924
  15 H :    0.154875
  16 H :    0.233545
  17 H :    0.257168
Sum of atomic charges:   -0.0000000

LOEWDIN ATOMIC CHARGES
----------------------
   0 C :   -0.278458
   1 N :    0.154340
   2 C :   -0.281732
   3 C :   -0.419671
   4 O :    0.082424
   5 C :   -0.301003
   6 N :   -0.113489
   7 C :   -0.170490
   8 N :    0.068459
   9 H :    0.121393
  10 H :    0.136350
  11 H :    0.119709
  12 H :    0.129016
  13 H :    0.125791
  14 H :    0.123012
  15 H :    0.171788
  16 H :    0.162246
  17 H :    0.170315

  Mayer bond orders larger than 0.1
B(  0-C ,  1-N ) :   0.8592 B(  0-C ,  9-H ) :   0.9298 B(  0-C , 10-H ) :   0.9219
B(  0-C , 11-H ) :   0.9338 B(  1-N ,  2-C ) :   0.8811 B(  1-N ,  3-C ) :   1.2261
B(  2-C , 12-H ) :   0.9259 B(  2-C , 13-H ) :   0.9310 B(  2-C , 14-H ) :   0.9273
B(  3-C ,  4-O ) :   1.8859 B(  3-C ,  5-C ) :   0.8835 B(  5-C ,  6-N ) :   1.0693
B(  5-C ,  7-C ) :   0.8789 B(  5-C , 15-H ) :   0.9105 B(  6-N , 16-H ) :   0.8922
B(  6-N , 17-H ) :   0.8784 B(  7-C ,  8-N ) :   2.8506

MP2 TOTAL ENERGY:     -434.573472452 Eh
FINAL SINGLE POINT ENERGY      -434.573472451996

DIPOLE MOMENT
-------------
                                X             Y             Z
Electronic contribution:      2.39108      -4.40416      -4.56608
Nuclear contribution   :     -3.68557       5.30683       5.72051
                        -----------------------------------------
Total Dipole Moment    :     -1.29449       0.90267       1.15443
                        -----------------------------------------
Magnitude (a.u.)       :      1.95531
Magnitude (Debye)      :      4.97001

                             ****ORCA TERMINATED NORMALLY****
TOTAL RUN TIME: 0 days 0 hours 18 minutes 33 seconds 711 msec
