                         Program Version 3.0.3 - RELEASE   -
|  1> ! RI-MP2 RIJK def2-TZVP def2-TZVP/C def2-TZVP/JK TIGHTSCF
|  2> % maxcore 2000
|  3> % mp2 density relaxed end
|  4> *xyz 0 1
|  5>  O        0.0141346436     0.0435551688     0.4873514471
|  6>  C       -0.0195862874     1.1453443042     0.0115987837
|  7>  C       -1.3283554668     1.9242770575    -0.1482543872
|  8>  N       -1.3063399496     3.1254107030    -0.9774173224
|  9>  C       -0.0719581309     3.8685410878    -0.7456145129
| 10>  C        1.1561302451     3.0167888620    -1.0305882103
| 11>  O        1.1393379303     1.7564131001    -0.3335395399
| 12>  H       -2.0811424582     1.2221395782    -0.5128944115
| 13>  H       -1.6330000243     2.1973493595     0.8720414684
| 14>  H       -1.3615765206     2.8634875862    -1.9573944445
| 15>  H       -0.0509176648     4.7632720182    -1.3763584841
| 16>  H       -0.0645255601     4.2041027133     0.2992929557
| 17>  H        1.2277383543     2.8048061815    -2.1061463017
| 18>  H        2.0821005695     3.5121806299    -0.7220784704
| 19> *
| 20>
| 21>                          ****END OF INPUT****

CARTESIAN COORDINATES (ANGSTROEM)
---------------------------------
  O      0.014135    0.043555    0.487351
  C     -0.019586    1.145344    0.011599
  C     -1.328355    1.924277   -0.148254
  N     -1.306340    3.125411   -0.977417
  C     -0.071958    3.868541   -0.745615
  C      1.156130    3.016789   -1.030588
  O      1.139338    1.756413   -0.333540
  H     -2.081142    1.222140   -0.512894
  H     -1.633000    2.197349    0.872041
  H     -1.361577    2.863488   -1.957394
  H     -0.050918    4.763272   -1.376358
  H     -0.064526    4.204103    0.299293
  H      1.227738    2.804806   -2.106146
  H      2.082101    3.512181   -0.722078

 Total Charge           Charge          ....    0
 Multiplicity           Mult            ....    1
 Number of Electrons    NEL             ....   54
 Basis Dimension        Dim             ....  259

ORBITAL ENERGIES
----------------

  NO   OCC          E(Eh)            E(eV)
   0   2.0000     -20.601882      -560.6057
   1   2.0000     -20.535298      -558.7939
   2   2.0000     -15.573473      -423.7757
   3   2.0000     -11.378472      -309.6240
   4   2.0000     -11.306214      -307.6577
   5   2.0000     -11.281662      -306.9896
   6   2.0000     -11.277794      -306.8844
   7   2.0000      -1.455261       -39.5997
   8   2.0000      -1.360369       -37.0175
   9   2.0000      -1.238743       -33.7079
  10   2.0000      -1.044680       -28.4272
  11   2.0000      -0.952990       -25.9322
  12   2.0000      -0.892287       -24.2804
  13   2.0000      -0.771873       -21.0037
  14   2.0000      -0.709749       -19.3132
  15   2.0000      -0.694190       -18.8899
  16   2.0000      -0.673700       -18.3323
  17   2.0000      -0.661752       -18.0072
  18   2.0000      -0.631432       -17.1821
  19   2.0000      -0.594396       -16.1743
  20   2.0000      -0.560367       -15.2484
  21   2.0000      -0.541654       -14.7392
  22   2.0000      -0.527829       -14.3630
  23   2.0000      -0.523679       -14.2500
  24   2.0000      -0.473425       -12.8826
  25   2.0000      -0.450618       -12.2619
  26   2.0000      -0.386646       -10.5212
  27   0.0000       0.116334         3.1656
  28   0.0000       0.150039         4.0828
  29   0.0000       0.155286         4.2255
  30   0.0000       0.162341         4.4175
  31   0.0000       0.184549         5.0218

MULLIKEN ATOMIC CHARGES
-----------------------
   0 O :   -0.291961
   1 C :    0.246849
   2 C :   -0.195516
   3 N :   -0.323349
   4 C :   -0.175812
   5 C :   -0.072077
   6 O :   -0.213130
   7 H :    0.161825
   8 H :    0.141032
   9 H :    0.209799
  10 H :    0.142449
  11 H :    0.127771
  12 H :    0.112887
  13 H :    0.129232
Sum of atomic charges:   -0.0000000

LOEWDIN ATOMIC CHARGES
----------------------
   0 O :    0.133134
   1 C :   -0.487029
   2 C :   -0.283673
   3 N :   -0.023210
   4 C :   -0.318686
   5 C :   -0.290686
   6 O :    0.252968
   7 H :    0.151470
   8 H :    0.153972
   9 H :    0.171466
  10 H :    0.140586
  11 H :    0.139795
  12 H :    0.126399
  13 H :    0.133493

  Mayer bond orders larger than 0.1
B(  0-O ,  1-C ) :   2.0101 B(  1-C ,  2-C ) :   0.9143 B(  1-C ,  6-O ) :   1.1243
B(  2-C ,  3-N ) :   0.9576 B(  2-C ,  7-H ) :   0.9212 B(  2-C ,  8-H ) :   0.9087
B(  3-N ,  4-C ) :   0.9397 B(  3-N ,  9-H ) :   0.8816 B(  4-C ,  5-C ) :   0.9457
B(  4-C , 10-H ) :   0.9259 B(  4-C , 11-H ) :   0.9310 B(  5-C ,  6-O ) :   0.8547
B(  5-C , 12-H ) :   0.9234 B(  5-C , 13-H ) :   0.9265

MP2 TOTAL ENERGY:     -361.159918490 Eh
FINAL SINGLE POINT ENERGY      -361.159918489864

DIPOLE MOMENT
-------------
                                X             Y             Z
Electronic contribution:      1.33635      -4.95225       1.72833
Nuclear contribution   :     -1.43465       6.31082      -2.57048
                        -----------------------------------------
Total Dipole Moment    :     -0.09830       1.35857      -0.84215
                        -----------------------------------------
Magnitude (a.u.)       :      1.60143
Magnitude (Debye)      :      4.07051

                             ****ORCA TERMINATED NORMALLY****
TOTAL RUN TIME: 0 days 0 hours 7 minutes 21 seconds 100 msec
