                         Program Version 3.0.3 - RELEASE   -
|  1> ! RI-MP2 RIJK def2-TZVP def2-TZVP/C def2-TZVP/JK TIGHTSCF
|  2> % maxcore 2000
|  3> % mp2 density relaxed end
|  4> *xyz 0 1
|  5>  C       -0.0164587947     1.5370433310    -0.0355117515
|  6>  C        1.4931835219     1.8662122509    -0.0091165383
|  7>  C        2.0542057252     1.5558858031     1.3995404096
|  8>  C        1.4703597525     0.2862665995     1.9835732415
|  9>  C        0.5360140444    -0.4373486340     1.3629949469
| 10>  C        0.0257392292    -0.0089335761    -0.0024680733
| 11>  C        1.1446827567    -0.3097361734    -1.0092521486
| 12>  O        1.2120340551     0.5762443965    -2.1333269533
| 13>  C        2.0499385122     0.8414428466    -0.9949524199
| 14>  H       -0.5547264295     1.9507395881     0.8201522137
| 15>  H       -0.4736270546     1.8963140946    -0.9576687918
| 16>  H        1.7144374479     2.8989948877    -0.2936364064
| 17>  H        3.1503593441     1.4768139730     1.3660574023
| 18>  H        1.8457727789     2.3961152184     2.0767406192
| 19>  H        1.8384941143    -0.0149261604     2.9615389552
| 20>  H        0.1450045111    -1.3448886052     1.8134830860
| 21>  H       -0.9287294691    -0.4791736659    -0.2507964581
| 22>  H        1.4762256382    -1.3291453697    -1.1859825141
| 23>  H        3.1195807564     0.7613855555    -1.1721282490
| 24> *
| 25>
| 26>                          ****END OF INPUT****

CARTESIAN COORDINATES (ANGSTROEM)
---------------------------------
  C     -0.016459    1.537043   -0.035512
  C      1.493184    1.866212   -0.009117
  C      2.054206    1.555886    1.399540
  C      1.470360    0.286267    1.983573
  C      0.536014   -0.437349    1.362995
  C      0.025739   -0.008934   -0.002468
  C      1.144683   -0.309736   -1.009252
  O      1.212034    0.576244   -2.133327
  C      2.049939    0.841443   -0.994952
  H     -0.554726    1.950740    0.820152
  H     -0.473627    1.896314   -0.957669
  H      1.714437    2.898995   -0.293636
  H      3.150359    1.476814    1.366057
  H      1.845773    2.396115    2.076741
  H      1.838494   -0.014926    2.961539
  H      0.145005   -1.344889    1.813483
  H     -0.928729   -0.479174   -0.250796
  H      1.476226   -1.329145   -1.185983
  H      3.119581    0.761386   -1.172128

 Total Charge           Charge          ....    0
 Multiplicity           Mult            ....    1
 Number of Electrons    NEL             ....   66
 Basis Dimension        Dim             ....  339

ORBITAL ENERGIES
----------------

  NO   OCC          E(Eh)            E(eV)
   0   2.0000     -20.560210      -559.4717
   1   2.0000     -11.279102      -306.9200
   2   2.0000     -11.276098      -306.8382
   3   2.0000     -11.236791      -305.7686
   4   2.0000     -11.235276      -305.7274
   5   2.0000     -11.234500      -305.7063
   6   2.0000     -11.231591      -305.6271
   7   2.0000     -11.227717      -305.5217
   8   2.0000     -11.218485      -305.2705
   9   2.0000      -1.406424       -38.2708
  10   2.0000      -1.145193       -31.1623
  11   2.0000      -1.025257       -27.8987
  12   2.0000      -1.020701       -27.7747
  13   2.0000      -0.920860       -25.0579
  14   2.0000      -0.883596       -24.0439
  15   2.0000      -0.809531       -22.0285
  16   2.0000      -0.766517       -20.8580
  17   2.0000      -0.731075       -19.8936
  18   2.0000      -0.693286       -18.8653
  19   2.0000      -0.668847       -18.2003
  20   2.0000      -0.621933       -16.9237
  21   2.0000      -0.588025       -16.0010
  22   2.0000      -0.577810       -15.7230
  23   2.0000      -0.559996       -15.2383
  24   2.0000      -0.545380       -14.8405
  25   2.0000      -0.521860       -14.2005
  26   2.0000      -0.516507       -14.0549
  27   2.0000      -0.502639       -13.6775
  28   2.0000      -0.466036       -12.6815
  29   2.0000      -0.450028       -12.2459
  30   2.0000      -0.432493       -11.7687
  31   2.0000      -0.405992       -11.0476
  32   2.0000      -0.349998        -9.5239
  33   0.0000       0.135179         3.6784
  34   0.0000       0.144869         3.9421
  35   0.0000       0.160895         4.3782
  36   0.0000       0.175711         4.7813
  37   0.0000       0.178224         4.8497

MULLIKEN ATOMIC CHARGES
-----------------------
   0 C :   -0.298994
   1 C :    0.041350
   2 C :   -0.254273
   3 C :   -0.135298
   4 C :   -0.316890
   5 C :    0.117589
   6 C :   -0.016264
   7 O :   -0.329192
   8 C :   -0.050943
   9 H :    0.125957
  10 H :    0.133457
  11 H :    0.118544
  12 H :    0.124262
  13 H :    0.127698
  14 H :    0.123373
  15 H :    0.123307
  16 H :    0.125992
  17 H :    0.118736
  18 H :    0.121587
Sum of atomic charges:    0.0000000

LOEWDIN ATOMIC CHARGES
----------------------
   0 C :   -0.192438
   1 C :   -0.214628
   2 C :   -0.220620
   3 C :   -0.157702
   4 C :   -0.142331
   5 C :   -0.207792
   6 C :   -0.231852
   7 O :    0.169084
   8 C :   -0.232603
   9 H :    0.141338
  10 H :    0.143172
  11 H :    0.148731
  12 H :    0.146197
  13 H :    0.146616
  14 H :    0.141305
  15 H :    0.140553
  16 H :    0.150133
  17 H :    0.136675
  18 H :    0.136158

  Mayer bond orders larger than 0.1
B(  0-C ,  1-C ) :   0.9260 B(  0-C ,  5-C ) :   0.9230 B(  0-C ,  9-H ) :   0.9331
B(  0-C , 10-H ) :   0.9084 B(  1-C ,  2-C ) :   0.9029 B(  1-C ,  8-C ) :   0.8579
B(  1-C , 11-H ) :   0.9191 B(  2-C ,  3-C ) :   0.9391 B(  2-C , 12-H ) :   0.9198
B(  2-C , 13-H ) :   0.9093 B(  3-C ,  4-C ) :   1.7996 B(  3-C , 14-H ) :   0.9301
B(  4-C ,  5-C ) :   0.8720 B(  4-C , 15-H ) :   0.9282 B(  5-C ,  6-C ) :   0.8285
B(  5-C , 16-H ) :   0.9161 B(  6-C ,  7-O ) :   0.9389 B(  6-C ,  8-C ) :   0.9954
B(  6-C , 17-H ) :   0.9247 B(  7-O ,  8-C ) :   0.9355 B(  8-C , 18-H ) :   0.9298

MP2 TOTAL ENERGY:     -385.218690465 Eh
FINAL SINGLE POINT ENERGY      -385.218690465195

DIPOLE MOMENT
-------------
                                X             Y             Z
Electronic contribution:      0.01037      -1.48116      -3.83542
Nuclear contribution   :      0.18932       1.44243       4.56033
                        -----------------------------------------
Total Dipole Moment    :      0.19969      -0.03874       0.72490
                        -----------------------------------------
Magnitude (a.u.)       :      0.75290
Magnitude (Debye)      :      1.91372

                             ****ORCA TERMINATED NORMALLY****
TOTAL RUN TIME: 0 days 0 hours 21 minutes 8 seconds 356 msec
