                         Program Version 3.0.3 - RELEASE   -
|  1> ! RI-MP2 RIJK def2-TZVP def2-TZVP/C def2-TZVP/JK TIGHTSCF
|  2> % maxcore 2000
|  3> % mp2 density relaxed end
|  4> *xyz 0 1
|  5>  O        0.6018542720     1.1230064344    -0.5216235975
|  6>  C        0.3670918617    -0.2418171861    -0.2513336807
|  7>  C       -1.0777024795    -0.4757004047     0.1916825224
|  8>  N       -1.9572518269     0.0548046032    -0.8512824817
|  9>  C       -2.5912711924    -0.8762082647    -1.7796830897
| 10>  C       -3.4046366849    -0.1343467330    -0.7712222279
| 11>  C       -4.0630602833    -0.8486643359     0.3668609596
| 12>  C       -4.8413432128    -0.0707759398     1.3659288374
| 13>  N       -5.5326145370    -0.9413067558     0.4005892764
| 14>  H       -0.1761039570     1.4134789791    -1.0174453091
| 15>  H        0.5813095367    -0.8709675735    -1.1326528073
| 16>  H        1.0561646391    -0.5456119415     0.5441804053
| 17>  H       -1.2394782370    -1.5446788314     0.4017213634
| 18>  H       -1.2675437152     0.0867785680     1.1126047600
| 19>  H       -2.5983593959    -0.5858886307    -2.8268087768
| 20>  H       -2.4456578653    -1.9417072232    -1.6035361899
| 21>  H       -3.9690945324     0.7372532580    -1.1089706163
| 22>  H       -3.5724651480    -1.7609722870     0.6954581986
| 23>  H       -4.8902589843    -0.4023127581     2.3990748801
| 24>  H       -4.8975250420     1.0069313046     1.2322614933
| 25>  H       -5.9300489757    -0.3794907818    -0.3498023295
| 26> *
| 27>
| 28>                          ****END OF INPUT****

CARTESIAN COORDINATES (ANGSTROEM)
---------------------------------
  O      0.601854    1.123006   -0.521624
  C      0.367092   -0.241817   -0.251334
  C     -1.077702   -0.475700    0.191683
  N     -1.957252    0.054805   -0.851282
  C     -2.591271   -0.876208   -1.779683
  C     -3.404637   -0.134347   -0.771222
  C     -4.063060   -0.848664    0.366861
  C     -4.841343   -0.070776    1.365929
  N     -5.532615   -0.941307    0.400589
  H     -0.176104    1.413479   -1.017445
  H      0.581310   -0.870968   -1.132653
  H      1.056165   -0.545612    0.544180
  H     -1.239478   -1.544679    0.401721
  H     -1.267544    0.086779    1.112605
  H     -2.598359   -0.585889   -2.826809
  H     -2.445658   -1.941707   -1.603536
  H     -3.969095    0.737253   -1.108971
  H     -3.572465   -1.760972    0.695458
  H     -4.890259   -0.402313    2.399075
  H     -4.897525    1.006931    1.232261
  H     -5.930049   -0.379491   -0.349802

 Total Charge           Charge          ....    0
 Multiplicity           Mult            ....    1
 Number of Electrons    NEL             ....   70
 Basis Dimension        Dim             ....  351

ORBITAL ENERGIES
----------------

  NO   OCC          E(Eh)            E(eV)
   0   2.0000     -20.541432      -558.9608
   1   2.0000     -15.573479      -423.7759
   2   2.0000     -15.567180      -423.6045
   3   2.0000     -11.277279      -306.8704
   4   2.0000     -11.272335      -306.7358
   5   2.0000     -11.270954      -306.6982
   6   2.0000     -11.266184      -306.5685
   7   2.0000     -11.262813      -306.4767
   8   2.0000     -11.260271      -306.4076
   9   2.0000      -1.352375       -36.8000
  10   2.0000      -1.292336       -35.1663
  11   2.0000      -1.262791       -34.3623
  12   2.0000      -1.038087       -28.2478
  13   2.0000      -0.934762       -25.4362
  14   2.0000      -0.900525       -24.5045
  15   2.0000      -0.876872       -23.8609
  16   2.0000      -0.827429       -22.5155
  17   2.0000      -0.784610       -21.3503
  18   2.0000      -0.702055       -19.1039
  19   2.0000      -0.698690       -19.0123
  20   2.0000      -0.670991       -18.2586
  21   2.0000      -0.643881       -17.5209
  22   2.0000      -0.614044       -16.7090
  23   2.0000      -0.609632       -16.5889
  24   2.0000      -0.578320       -15.7369
  25   2.0000      -0.574427       -15.6309
  26   2.0000      -0.526814       -14.3353
  27   2.0000      -0.518880       -14.1195
  28   2.0000      -0.502187       -13.6652
  29   2.0000      -0.485523       -13.2117
  30   2.0000      -0.463340       -12.6081
  31   2.0000      -0.457283       -12.4433
  32   2.0000      -0.433107       -11.7854
  33   2.0000      -0.416172       -11.3246
  34   2.0000      -0.369273       -10.0484
  35   0.0000       0.135669         3.6917
  36   0.0000       0.141149         3.8409
  37   0.0000       0.155498         4.2313
  38   0.0000       0.163986         4.4623
  39   0.0000       0.178563         4.8589

MULLIKEN ATOMIC CHARGES
-----------------------
   0 O :   -0.488171
   1 C :    0.015374
   2 C :   -0.167243
   3 N :   -0.239036
   4 C :   -0.186957
   5 C :   -0.095722
   6 C :   -0.038544
   7 C :   -0.191876
   8 N :   -0.349721
   9 H :    0.326234
  10 H :    0.087731
  11 H :    0.110621
  12 H :    0.098386
  13 H :    0.126828
  14 H :    0.134686
  15 H :    0.128218
  16 H :    0.118496
  17 H :    0.131516
  18 H :    0.127141
  19 H :    0.132415
  20 H :    0.219623
Sum of atomic charges:    0.0000000

LOEWDIN ATOMIC CHARGES
----------------------
   0 O :   -0.051034
   1 C :   -0.353566
   2 C :   -0.303757
   3 N :    0.105535
   4 C :   -0.236316
   5 C :   -0.253816
   6 C :   -0.269992
   7 C :   -0.263115
   8 N :   -0.011460
   9 H :    0.172548
  10 H :    0.115352
  11 H :    0.126777
  12 H :    0.125302
  13 H :    0.137553
  14 H :    0.125506
  15 H :    0.128122
  16 H :    0.146369
  17 H :    0.145524
  18 H :    0.125525
  19 H :    0.123385
  20 H :    0.165558

  Mayer bond orders larger than 0.1
B(  0-O ,  1-C ) :   0.9352 B(  0-O ,  9-H ) :   0.8224 B(  1-C ,  2-C ) :   0.9549
B(  1-C , 10-H ) :   0.9234 B(  1-C , 11-H ) :   0.9338 B(  2-C ,  3-N ) :   0.8546
B(  2-C , 12-H ) :   0.9166 B(  2-C , 13-H ) :   0.9242 B(  3-N ,  4-C ) :   0.8640
B(  3-N ,  5-C ) :   0.9440 B(  4-C ,  5-C ) :   0.9415 B(  4-C , 14-H ) :   0.9195
B(  4-C , 15-H ) :   0.9217 B(  5-C ,  6-C ) :   0.9467 B(  5-C , 16-H ) :   0.8964
B(  6-C ,  7-C ) :   0.9467 B(  6-C ,  8-N ) :   0.9585 B(  6-C , 17-H ) :   0.8962
B(  7-C ,  8-N ) :   0.9273 B(  7-C , 18-H ) :   0.9195 B(  7-C , 19-H ) :   0.9201
B(  8-N , 20-H ) :   0.8768

MP2 TOTAL ENERGY:     -419.633766205 Eh
FINAL SINGLE POINT ENERGY      -419.633766205272

DIPOLE MOMENT
-------------
                                X             Y             Z
Electronic contribution:     -0.45743       1.47181      -0.93909
Nuclear contribution   :     -0.06753      -1.74380       0.80350
                        -----------------------------------------
Total Dipole Moment    :     -0.52496      -0.27199      -0.13559
                        -----------------------------------------
Magnitude (a.u.)       :      0.60659
Magnitude (Debye)      :      1.54182

                             ****ORCA TERMINATED NORMALLY****
TOTAL RUN TIME: 0 days 0 hours 15 minutes 34 seconds 829 msec
