                         Program Version 3.0.3 - RELEASE   -
|  1> ! RI-MP2 RIJK def2-TZVP def2-TZVP/C def2-TZVP/JK TIGHTSCF
|  2> % maxcore 2000
|  3> % mp2 density relaxed end
|  4> *xyz 0 1
|  5>  N        0.0299948426    -1.1474516921    -0.0045710140
|  6>  C       -0.0110665861     0.0078465510     0.0035851786
|  7>  C       -0.0136995231     1.4489794240     0.0109005526
|  8>  N       -1.2048504763     2.0611189430     0.0299200106
|  9>  C       -1.1693165707     3.3920316965     0.0363603042
| 10>  N       -0.0846114015     4.1716717037     0.0258967901
| 11>  C        1.0893091653     3.5389493834     0.0070090627
| 12>  C        1.1901525349     2.1520851007    -0.0014847158
| 13>  H       -2.1310638146     3.8977098998     0.0517439533
| 14>  H        1.9804509423     4.1614901784    -0.0016548754
| 15>  H        2.1449409473     1.6422269715    -0.0167971869
| 16> *
| 17>
| 18>                          ****END OF INPUT****

CARTESIAN COORDINATES (ANGSTROEM)
---------------------------------
  N      0.029995   -1.147452   -0.004571
  C     -0.011067    0.007847    0.003585
  C     -0.013700    1.448979    0.010901
  N     -1.204850    2.061119    0.029920
  C     -1.169317    3.392032    0.036360
  N     -0.084611    4.171672    0.025897
  C      1.089309    3.538949    0.007009
  C      1.190153    2.152085   -0.001485
  H     -2.131064    3.897710    0.051744
  H      1.980451    4.161490   -0.001655
  H      2.144941    1.642227   -0.016797

 Total Charge           Charge          ....    0
 Multiplicity           Mult            ....    1
 Number of Electrons    NEL             ....   54
 Basis Dimension        Dim             ....  266

ORBITAL ENERGIES
----------------

  NO   OCC          E(Eh)            E(eV)
   0   2.0000     -15.609256      -424.7495
   1   2.0000     -15.604231      -424.6127
   2   2.0000     -15.599991      -424.4973
   3   2.0000     -11.358836      -309.0896
   4   2.0000     -11.341630      -308.6214
   5   2.0000     -11.327543      -308.2381
   6   2.0000     -11.295863      -307.3761
   7   2.0000     -11.286124      -307.1110
   8   2.0000      -1.348022       -36.6815
   9   2.0000      -1.248719       -33.9794
  10   2.0000      -1.224006       -33.3069
  11   2.0000      -1.115003       -30.3408
  12   2.0000      -0.963217       -26.2105
  13   2.0000      -0.925817       -25.1928
  14   2.0000      -0.808079       -21.9889
  15   2.0000      -0.743910       -20.2428
  16   2.0000      -0.688385       -18.7319
  17   2.0000      -0.665859       -18.1190
  18   2.0000      -0.620887       -16.8952
  19   2.0000      -0.618031       -16.8175
  20   2.0000      -0.581265       -15.8170
  21   2.0000      -0.519323       -14.1315
  22   2.0000      -0.506310       -13.7774
  23   2.0000      -0.492064       -13.3897
  24   2.0000      -0.451074       -12.2744
  25   2.0000      -0.441326       -12.0091
  26   2.0000      -0.402526       -10.9533
  27   0.0000       0.036979         1.0062
  28   0.0000       0.077306         2.1036
  29   0.0000       0.135093         3.6761
  30   0.0000       0.160586         4.3698
  31   0.0000       0.166209         4.5228

MULLIKEN ATOMIC CHARGES
-----------------------
   0 N :   -0.039286
   1 C :   -0.160193
   2 C :    0.272550
   3 N :   -0.237180
   4 C :    0.085984
   5 N :   -0.228620
   6 C :   -0.006488
   7 C :   -0.156107
   8 H :    0.149848
   9 H :    0.152214
  10 H :    0.167278
Sum of atomic charges:   -0.0000000

LOEWDIN ATOMIC CHARGES
----------------------
   0 N :    0.096165
   1 C :   -0.129979
   2 C :   -0.215434
   3 N :    0.180739
   4 C :   -0.260478
   5 N :    0.140710
   6 C :   -0.177814
   7 C :   -0.085851
   8 H :    0.141178
   9 H :    0.147391
  10 H :    0.163373

  Mayer bond orders larger than 0.1
B(  0-N ,  1-C ) :   2.8300 B(  1-C ,  2-C ) :   0.9209 B(  2-C ,  3-N ) :   1.3295
B(  2-C ,  7-C ) :   1.3055 B(  3-N ,  4-C ) :   1.3833 B(  4-C ,  5-N ) :   1.3582
B(  4-C ,  8-H ) :   0.9321 B(  5-N ,  6-C ) :   1.3842 B(  6-C ,  7-C ) :   1.3215
B(  6-C ,  9-H ) :   0.9435 B(  7-C , 10-H ) :   0.9089

MP2 TOTAL ENERGY:     -355.869578931 Eh
FINAL SINGLE POINT ENERGY      -355.869578930630

DIPOLE MOMENT
-------------
                                X             Y             Z
Electronic contribution:     -1.11514      -2.42355       0.00269
Nuclear contribution   :      1.93399       3.53748      -0.00696
                        -----------------------------------------
Total Dipole Moment    :      0.81885       1.11393      -0.00427
                        -----------------------------------------
Magnitude (a.u.)       :      1.38252
Magnitude (Debye)      :      3.51409

                             ****ORCA TERMINATED NORMALLY****
TOTAL RUN TIME: 0 days 0 hours 9 minutes 19 seconds 184 msec
