                         Program Version 3.0.3 - RELEASE   -
|  1> ! RI-MP2 RIJK def2-TZVP def2-TZVP/C def2-TZVP/JK TIGHTSCF
|  2> % maxcore 2000
|  3> % mp2 density relaxed end
|  4> *xyz 0 1
|  5>  C       -0.1202196701     1.5450777425     0.2039968028
|  6>  C        0.0599079701     0.0450831702    -0.0202141559
|  7>  N        0.7662389975    -0.5814358905     1.0788500169
|  8>  C        2.2132975820    -0.3199853848     1.2397376605
|  9>  C        2.4391662353    -1.8252140634     1.5333380638
| 10>  O        2.4874309084    -2.2179318973     2.8889598649
| 11>  C        1.1531159625    -2.3606702539     3.3847315531
| 12>  C        0.3062257658    -2.8046188727     2.1813332842
| 13>  C        0.9821641452    -2.0469239974     1.0406319579
| 14>  H        0.8479737499     2.0514694361     0.2787841250
| 15>  H       -0.6686213379     1.9978526072    -0.6276937154
| 16>  H       -0.6703137229     1.7316626930     1.1308553197
| 17>  H       -0.9225558644    -0.4359570488    -0.1050767508
| 18>  H        0.5790297660    -0.1233813004    -0.9863728069
| 19>  H        2.7091040397    -0.0081151093     0.3056103778
| 20>  H        2.4763866547     0.3822734128     2.0375639080
| 21>  H        3.2707045886    -2.3000012347     1.0105089847
| 22>  H        1.1814066865    -3.0874009077     4.2009112261
| 23>  H        0.7829856401    -1.4038252408     3.7765899660
| 24>  H        0.3932033620    -3.8846930429     2.0205631029
| 25>  H       -0.7500803580    -2.5470209404     2.2921121311
| 26>  H        0.8580885391    -2.5011753569     0.0497826736
| 27> *
| 28>
| 29>                          ****END OF INPUT****

CARTESIAN COORDINATES (ANGSTROEM)
---------------------------------
  C     -0.120220    1.545078    0.203997
  C      0.059908    0.045083   -0.020214
  N      0.766239   -0.581436    1.078850
  C      2.213298   -0.319985    1.239738
  C      2.439166   -1.825214    1.533338
  O      2.487431   -2.217932    2.888960
  C      1.153116   -2.360670    3.384732
  C      0.306226   -2.804619    2.181333
  C      0.982164   -2.046924    1.040632
  H      0.847974    2.051469    0.278784
  H     -0.668621    1.997853   -0.627694
  H     -0.670314    1.731663    1.130855
  H     -0.922556   -0.435957   -0.105077
  H      0.579030   -0.123381   -0.986373
  H      2.709104   -0.008115    0.305610
  H      2.476387    0.382273    2.037564
  H      3.270705   -2.300001    1.010509
  H      1.181407   -3.087401    4.200911
  H      0.782986   -1.403825    3.776590
  H      0.393203   -3.884693    2.020563
  H     -0.750080   -2.547021    2.292112
  H      0.858089   -2.501175    0.049783

 Total Charge           Charge          ....    0
 Multiplicity           Mult            ....    1
 Number of Electrons    NEL             ....   70
 Basis Dimension        Dim             ....  357

ORBITAL ENERGIES
----------------

  NO   OCC          E(Eh)            E(eV)
   0   2.0000     -20.548135      -559.1432
   1   2.0000     -15.541262      -422.8992
   2   2.0000     -11.274321      -306.7899
   3   2.0000     -11.266352      -306.5730
   4   2.0000     -11.254410      -306.2481
   5   2.0000     -11.249193      -306.1061
   6   2.0000     -11.246355      -306.0289
   7   2.0000     -11.220386      -305.3222
   8   2.0000     -11.213061      -305.1229
   9   2.0000      -1.376132       -37.4465
  10   2.0000      -1.241059       -33.7709
  11   2.0000      -1.050677       -28.5904
  12   2.0000      -1.028111       -27.9763
  13   2.0000      -0.945848       -25.7378
  14   2.0000      -0.910223       -24.7684
  15   2.0000      -0.825855       -22.4726
  16   2.0000      -0.797197       -21.6928
  17   2.0000      -0.742965       -20.2171
  18   2.0000      -0.697163       -18.9708
  19   2.0000      -0.665821       -18.1179
  20   2.0000      -0.643003       -17.4970
  21   2.0000      -0.622955       -16.9515
  22   2.0000      -0.590037       -16.0557
  23   2.0000      -0.586057       -15.9474
  24   2.0000      -0.561207       -15.2712
  25   2.0000      -0.544607       -14.8195
  26   2.0000      -0.538008       -14.6399
  27   2.0000      -0.516431       -14.0528
  28   2.0000      -0.502479       -13.6731
  29   2.0000      -0.486543       -13.2395
  30   2.0000      -0.476402       -12.9636
  31   2.0000      -0.456451       -12.4207
  32   2.0000      -0.442479       -12.0405
  33   2.0000      -0.401706       -10.9310
  34   2.0000      -0.354162        -9.6372
  35   0.0000       0.136502         3.7144
  36   0.0000       0.152089         4.1386
  37   0.0000       0.162191         4.4135
  38   0.0000       0.170941         4.6515
  39   0.0000       0.188838         5.1386

MULLIKEN ATOMIC CHARGES
-----------------------
   0 C :   -0.371854
   1 C :   -0.166046
   2 N :   -0.185356
   3 C :   -0.184249
   4 C :    0.058088
   5 O :   -0.324987
   6 C :   -0.034015
   7 C :   -0.243191
   8 C :    0.010426
   9 H :    0.125683
  10 H :    0.126785
  11 H :    0.126300
  12 H :    0.114184
  13 H :    0.082027
  14 H :    0.095718
  15 H :    0.115732
  16 H :    0.115504
  17 H :    0.117575
  18 H :    0.094006
  19 H :    0.109731
  20 H :    0.116166
  21 H :    0.101773
Sum of atomic charges:    0.0000000

LOEWDIN ATOMIC CHARGES
----------------------
   0 C :   -0.316308
   1 C :   -0.330074
   2 N :    0.105959
   3 C :   -0.235816
   4 C :   -0.271369
   5 O :    0.169352
   6 C :   -0.295782
   7 C :   -0.246427
   8 C :   -0.230740
   9 H :    0.120797
  10 H :    0.121982
  11 H :    0.122678
  12 H :    0.131969
  13 H :    0.114886
  14 H :    0.122858
  15 H :    0.124283
  16 H :    0.131502
  17 H :    0.123796
  18 H :    0.121693
  19 H :    0.138287
  20 H :    0.140566
  21 H :    0.135908

  Mayer bond orders larger than 0.1
B(  0-C ,  1-C ) :   0.9391 B(  0-C ,  9-H ) :   0.9352 B(  0-C , 10-H ) :   0.9368
B(  0-C , 11-H ) :   0.9347 B(  1-C ,  2-N ) :   0.9232 B(  1-C , 12-H ) :   0.9267
B(  1-C , 13-H ) :   0.9166 B(  2-N ,  3-C ) :   0.9222 B(  2-N ,  8-C ) :   0.9026
B(  3-C ,  4-C ) :   0.9204 B(  3-C , 14-H ) :   0.9078 B(  3-C , 15-H ) :   0.9126
B(  4-C ,  5-O ) :   0.9847 B(  4-C ,  8-C ) :   0.9151 B(  4-C , 16-H ) :   0.9327
B(  5-O ,  6-C ) :   0.9093 B(  6-C ,  7-C ) :   0.9802 B(  6-C , 17-H ) :   0.9307
B(  6-C , 18-H ) :   0.9213 B(  7-C ,  8-C ) :   0.9119 B(  7-C , 19-H ) :   0.9199
B(  7-C , 20-H ) :   0.9162 B(  8-C , 21-H ) :   0.9117

MP2 TOTAL ENERGY:     -403.642080812 Eh
FINAL SINGLE POINT ENERGY      -403.642080812493

DIPOLE MOMENT
-------------
                                X             Y             Z
Electronic contribution:      4.04227      -4.61844       3.37999
Nuclear contribution   :     -4.44002       4.59407      -3.93217
                        -----------------------------------------
Total Dipole Moment    :     -0.39775      -0.02437      -0.55218
                        -----------------------------------------
Magnitude (a.u.)       :      0.68096
Magnitude (Debye)      :      1.73086

                             ****ORCA TERMINATED NORMALLY****
TOTAL RUN TIME: 0 days 0 hours 31 minutes 18 seconds 995 msec
