                         Program Version 3.0.3 - RELEASE   -
|  1> ! RI-MP2 RIJK def2-TZVP def2-TZVP/C def2-TZVP/JK TIGHTSCF
|  2> % maxcore 2000
|  3> % mp2 density relaxed end
|  4> *xyz 0 1
|  5>  C        0.0184497986    -1.2101742848    -0.0040899946
|  6>  C        0.0019900916    -0.0059275102     0.0030272626
|  7>  C       -0.0172909894     1.4189738650     0.0109327220
|  8>  C       -1.2364910596     2.1155789010     0.0308468898
|  9>  C       -1.2512181692     3.5049693612     0.0385398794
| 10>  C       -0.0552030524     4.2205397131     0.0265549019
| 11>  C        1.1597352686     3.5377732291     0.0067694219
| 12>  C        1.1826100193     2.1484937530    -0.0010404001
| 13>  H        0.0332209936    -2.2717202289    -0.0105566157
| 14>  H       -2.1640339392     1.5547072457     0.0401188733
| 15>  H       -2.1999106109     4.0310694559     0.0539499315
| 16>  H       -0.0698811168     5.3051923312     0.0326092846
| 17>  H        2.0938419910     4.0894910563    -0.0026253984
| 18>  H        2.1249885848     1.6130642323    -0.0164224783
| 19> *
| 20>
| 21>                          ****END OF INPUT****

CARTESIAN COORDINATES (ANGSTROEM)
---------------------------------
  C      0.018450   -1.210174   -0.004090
  C      0.001990   -0.005928    0.003027
  C     -0.017291    1.418974    0.010933
  C     -1.236491    2.115579    0.030847
  C     -1.251218    3.504969    0.038540
  C     -0.055203    4.220540    0.026555
  C      1.159735    3.537773    0.006769
  C      1.182610    2.148494   -0.001040
  H      0.033221   -2.271720   -0.010557
  H     -2.164034    1.554707    0.040119
  H     -2.199911    4.031069    0.053950
  H     -0.069881    5.305192    0.032609
  H      2.093842    4.089491   -0.002625
  H      2.124989    1.613064   -0.016422

 Total Charge           Charge          ....    0
 Multiplicity           Mult            ....    1
 Number of Electrons    NEL             ....   54
 Basis Dimension        Dim             ....  284

ORBITAL ENERGIES
----------------

  NO   OCC          E(Eh)            E(eV)
   0   2.0000     -11.264595      -306.5252
   1   2.0000     -11.246408      -306.0303
   2   2.0000     -11.246362      -306.0291
   3   2.0000     -11.244664      -305.9829
   4   2.0000     -11.241905      -305.9078
   5   2.0000     -11.241633      -305.9004
   6   2.0000     -11.238632      -305.8187
   7   2.0000     -11.228568      -305.5449
   8   2.0000      -1.167325       -31.7645
   9   2.0000      -1.066635       -29.0246
  10   2.0000      -1.025046       -27.8929
  11   2.0000      -0.996729       -27.1224
  12   2.0000      -0.855032       -23.2666
  13   2.0000      -0.836231       -22.7550
  14   2.0000      -0.747505       -20.3406
  15   2.0000      -0.704230       -19.1631
  16   2.0000      -0.666155       -18.1270
  17   2.0000      -0.638214       -17.3667
  18   2.0000      -0.610150       -16.6030
  19   2.0000      -0.596331       -16.2270
  20   2.0000      -0.525841       -14.3089
  21   2.0000      -0.519471       -14.1355
  22   2.0000      -0.506279       -13.7765
  23   2.0000      -0.430328       -11.7098
  24   2.0000      -0.397827       -10.8254
  25   2.0000      -0.346862        -9.4386
  26   2.0000      -0.320699        -8.7267
  27   0.0000       0.088534         2.4091
  28   0.0000       0.116363         3.1664
  29   0.0000       0.151761         4.1296
  30   0.0000       0.164394         4.4734
  31   0.0000       0.174629         4.7519

MULLIKEN ATOMIC CHARGES
-----------------------
   0 C :   -0.126575
   1 C :    0.060526
   2 C :   -0.003650
   3 C :   -0.196240
   4 C :   -0.140816
   5 C :   -0.098821
   6 C :   -0.140794
   7 C :   -0.196282
   8 H :    0.192438
   9 H :    0.133671
  10 H :    0.127472
  11 H :    0.127929
  12 H :    0.127473
  13 H :    0.133668
Sum of atomic charges:   -0.0000000

LOEWDIN ATOMIC CHARGES
----------------------
   0 C :   -0.079201
   1 C :   -0.063795
   2 C :   -0.139039
   3 C :   -0.092138
   4 C :   -0.136467
   5 C :   -0.139722
   6 C :   -0.136467
   7 C :   -0.092134
   8 H :    0.127809
   9 H :    0.153799
  10 H :    0.148399
  11 H :    0.146757
  12 H :    0.148399
  13 H :    0.153799

  Mayer bond orders larger than 0.1
B(  0-C ,  1-C ) :   2.5758 B(  0-C ,  2-C ) :  -0.1569 B(  0-C ,  8-H ) :   0.8868
B(  1-C ,  2-C ) :   1.0637 B(  2-C ,  3-C ) :   1.3077 B(  2-C ,  7-C ) :   1.3077
B(  3-C ,  4-C ) :   1.3579 B(  3-C ,  9-H ) :   0.9348 B(  4-C ,  5-C ) :   1.3166
B(  4-C , 10-H ) :   0.9337 B(  5-C ,  6-C ) :   1.3166 B(  5-C , 11-H ) :   0.9329
B(  6-C ,  7-C ) :   1.3579 B(  6-C , 12-H ) :   0.9337 B(  7-C , 13-H ) :   0.9348

MP2 TOTAL ENERGY:     -307.706267875 Eh
FINAL SINGLE POINT ENERGY      -307.706267874948

DIPOLE MOMENT
-------------
                                X             Y             Z
Electronic contribution:      0.02665      -1.98681      -0.01071
Nuclear contribution   :     -0.02975       2.22786       0.01184
                        -----------------------------------------
Total Dipole Moment    :     -0.00310       0.24105       0.00113
                        -----------------------------------------
Magnitude (a.u.)       :      0.24107
Magnitude (Debye)      :      0.61275

                             ****ORCA TERMINATED NORMALLY****
TOTAL RUN TIME: 0 days 0 hours 11 minutes 13 seconds 211 msec
