                         Program Version 3.0.3 - RELEASE   -
|  1> ! RI-MP2 RIJK def2-TZVP def2-TZVP/C def2-TZVP/JK TIGHTSCF
|  2> % maxcore 2000
|  3> % mp2 density relaxed end
|  4> *xyz 0 1
|  5>  N       -0.0815516876     1.4368829712     0.1032162916
|  6>  C        0.0394982924    -0.0121169278     0.0149585202
|  7>  C        0.8603333689    -0.5370855076     1.2446790910
|  8>  N        0.3177905498    -0.0829836745     2.5316668938
|  9>  C        0.9133980158    -2.0005617085     1.1984119245
| 10>  C        0.9041199231    -3.1990961775     1.1365110585
| 11>  C        2.2367307778     0.0090759045     1.1084432787
| 12>  N        3.2792281352     0.4797142746     0.9469836493
| 13>  H        0.7659558718     1.8889369256    -0.2256814491
| 14>  H       -0.8456860275     1.7698094789    -0.4723951791
| 15>  H       -0.9564002257    -0.4580913448     0.0935830393
| 16>  H        0.5052471168    -0.3869922583    -0.9077972264
| 17>  H       -0.0156644656     0.8694183251     2.3849130015
| 18>  H       -0.4852744709    -0.6602336243     2.7626989879
| 19>  H        0.9160076258    -4.2606672767     1.0926185084
| 20> *
| 21>
| 22>                          ****END OF INPUT****

CARTESIAN COORDINATES (ANGSTROEM)
---------------------------------
  N     -0.081552    1.436883    0.103216
  C      0.039498   -0.012117    0.014959
  C      0.860333   -0.537086    1.244679
  N      0.317791   -0.082984    2.531667
  C      0.913398   -2.000562    1.198412
  C      0.904120   -3.199096    1.136511
  C      2.236731    0.009076    1.108443
  N      3.279228    0.479714    0.946984
  H      0.765956    1.888937   -0.225681
  H     -0.845686    1.769809   -0.472395
  H     -0.956400   -0.458091    0.093583
  H      0.505247   -0.386992   -0.907797
  H     -0.015664    0.869418    2.384913
  H     -0.485274   -0.660234    2.762699
  H      0.916008   -4.260667    1.092619

 Total Charge           Charge          ....    0
 Multiplicity           Mult            ....    1
 Number of Electrons    NEL             ....   58
 Basis Dimension        Dim             ....  290

ORBITAL ENERGIES
----------------

  NO   OCC          E(Eh)            E(eV)
   0   2.0000     -15.573266      -423.7701
   1   2.0000     -15.568828      -423.6494
   2   2.0000     -15.566876      -423.5962
   3   2.0000     -11.347371      -308.7777
   4   2.0000     -11.289350      -307.1988
   5   2.0000     -11.274991      -306.8081
   6   2.0000     -11.258125      -306.3492
   7   2.0000     -11.251643      -306.1728
   8   2.0000      -1.256550       -34.1925
   9   2.0000      -1.211053       -32.9544
  10   2.0000      -1.190536       -32.3961
  11   2.0000      -1.069747       -29.1093
  12   2.0000      -0.998795       -27.1786
  13   2.0000      -0.893164       -24.3042
  14   2.0000      -0.787279       -21.4230
  15   2.0000      -0.720146       -19.5962
  16   2.0000      -0.694523       -18.8989
  17   2.0000      -0.680081       -18.5060
  18   2.0000      -0.643203       -17.5024
  19   2.0000      -0.623459       -16.9652
  20   2.0000      -0.596321       -16.2267
  21   2.0000      -0.569421       -15.4947
  22   2.0000      -0.545794       -14.8518
  23   2.0000      -0.474852       -12.9214
  24   2.0000      -0.467972       -12.7342
  25   2.0000      -0.439072       -11.9478
  26   2.0000      -0.431027       -11.7288
  27   2.0000      -0.419036       -11.4025
  28   2.0000      -0.405131       -11.0242
  29   0.0000       0.114043         3.1033
  30   0.0000       0.139737         3.8024
  31   0.0000       0.145433         3.9574
  32   0.0000       0.155435         4.2296
  33   0.0000       0.161157         4.3853

MULLIKEN ATOMIC CHARGES
-----------------------
   0 N :   -0.573985
   1 C :   -0.156956
   2 C :    0.265065
   3 N :   -0.544013
   4 C :   -0.066333
   5 C :   -0.112234
   6 C :   -0.210094
   7 N :   -0.053770
   8 H :    0.250215
   9 H :    0.244487
  10 H :    0.128028
  11 H :    0.132417
  12 H :    0.257656
  13 H :    0.236311
  14 H :    0.203207
Sum of atomic charges:    0.0000000

LOEWDIN ATOMIC CHARGES
----------------------
   0 N :   -0.169079
   1 C :   -0.276805
   2 C :   -0.344467
   3 N :   -0.089868
   4 C :   -0.056520
   5 C :   -0.058991
   6 C :   -0.132858
   7 N :    0.071919
   8 H :    0.163412
   9 H :    0.158671
  10 H :    0.139274
  11 H :    0.131937
  12 H :    0.166833
  13 H :    0.164340
  14 H :    0.132202

  Mayer bond orders larger than 0.1
B(  0-N ,  1-C ) :   0.9911 B(  0-N ,  8-H ) :   0.8798 B(  0-N ,  9-H ) :   0.8867
B(  1-C ,  2-C ) :   0.8914 B(  1-C , 10-H ) :   0.9251 B(  1-C , 11-H ) :   0.9309
B(  2-C ,  3-N ) :   0.9459 B(  2-C ,  4-C ) :   1.1489 B(  2-C ,  5-C ) :  -0.1105
B(  2-C ,  6-C ) :   0.8333 B(  3-N , 12-H ) :   0.8635 B(  3-N , 13-H ) :   0.8793
B(  4-C ,  5-C ) :   2.5648 B(  5-C , 14-H ) :   0.8770 B(  6-C ,  7-N ) :   2.8694

MP2 TOTAL ENERGY:     -358.181781722 Eh
FINAL SINGLE POINT ENERGY      -358.181781722476

DIPOLE MOMENT
-------------
                                X             Y             Z
Electronic contribution:      4.87704      -1.94494       1.45214
Nuclear contribution   :     -6.64264       1.53371      -2.26671
                        -----------------------------------------
Total Dipole Moment    :     -1.76560      -0.41124      -0.81456
                        -----------------------------------------
Magnitude (a.u.)       :      1.98746
Magnitude (Debye)      :      5.05171

                             ****ORCA TERMINATED NORMALLY****
TOTAL RUN TIME: 0 days 0 hours 11 minutes 6 seconds 601 msec
