                         Program Version 3.0.3 - RELEASE   -
|  1> ! RI-MP2 RIJK def2-TZVP def2-TZVP/C def2-TZVP/JK TIGHTSCF
|  2> % maxcore 2000
|  3> % mp2 density relaxed end
|  4> *xyz 0 1
|  5>  O        0.2170309196     1.3891448473     0.1333528734
|  6>  C        0.0956546657    -0.0185814168     0.0220916120
|  7>  C       -1.3618291539    -0.4843889748     0.1299981696
|  8>  C       -1.4936845546    -2.0043478194     0.0507786322
|  9>  C       -2.8954339325    -2.6334460541    -0.0792647075
| 10>  O       -2.5331183272    -3.2010297427    -1.3801940312
| 11>  C       -1.2825495104    -2.6387715451    -1.3300517001
| 12>  O       -0.4301900463    -2.6837319238    -2.1585413991
| 13>  H       -0.1170991166     1.7805296164    -0.6797219395
| 14>  H        0.5413838180    -0.3974041233    -0.9079672861
| 15>  H        0.6771336641    -0.4352902534     0.8525780117
| 16>  H       -1.7800238809    -0.1243798645     1.0769130819
| 17>  H       -1.9512266047    -0.0227780263    -0.6739824489
| 18>  H       -0.8731153942    -2.4894463303     0.8110027688
| 19>  H       -3.1499009749    -3.4227180156     0.6303516021
| 20>  H       -3.7234465112    -1.9288463036    -0.1860999693
| 21> *
| 22>
| 23>                          ****END OF INPUT****

CARTESIAN COORDINATES (ANGSTROEM)
---------------------------------
  O      0.217031    1.389145    0.133353
  C      0.095655   -0.018581    0.022092
  C     -1.361829   -0.484389    0.129998
  C     -1.493685   -2.004348    0.050779
  C     -2.895434   -2.633446   -0.079265
  O     -2.533118   -3.201030   -1.380194
  C     -1.282550   -2.638772   -1.330052
  O     -0.430190   -2.683732   -2.158541
  H     -0.117099    1.780530   -0.679722
  H      0.541384   -0.397404   -0.907967
  H      0.677134   -0.435290    0.852578
  H     -1.780024   -0.124380    1.076913
  H     -1.951227   -0.022778   -0.673982
  H     -0.873115   -2.489446    0.811003
  H     -3.149901   -3.422718    0.630352
  H     -3.723447   -1.928846   -0.186100

 Total Charge           Charge          ....    0
 Multiplicity           Mult            ....    1
 Number of Electrons    NEL             ....   62
 Basis Dimension        Dim             ....  296

ORBITAL ENERGIES
----------------

  NO   OCC          E(Eh)            E(eV)
   0   2.0000     -20.607803      -560.7668
   1   2.0000     -20.564744      -559.5951
   2   2.0000     -20.558680      -559.4301
   3   2.0000     -11.388508      -309.8971
   4   2.0000     -11.315371      -307.9069
   5   2.0000     -11.286650      -307.1253
   6   2.0000     -11.275294      -306.8164
   7   2.0000     -11.252801      -306.2043
   8   2.0000      -1.469742       -39.9937
   9   2.0000      -1.385441       -37.6998
  10   2.0000      -1.369368       -37.2624
  11   2.0000      -1.103680       -30.0326
  12   2.0000      -0.993437       -27.0328
  13   2.0000      -0.919016       -25.0077
  14   2.0000      -0.860105       -23.4046
  15   2.0000      -0.753718       -20.5097
  16   2.0000      -0.718026       -19.5385
  17   2.0000      -0.703005       -19.1297
  18   2.0000      -0.692158       -18.8346
  19   2.0000      -0.681068       -18.5328
  20   2.0000      -0.626628       -17.0514
  21   2.0000      -0.606372       -16.5002
  22   2.0000      -0.589176       -16.0323
  23   2.0000      -0.574842       -15.6423
  24   2.0000      -0.549735       -14.9590
  25   2.0000      -0.531134       -14.4529
  26   2.0000      -0.527762       -14.3611
  27   2.0000      -0.494631       -13.4596
  28   2.0000      -0.468035       -12.7359
  29   2.0000      -0.451244       -12.2790
  30   2.0000      -0.440192       -11.9782
  31   0.0000       0.120345         3.2748
  32   0.0000       0.135119         3.6768
  33   0.0000       0.148377         4.0375
  34   0.0000       0.164278         4.4702
  35   0.0000       0.178893         4.8679

MULLIKEN ATOMIC CHARGES
-----------------------
   0 O :   -0.469992
   1 C :   -0.060475
   2 C :   -0.252197
   3 C :   -0.142243
   4 C :   -0.021989
   5 O :   -0.233788
   6 C :    0.251083
   7 O :   -0.269496
   8 H :    0.317458
   9 H :    0.142258
  10 H :    0.110482
  11 H :    0.131939
  12 H :    0.113678
  13 H :    0.137632
  14 H :    0.123602
  15 H :    0.122048
Sum of atomic charges:   -0.0000000

LOEWDIN ATOMIC CHARGES
----------------------
   0 O :   -0.046886
   1 C :   -0.344039
   2 C :   -0.255090
   3 C :   -0.209884
   4 C :   -0.212708
   5 O :    0.231966
   6 C :   -0.445731
   7 O :    0.152636
   8 H :    0.174866
   9 H :    0.125335
  10 H :    0.129728
  11 H :    0.144316
  12 H :    0.141149
  13 H :    0.163990
  14 H :    0.124112
  15 H :    0.126238

  Mayer bond orders larger than 0.1
B(  0-O ,  1-C ) :   0.9346 B(  0-O ,  8-H ) :   0.8474 B(  1-C ,  2-C ) :   0.9148
B(  1-C ,  9-H ) :   0.9411 B(  1-C , 10-H ) :   0.9235 B(  2-C ,  3-C ) :   0.8968
B(  2-C , 11-H ) :   0.9260 B(  2-C , 12-H ) :   0.9199 B(  3-C ,  4-C ) :   0.9379
B(  3-C ,  6-C ) :   0.9059 B(  3-C , 13-H ) :   0.9052 B(  4-C ,  5-O ) :   0.8881
B(  4-C , 14-H ) :   0.9189 B(  4-C , 15-H ) :   0.9171 B(  5-O ,  6-C ) :   1.0998
B(  6-C ,  7-O ) :   2.0183

MP2 TOTAL ENERGY:     -420.233099661 Eh
FINAL SINGLE POINT ENERGY      -420.233099661161

DIPOLE MOMENT
-------------
                                X             Y             Z
Electronic contribution:     -0.00210      -4.28758      -4.35201
Nuclear contribution   :     -0.82047       4.54180       5.23974
                        -----------------------------------------
Total Dipole Moment    :     -0.82257       0.25422       0.88773
                        -----------------------------------------
Magnitude (a.u.)       :      1.23666
Magnitude (Debye)      :      3.14333

                             ****ORCA TERMINATED NORMALLY****
TOTAL RUN TIME: 0 days 0 hours 15 minutes 59 seconds 544 msec
