                         Program Version 3.0.3 - RELEASE   -
|  1> ! RI-MP2 RIJK def2-TZVP def2-TZVP/C def2-TZVP/JK TIGHTSCF
|  2> % maxcore 2000
|  3> % mp2 density relaxed end
|  4> *xyz 0 1
|  5>  C        0.7044969958     1.3149055982    -0.4915723373
|  6>  C        0.0453406957     0.0684653545     0.0983628138
|  7>  O        0.0092101325    -1.0015962823    -0.8682248167
|  8>  C        1.1072135418    -1.8896560189    -0.6921932609
|  9>  C        2.1250429537    -1.8262817511    -1.8299511500
| 10>  C        1.7102104229    -1.5319206343     0.6682522018
| 11>  O        2.7433065422    -1.9549970464     1.1189334017
| 12>  C        0.7605528960    -0.5327368314     1.3246106099
| 13>  C        1.4335524361     0.3952643722     2.3295256748
| 14>  H        1.7744899435     1.1659875876    -0.6719954051
| 15>  H        0.2292020418     1.5567278313    -1.4457340748
| 16>  H        0.5907630323     2.1736108385     0.1776858637
| 17>  H       -1.0010794084     0.2968753331     0.3252022531
| 18>  H        0.7099059833    -2.9138977622    -0.6282172175
| 19>  H        2.5472043763    -0.8224380756    -1.9291727350
| 20>  H        2.9406860154    -2.5259946760    -1.6264698376
| 21>  H        1.6500928862    -2.0958503333    -2.7765054853
| 22>  H        0.0218770133    -1.1588593797     1.8485336622
| 23>  H        2.1623604820     1.0513830943     1.8465483164
| 24>  H        0.7011516557     1.0202196107     2.8488198187
| 25>  H        1.9714331717    -0.1997194594     3.0722537341
| 26> *
| 27>
| 28>                          ****END OF INPUT****

CARTESIAN COORDINATES (ANGSTROEM)
---------------------------------
  C      0.704497    1.314906   -0.491572
  C      0.045341    0.068465    0.098363
  O      0.009210   -1.001596   -0.868225
  C      1.107214   -1.889656   -0.692193
  C      2.125043   -1.826282   -1.829951
  C      1.710210   -1.531921    0.668252
  O      2.743307   -1.954997    1.118933
  C      0.760553   -0.532737    1.324611
  C      1.433552    0.395264    2.329526
  H      1.774490    1.165988   -0.671995
  H      0.229202    1.556728   -1.445734
  H      0.590763    2.173611    0.177686
  H     -1.001079    0.296875    0.325202
  H      0.709906   -2.913898   -0.628217
  H      2.547204   -0.822438   -1.929173
  H      2.940686   -2.525995   -1.626470
  H      1.650093   -2.095850   -2.776505
  H      0.021877   -1.158859    1.848534
  H      2.162360    1.051383    1.846548
  H      0.701152    1.020220    2.848820
  H      1.971433   -0.199719    3.072254

 Total Charge           Charge          ....    0
 Multiplicity           Mult            ....    1
 Number of Electrons    NEL             ....   70
 Basis Dimension        Dim             ....  351

ORBITAL ENERGIES
----------------

  NO   OCC          E(Eh)            E(eV)
   0   2.0000     -20.560985      -559.4928
   1   2.0000     -20.554282      -559.3105
   2   2.0000     -11.331626      -308.3492
   3   2.0000     -11.294221      -307.3314
   4   2.0000     -11.291732      -307.2637
   5   2.0000     -11.248023      -306.0743
   6   2.0000     -11.228134      -305.5331
   7   2.0000     -11.225510      -305.4616
   8   2.0000     -11.223387      -305.4039
   9   2.0000      -1.403744       -38.1978
  10   2.0000      -1.380341       -37.5610
  11   2.0000      -1.091730       -29.7075
  12   2.0000      -1.046176       -28.4679
  13   2.0000      -0.991296       -26.9745
  14   2.0000      -0.931291       -25.3417
  15   2.0000      -0.881323       -23.9820
  16   2.0000      -0.786537       -21.4028
  17   2.0000      -0.748579       -20.3699
  18   2.0000      -0.696400       -18.9500
  19   2.0000      -0.658454       -17.9174
  20   2.0000      -0.637140       -17.3375
  21   2.0000      -0.628177       -17.0936
  22   2.0000      -0.607839       -16.5401
  23   2.0000      -0.587741       -15.9932
  24   2.0000      -0.558659       -15.2019
  25   2.0000      -0.549914       -14.9639
  26   2.0000      -0.548440       -14.9238
  27   2.0000      -0.544470       -14.8158
  28   2.0000      -0.538048       -14.6410
  29   2.0000      -0.526708       -14.3325
  30   2.0000      -0.515257       -14.0209
  31   2.0000      -0.485104       -13.2003
  32   2.0000      -0.473410       -12.8821
  33   2.0000      -0.423567       -11.5259
  34   2.0000      -0.396564       -10.7911
  35   0.0000       0.112138         3.0514
  36   0.0000       0.146797         3.9945
  37   0.0000       0.151817         4.1312
  38   0.0000       0.165230         4.4961
  39   0.0000       0.177712         4.8358

MULLIKEN ATOMIC CHARGES
-----------------------
   0 C :   -0.447274
   1 C :    0.106976
   2 O :   -0.326055
   3 C :    0.144307
   4 C :   -0.407384
   5 C :    0.033406
   6 O :   -0.275245
   7 C :   -0.008148
   8 C :   -0.411173
   9 H :    0.130802
  10 H :    0.148513
  11 H :    0.135661
  12 H :    0.103008
  13 H :    0.112892
  14 H :    0.122920
  15 H :    0.142436
  16 H :    0.143969
  17 H :    0.118939
  18 H :    0.136726
  19 H :    0.140005
  20 H :    0.154718
Sum of atomic charges:    0.0000000

LOEWDIN ATOMIC CHARGES
----------------------
   0 C :   -0.293194
   1 C :   -0.299019
   2 O :    0.186004
   3 C :   -0.307042
   4 C :   -0.285038
   5 C :   -0.281077
   6 O :    0.166424
   7 C :   -0.232323
   8 C :   -0.281862
   9 H :    0.123478
  10 H :    0.130189
  11 H :    0.127375
  12 H :    0.143083
  13 H :    0.153939
  14 H :    0.123373
  15 H :    0.133709
  16 H :    0.127458
  17 H :    0.175732
  18 H :    0.128345
  19 H :    0.125999
  20 H :    0.134445

  Mayer bond orders larger than 0.1
B(  0-C ,  1-C ) :   0.8935 B(  0-C ,  9-H ) :   0.9330 B(  0-C , 10-H ) :   0.9377
B(  0-C , 11-H ) :   0.9286 B(  1-C ,  2-O ) :   0.9014 B(  1-C ,  7-C ) :   0.9367
B(  1-C , 12-H ) :   0.9183 B(  2-O ,  3-C ) :   0.9313 B(  3-C ,  4-C ) :   0.9081
B(  3-C ,  5-C ) :   0.8968 B(  3-C , 13-H ) :   0.8958 B(  4-C , 14-H ) :   0.9306
B(  4-C , 15-H ) :   0.9271 B(  4-C , 16-H ) :   0.9399 B(  5-C ,  6-O ) :   2.0259
B(  5-C ,  7-C ) :   0.8638 B(  7-C ,  8-C ) :   0.8956 B(  7-C , 17-H ) :   0.8840
B(  8-C , 18-H ) :   0.9305 B(  8-C , 19-H ) :   0.9431 B(  8-C , 20-H ) :   0.9286

MP2 TOTAL ENERGY:     -423.553786344 Eh
FINAL SINGLE POINT ENERGY      -423.553786344482

DIPOLE MOMENT
-------------
                                X             Y             Z
Electronic contribution:     -0.42241      -5.77406       1.01414
Nuclear contribution   :     -0.03478       6.27257      -0.95368
                        -----------------------------------------
Total Dipole Moment    :     -0.45719       0.49852       0.06046
                        -----------------------------------------
Magnitude (a.u.)       :      0.67911
Magnitude (Debye)      :      1.72617

                             ****ORCA TERMINATED NORMALLY****
TOTAL RUN TIME: 0 days 0 hours 19 minutes 49 seconds 386 msec
