                         Program Version 3.0.3 - RELEASE   -
|  1> ! RI-MP2 RIJK def2-TZVP def2-TZVP/C def2-TZVP/JK TIGHTSCF
|  2> % maxcore 2000
|  3> % mp2 density relaxed end
|  4> *xyz 0 1
|  5>  O        0.1837400337     0.0116176448     0.4387469319
|  6>  C        0.0567006807     1.1382131536     0.0124095167
|  7>  C       -1.2913096832     1.6716543488    -0.3388594332
|  8>  N       -1.7107888156     2.7925256805    -0.8074291117
|  9>  O       -0.8641587707     3.7192684521    -1.3639421116
| 10>  C        0.4407589035     3.3673384654    -1.7852740748
| 11>  O        0.7248877344     3.4779101159    -2.9325968957
| 12>  N        1.3438103998     3.0856776496    -0.7685365677
| 13>  C        1.2114314182     2.0952026673     0.0131554114
| 14>  H       -2.1017908927     1.0218740582    -0.0148996520
| 15>  H        1.9877861017     1.8936855838     0.7520478867
| 16> *
| 17>
| 18>                          ****END OF INPUT****

CARTESIAN COORDINATES (ANGSTROEM)
---------------------------------
  O      0.183740    0.011618    0.438747
  C      0.056701    1.138213    0.012410
  C     -1.291310    1.671654   -0.338859
  N     -1.710789    2.792526   -0.807429
  O     -0.864159    3.719268   -1.363942
  C      0.440759    3.367338   -1.785274
  O      0.724888    3.477910   -2.932597
  N      1.343810    3.085678   -0.768537
  C      1.211431    2.095203    0.013155
  H     -2.101791    1.021874   -0.014900
  H      1.987786    1.893686    0.752048

 Total Charge           Charge          ....    0
 Multiplicity           Mult            ....    1
 Number of Electrons    NEL             ....   64
 Basis Dimension        Dim             ....  291

ORBITAL ENERGIES
----------------

  NO   OCC          E(Eh)            E(eV)
   0   2.0000     -20.667551      -562.3927
   1   2.0000     -20.624249      -561.2144
   2   2.0000     -20.595318      -560.4271
   3   2.0000     -15.708724      -427.4561
   4   2.0000     -15.647312      -425.7850
   5   2.0000     -11.450557      -311.5855
   6   2.0000     -11.405097      -310.3485
   7   2.0000     -11.366329      -309.2935
   8   2.0000     -11.334411      -308.4250
   9   2.0000      -1.528117       -41.5822
  10   2.0000      -1.461751       -39.7763
  11   2.0000      -1.440527       -39.1987
  12   2.0000      -1.314655       -35.7736
  13   2.0000      -1.224897       -33.3312
  14   2.0000      -1.018556       -27.7163
  15   2.0000      -0.986905       -26.8550
  16   2.0000      -0.859521       -23.3888
  17   2.0000      -0.846206       -23.0264
  18   2.0000      -0.758458       -20.6387
  19   2.0000      -0.727702       -19.8018
  20   2.0000      -0.711055       -19.3488
  21   2.0000      -0.692906       -18.8549
  22   2.0000      -0.667956       -18.1760
  23   2.0000      -0.631475       -17.1833
  24   2.0000      -0.617271       -16.7968
  25   2.0000      -0.582286       -15.8448
  26   2.0000      -0.575960       -15.6727
  27   2.0000      -0.536696       -14.6043
  28   2.0000      -0.504424       -13.7261
  29   2.0000      -0.479617       -13.0510
  30   2.0000      -0.466515       -12.6945
  31   2.0000      -0.447548       -12.1784
  32   0.0000      -0.000781        -0.0212
  33   0.0000       0.062955         1.7131
  34   0.0000       0.130156         3.5417
  35   0.0000       0.157784         4.2935
  36   0.0000       0.162934         4.4337

MULLIKEN ATOMIC CHARGES
-----------------------
   0 O :   -0.247828
   1 C :    0.235145
   2 C :   -0.118108
   3 N :   -0.014520
   4 O :   -0.137464
   5 C :    0.302640
   6 O :   -0.197157
   7 N :   -0.138228
   8 C :   -0.036452
   9 H :    0.176890
  10 H :    0.175081
Sum of atomic charges:    0.0000000

LOEWDIN ATOMIC CHARGES
----------------------
   0 O :    0.198782
   1 C :   -0.333682
   2 C :   -0.220151
   3 N :    0.082769
   4 O :    0.196887
   5 C :   -0.524961
   6 O :    0.209741
   7 N :    0.203977
   8 C :   -0.135869
   9 H :    0.166340
  10 H :    0.156168

  Mayer bond orders larger than 0.1
B(  0-O ,  1-C ) :   1.8646 B(  1-C ,  2-C ) :   0.9539 B(  1-C ,  8-C ) :   0.9385
B(  2-C ,  3-N ) :   1.7201 B(  2-C ,  9-H ) :   0.9074 B(  3-N ,  4-O ) :   0.8493
B(  4-O ,  5-C ) :   0.9659 B(  5-C ,  6-O ) :   2.0836 B(  5-C ,  7-N ) :   1.0420
B(  7-N ,  8-C ) :   1.7538 B(  8-C , 10-H ) :   0.9043

MP2 TOTAL ENERGY:     -487.863143786 Eh
FINAL SINGLE POINT ENERGY      -487.863143786112

DIPOLE MOMENT
-------------
                                X             Y             Z
Electronic contribution:      0.23780       1.30248      -1.34721
Nuclear contribution   :     -0.11555      -1.72200       2.28464
                        -----------------------------------------
Total Dipole Moment    :      0.12225      -0.41952       0.93743
                        -----------------------------------------
Magnitude (a.u.)       :      1.03427
Magnitude (Debye)      :      2.62892

                             ****ORCA TERMINATED NORMALLY****
TOTAL RUN TIME: 0 days 0 hours 14 minutes 6 seconds 944 msec
