                         Program Version 3.0.3 - RELEASE   -
|  1> ! RI-MP2 RIJK def2-TZVP def2-TZVP/C def2-TZVP/JK TIGHTSCF
|  2> % maxcore 2000
|  3> % mp2 density relaxed end
|  4> *xyz 0 1
|  5>  C       -0.0500536666     1.5217592014     0.0441468926
|  6>  C       -0.0165349067     0.0149315221     0.0757177982
|  7>  C       -1.2386471262    -0.6917583837    -0.4980454543
|  8>  O       -1.0806441041    -2.0952966510    -0.5833489879
|  9>  C       -0.7714623346    -2.7339757609     0.6217559307
| 10>  C        0.5997915661    -3.3357948418     0.7307132652
| 11>  C        0.2571762967    -2.0847138583     1.5121280550
| 12>  C        0.7535529579    -0.7355756103     1.0801583113
| 13>  O        1.2347820112    -0.6003107255    -0.2636520468
| 14>  H        0.8512695060     1.9345097483     0.5039188081
| 15>  H       -0.1050159226     1.8875495375    -0.9873330135
| 16>  H       -0.9230760089     1.9051106550     0.5835863957
| 17>  H       -2.1190221293    -0.4175694827     0.1081003816
| 18>  H       -1.4223765109    -0.3551375381    -1.5239692149
| 19>  H       -1.6167317233    -3.2468752006     1.0779627659
| 20>  H        0.7226458510    -4.2635805381     1.2776978357
| 21>  H        1.2384085209    -3.2043246139    -0.1345014892
| 22>  H        0.1246768322    -2.1835719959     2.5850530945
| 23>  H        1.3358739512    -0.1838642334     1.8185083519
| 24> *
| 25>
| 26>                          ****END OF INPUT****

CARTESIAN COORDINATES (ANGSTROEM)
---------------------------------
  C     -0.050054    1.521759    0.044147
  C     -0.016535    0.014932    0.075718
  C     -1.238647   -0.691758   -0.498045
  O     -1.080644   -2.095297   -0.583349
  C     -0.771462   -2.733976    0.621756
  C      0.599792   -3.335795    0.730713
  C      0.257176   -2.084714    1.512128
  C      0.753553   -0.735576    1.080158
  O      1.234782   -0.600311   -0.263652
  H      0.851270    1.934510    0.503919
  H     -0.105016    1.887550   -0.987333
  H     -0.923076    1.905111    0.583586
  H     -2.119022   -0.417569    0.108100
  H     -1.422377   -0.355138   -1.523969
  H     -1.616732   -3.246875    1.077963
  H      0.722646   -4.263581    1.277698
  H      1.238409   -3.204325   -0.134501
  H      0.124677   -2.183572    2.585053
  H      1.335874   -0.183864    1.818508

 Total Charge           Charge          ....    0
 Multiplicity           Mult            ....    1
 Number of Electrons    NEL             ....   68
 Basis Dimension        Dim             ....  339

ORBITAL ENERGIES
----------------

  NO   OCC          E(Eh)            E(eV)
   0   2.0000     -20.562065      -559.5222
   1   2.0000     -20.559497      -559.4523
   2   2.0000     -11.289858      -307.2127
   3   2.0000     -11.287329      -307.1438
   4   2.0000     -11.282904      -307.0234
   5   2.0000     -11.281700      -306.9907
   6   2.0000     -11.238989      -305.8284
   7   2.0000     -11.229889      -305.5808
   8   2.0000     -11.225253      -305.4547
   9   2.0000      -1.417149       -38.5626
  10   2.0000      -1.376534       -37.4574
  11   2.0000      -1.139103       -30.9966
  12   2.0000      -1.038761       -28.2661
  13   2.0000      -0.955202       -25.9924
  14   2.0000      -0.922726       -25.1087
  15   2.0000      -0.829971       -22.5847
  16   2.0000      -0.807036       -21.9606
  17   2.0000      -0.744703       -20.2644
  18   2.0000      -0.711702       -19.3664
  19   2.0000      -0.677586       -18.4381
  20   2.0000      -0.653079       -17.7712
  21   2.0000      -0.630481       -17.1563
  22   2.0000      -0.602273       -16.3887
  23   2.0000      -0.590636       -16.0720
  24   2.0000      -0.565922       -15.3995
  25   2.0000      -0.560721       -15.2580
  26   2.0000      -0.530419       -14.4334
  27   2.0000      -0.520539       -14.1646
  28   2.0000      -0.510079       -13.8799
  29   2.0000      -0.488153       -13.2833
  30   2.0000      -0.441687       -12.0189
  31   2.0000      -0.439832       -11.9684
  32   2.0000      -0.400996       -10.9117
  33   2.0000      -0.377729       -10.2785
  34   0.0000       0.136357         3.7105
  35   0.0000       0.155845         4.2408
  36   0.0000       0.168569         4.5870
  37   0.0000       0.177316         4.8250
  38   0.0000       0.190327         5.1791

MULLIKEN ATOMIC CHARGES
-----------------------
   0 C :   -0.434939
   1 C :    0.159528
   2 C :   -0.025849
   3 O :   -0.299987
   4 C :    0.045366
   5 C :   -0.293429
   6 C :   -0.096821
   7 C :   -0.006119
   8 O :   -0.333639
   9 H :    0.144322
  10 H :    0.140983
  11 H :    0.133881
  12 H :    0.096819
  13 H :    0.123106
  14 H :    0.109068
  15 H :    0.131618
  16 H :    0.159263
  17 H :    0.125486
  18 H :    0.121344
Sum of atomic charges:   -0.0000000

LOEWDIN ATOMIC CHARGES
----------------------
   0 C :   -0.265913
   1 C :   -0.331918
   2 C :   -0.267396
   3 O :    0.200750
   4 C :   -0.281403
   5 C :   -0.193742
   6 C :   -0.196540
   7 C :   -0.228080
   8 O :    0.191574
   9 H :    0.134269
  10 H :    0.131963
  11 H :    0.132112
  12 H :    0.129406
  13 H :    0.138306
  14 H :    0.132827
  15 H :    0.132931
  16 H :    0.147386
  17 H :    0.152177
  18 H :    0.141292

  Mayer bond orders larger than 0.1
B(  0-C ,  1-C ) :   0.8864 B(  0-C ,  9-H ) :   0.9374 B(  0-C , 10-H ) :   0.9394
B(  0-C , 11-H ) :   0.9299 B(  1-C ,  2-C ) :   0.9282 B(  1-C ,  7-C ) :   0.9696
B(  1-C ,  8-O ) :   0.8895 B(  2-C ,  3-O ) :   0.9445 B(  2-C , 12-H ) :   0.9273
B(  2-C , 13-H ) :   0.9192 B(  3-O ,  4-C ) :   0.9884 B(  4-C ,  5-C ) :   0.8794
B(  4-C ,  6-C ) :   0.8866 B(  4-C , 14-H ) :   0.9467 B(  5-C ,  6-C ) :   0.8833
B(  5-C , 15-H ) :   0.9246 B(  5-C , 16-H ) :   0.9118 B(  6-C ,  7-C ) :   0.9032
B(  6-C , 17-H ) :   0.9163 B(  7-C ,  8-O ) :   0.8852 B(  7-C , 18-H ) :   0.9207

MP2 TOTAL ENERGY:     -422.289294505 Eh
FINAL SINGLE POINT ENERGY      -422.289294504598

DIPOLE MOMENT
-------------
                                X             Y             Z
Electronic contribution:      0.98677      -2.92096      -1.51669
Nuclear contribution   :     -1.41516       3.37213       2.38420
                        -----------------------------------------
Total Dipole Moment    :     -0.42839       0.45117       0.86750
                        -----------------------------------------
Magnitude (a.u.)       :      1.06754
Magnitude (Debye)      :      2.71347

                             ****ORCA TERMINATED NORMALLY****
TOTAL RUN TIME: 0 days 0 hours 17 minutes 36 seconds 341 msec
