                         Program Version 3.0.3 - RELEASE   -
|  1> ! RI-MP2 RIJK def2-TZVP def2-TZVP/C def2-TZVP/JK TIGHTSCF
|  2> % maxcore 2000
|  3> % mp2 density relaxed end
|  4> *xyz 0 1
|  5>  C       -0.0274997294     1.5311563308     0.0226675751
|  6>  C        0.0030849865     0.0123579934     0.0106124183
|  7>  C        0.7063914472    -0.7127511076    -1.1798457665
|  8>  C        0.3997743650    -2.1353715789    -0.6143734561
|  9>  C        0.8736591773    -3.3480037770    -1.3971794695
| 10>  C        1.0132685230    -1.9337926867     0.7924395546
| 11>  C        0.7808936579    -0.6756817289     1.1585443501
| 12>  C       -1.1306244801    -1.9670799108    -0.4539023596
| 13>  C       -1.3630022072    -0.7089701483    -0.0878095519
| 14>  H        0.9854896119     1.9472545038     0.0281963505
| 15>  H       -0.5471433536     1.9234538918    -0.8578877480
| 16>  H       -0.5465486291     1.9103255455     0.9103132316
| 17>  H        0.2222883838    -0.5218365625    -2.1432755105
| 18>  H        1.7784306270    -0.4976174381    -1.2385880894
| 19>  H        1.9629877528    -3.3453304567    -1.5097268141
| 20>  H        0.5947719443    -4.2798180141    -0.8921644685
| 21>  H        0.4323334925    -3.3692845377    -2.3992218758
| 22>  H        1.4942324892    -2.7226593445     1.3573988440
| 23>  H        1.0263671634    -0.1894151681     2.0945483512
| 24>  H       -1.8410323354    -2.7744279087    -0.5816697930
| 25>  H       -2.3089314469    -0.2411790566     0.1555045276
| 26> *
| 27>
| 28>                          ****END OF INPUT****

CARTESIAN COORDINATES (ANGSTROEM)
---------------------------------
  C     -0.027500    1.531156    0.022668
  C      0.003085    0.012358    0.010612
  C      0.706391   -0.712751   -1.179846
  C      0.399774   -2.135372   -0.614373
  C      0.873659   -3.348004   -1.397179
  C      1.013269   -1.933793    0.792440
  C      0.780894   -0.675682    1.158544
  C     -1.130624   -1.967080   -0.453902
  C     -1.363002   -0.708970   -0.087810
  H      0.985490    1.947255    0.028196
  H     -0.547143    1.923454   -0.857888
  H     -0.546549    1.910326    0.910313
  H      0.222288   -0.521837   -2.143276
  H      1.778431   -0.497617   -1.238588
  H      1.962988   -3.345330   -1.509727
  H      0.594772   -4.279818   -0.892164
  H      0.432333   -3.369285   -2.399222
  H      1.494232   -2.722659    1.357399
  H      1.026367   -0.189415    2.094548
  H     -1.841032   -2.774428   -0.581670
  H     -2.308931   -0.241179    0.155505

 Total Charge           Charge          ....    0
 Multiplicity           Mult            ....    1
 Number of Electrons    NEL             ....   66
 Basis Dimension        Dim             ....  351

ORBITAL ENERGIES
----------------

  NO   OCC          E(Eh)            E(eV)
   0   2.0000     -11.240434      -305.8677
   1   2.0000     -11.240423      -305.8675
   2   2.0000     -11.219081      -305.2867
   3   2.0000     -11.217785      -305.2514
   4   2.0000     -11.217762      -305.2508
   5   2.0000     -11.216016      -305.2033
   6   2.0000     -11.216005      -305.2030
   7   2.0000     -11.214725      -305.1682
   8   2.0000     -11.214724      -305.1682
   9   2.0000      -1.185825       -32.2679
  10   2.0000      -1.030082       -28.0300
  11   2.0000      -1.013403       -27.5761
  12   2.0000      -0.972451       -26.4617
  13   2.0000      -0.924755       -25.1639
  14   2.0000      -0.853042       -23.2125
  15   2.0000      -0.764673       -20.8078
  16   2.0000      -0.751226       -20.4419
  17   2.0000      -0.675619       -18.3845
  18   2.0000      -0.657626       -17.8949
  19   2.0000      -0.650374       -17.6976
  20   2.0000      -0.601478       -16.3670
  21   2.0000      -0.568210       -15.4618
  22   2.0000      -0.565395       -15.3852
  23   2.0000      -0.559830       -15.2338
  24   2.0000      -0.531509       -14.4631
  25   2.0000      -0.513714       -13.9789
  26   2.0000      -0.497910       -13.5488
  27   2.0000      -0.487323       -13.2607
  28   2.0000      -0.474936       -12.9237
  29   2.0000      -0.438540       -11.9333
  30   2.0000      -0.431937       -11.7536
  31   2.0000      -0.358839        -9.7645
  32   2.0000      -0.317847        -8.6491
  33   0.0000       0.121048         3.2939
  34   0.0000       0.142837         3.8868
  35   0.0000       0.147700         4.0191
  36   0.0000       0.184360         5.0167
  37   0.0000       0.186385         5.0718

MULLIKEN ATOMIC CHARGES
-----------------------
   0 C :   -0.436705
   1 C :    0.231966
   2 C :   -0.232884
   3 C :    0.231962
   4 C :   -0.436703
   5 C :   -0.225324
   6 C :   -0.225283
   7 C :   -0.225308
   8 C :   -0.225356
   9 H :    0.137011
  10 H :    0.137020
  11 H :    0.134536
  12 H :    0.112034
  13 H :    0.112033
  14 H :    0.137015
  15 H :    0.134535
  16 H :    0.137016
  17 H :    0.125607
  18 H :    0.125601
  19 H :    0.125611
  20 H :    0.125617
Sum of atomic charges:    0.0000000

LOEWDIN ATOMIC CHARGES
----------------------
   0 C :   -0.272401
   1 C :   -0.237056
   2 C :   -0.138097
   3 C :   -0.237056
   4 C :   -0.272401
   5 C :   -0.107127
   6 C :   -0.107127
   7 C :   -0.107129
   8 C :   -0.107128
   9 H :    0.127929
  10 H :    0.127923
  11 H :    0.127518
  12 H :    0.136483
  13 H :    0.136479
  14 H :    0.127926
  15 H :    0.127518
  16 H :    0.127926
  17 H :    0.136455
  18 H :    0.136454
  19 H :    0.136455
  20 H :    0.136456

  Mayer bond orders larger than 0.1
B(  0-C ,  1-C ) :   0.8289 B(  0-C ,  9-H ) :   0.9500 B(  0-C , 10-H ) :   0.9500
B(  0-C , 11-H ) :   0.9444 B(  1-C ,  2-C ) :   0.9192 B(  1-C ,  6-C ) :   0.8972
B(  1-C ,  8-C ) :   0.8971 B(  2-C ,  3-C ) :   0.9192 B(  2-C , 12-H ) :   0.9114
B(  2-C , 13-H ) :   0.9114 B(  3-C ,  4-C ) :   0.8289 B(  3-C ,  5-C ) :   0.8971
B(  3-C ,  7-C ) :   0.8971 B(  4-C , 14-H ) :   0.9500 B(  4-C , 15-H ) :   0.9444
B(  4-C , 16-H ) :   0.9500 B(  5-C ,  6-C ) :   1.7859 B(  5-C , 17-H ) :   0.9348
B(  6-C , 18-H ) :   0.9348 B(  7-C ,  8-C ) :   1.7859 B(  7-C , 19-H ) :   0.9348
B(  8-C , 20-H ) :   0.9348

MP2 TOTAL ENERGY:     -349.304756519 Eh
FINAL SINGLE POINT ENERGY      -349.304756519415

DIPOLE MOMENT
-------------
                                X             Y             Z
Electronic contribution:     -1.31625      -0.90907       2.28848
Nuclear contribution   :      1.33201       0.91997      -2.31594
                        -----------------------------------------
Total Dipole Moment    :      0.01575       0.01090      -0.02746
                        -----------------------------------------
Magnitude (a.u.)       :      0.03348
Magnitude (Debye)      :      0.08511

                             ****ORCA TERMINATED NORMALLY****
TOTAL RUN TIME: 0 days 0 hours 19 minutes 58 seconds 162 msec
