                         Program Version 3.0.3 - RELEASE   -
|  1> ! RI-MP2 RIJK def2-TZVP def2-TZVP/C def2-TZVP/JK TIGHTSCF
|  2> % maxcore 2000
|  3> % mp2 density relaxed end
|  4> *xyz 0 1
|  5>  N       -0.2004674568     1.3451219916    -0.3373210476
|  6>  C       -0.1180479509    -0.0206010431    -0.0956138081
|  7>  C       -1.0970424698    -1.0057710278     0.0025892950
|  8>  C       -2.5849971491    -0.7830728887    -0.0252312289
|  9>  C       -2.9559032774    -0.2029955258    -1.3770485839
| 10>  O       -2.9659828213     0.9829117866    -1.6123330665
| 11>  C       -0.3648191280    -2.2053303567     0.1673974382
| 12>  N        0.9446390483    -2.0051120830     0.1935929866
| 13>  N        1.0699846423    -0.6630781646     0.0217567671
| 14>  H        0.2501195110     1.9278001214     0.3565349489
| 15>  H       -1.1497496830     1.6501575405    -0.5191845524
| 16>  H       -3.1066697288    -1.7317402350     0.1340610377
| 17>  H       -2.9024323116    -0.0732865023     0.7481897265
| 18>  H       -3.1644833398    -0.9421923030    -2.1800388218
| 19>  H       -0.7570064565    -3.2057247129     0.2888986274
| 20>  H        1.9876352815    -0.2593109171    -0.0600825981
| 21> *
| 22>
| 23>                          ****END OF INPUT****

CARTESIAN COORDINATES (ANGSTROEM)
---------------------------------
  N     -0.200467    1.345122   -0.337321
  C     -0.118048   -0.020601   -0.095614
  C     -1.097042   -1.005771    0.002589
  C     -2.584997   -0.783073   -0.025231
  C     -2.955903   -0.202996   -1.377049
  O     -2.965983    0.982912   -1.612333
  C     -0.364819   -2.205330    0.167397
  N      0.944639   -2.005112    0.193593
  N      1.069985   -0.663078    0.021757
  H      0.250120    1.927800    0.356535
  H     -1.149750    1.650158   -0.519185
  H     -3.106670   -1.731740    0.134061
  H     -2.902432   -0.073287    0.748190
  H     -3.164483   -0.942192   -2.180039
  H     -0.757006   -3.205725    0.288899
  H      1.987635   -0.259311   -0.060083

 Total Charge           Charge          ....    0
 Multiplicity           Mult            ....    1
 Number of Electrons    NEL             ....   66
 Basis Dimension        Dim             ....  321

ORBITAL ENERGIES
----------------

  NO   OCC          E(Eh)            E(eV)
   0   2.0000     -20.565285      -559.6099
   1   2.0000     -15.629386      -425.2972
   2   2.0000     -15.578850      -423.9221
   3   2.0000     -15.577298      -423.8798
   4   2.0000     -11.342672      -308.6498
   5   2.0000     -11.318368      -307.9884
   6   2.0000     -11.256318      -306.3000
   7   2.0000     -11.255937      -306.2896
   8   2.0000     -11.227278      -305.5098
   9   2.0000      -1.404985       -38.2316
  10   2.0000      -1.372398       -37.3449
  11   2.0000      -1.224128       -33.3102
  12   2.0000      -1.100865       -29.9561
  13   2.0000      -1.068966       -29.0880
  14   2.0000      -0.985118       -26.8064
  15   2.0000      -0.829284       -22.5660
  16   2.0000      -0.818935       -22.2844
  17   2.0000      -0.776549       -21.1310
  18   2.0000      -0.740661       -20.1544
  19   2.0000      -0.689429       -18.7603
  20   2.0000      -0.678313       -18.4578
  21   2.0000      -0.636422       -17.3179
  22   2.0000      -0.631111       -17.1734
  23   2.0000      -0.609123       -16.5751
  24   2.0000      -0.598616       -16.2892
  25   2.0000      -0.581036       -15.8108
  26   2.0000      -0.550735       -14.9863
  27   2.0000      -0.516674       -14.0594
  28   2.0000      -0.479178       -13.0391
  29   2.0000      -0.456477       -12.4214
  30   2.0000      -0.432901       -11.7798
  31   2.0000      -0.364895        -9.9293
  32   2.0000      -0.315268        -8.5789
  33   0.0000       0.120135         3.2691
  34   0.0000       0.126713         3.4480
  35   0.0000       0.144112         3.9215
  36   0.0000       0.153921         4.1884
  37   0.0000       0.165576         4.5056

MULLIKEN ATOMIC CHARGES
-----------------------
   0 N :   -0.526614
   1 C :    0.116062
   2 C :   -0.018911
   3 C :   -0.206912
   4 C :    0.148389
   5 O :   -0.301749
   6 C :   -0.136635
   7 N :   -0.217065
   8 N :   -0.122569
   9 H :    0.252231
  10 H :    0.267204
  11 H :    0.135700
  12 H :    0.138226
  13 H :    0.094135
  14 H :    0.127431
  15 H :    0.251077
Sum of atomic charges:    0.0000000

LOEWDIN ATOMIC CHARGES
----------------------
   0 N :   -0.078074
   1 C :   -0.315093
   2 C :   -0.197102
   3 C :   -0.229580
   4 C :   -0.275501
   5 O :    0.116755
   6 C :   -0.265877
   7 N :    0.016791
   8 N :    0.140223
   9 H :    0.169240
  10 H :    0.174524
  11 H :    0.153858
  12 H :    0.152861
  13 H :    0.114587
  14 H :    0.134640
  15 H :    0.187748

  Mayer bond orders larger than 0.1
B(  0-N ,  1-C ) :   1.0891 B(  0-N ,  9-H ) :   0.8685 B(  0-N , 10-H ) :   0.8556
B(  1-C ,  2-C ) :   1.3504 B(  1-C ,  7-N ) :   0.1177 B(  1-C ,  8-N ) :   1.2274
B(  2-C ,  3-C ) :   0.8735 B(  2-C ,  6-C ) :   1.2632 B(  3-C ,  4-C ) :   0.8797
B(  3-C , 11-H ) :   0.9251 B(  3-C , 12-H ) :   0.9116 B(  4-C ,  5-O ) :   1.9107
B(  4-C , 13-H ) :   0.9275 B(  6-C ,  7-N ) :   1.5751 B(  6-C , 14-H ) :   0.9453
B(  7-N ,  8-N ) :   1.0178 B(  8-N , 15-H ) :   0.8711

MP2 TOTAL ENERGY:     -433.370584994 Eh
FINAL SINGLE POINT ENERGY      -433.370584993509

DIPOLE MOMENT
-------------
                                X             Y             Z
Electronic contribution:      1.97947      -0.15501      -0.66197
Nuclear contribution   :     -2.18726       0.49528       1.17692
                        -----------------------------------------
Total Dipole Moment    :     -0.20778       0.34027       0.51495
                        -----------------------------------------
Magnitude (a.u.)       :      0.65125
Magnitude (Debye)      :      1.65535

                             ****ORCA TERMINATED NORMALLY****
TOTAL RUN TIME: 0 days 0 hours 17 minutes 41 seconds 527 msec
