                         Program Version 3.0.3 - RELEASE   -
|  1> ! RI-MP2 RIJK def2-TZVP def2-TZVP/C def2-TZVP/JK TIGHTSCF
|  2> % maxcore 2000
|  3> % mp2 density relaxed end
|  4> *xyz 0 1
|  5>  C       -0.0296690177     1.5323158059    -0.0163371996
|  6>  C        1.5317737006     1.5281155761     0.0077256560
|  7>  C        1.4202879572     0.1014498226     0.6329159976
|  8>  C       -0.0077508121    -0.0288515099     0.0145137716
|  9>  C       -0.0128417420    -0.6548903927    -1.3536868361
| 10>  C        0.7851412222    -0.3112778378    -2.3785406635
| 11>  C        1.8126391466     0.7279465565    -2.3830901156
| 12>  C        2.1516831503     1.5342749090    -1.3632590709
| 13>  H       -0.4268539377     1.9291177841     0.9208841297
| 14>  H       -0.5213812412     2.0148388974    -0.8627624071
| 15>  H        1.9999405822     2.2878770039     0.6366297402
| 16>  H        2.1674541132    -0.6386274845     0.3412399123
| 17>  H        1.3626284125     0.1632304081     1.7221595029
| 18>  H       -0.7594450671    -0.5027543478     0.6487933764
| 19>  H       -0.7300136377    -1.4553194818    -1.5158571782
| 20>  H        0.6682176842    -0.8540131728    -3.3134021268
| 21>  H        2.3498805885     0.8469094808    -3.3208630508
| 22>  H        2.9431535880     2.2597938529    -1.5321331482
| 23> *
| 24>
| 25>                          ****END OF INPUT****

CARTESIAN COORDINATES (ANGSTROEM)
---------------------------------
  C     -0.029669    1.532316   -0.016337
  C      1.531774    1.528116    0.007726
  C      1.420288    0.101450    0.632916
  C     -0.007751   -0.028852    0.014514
  C     -0.012842   -0.654890   -1.353687
  C      0.785141   -0.311278   -2.378541
  C      1.812639    0.727947   -2.383090
  C      2.151683    1.534275   -1.363259
  H     -0.426854    1.929118    0.920884
  H     -0.521381    2.014839   -0.862762
  H      1.999941    2.287877    0.636630
  H      2.167454   -0.638627    0.341240
  H      1.362628    0.163230    1.722160
  H     -0.759445   -0.502754    0.648793
  H     -0.730014   -1.455319   -1.515857
  H      0.668218   -0.854013   -3.313402
  H      2.349881    0.846909   -3.320863
  H      2.943154    2.259794   -1.532133

 Total Charge           Charge          ....    0
 Multiplicity           Mult            ....    1
 Number of Electrons    NEL             ....   58
 Basis Dimension        Dim             ....  308

ORBITAL ENERGIES
----------------

  NO   OCC          E(Eh)            E(eV)
   0   2.0000     -11.230547      -305.5987
   1   2.0000     -11.230515      -305.5978
   2   2.0000     -11.226904      -305.4996
   3   2.0000     -11.226893      -305.4993
   4   2.0000     -11.222562      -305.3814
   5   2.0000     -11.222531      -305.3806
   6   2.0000     -11.222515      -305.3801
   7   2.0000     -11.221713      -305.3583
   8   2.0000      -1.156656       -31.4742
   9   2.0000      -1.058290       -28.7975
  10   2.0000      -1.023819       -27.8595
  11   2.0000      -0.894669       -24.3452
  12   2.0000      -0.877119       -23.8676
  13   2.0000      -0.855154       -23.2699
  14   2.0000      -0.718290       -19.5457
  15   2.0000      -0.696148       -18.9431
  16   2.0000      -0.669738       -18.2245
  17   2.0000      -0.639458       -17.4005
  18   2.0000      -0.606936       -16.5156
  19   2.0000      -0.594319       -16.1722
  20   2.0000      -0.550737       -14.9863
  21   2.0000      -0.516161       -14.0455
  22   2.0000      -0.508423       -13.8349
  23   2.0000      -0.496308       -13.5052
  24   2.0000      -0.456707       -12.4276
  25   2.0000      -0.450756       -12.2657
  26   2.0000      -0.430485       -11.7141
  27   2.0000      -0.401519       -10.9259
  28   2.0000      -0.298342        -8.1183
  29   0.0000       0.096126         2.6157
  30   0.0000       0.139553         3.7974
  31   0.0000       0.166067         4.5189
  32   0.0000       0.168172         4.5762
  33   0.0000       0.186989         5.0882

MULLIKEN ATOMIC CHARGES
-----------------------
   0 C :   -0.281156
   1 C :    0.083077
   2 C :   -0.281158
   3 C :    0.083077
   4 C :   -0.286218
   5 C :   -0.108130
   6 C :   -0.108130
   7 C :   -0.286219
   8 H :    0.122236
   9 H :    0.126780
  10 H :    0.109897
  11 H :    0.126780
  12 H :    0.122237
  13 H :    0.109897
  14 H :    0.115326
  15 H :    0.118189
  16 H :    0.118189
  17 H :    0.115326
Sum of atomic charges:   -0.0000000

LOEWDIN ATOMIC CHARGES
----------------------
   0 C :   -0.182597
   1 C :   -0.210261
   2 C :   -0.182599
   3 C :   -0.210261
   4 C :   -0.139533
   5 C :   -0.169804
   6 C :   -0.169804
   7 C :   -0.139533
   8 H :    0.137722
   9 H :    0.132266
  10 H :    0.140793
  11 H :    0.132266
  12 H :    0.137722
  13 H :    0.140793
  14 H :    0.143905
  15 H :    0.147510
  16 H :    0.147510
  17 H :    0.143905

  Mayer bond orders larger than 0.1
B(  0-C ,  1-C ) :   0.8891 B(  0-C ,  3-C ) :   0.8892 B(  0-C ,  8-H ) :   0.9240
B(  0-C ,  9-H ) :   0.9234 B(  1-C ,  2-C ) :   0.8892 B(  1-C ,  7-C ) :   0.9149
B(  1-C , 10-H ) :   0.9301 B(  2-C ,  3-C ) :   0.8891 B(  2-C , 11-H ) :   0.9234
B(  2-C , 12-H ) :   0.9240 B(  3-C ,  4-C ) :   0.9149 B(  3-C , 13-H ) :   0.9301
B(  4-C ,  5-C ) :   1.7331 B(  4-C , 14-H ) :   0.9313 B(  5-C ,  6-C ) :   0.9918
B(  5-C , 15-H ) :   0.9276 B(  6-C ,  7-C ) :   1.7331 B(  6-C , 16-H ) :   0.9276
B(  7-C , 17-H ) :   0.9313

MP2 TOTAL ENERGY:     -310.078660623 Eh
FINAL SINGLE POINT ENERGY      -310.078660623484

DIPOLE MOMENT
-------------
                                X             Y             Z
Electronic contribution:      0.38108      -0.38422      -1.69782
Nuclear contribution   :     -0.43347       0.43703       1.93119
                        -----------------------------------------
Total Dipole Moment    :     -0.05238       0.05281       0.23337
                        -----------------------------------------
Magnitude (a.u.)       :      0.24493
Magnitude (Debye)      :      0.62258

                             ****ORCA TERMINATED NORMALLY****
TOTAL RUN TIME: 0 days 0 hours 14 minutes 25 seconds 816 msec
