                         Program Version 3.0.3 - RELEASE   -
|  1> ! RI-MP2 RIJK def2-TZVP def2-TZVP/C def2-TZVP/JK TIGHTSCF
|  2> % maxcore 2000
|  3> % mp2 density relaxed end
|  4> *xyz 0 1
|  5>  C       -0.0364581600     1.5383451987     0.0094082116
|  6>  C       -0.0250359763     0.0291849697    -0.0109660266
|  7>  C       -0.0403542921    -0.6808769334    -1.2097618475
|  8>  C       -0.0050833071    -2.0728503403    -1.2074127955
|  9>  C        0.0439963895    -2.8006868310    -0.0193929633
| 10>  C        0.0781670448    -4.3086494945    -0.0475584543
| 11>  C        0.0562513748    -2.0962728712     1.2003346415
| 12>  C        0.1033854431    -2.8329604986     2.5164280751
| 13>  C        0.0207173855    -0.7027754341     1.1792813095
| 14>  H        0.9686327555     1.9438966788     0.1799194389
| 15>  H       -0.3962886636     1.9469193307    -0.9391070530
| 16>  H       -0.6771640621     1.9241007802     0.8089023364
| 17>  H       -0.0813016553    -0.1450078855    -2.1536377015
| 18>  H       -0.0196132257    -2.6081125448    -2.1528476706
| 19>  H        0.9769036119    -4.7054681748     0.4401711305
| 20>  H       -0.7799055246    -4.7462760260     0.4771949850
| 21>  H        0.0651183921    -4.6818636841    -1.0747631026
| 22>  H        1.0004716804    -3.4585170402     2.5993973432
| 23>  H        0.1039307423    -2.1362425287     3.3584880462
| 24>  H       -0.7559288308    -3.5036207833     2.6376496098
| 25>  H        0.0272784376    -0.1670243875     2.1257789871
| 26> *
| 27>
| 28>                          ****END OF INPUT****

CARTESIAN COORDINATES (ANGSTROEM)
---------------------------------
  C     -0.036458    1.538345    0.009408
  C     -0.025036    0.029185   -0.010966
  C     -0.040354   -0.680877   -1.209762
  C     -0.005083   -2.072850   -1.207413
  C      0.043996   -2.800687   -0.019393
  C      0.078167   -4.308649   -0.047558
  C      0.056251   -2.096273    1.200335
  C      0.103385   -2.832960    2.516428
  C      0.020717   -0.702775    1.179281
  H      0.968633    1.943897    0.179919
  H     -0.396289    1.946919   -0.939107
  H     -0.677164    1.924101    0.808902
  H     -0.081302   -0.145008   -2.153638
  H     -0.019613   -2.608113   -2.152848
  H      0.976904   -4.705468    0.440171
  H     -0.779906   -4.746276    0.477195
  H      0.065118   -4.681864   -1.074763
  H      1.000472   -3.458517    2.599397
  H      0.103931   -2.136243    3.358488
  H     -0.755929   -3.503621    2.637650
  H      0.027278   -0.167024    2.125779

 Total Charge           Charge          ....    0
 Multiplicity           Mult            ....    1
 Number of Electrons    NEL             ....   66
 Basis Dimension        Dim             ....  351

ORBITAL ENERGIES
----------------

  NO   OCC          E(Eh)            E(eV)
   0   2.0000     -11.233137      -305.6692
   1   2.0000     -11.231680      -305.6296
   2   2.0000     -11.228900      -305.5539
   3   2.0000     -11.222768      -305.3870
   4   2.0000     -11.220800      -305.3335
   5   2.0000     -11.219824      -305.3069
   6   2.0000     -11.219546      -305.2994
   7   2.0000     -11.218852      -305.2805
   8   2.0000     -11.218782      -305.2786
   9   2.0000      -1.153315       -31.3833
  10   2.0000      -1.062513       -28.9124
  11   2.0000      -1.029148       -28.0045
  12   2.0000      -0.969701       -26.3869
  13   2.0000      -0.931970       -25.3602
  14   2.0000      -0.886661       -24.1273
  15   2.0000      -0.808688       -22.0055
  16   2.0000      -0.764208       -20.7951
  17   2.0000      -0.656968       -17.8770
  18   2.0000      -0.651098       -17.7173
  19   2.0000      -0.610964       -16.6252
  20   2.0000      -0.589339       -16.0367
  21   2.0000      -0.566975       -15.4282
  22   2.0000      -0.563417       -15.3314
  23   2.0000      -0.554932       -15.1005
  24   2.0000      -0.546837       -14.8802
  25   2.0000      -0.543520       -14.7899
  26   2.0000      -0.535835       -14.5808
  27   2.0000      -0.517893       -14.0926
  28   2.0000      -0.472842       -12.8667
  29   2.0000      -0.471078       -12.8187
  30   2.0000      -0.466414       -12.6918
  31   2.0000      -0.323648        -8.8069
  32   2.0000      -0.307164        -8.3583
  33   0.0000       0.129487         3.5235
  34   0.0000       0.135205         3.6791
  35   0.0000       0.138569         3.7707
  36   0.0000       0.149144         4.0584
  37   0.0000       0.167990         4.5712

MULLIKEN ATOMIC CHARGES
-----------------------
   0 C :   -0.439631
   1 C :    0.171946
   2 C :   -0.201575
   3 C :   -0.165408
   4 C :    0.063695
   5 C :   -0.431138
   6 C :    0.133572
   7 C :   -0.430843
   8 C :   -0.273653
   9 H :    0.142124
  10 H :    0.135750
  11 H :    0.138290
  12 H :    0.112206
  13 H :    0.109892
  14 H :    0.139098
  15 H :    0.139192
  16 H :    0.136010
  17 H :    0.139293
  18 H :    0.135956
  19 H :    0.139092
  20 H :    0.106133
Sum of atomic charges:   -0.0000000

LOEWDIN ATOMIC CHARGES
----------------------
   0 C :   -0.268237
   1 C :   -0.172699
   2 C :   -0.126060
   3 C :   -0.125676
   4 C :   -0.144589
   5 C :   -0.264361
   6 C :   -0.143186
   7 C :   -0.263579
   8 C :   -0.098708
   9 H :    0.130982
  10 H :    0.128232
  11 H :    0.129199
  12 H :    0.146197
  13 H :    0.146293
  14 H :    0.130118
  15 H :    0.130124
  16 H :    0.128506
  17 H :    0.130362
  18 H :    0.128136
  19 H :    0.130287
  20 H :    0.148660

  Mayer bond orders larger than 0.1
B(  0-C ,  1-C ) :   0.8581 B(  0-C ,  9-H ) :   0.9254 B(  0-C , 10-H ) :   0.9503
B(  0-C , 11-H ) :   0.9454 B(  1-C ,  2-C ) :   1.3105 B(  1-C ,  8-C ) :   1.2857
B(  2-C ,  3-C ) :   1.3166 B(  2-C , 12-H ) :   0.9387 B(  3-C ,  4-C ) :   1.3414
B(  3-C , 13-H ) :   0.9346 B(  4-C ,  5-C ) :   0.8689 B(  4-C ,  6-C ) :   1.2742
B(  5-C , 14-H ) :   0.9381 B(  5-C , 15-H ) :   0.9380 B(  5-C , 16-H ) :   0.9438
B(  6-C ,  7-C ) :   0.8588 B(  6-C ,  8-C ) :   1.3509 B(  7-C , 17-H ) :   0.9386
B(  7-C , 18-H ) :   0.9445 B(  7-C , 19-H ) :   0.9379 B(  8-C , 20-H ) :   0.9364

MP2 TOTAL ENERGY:     -349.378637766 Eh
FINAL SINGLE POINT ENERGY      -349.378637765665

DIPOLE MOMENT
-------------
                                X             Y             Z
Electronic contribution:     -0.12995       1.41599      -2.49107
Nuclear contribution   :      0.14458      -1.49106       2.61004
                        -----------------------------------------
Total Dipole Moment    :      0.01463      -0.07507       0.11896
                        -----------------------------------------
Magnitude (a.u.)       :      0.14143
Magnitude (Debye)      :      0.35948

                             ****ORCA TERMINATED NORMALLY****
TOTAL RUN TIME: 0 days 0 hours 19 minutes 31 seconds 205 msec
