                         Program Version 3.0.3 - RELEASE   -
|  1> ! RI-MP2 RIJK def2-TZVP def2-TZVP/C def2-TZVP/JK TIGHTSCF
|  2> % maxcore 2000
|  3> % mp2 density relaxed end
|  4> *xyz 0 1
|  5>  C        0.0942029449     1.5348487884     0.0083994410
|  6>  C        0.0798112267     0.0240080114     0.0043280645
|  7>  O        0.7405725178    -0.4431270044    -1.1552183218
|  8>  C        1.0854482195    -1.8028583864    -1.0432132845
|  9>  C        0.3157930550    -2.6828726867     0.0003013596
| 10>  C        1.5610565186    -3.6031111661     0.0134307177
| 11>  C        2.1567640572    -2.1744427324     0.0245197386
| 12>  C        1.0591816828    -1.8082888977     1.0671613983
| 13>  O        0.7115347163    -0.4491353477     1.1775495268
| 14>  H        1.1268212424     1.8915030500     0.0222966206
| 15>  H       -0.4036945020     1.9135345773    -0.8873722338
| 16>  H       -0.4260758406     1.9089630574     0.8933064801
| 17>  H       -0.9537052222    -0.3651723915    -0.0095338245
| 18>  H        1.2162189491    -2.2039870358    -2.0509445465
| 19>  H       -0.7298299615    -2.9915699101    -0.0135067934
| 20>  H        1.7096724782    -4.2002185162     0.9164864678
| 21>  H        1.7321381685    -4.1955735912    -0.8887072452
| 22>  H        3.2053605111    -1.8781285636     0.0383304067
| 23>  H        1.1648648784    -2.2146115547     2.0757549881
| 24> *
| 25>
| 26>                          ****END OF INPUT****

CARTESIAN COORDINATES (ANGSTROEM)
---------------------------------
  C      0.094203    1.534849    0.008399
  C      0.079811    0.024008    0.004328
  O      0.740573   -0.443127   -1.155218
  C      1.085448   -1.802858   -1.043213
  C      0.315793   -2.682873    0.000301
  C      1.561057   -3.603111    0.013431
  C      2.156764   -2.174443    0.024520
  C      1.059182   -1.808289    1.067161
  O      0.711535   -0.449135    1.177550
  H      1.126821    1.891503    0.022297
  H     -0.403695    1.913535   -0.887372
  H     -0.426076    1.908963    0.893306
  H     -0.953705   -0.365172   -0.009534
  H      1.216219   -2.203987   -2.050945
  H     -0.729830   -2.991570   -0.013507
  H      1.709672   -4.200219    0.916486
  H      1.732138   -4.195574   -0.888707
  H      3.205361   -1.878129    0.038330
  H      1.164865   -2.214612    2.075755

 Total Charge           Charge          ....    0
 Multiplicity           Mult            ....    1
 Number of Electrons    NEL             ....   68
 Basis Dimension        Dim             ....  339

ORBITAL ENERGIES
----------------

  NO   OCC          E(Eh)            E(eV)
   0   2.0000     -20.560420      -559.4775
   1   2.0000     -20.560402      -559.4770
   2   2.0000     -11.331139      -308.3360
   3   2.0000     -11.293795      -307.3198
   4   2.0000     -11.293786      -307.3196
   5   2.0000     -11.249636      -306.1182
   6   2.0000     -11.240822      -305.8783
   7   2.0000     -11.239136      -305.8324
   8   2.0000     -11.212969      -305.1204
   9   2.0000      -1.432010       -38.9670
  10   2.0000      -1.344381       -36.5825
  11   2.0000      -1.209488       -32.9119
  12   2.0000      -1.017570       -27.6895
  13   2.0000      -0.900495       -24.5037
  14   2.0000      -0.895315       -24.3628
  15   2.0000      -0.877044       -23.8656
  16   2.0000      -0.839563       -22.8457
  17   2.0000      -0.730975       -19.8908
  18   2.0000      -0.694828       -18.9072
  19   2.0000      -0.691091       -18.8055
  20   2.0000      -0.672254       -18.2929
  21   2.0000      -0.628670       -17.1070
  22   2.0000      -0.584290       -15.8993
  23   2.0000      -0.570217       -15.5164
  24   2.0000      -0.568051       -15.4575
  25   2.0000      -0.544015       -14.8034
  26   2.0000      -0.530165       -14.4265
  27   2.0000      -0.525498       -14.2995
  28   2.0000      -0.496942       -13.5225
  29   2.0000      -0.469482       -12.7753
  30   2.0000      -0.461961       -12.5706
  31   2.0000      -0.435310       -11.8454
  32   2.0000      -0.408691       -11.1210
  33   2.0000      -0.400679       -10.9030
  34   0.0000       0.148853         4.0505
  35   0.0000       0.152729         4.1560
  36   0.0000       0.167548         4.5592
  37   0.0000       0.170803         4.6478
  38   0.0000       0.190585         5.1861

MULLIKEN ATOMIC CHARGES
-----------------------
   0 C :   -0.351345
   1 C :    0.191051
   2 O :   -0.304011
   3 C :    0.043320
   4 C :   -0.171209
   5 C :   -0.245017
   6 C :   -0.104508
   7 C :    0.043321
   8 O :   -0.304010
   9 H :    0.129651
  10 H :    0.133283
  11 H :    0.133279
  12 H :    0.065396
  13 H :    0.110449
  14 H :    0.136803
  15 H :    0.120771
  16 H :    0.120771
  17 H :    0.141556
  18 H :    0.110449
Sum of atomic charges:   -0.0000000

LOEWDIN ATOMIC CHARGES
----------------------
   0 C :   -0.285092
   1 C :   -0.415888
   2 O :    0.201947
   3 C :   -0.250204
   4 C :   -0.162781
   5 C :   -0.196818
   6 C :   -0.156082
   7 C :   -0.250208
   8 O :    0.201945
   9 H :    0.129909
  10 H :    0.130029
  11 H :    0.130027
  12 H :    0.126392
  13 H :    0.139077
  14 H :    0.126186
  15 H :    0.132728
  16 H :    0.132728
  17 H :    0.127027
  18 H :    0.139077

  Mayer bond orders larger than 0.1
B(  0-C ,  1-C ) :   0.9195 B(  0-C ,  9-H ) :   0.9314 B(  0-C , 10-H ) :   0.9352
B(  0-C , 11-H ) :   0.9352 B(  1-C ,  2-O ) :   0.9596 B(  1-C ,  8-O ) :   0.9596
B(  1-C , 12-H ) :   0.9283 B(  2-O ,  3-C ) :   0.9626 B(  3-C ,  4-C ) :   0.8799
B(  3-C ,  6-C ) :   0.8569 B(  3-C , 13-H ) :   0.9498 B(  4-C ,  5-C ) :   0.9099
B(  4-C ,  7-C ) :   0.8799 B(  4-C , 14-H ) :   0.9048 B(  5-C ,  6-C ) :   0.8863
B(  5-C , 15-H ) :   0.9231 B(  5-C , 16-H ) :   0.9231 B(  6-C ,  7-C ) :   0.8569
B(  6-C , 17-H ) :   0.8885 B(  7-C ,  8-O ) :   0.9626 B(  7-C , 18-H ) :   0.9498

MP2 TOTAL ENERGY:     -422.285180799 Eh
FINAL SINGLE POINT ENERGY      -422.285180799241

DIPOLE MOMENT
-------------
                                X             Y             Z
Electronic contribution:      0.64078      -0.34457       0.00709
Nuclear contribution   :     -0.80887      -0.17351      -0.01052
                        -----------------------------------------
Total Dipole Moment    :     -0.16809      -0.51807      -0.00343
                        -----------------------------------------
Magnitude (a.u.)       :      0.54467
Magnitude (Debye)      :      1.38444

                             ****ORCA TERMINATED NORMALLY****
TOTAL RUN TIME: 0 days 0 hours 16 minutes 49 seconds 239 msec
