                         Program Version 3.0.3 - RELEASE   -
|  1> ! RI-MP2 RIJK def2-TZVP def2-TZVP/C def2-TZVP/JK TIGHTSCF
|  2> % maxcore 2000
|  3> % mp2 density relaxed end
|  4> *xyz 0 1
|  5>  C       -0.0194492061     1.4582787283    -0.0555702059
|  6>  C        1.3225980959     0.8160686782     0.1295008829
|  7>  O        1.8958310434     0.9988233139     1.3934843396
|  8>  C        2.6050342684    -0.1086915024     1.9125103936
|  9>  O        2.0108740995    -1.3499859382     1.6711488895
| 10>  C        0.6648029279    -1.5449016849     2.0200195955
| 11>  C       -0.2229438630    -0.4821974780     2.6141806035
| 12>  C       -0.3925156299    -0.8898759796     1.1577881263
| 13>  C        0.0920859682    -0.0535911891     0.0089316207
| 14>  H       -0.4262211198     1.9606325779     0.8151807243
| 15>  H       -0.2496613686     1.9292228603    -1.0047566661
| 16>  H        2.0340585963     0.8209387728    -0.6959306814
| 17>  H        3.6022886363    -0.1907718343     1.4592149197
| 18>  H        2.6963565033     0.1066810441     2.9858261702
| 19>  H        0.5202377955    -2.5694919215     2.3470751203
| 20>  H       -0.9800434622    -0.8223871685     3.3133144922
| 21>  H        0.1850410336     0.4931037235     2.8357024363
| 22>  H       -1.2755850830    -1.4810267312     0.9331591687
| 23>  H        0.0027764543    -0.5657607011    -0.9457114697
| 24> *
| 25>
| 26>                          ****END OF INPUT****

CARTESIAN COORDINATES (ANGSTROEM)
---------------------------------
  C     -0.019449    1.458279   -0.055570
  C      1.322598    0.816069    0.129501
  O      1.895831    0.998823    1.393484
  C      2.605034   -0.108692    1.912510
  O      2.010874   -1.349986    1.671149
  C      0.664803   -1.544902    2.020020
  C     -0.222944   -0.482197    2.614181
  C     -0.392516   -0.889876    1.157788
  C      0.092086   -0.053591    0.008932
  H     -0.426221    1.960633    0.815181
  H     -0.249661    1.929223   -1.004757
  H      2.034059    0.820939   -0.695931
  H      3.602289   -0.190772    1.459215
  H      2.696357    0.106681    2.985826
  H      0.520238   -2.569492    2.347075
  H     -0.980043   -0.822387    3.313314
  H      0.185041    0.493104    2.835702
  H     -1.275585   -1.481027    0.933159
  H      0.002776   -0.565761   -0.945711

 Total Charge           Charge          ....    0
 Multiplicity           Mult            ....    1
 Number of Electrons    NEL             ....   68
 Basis Dimension        Dim             ....  339

ORBITAL ENERGIES
----------------

  NO   OCC          E(Eh)            E(eV)
   0   2.0000     -20.565221      -559.6081
   1   2.0000     -20.563931      -559.5730
   2   2.0000     -11.330112      -308.3080
   3   2.0000     -11.283657      -307.0439
   4   2.0000     -11.281077      -306.9737
   5   2.0000     -11.234828      -305.7152
   6   2.0000     -11.232932      -305.6636
   7   2.0000     -11.226263      -305.4821
   8   2.0000     -11.223933      -305.4188
   9   2.0000      -1.423562       -38.7371
  10   2.0000      -1.354415       -36.8555
  11   2.0000      -1.159789       -31.5595
  12   2.0000      -1.102926       -30.0121
  13   2.0000      -0.943611       -25.6770
  14   2.0000      -0.878771       -23.9126
  15   2.0000      -0.825853       -22.4726
  16   2.0000      -0.788321       -21.4513
  17   2.0000      -0.770406       -20.9638
  18   2.0000      -0.710288       -19.3279
  19   2.0000      -0.683505       -18.5991
  20   2.0000      -0.659266       -17.9395
  21   2.0000      -0.642915       -17.4946
  22   2.0000      -0.630801       -17.1650
  23   2.0000      -0.614422       -16.7193
  24   2.0000      -0.554233       -15.0815
  25   2.0000      -0.545585       -14.8461
  26   2.0000      -0.539545       -14.6818
  27   2.0000      -0.523457       -14.2440
  28   2.0000      -0.502093       -13.6627
  29   2.0000      -0.454177       -12.3588
  30   2.0000      -0.434794       -11.8313
  31   2.0000      -0.410521       -11.1709
  32   2.0000      -0.403884       -10.9903
  33   2.0000      -0.363374        -9.8879
  34   0.0000       0.147569         4.0156
  35   0.0000       0.162851         4.4314
  36   0.0000       0.164647         4.4803
  37   0.0000       0.172281         4.6880
  38   0.0000       0.197662         5.3786

MULLIKEN ATOMIC CHARGES
-----------------------
   0 C :   -0.283069
   1 C :    0.031893
   2 O :   -0.320213
   3 C :    0.114166
   4 O :   -0.307752
   5 C :    0.027698
   6 C :   -0.308527
   7 C :   -0.114023
   8 C :   -0.085707
   9 H :    0.138158
  10 H :    0.131877
  11 H :    0.104583
  12 H :    0.107084
  13 H :    0.104768
  14 H :    0.121221
  15 H :    0.128797
  16 H :    0.171841
  17 H :    0.119580
  18 H :    0.117625
Sum of atomic charges:   -0.0000000

LOEWDIN ATOMIC CHARGES
----------------------
   0 C :   -0.198943
   1 C :   -0.285399
   2 O :    0.180980
   3 C :   -0.389290
   4 O :    0.199643
   5 C :   -0.271624
   6 C :   -0.210374
   7 C :   -0.193709
   8 C :   -0.189982
   9 H :    0.141292
  10 H :    0.132196
  11 H :    0.132885
  12 H :    0.117395
  13 H :    0.115882
  14 H :    0.138211
  15 H :    0.133938
  16 H :    0.141787
  17 H :    0.150146
  18 H :    0.154967

  Mayer bond orders larger than 0.1
B(  0-C ,  1-C ) :   0.8859 B(  0-C ,  8-C ) :   0.8852 B(  0-C ,  9-H ) :   0.9166
B(  0-C , 10-H ) :   0.9251 B(  1-C ,  2-O ) :   0.9748 B(  1-C ,  8-C ) :   0.8818
B(  1-C , 11-H ) :   0.9438 B(  2-O ,  3-C ) :   0.9200 B(  3-C ,  4-O ) :   0.9632
B(  3-C , 12-H ) :   0.9264 B(  3-C , 13-H ) :   0.9285 B(  4-O ,  5-C ) :   0.9564
B(  5-C ,  6-C ) :   0.8824 B(  5-C ,  7-C ) :   0.8695 B(  5-C , 14-H ) :   0.9488
B(  6-C ,  7-C ) :   0.8573 B(  6-C , 15-H ) :   0.9242 B(  6-C , 16-H ) :   0.9171
B(  7-C ,  8-C ) :   0.9271 B(  7-C , 17-H ) :   0.9250 B(  8-C , 18-H ) :   0.9227

MP2 TOTAL ENERGY:     -422.273071854 Eh
FINAL SINGLE POINT ENERGY      -422.273071854130

DIPOLE MOMENT
-------------
                                X             Y             Z
Electronic contribution:      2.68329      -0.95627       0.13042
Nuclear contribution   :     -2.96152       0.86000      -0.19732
                        -----------------------------------------
Total Dipole Moment    :     -0.27823      -0.09628      -0.06691
                        -----------------------------------------
Magnitude (a.u.)       :      0.30193
Magnitude (Debye)      :      0.76743

                             ****ORCA TERMINATED NORMALLY****
TOTAL RUN TIME: 0 days 0 hours 17 minutes 56 seconds 268 msec
