                         Program Version 3.0.3 - RELEASE   -
|  1> ! RI-MP2 RIJK def2-TZVP def2-TZVP/C def2-TZVP/JK TIGHTSCF
|  2> % maxcore 2000
|  3> % mp2 density relaxed end
|  4> *xyz 0 1
|  5>  O       -0.0835337658     1.5016215851     0.0289056639
|  6>  C       -0.0146571527     0.1102054057     0.0044591850
|  7>  C       -1.3045808609    -0.7579896672    -0.0515402118
|  8>  C       -2.5313303749    -0.0606959656    -0.6553621309
|  9>  C       -2.5361948393    -0.0159075342    -2.2006930900
| 10>  C       -1.2744573285     0.4602712901    -2.8885833623
| 11>  C       -0.0182524309     0.1611152754    -2.5384357666
| 12>  C        0.3390102249    -0.6388594666    -1.3172026908
| 13>  O       -0.6507041693    -1.6471186449    -0.9946760458
| 14>  H       -0.3945907982     1.7891564496    -0.8404790512
| 15>  H        0.6335684359    -0.1971324424     0.8277171989
| 16>  H       -1.5649969633    -1.2875959708     0.8705441273
| 17>  H       -3.4457136949    -0.5682827013    -0.3309380622
| 18>  H       -2.5771846524     0.9554068072    -0.2437170046
| 19>  H       -2.7540110986    -1.0250783783    -2.5713967115
| 20>  H       -3.3742225858     0.6108704269    -2.5237808308
| 21>  H       -1.4248095757     1.0509527523    -3.7899963026
| 22>  H        0.8085181581     0.5414298925    -3.1333773338
| 23>  H        1.3412066924    -1.0712305236    -1.3971457402
| 24> *
| 25>
| 26>                          ****END OF INPUT****

CARTESIAN COORDINATES (ANGSTROEM)
---------------------------------
  O     -0.083534    1.501622    0.028906
  C     -0.014657    0.110205    0.004459
  C     -1.304581   -0.757990   -0.051540
  C     -2.531330   -0.060696   -0.655362
  C     -2.536195   -0.015908   -2.200693
  C     -1.274457    0.460271   -2.888583
  C     -0.018252    0.161115   -2.538436
  C      0.339010   -0.638859   -1.317203
  O     -0.650704   -1.647119   -0.994676
  H     -0.394591    1.789156   -0.840479
  H      0.633568   -0.197132    0.827717
  H     -1.564997   -1.287596    0.870544
  H     -3.445714   -0.568283   -0.330938
  H     -2.577185    0.955407   -0.243717
  H     -2.754011   -1.025078   -2.571397
  H     -3.374223    0.610870   -2.523781
  H     -1.424810    1.050953   -3.789996
  H      0.808518    0.541430   -3.133377
  H      1.341207   -1.071231   -1.397146

 Total Charge           Charge          ....    0
 Multiplicity           Mult            ....    1
 Number of Electrons    NEL             ....   68
 Basis Dimension        Dim             ....  339

ORBITAL ENERGIES
----------------

  NO   OCC          E(Eh)            E(eV)
   0   2.0000     -20.562261      -559.5276
   1   2.0000     -20.551381      -559.2315
   2   2.0000     -11.288739      -307.1822
   3   2.0000     -11.286075      -307.1097
   4   2.0000     -11.281566      -306.9870
   5   2.0000     -11.244919      -305.9898
   6   2.0000     -11.235359      -305.7297
   7   2.0000     -11.235171      -305.7246
   8   2.0000     -11.229651      -305.5743
   9   2.0000      -1.394771       -37.9536
  10   2.0000      -1.362671       -37.0802
  11   2.0000      -1.096403       -29.8346
  12   2.0000      -1.044246       -28.4154
  13   2.0000      -0.993045       -27.0221
  14   2.0000      -0.902243       -24.5513
  15   2.0000      -0.888464       -24.1763
  16   2.0000      -0.766183       -20.8489
  17   2.0000      -0.733811       -19.9680
  18   2.0000      -0.716513       -19.4973
  19   2.0000      -0.676105       -18.3977
  20   2.0000      -0.636644       -17.3240
  21   2.0000      -0.629026       -17.1167
  22   2.0000      -0.609046       -16.5730
  23   2.0000      -0.594902       -16.1881
  24   2.0000      -0.584522       -15.9057
  25   2.0000      -0.559904       -15.2358
  26   2.0000      -0.528392       -14.3783
  27   2.0000      -0.517972       -14.0947
  28   2.0000      -0.502842       -13.6830
  29   2.0000      -0.475016       -12.9258
  30   2.0000      -0.468501       -12.7486
  31   2.0000      -0.424488       -11.5509
  32   2.0000      -0.412724       -11.2308
  33   2.0000      -0.360939        -9.8217
  34   0.0000       0.119925         3.2633
  35   0.0000       0.139756         3.8029
  36   0.0000       0.160898         4.3782
  37   0.0000       0.163291         4.4434
  38   0.0000       0.176447         4.8014

MULLIKEN ATOMIC CHARGES
-----------------------
   0 O :   -0.452072
   1 C :   -0.027715
   2 C :    0.130407
   3 C :   -0.336617
   4 C :   -0.158055
   5 C :   -0.161194
   6 C :   -0.348892
   7 C :    0.236966
   8 O :   -0.344824
   9 H :    0.331384
  10 H :    0.113673
  11 H :    0.111894
  12 H :    0.127784
  13 H :    0.141137
  14 H :    0.130189
  15 H :    0.129691
  16 H :    0.129742
  17 H :    0.122683
  18 H :    0.123819
Sum of atomic charges:   -0.0000000

LOEWDIN ATOMIC CHARGES
----------------------
   0 O :    0.005324
   1 C :   -0.300474
   2 C :   -0.258822
   3 C :   -0.245814
   4 C :   -0.249662
   5 C :   -0.162556
   6 C :   -0.169516
   7 C :   -0.256675
   8 O :    0.166429
   9 H :    0.176516
  10 H :    0.143589
  11 H :    0.134164
  12 H :    0.141499
  13 H :    0.145430
  14 H :    0.156497
  15 H :    0.142936
  16 H :    0.146083
  17 H :    0.146785
  18 H :    0.138268

  Mayer bond orders larger than 0.1
B(  0-O ,  1-C ) :   1.0285 B(  0-O ,  9-H ) :   0.8187 B(  1-C ,  2-C ) :   0.9269
B(  1-C ,  7-C ) :   0.8983 B(  1-C , 10-H ) :   0.9301 B(  2-C ,  3-C ) :   0.8715
B(  2-C ,  8-O ) :   0.9461 B(  2-C , 11-H ) :   0.9215 B(  3-C ,  4-C ) :   0.9316
B(  3-C , 12-H ) :   0.9247 B(  3-C , 13-H ) :   0.9281 B(  4-C ,  5-C ) :   0.9432
B(  4-C , 14-H ) :   0.9041 B(  4-C , 15-H ) :   0.9331 B(  5-C ,  6-C ) :   1.8010
B(  5-C , 16-H ) :   0.9314 B(  6-C ,  7-C ) :   0.8653 B(  6-C , 17-H ) :   0.9324
B(  7-C ,  8-O ) :   0.9032 B(  7-C , 18-H ) :   0.9154

MP2 TOTAL ENERGY:     -422.309002483 Eh
FINAL SINGLE POINT ENERGY      -422.309002482617

DIPOLE MOMENT
-------------
                                X             Y             Z
Electronic contribution:      3.30443      -1.27680       1.19011
Nuclear contribution   :     -3.56208       1.52533      -1.55031
                        -----------------------------------------
Total Dipole Moment    :     -0.25765       0.24852      -0.36021
                        -----------------------------------------
Magnitude (a.u.)       :      0.50783
Magnitude (Debye)      :      1.29081

                             ****ORCA TERMINATED NORMALLY****
TOTAL RUN TIME: 0 days 0 hours 19 minutes 36 seconds 337 msec
