                         Program Version 3.0.3 - RELEASE   -
|  1> ! RI-MP2 RIJK def2-TZVP def2-TZVP/C def2-TZVP/JK TIGHTSCF
|  2> % maxcore 2000
|  3> % mp2 density relaxed end
|  4> *xyz 0 1
|  5>  C        0.0522570796     1.4812530766    -0.2381633902
|  6>  C       -0.0884787599    -0.0139117781     0.0779338668
|  7>  N        0.3681352442    -0.8641793147    -1.0390185204
|  8>  C        1.7969417589    -1.1548593609    -0.7969676648
|  9>  C        1.9573995041    -1.1576425978     0.7088878802
| 10>  N        2.9380582046    -1.7459612846     1.2795612558
| 11>  O        2.9055535707    -1.6807819902     2.6588718255
| 12>  C        0.7895963661    -0.3963894403     1.2854231321
| 13>  O        0.5751763741    -0.1213021161     2.4390100143
| 14>  H        1.0873354805     1.7406649611    -0.4836818383
| 15>  H       -0.5733213163     1.7409543082    -1.0956010269
| 16>  H       -0.2517659732     2.0779227513     0.6262890954
| 17>  H       -1.1339905295    -0.2317312187     0.3147156899
| 18>  H       -0.1427589470    -1.7402715390    -1.0061604532
| 19>  H        2.0904327303    -2.1012274793    -1.2547450681
| 20>  H        2.4140753197    -0.3686973092    -1.2515215957
| 21>  H        3.6959636031    -2.1751186680     2.9063141277
| 22> *
| 23>
| 24>                          ****END OF INPUT****

CARTESIAN COORDINATES (ANGSTROEM)
---------------------------------
  C      0.052257    1.481253   -0.238163
  C     -0.088479   -0.013912    0.077934
  N      0.368135   -0.864179   -1.039019
  C      1.796942   -1.154859   -0.796968
  C      1.957400   -1.157643    0.708888
  N      2.938058   -1.745961    1.279561
  O      2.905554   -1.680782    2.658872
  C      0.789596   -0.396389    1.285423
  O      0.575176   -0.121302    2.439010
  H      1.087335    1.740665   -0.483682
  H     -0.573321    1.740954   -1.095601
  H     -0.251766    2.077923    0.626289
  H     -1.133991   -0.231731    0.314716
  H     -0.142759   -1.740272   -1.006160
  H      2.090433   -2.101227   -1.254745
  H      2.414075   -0.368697   -1.251522
  H      3.695964   -2.175119    2.906314

 Total Charge           Charge          ....    0
 Multiplicity           Mult            ....    1
 Number of Electrons    NEL             ....   68
 Basis Dimension        Dim             ....  327

ORBITAL ENERGIES
----------------

  NO   OCC          E(Eh)            E(eV)
   0   2.0000     -20.610263      -560.8338
   1   2.0000     -20.562915      -559.5454
   2   2.0000     -15.650713      -425.8776
   3   2.0000     -15.567837      -423.6224
   4   2.0000     -11.341670      -308.6225
   5   2.0000     -11.287746      -307.1552
   6   2.0000     -11.278925      -306.9152
   7   2.0000     -11.276529      -306.8500
   8   2.0000     -11.230415      -305.5951
   9   2.0000      -1.446766       -39.3685
  10   2.0000      -1.400888       -38.1201
  11   2.0000      -1.252092       -34.0712
  12   2.0000      -1.167372       -31.7658
  13   2.0000      -1.033736       -28.1294
  14   2.0000      -0.962336       -26.1865
  15   2.0000      -0.921053       -25.0631
  16   2.0000      -0.807478       -21.9726
  17   2.0000      -0.749560       -20.3966
  18   2.0000      -0.714564       -19.4443
  19   2.0000      -0.704212       -19.1626
  20   2.0000      -0.669842       -18.2273
  21   2.0000      -0.648060       -17.6346
  22   2.0000      -0.619905       -16.8685
  23   2.0000      -0.592700       -16.1282
  24   2.0000      -0.582232       -15.8433
  25   2.0000      -0.577039       -15.7020
  26   2.0000      -0.565700       -15.3935
  27   2.0000      -0.542537       -14.7632
  28   2.0000      -0.516723       -14.0608
  29   2.0000      -0.500406       -13.6167
  30   2.0000      -0.494170       -13.4470
  31   2.0000      -0.442046       -12.0287
  32   2.0000      -0.398587       -10.8461
  33   2.0000      -0.374905       -10.2017
  34   0.0000       0.066297         1.8040
  35   0.0000       0.125457         3.4139
  36   0.0000       0.146690         3.9916
  37   0.0000       0.150781         4.1029
  38   0.0000       0.167226         4.5505

MULLIKEN ATOMIC CHARGES
-----------------------
   0 C :   -0.410841
   1 C :    0.021540
   2 N :   -0.331037
   3 C :   -0.129236
   4 C :   -0.056609
   5 N :   -0.071566
   6 O :   -0.317217
   7 C :    0.169726
   8 O :   -0.244125
   9 H :    0.126671
  10 H :    0.143552
  11 H :    0.145322
  12 H :    0.125461
  13 H :    0.212920
  14 H :    0.148666
  15 H :    0.126407
  16 H :    0.340364
Sum of atomic charges:    0.0000000

LOEWDIN ATOMIC CHARGES
----------------------
   0 C :   -0.280264
   1 C :   -0.286465
   2 N :    0.004290
   3 C :   -0.253947
   4 C :   -0.261569
   5 N :    0.042475
   6 O :   -0.031170
   7 C :   -0.283515
   8 O :    0.182145
   9 H :    0.125874
  10 H :    0.128372
  11 H :    0.131379
  12 H :    0.154043
  13 H :    0.171987
  14 H :    0.140262
  15 H :    0.139960
  16 H :    0.176143

  Mayer bond orders larger than 0.1
B(  0-C ,  1-C ) :   0.8984 B(  0-C ,  9-H ) :   0.9223 B(  0-C , 10-H ) :   0.9369
B(  0-C , 11-H ) :   0.9350 B(  1-C ,  2-N ) :   0.9563 B(  1-C ,  7-C ) :   0.8796
B(  1-C , 12-H ) :   0.9209 B(  2-N ,  3-C ) :   0.9574 B(  2-N , 13-H ) :   0.8797
B(  3-C ,  4-C ) :   0.9399 B(  3-C , 14-H ) :   0.9293 B(  3-C , 15-H ) :   0.9082
B(  4-C ,  5-N ) :   1.8022 B(  4-C ,  7-C ) :   0.8987 B(  5-N ,  6-O ) :   0.8634
B(  6-O , 16-H ) :   0.8403 B(  7-C ,  8-O ) :   2.0158

MP2 TOTAL ENERGY:     -454.369151140 Eh
FINAL SINGLE POINT ENERGY      -454.369151139844

DIPOLE MOMENT
-------------
                                X             Y             Z
Electronic contribution:      2.97520      -4.18542       6.17973
Nuclear contribution   :     -2.81074       3.75896      -6.75227
                        -----------------------------------------
Total Dipole Moment    :      0.16445      -0.42646      -0.57254
                        -----------------------------------------
Magnitude (a.u.)       :      0.73261
Magnitude (Debye)      :      1.86214

                             ****ORCA TERMINATED NORMALLY****
TOTAL RUN TIME: 0 days 0 hours 17 minutes 57 seconds 223 msec
