                         Program Version 3.0.3 - RELEASE   -
|  1> ! RI-MP2 RIJK def2-TZVP def2-TZVP/C def2-TZVP/JK TIGHTSCF
|  2> % maxcore 2000
|  3> % mp2 density relaxed end
|  4> *xyz 0 1
|  5>  O       -0.7018920968     0.6404270447    -0.3980647736
|  6>  C        0.4159555299     0.7906320072     0.0209532071
|  7>  C        1.1650132895     2.1247766133     0.0358956930
|  8>  O        2.4652587332     1.9453574315     0.5693399682
|  9>  C        3.3591782614     1.7649066231    -0.5325604100
| 10>  C        2.8576993207     2.7239934553    -1.6167903851
| 11>  C        1.3542300616     2.7708262800    -1.3516842158
| 12>  C        0.3065665728     2.8262321099    -2.3763770420
| 13>  O        0.6668193077     3.9867064114    -1.6114864811
| 14>  H        1.0001571573    -0.0429853369     0.4728036717
| 15>  H        0.6065990708     2.8096658631     0.6846642591
| 16>  H        4.3690200958     1.9798035334    -0.1779165440
| 17>  H        3.3306040140     0.7212205416    -0.8840848973
| 18>  H        3.2648834339     3.7282936591    -1.4677680714
| 19>  H        3.1047809173     2.3960169336    -2.6288190021
| 20>  H        0.5926752650     2.8557157932    -3.4269819919
| 21>  H       -0.6736263640     2.4092924765    -2.1616761146
| 22> *
| 23>
| 24>                          ****END OF INPUT****

CARTESIAN COORDINATES (ANGSTROEM)
---------------------------------
  O     -0.701892    0.640427   -0.398065
  C      0.415956    0.790632    0.020953
  C      1.165013    2.124777    0.035896
  O      2.465259    1.945357    0.569340
  C      3.359178    1.764907   -0.532560
  C      2.857699    2.723993   -1.616790
  C      1.354230    2.770826   -1.351684
  C      0.306567    2.826232   -2.376377
  O      0.666819    3.986706   -1.611486
  H      1.000157   -0.042985    0.472804
  H      0.606599    2.809666    0.684664
  H      4.369020    1.979804   -0.177917
  H      3.330604    0.721221   -0.884085
  H      3.264883    3.728294   -1.467768
  H      3.104781    2.396017   -2.628819
  H      0.592675    2.855716   -3.426982
  H     -0.673626    2.409292   -2.161676

 Total Charge           Charge          ....    0
 Multiplicity           Mult            ....    1
 Number of Electrons    NEL             ....   68
 Basis Dimension        Dim             ....  327

ORBITAL ENERGIES
----------------

  NO   OCC          E(Eh)            E(eV)
   0   2.0000     -20.579780      -560.0043
   1   2.0000     -20.577055      -559.9301
   2   2.0000     -20.571112      -559.7684
   3   2.0000     -11.343179      -308.6636
   4   2.0000     -11.310678      -307.7792
   5   2.0000     -11.306554      -307.6670
   6   2.0000     -11.297510      -307.4209
   7   2.0000     -11.289780      -307.2105
   8   2.0000     -11.246257      -306.0262
   9   2.0000      -1.429183       -38.8900
  10   2.0000      -1.412013       -38.4228
  11   2.0000      -1.400123       -38.0993
  12   2.0000      -1.061227       -28.8775
  13   2.0000      -1.031957       -28.0810
  14   2.0000      -0.920489       -25.0478
  15   2.0000      -0.883854       -24.0509
  16   2.0000      -0.830370       -22.5955
  17   2.0000      -0.778992       -21.1974
  18   2.0000      -0.713380       -19.4121
  19   2.0000      -0.697851       -18.9895
  20   2.0000      -0.678214       -18.4551
  21   2.0000      -0.668354       -18.1868
  22   2.0000      -0.645991       -17.5783
  23   2.0000      -0.618901       -16.8412
  24   2.0000      -0.588259       -16.0073
  25   2.0000      -0.576104       -15.6766
  26   2.0000      -0.551252       -15.0003
  27   2.0000      -0.532489       -14.4898
  28   2.0000      -0.523425       -14.2431
  29   2.0000      -0.498917       -13.5762
  30   2.0000      -0.473513       -12.8849
  31   2.0000      -0.454290       -12.3618
  32   2.0000      -0.440945       -11.9987
  33   2.0000      -0.413076       -11.2404
  34   0.0000       0.108299         2.9470
  35   0.0000       0.139742         3.8026
  36   0.0000       0.159154         4.3308
  37   0.0000       0.169855         4.6220
  38   0.0000       0.176521         4.8034

MULLIKEN ATOMIC CHARGES
-----------------------
   0 O :   -0.266289
   1 C :    0.038989
   2 C :    0.167836
   3 O :   -0.322382
   4 C :   -0.066980
   5 C :   -0.215804
   6 C :    0.059107
   7 C :   -0.075416
   8 O :   -0.329830
   9 H :    0.101647
  10 H :    0.143003
  11 H :    0.132417
  12 H :    0.099416
  13 H :    0.134330
  14 H :    0.132892
  15 H :    0.116344
  16 H :    0.150720
Sum of atomic charges:    0.0000000

LOEWDIN ATOMIC CHARGES
----------------------
   0 O :    0.142109
   1 C :   -0.266992
   2 C :   -0.272051
   3 O :    0.176279
   4 C :   -0.290729
   5 C :   -0.214719
   6 C :   -0.299183
   7 C :   -0.229377
   8 O :    0.171997
   9 H :    0.116818
  10 H :    0.168035
  11 H :    0.130403
  12 H :    0.120894
  13 H :    0.151984
  14 H :    0.143472
  15 H :    0.121950
  16 H :    0.129109

  Mayer bond orders larger than 0.1
B(  0-O ,  1-C ) :   1.9668 B(  1-C ,  2-C ) :   0.8329 B(  1-C ,  9-H ) :   0.9296
B(  2-C ,  3-O ) :   0.9402 B(  2-C ,  6-C ) :   0.9195 B(  2-C , 10-H ) :   0.8853
B(  3-O ,  4-C ) :   0.8976 B(  4-C ,  5-C ) :   0.9646 B(  4-C , 11-H ) :   0.9304
B(  4-C , 12-H ) :   0.9198 B(  5-C ,  6-C ) :   0.8933 B(  5-C , 13-H ) :   0.9112
B(  5-C , 14-H ) :   0.9204 B(  6-C ,  7-C ) :   0.9863 B(  6-C ,  8-O ) :   0.8964
B(  7-C ,  8-O ) :   0.8817 B(  7-C , 15-H ) :   0.9177 B(  7-C , 16-H ) :   0.8949

MP2 TOTAL ENERGY:     -458.206126438 Eh
FINAL SINGLE POINT ENERGY      -458.206126437680

DIPOLE MOMENT
-------------
                                X             Y             Z
Electronic contribution:     -3.82725       0.13469       2.46612
Nuclear contribution   :      4.75536      -0.48681      -2.97145
                        -----------------------------------------
Total Dipole Moment    :      0.92811      -0.35212      -0.50533
                        -----------------------------------------
Magnitude (a.u.)       :      1.11388
Magnitude (Debye)      :      2.83127

                             ****ORCA TERMINATED NORMALLY****
TOTAL RUN TIME: 0 days 0 hours 17 minutes 6 seconds 304 msec
