                         Program Version 3.0.3 - RELEASE   -
|  1> ! RI-MP2 RIJK def2-TZVP def2-TZVP/C def2-TZVP/JK TIGHTSCF
|  2> % maxcore 2000
|  3> % mp2 density relaxed end
|  4> *xyz 0 1
|  5>  C       -0.0050826306     1.5992875836     0.0200119519
|  6>  C        0.0609395939     0.0731861082    -0.0270066329
|  7>  C        0.9249597773    -0.5533238234    -1.1487446479
|  8>  C        2.3648298509    -0.1605218971    -0.7162975732
|  9>  C        2.0787465419    -1.1231842381     0.4556006702
| 10>  C        1.2404684068    -1.9777764101    -0.5411960915
| 11>  C        0.1584753937    -2.6508987838     0.2995379221
| 12>  O        0.0769890560    -1.8370333363     1.4809529198
| 13>  C        0.7861581835    -0.6353164016     1.1638620914
| 14>  H        0.9727221635     2.0648228276     0.1721358782
| 15>  H       -0.4221196298     2.0034168756    -0.9092776354
| 16>  H       -0.6515971149     1.9257396083     0.8416136801
| 17>  H       -0.9650621390    -0.3070718891    -0.0648381515
| 18>  H        0.5800624959    -0.4315884583    -2.1768477901
| 19>  H        3.1245629539    -0.5658247235    -1.3898675132
| 20>  H        2.5909762588     0.8871869646    -0.5085254826
| 21>  H        2.8563129911    -1.5494992638     1.0889381373
| 22>  H        1.8030774860    -2.6293933965    -1.2099703098
| 23>  H       -0.8155399176    -2.6970499105    -0.2077570525
| 24>  H        0.4353738026    -3.6703312188     0.5935899430
| 25>  H        0.8903292661    -0.0538066869     2.0806447464
| 26> *
| 27>
| 28>                          ****END OF INPUT****

CARTESIAN COORDINATES (ANGSTROEM)
---------------------------------
  C     -0.005083    1.599288    0.020012
  C      0.060940    0.073186   -0.027007
  C      0.924960   -0.553324   -1.148745
  C      2.364830   -0.160522   -0.716298
  C      2.078747   -1.123184    0.455601
  C      1.240468   -1.977776   -0.541196
  C      0.158475   -2.650899    0.299538
  O      0.076989   -1.837033    1.480953
  C      0.786158   -0.635316    1.163862
  H      0.972722    2.064823    0.172136
  H     -0.422120    2.003417   -0.909278
  H     -0.651597    1.925740    0.841614
  H     -0.965062   -0.307072   -0.064838
  H      0.580062   -0.431588   -2.176848
  H      3.124563   -0.565825   -1.389868
  H      2.590976    0.887187   -0.508525
  H      2.856313   -1.549499    1.088938
  H      1.803077   -2.629393   -1.209970
  H     -0.815540   -2.697050   -0.207757
  H      0.435374   -3.670331    0.593590
  H      0.890329   -0.053807    2.080645

 Total Charge           Charge          ....    0
 Multiplicity           Mult            ....    1
 Number of Electrons    NEL             ....   68
 Basis Dimension        Dim             ....  351

ORBITAL ENERGIES
----------------

  NO   OCC          E(Eh)            E(eV)
   0   2.0000     -20.541993      -558.9760
   1   2.0000     -11.272714      -306.7461
   2   2.0000     -11.266582      -306.5793
   3   2.0000     -11.234505      -305.7064
   4   2.0000     -11.232100      -305.6410
   5   2.0000     -11.228270      -305.5368
   6   2.0000     -11.224327      -305.4295
   7   2.0000     -11.224187      -305.4257
   8   2.0000     -11.214642      -305.1659
   9   2.0000      -1.370054       -37.2811
  10   2.0000      -1.176054       -32.0021
  11   2.0000      -1.030063       -28.0294
  12   2.0000      -0.974191       -26.5091
  13   2.0000      -0.925635       -25.1878
  14   2.0000      -0.896139       -24.3852
  15   2.0000      -0.822769       -22.3887
  16   2.0000      -0.754882       -20.5414
  17   2.0000      -0.727441       -19.7947
  18   2.0000      -0.695085       -18.9142
  19   2.0000      -0.657724       -17.8976
  20   2.0000      -0.641230       -17.4488
  21   2.0000      -0.600025       -16.3275
  22   2.0000      -0.580599       -15.7989
  23   2.0000      -0.547800       -14.9064
  24   2.0000      -0.544382       -14.8134
  25   2.0000      -0.522017       -14.2048
  26   2.0000      -0.518751       -14.1159
  27   2.0000      -0.487010       -13.2522
  28   2.0000      -0.482665       -13.1340
  29   2.0000      -0.464277       -12.6336
  30   2.0000      -0.455211       -12.3869
  31   2.0000      -0.428453       -11.6588
  32   2.0000      -0.417441       -11.3591
  33   2.0000      -0.385583       -10.4923
  34   0.0000       0.138691         3.7740
  35   0.0000       0.154091         4.1930
  36   0.0000       0.160759         4.3745
  37   0.0000       0.176299         4.7973
  38   0.0000       0.192216         5.2305

MULLIKEN ATOMIC CHARGES
-----------------------
   0 C :   -0.429655
   1 C :   -0.118793
   2 C :   -0.034583
   3 C :   -0.284743
   4 C :   -0.120171
   5 C :   -0.145572
   6 C :   -0.068841
   7 O :   -0.325954
   8 C :    0.089355
   9 H :    0.122611
  10 H :    0.133887
  11 H :    0.140225
  12 H :    0.107878
  13 H :    0.125779
  14 H :    0.116525
  15 H :    0.118240
  16 H :    0.123958
  17 H :    0.124953
  18 H :    0.097098
  19 H :    0.110849
  20 H :    0.116955
Sum of atomic charges:    0.0000000

LOEWDIN ATOMIC CHARGES
----------------------
   0 C :   -0.293318
   1 C :   -0.223988
   2 C :   -0.164429
   3 C :   -0.199307
   4 C :   -0.166808
   5 C :   -0.180466
   6 C :   -0.277563
   7 O :    0.155993
   8 C :   -0.243173
   9 H :    0.120540
  10 H :    0.125636
  11 H :    0.126354
  12 H :    0.156517
  13 H :    0.132501
  14 H :    0.138838
  15 H :    0.123147
  16 H :    0.134968
  17 H :    0.148536
  18 H :    0.121504
  19 H :    0.125377
  20 H :    0.139139

  Mayer bond orders larger than 0.1
B(  0-C ,  1-C ) :   0.9006 B(  0-C ,  9-H ) :   0.9337 B(  0-C , 10-H ) :   0.9408
B(  0-C , 11-H ) :   0.9427 B(  1-C ,  2-C ) :   0.8986 B(  1-C ,  8-C ) :   0.8855
B(  1-C , 12-H ) :   0.9328 B(  2-C ,  3-C ) :   0.8941 B(  2-C ,  5-C ) :   0.8986
B(  2-C , 13-H ) :   0.9058 B(  3-C ,  4-C ) :   0.9130 B(  3-C , 14-H ) :   0.9199
B(  3-C , 15-H ) :   0.9243 B(  4-C ,  5-C ) :   0.8978 B(  4-C ,  8-C ) :   0.9252
B(  4-C , 16-H ) :   0.9195 B(  5-C ,  6-C ) :   0.9795 B(  5-C , 17-H ) :   0.9184
B(  6-C ,  7-O ) :   0.9435 B(  6-C , 18-H ) :   0.9170 B(  6-C , 19-H ) :   0.9235
B(  7-O ,  8-C ) :   0.9459 B(  8-C , 20-H ) :   0.9238

MP2 TOTAL ENERGY:     -386.415586997 Eh
FINAL SINGLE POINT ENERGY      -386.415586997422

DIPOLE MOMENT
-------------
                                X             Y             Z
Electronic contribution:     -0.09496      -4.15543       2.43637
Nuclear contribution   :      0.39720       4.30648      -3.02108
                        -----------------------------------------
Total Dipole Moment    :      0.30224       0.15105      -0.58471
                        -----------------------------------------
Magnitude (a.u.)       :      0.67532
Magnitude (Debye)      :      1.71651

                             ****ORCA TERMINATED NORMALLY****
TOTAL RUN TIME: 0 days 0 hours 20 minutes 25 seconds 23 msec
