                         Program Version 3.0.3 - RELEASE   -
|  1> ! RI-MP2 RIJK def2-TZVP def2-TZVP/C def2-TZVP/JK TIGHTSCF
|  2> % maxcore 2000
|  3> % mp2 density relaxed end
|  4> *xyz 0 1
|  5>  C        0.0049541241     1.5067216549     0.1460354233
|  6>  N       -0.0353856159     0.0463328289     0.1224147925
|  7>  C       -1.3506984576    -0.5557823515    -0.0672946953
|  8>  C       -2.1315836402    -0.2053543040    -1.3715606989
|  9>  C       -3.1787292561    -1.3260085927    -1.5192754596
| 10>  C       -2.5859898168    -2.5652031644    -0.7802973927
| 11>  C       -1.2467027300    -2.0995967429    -0.1736096776
| 12>  C       -2.1916701681    -0.2084043589     1.0984847273
| 13>  N       -2.8770142619     0.0593001724     1.9899317431
| 14>  H        1.0389603808     1.8262356491     0.3011460658
| 15>  H       -0.3720264492     1.9927349951    -0.7682462000
| 16>  H       -0.5861723568     1.8723249795     0.9911645991
| 17>  H        0.5803444498    -0.3088166874    -0.6015213378
| 18>  H       -2.5699812616     0.7944470050    -1.3555048619
| 19>  H       -1.4038865562    -0.2374289205    -2.1918494622
| 20>  H       -4.1205003915    -1.0246555542    -1.0530890666
| 21>  H       -3.3980592526    -1.5324229049    -2.5696751135
| 22>  H       -3.2665608103    -2.8998158448     0.0065956123
| 23>  H       -2.4386789213    -3.4144177725    -1.4519080027
| 24>  H       -0.4163597140    -2.3148723634    -0.8571214070
| 25>  H       -1.0090487346    -2.5627594428     0.7853919425
| 26> *
| 27>
| 28>                          ****END OF INPUT****

CARTESIAN COORDINATES (ANGSTROEM)
---------------------------------
  C      0.004954    1.506722    0.146035
  N     -0.035386    0.046333    0.122415
  C     -1.350698   -0.555782   -0.067295
  C     -2.131584   -0.205354   -1.371561
  C     -3.178729   -1.326009   -1.519275
  C     -2.585990   -2.565203   -0.780297
  C     -1.246703   -2.099597   -0.173610
  C     -2.191670   -0.208404    1.098485
  N     -2.877014    0.059300    1.989932
  H      1.038960    1.826236    0.301146
  H     -0.372026    1.992735   -0.768246
  H     -0.586172    1.872325    0.991165
  H      0.580344   -0.308817   -0.601521
  H     -2.569981    0.794447   -1.355505
  H     -1.403887   -0.237429   -2.191849
  H     -4.120500   -1.024656   -1.053089
  H     -3.398059   -1.532423   -2.569675
  H     -3.266561   -2.899816    0.006596
  H     -2.438679   -3.414418   -1.451908
  H     -0.416360   -2.314872   -0.857121
  H     -1.009049   -2.562759    0.785392

 Total Charge           Charge          ....    0
 Multiplicity           Mult            ....    1
 Number of Electrons    NEL             ....   68
 Basis Dimension        Dim             ....  351

ORBITAL ENERGIES
----------------

  NO   OCC          E(Eh)            E(eV)
   0   2.0000     -15.564223      -423.5240
   1   2.0000     -15.563736      -423.5108
   2   2.0000     -11.309749      -307.7539
   3   2.0000     -11.264040      -306.5101
   4   2.0000     -11.253334      -306.2188
   5   2.0000     -11.241919      -305.9082
   6   2.0000     -11.241446      -305.8953
   7   2.0000     -11.232887      -305.6624
   8   2.0000     -11.232060      -305.6399
   9   2.0000      -1.246944       -33.9311
  10   2.0000      -1.203048       -32.7366
  11   2.0000      -1.122955       -30.5572
  12   2.0000      -0.992253       -27.0006
  13   2.0000      -0.984000       -26.7760
  14   2.0000      -0.900405       -24.5013
  15   2.0000      -0.849927       -23.1277
  16   2.0000      -0.796039       -21.6613
  17   2.0000      -0.692458       -18.8427
  18   2.0000      -0.684554       -18.6277
  19   2.0000      -0.638143       -17.3648
  20   2.0000      -0.629302       -17.1242
  21   2.0000      -0.610548       -16.6138
  22   2.0000      -0.587322       -15.9819
  23   2.0000      -0.562054       -15.2943
  24   2.0000      -0.552111       -15.0237
  25   2.0000      -0.529255       -14.4018
  26   2.0000      -0.512214       -13.9381
  27   2.0000      -0.509482       -13.8637
  28   2.0000      -0.496376       -13.5071
  29   2.0000      -0.488561       -13.2944
  30   2.0000      -0.474546       -12.9131
  31   2.0000      -0.458388       -12.4734
  32   2.0000      -0.445649       -12.1267
  33   2.0000      -0.385586       -10.4923
  34   0.0000       0.119108         3.2411
  35   0.0000       0.145247         3.9524
  36   0.0000       0.150581         4.0975
  37   0.0000       0.158408         4.3105
  38   0.0000       0.173310         4.7160

MULLIKEN ATOMIC CHARGES
-----------------------
   0 C :   -0.318693
   1 N :   -0.332337
   2 C :    0.346021
   3 C :   -0.275698
   4 C :   -0.241334
   5 C :   -0.250936
   6 C :   -0.269023
   7 C :   -0.291311
   8 N :   -0.040276
   9 H :    0.142897
  10 H :    0.117110
  11 H :    0.154325
  12 H :    0.204823
  13 H :    0.146316
  14 H :    0.114580
  15 H :    0.136021
  16 H :    0.127362
  17 H :    0.135586
  18 H :    0.126260
  19 H :    0.117404
  20 H :    0.150899
Sum of atomic charges:    0.0000000

LOEWDIN ATOMIC CHARGES
----------------------
   0 C :   -0.338458
   1 N :    0.009001
   2 C :   -0.326967
   3 C :   -0.209482
   4 C :   -0.247066
   5 C :   -0.245452
   6 C :   -0.198927
   7 C :   -0.144160
   8 N :    0.064236
   9 H :    0.118402
  10 H :    0.101340
  11 H :    0.125615
  12 H :    0.172551
  13 H :    0.141519
  14 H :    0.141426
  15 H :    0.141054
  16 H :    0.134001
  17 H :    0.140442
  18 H :    0.134198
  19 H :    0.141304
  20 H :    0.145423

  Mayer bond orders larger than 0.1
B(  0-C ,  1-N ) :   0.9199 B(  0-C ,  9-H ) :   0.9360 B(  0-C , 10-H ) :   0.9285
B(  0-C , 11-H ) :   0.9328 B(  1-N ,  2-C ) :   0.9405 B(  1-N , 12-H ) :   0.8693
B(  2-C ,  3-C ) :   0.8748 B(  2-C ,  6-C ) :   0.8364 B(  2-C ,  7-C ) :   0.8918
B(  3-C ,  4-C ) :   0.9445 B(  3-C , 13-H ) :   0.9173 B(  3-C , 14-H ) :   0.9222
B(  4-C ,  5-C ) :   0.9182 B(  4-C , 15-H ) :   0.9290 B(  4-C , 16-H ) :   0.9286
B(  5-C ,  6-C ) :   0.9485 B(  5-C , 17-H ) :   0.9313 B(  5-C , 18-H ) :   0.9338
B(  6-C , 19-H ) :   0.9243 B(  6-C , 20-H ) :   0.9278 B(  7-C ,  8-N ) :   2.8897

MP2 TOTAL ENERGY:     -382.618777203 Eh
FINAL SINGLE POINT ENERGY      -382.618777202732

DIPOLE MOMENT
-------------
                                X             Y             Z
Electronic contribution:     -1.60374       0.52398       5.61636
Nuclear contribution   :      2.29782      -0.80200      -7.18694
                        -----------------------------------------
Total Dipole Moment    :      0.69408      -0.27801      -1.57057
                        -----------------------------------------
Magnitude (a.u.)       :      1.73947
Magnitude (Debye)      :      4.42137

                             ****ORCA TERMINATED NORMALLY****
TOTAL RUN TIME: 0 days 0 hours 21 minutes 54 seconds 743 msec
