                         Program Version 3.0.3 - RELEASE   -
|  1> ! RI-MP2 RIJK def2-TZVP def2-TZVP/C def2-TZVP/JK TIGHTSCF
|  2> % maxcore 2000
|  3> % mp2 density relaxed end
|  4> *xyz 0 1
|  5>  C       -0.0305805442     1.4813030361     0.0380630366
|  6>  C       -0.0680325195    -0.0099411281     0.0528993764
|  7>  N       -0.2553031586    -0.6938019075    -1.0447157504
|  8>  O       -0.2334187886    -2.0462372926    -0.6668576052
|  9>  C       -0.0335199896    -2.1458725916     0.6477714796
| 10>  C        0.0224904659    -3.5026954309     1.2465309318
| 11>  C        0.0821101099    -0.8878367260     1.1801165877
| 12>  C        0.2996429272    -0.5407722171     2.5320510489
| 13>  N        0.4778629533    -0.2475061655     3.6386499309
| 14>  H        0.9286584087     1.8475591671     0.4168835523
| 15>  H       -0.1750216942     1.8479856104    -0.9792171476
| 16>  H       -0.8143373706     1.8939625201     0.6809283771
| 17>  H        0.8320756620    -4.0879404428     0.7992176685
| 18>  H        0.1901967955    -3.4300742275     2.3222160818
| 19>  H       -0.9134995672    -4.0414014040     1.0682930116
| 20> *
| 21>
| 22>                          ****END OF INPUT****

CARTESIAN COORDINATES (ANGSTROEM)
---------------------------------
  C     -0.030581    1.481303    0.038063
  C     -0.068033   -0.009941    0.052899
  N     -0.255303   -0.693802   -1.044716
  O     -0.233419   -2.046237   -0.666858
  C     -0.033520   -2.145873    0.647771
  C      0.022490   -3.502695    1.246531
  C      0.082110   -0.887837    1.180117
  C      0.299643   -0.540772    2.532051
  N      0.477863   -0.247506    3.638650
  H      0.928658    1.847559    0.416884
  H     -0.175022    1.847986   -0.979217
  H     -0.814337    1.893963    0.680928
  H      0.832076   -4.087940    0.799218
  H      0.190197   -3.430074    2.322216
  H     -0.913500   -4.041401    1.068293

 Total Charge           Charge          ....    0
 Multiplicity           Mult            ....    1
 Number of Electrons    NEL             ....   64
 Basis Dimension        Dim             ....  315

ORBITAL ENERGIES
----------------

  NO   OCC          E(Eh)            E(eV)
   0   2.0000     -20.665747      -562.3436
   1   2.0000     -15.635911      -425.4748
   2   2.0000     -15.582487      -424.0210
   3   2.0000     -11.361963      -309.1747
   4   2.0000     -11.313980      -307.8691
   5   2.0000     -11.290109      -307.2195
   6   2.0000     -11.281885      -306.9957
   7   2.0000     -11.269437      -306.6570
   8   2.0000     -11.254280      -306.2445
   9   2.0000      -1.516591       -41.2685
  10   2.0000      -1.231949       -33.5230
  11   2.0000      -1.203308       -32.7437
  12   2.0000      -1.128664       -30.7125
  13   2.0000      -1.014827       -27.6149
  14   2.0000      -1.005053       -27.3489
  15   2.0000      -0.881242       -23.9798
  16   2.0000      -0.799892       -21.7662
  17   2.0000      -0.758924       -20.6514
  18   2.0000      -0.693696       -18.8764
  19   2.0000      -0.672434       -18.2979
  20   2.0000      -0.618150       -16.8207
  21   2.0000      -0.609169       -16.5763
  22   2.0000      -0.597076       -16.2473
  23   2.0000      -0.590429       -16.0664
  24   2.0000      -0.574570       -15.6349
  25   2.0000      -0.568346       -15.4655
  26   2.0000      -0.558203       -15.1895
  27   2.0000      -0.523947       -14.2573
  28   2.0000      -0.507062       -13.7979
  29   2.0000      -0.469010       -12.7624
  30   2.0000      -0.430512       -11.7148
  31   2.0000      -0.375284       -10.2120
  32   0.0000       0.094229         2.5641
  33   0.0000       0.122968         3.3461
  34   0.0000       0.137786         3.7494
  35   0.0000       0.143082         3.8935
  36   0.0000       0.174768         4.7557

MULLIKEN ATOMIC CHARGES
-----------------------
   0 C :   -0.425428
   1 C :    0.079907
   2 N :   -0.101418
   3 O :   -0.100453
   4 C :    0.167747
   5 C :   -0.417566
   6 C :    0.057013
   7 C :   -0.198396
   8 N :   -0.044565
   9 H :    0.158829
  10 H :    0.166099
  11 H :    0.158813
  12 H :    0.165061
  13 H :    0.169293
  14 H :    0.165065
Sum of atomic charges:    0.0000000

LOEWDIN ATOMIC CHARGES
----------------------
   0 C :   -0.254682
   1 C :   -0.260646
   2 N :    0.077970
   3 O :    0.308890
   4 C :   -0.248046
   5 C :   -0.252323
   6 C :   -0.158321
   7 C :   -0.154490
   8 N :    0.079856
   9 H :    0.141624
  10 H :    0.142067
  11 H :    0.141635
  12 H :    0.144802
  13 H :    0.146863
  14 H :    0.144801

  Mayer bond orders larger than 0.1
B(  0-C ,  1-C ) :   0.8715 B(  0-C ,  9-H ) :   0.9269 B(  0-C , 10-H ) :   0.9456
B(  0-C , 11-H ) :   0.9268 B(  1-C ,  2-N ) :   1.6596 B(  1-C ,  6-C ) :   1.1401
B(  2-N ,  3-O ) :   0.8511 B(  3-O ,  4-C ) :   1.1727 B(  4-C ,  5-C ) :   0.8650
B(  4-C ,  6-C ) :   1.4610 B(  5-C , 12-H ) :   0.9242 B(  5-C , 13-H ) :   0.9452
B(  5-C , 14-H ) :   0.9242 B(  6-C ,  7-C ) :   0.8784 B(  7-C ,  8-N ) :   2.8557

MP2 TOTAL ENERGY:     -416.119487615 Eh
FINAL SINGLE POINT ENERGY      -416.119487614635

DIPOLE MOMENT
-------------
                                X             Y             Z
Electronic contribution:      0.01144      -0.32457       0.12924
Nuclear contribution   :     -0.08213      -0.11362      -0.51164
                        -----------------------------------------
Total Dipole Moment    :     -0.07069      -0.43818      -0.38240
                        -----------------------------------------
Magnitude (a.u.)       :      0.58586
Magnitude (Debye)      :      1.48914

                             ****ORCA TERMINATED NORMALLY****
TOTAL RUN TIME: 0 days 0 hours 16 minutes 35 seconds 895 msec
