                         Program Version 3.0.3 - RELEASE   -
|  1> ! RI-MP2 RIJK def2-TZVP def2-TZVP/C def2-TZVP/JK TIGHTSCF
|  2> % maxcore 2000
|  3> % mp2 density relaxed end
|  4> *xyz 0 1
|  5>  C       -0.0177013404     1.5123775195     0.0377401524
|  6>  C        0.0015908852     0.0059564303     0.0023467695
|  7>  C       -0.0205580568    -0.6711240983    -1.1882442562
|  8>  C       -0.0025138807    -2.1094096255    -1.2559803994
|  9>  O       -0.0199191367    -2.8248634063    -2.2438577961
| 10>  N        0.0388320267    -2.7226792790     0.0302737973
| 11>  C        0.0609411285    -2.0591312388     1.2169784008
| 12>  O        0.1002757261    -2.7743183165     2.3609030745
| 13>  C        0.0434749976    -0.6954910795     1.2414765926
| 14>  H        0.8717183610     1.8996563719     0.5475967991
| 15>  H       -0.0509075342     1.9375366906    -0.9673244678
| 16>  H       -0.8879452194     1.8760162565     0.5957927849
| 17>  H       -0.0527244024    -0.1497315782    -2.1365513332
| 18>  H        0.0512731661    -3.7333436519    -0.0097243215
| 19>  H        0.1075372637    -3.7196928593     2.1774081839
| 20>  H        0.0614132357    -0.1830266155     2.1928859091
| 21> *
| 22>
| 23>                          ****END OF INPUT****

CARTESIAN COORDINATES (ANGSTROEM)
---------------------------------
  C     -0.017701    1.512378    0.037740
  C      0.001591    0.005956    0.002347
  C     -0.020558   -0.671124   -1.188244
  C     -0.002514   -2.109410   -1.255980
  O     -0.019919   -2.824863   -2.243858
  N      0.038832   -2.722679    0.030274
  C      0.060941   -2.059131    1.216978
  O      0.100276   -2.774318    2.360903
  C      0.043475   -0.695491    1.241477
  H      0.871718    1.899656    0.547597
  H     -0.050908    1.937537   -0.967324
  H     -0.887945    1.876016    0.595793
  H     -0.052724   -0.149732   -2.136551
  H      0.051273   -3.733344   -0.009724
  H      0.107537   -3.719693    2.177408
  H      0.061413   -0.183027    2.192886

 Total Charge           Charge          ....    0
 Multiplicity           Mult            ....    1
 Number of Electrons    NEL             ....   66
 Basis Dimension        Dim             ....  321

ORBITAL ENERGIES
----------------

  NO   OCC          E(Eh)            E(eV)
   0   2.0000     -20.634173      -561.4844
   1   2.0000     -20.509824      -558.1007
   2   2.0000     -15.626728      -425.2249
   3   2.0000     -11.379448      -309.6505
   4   2.0000     -11.353741      -308.9510
   5   2.0000     -11.278389      -306.9006
   6   2.0000     -11.238206      -305.8071
   7   2.0000     -11.222726      -305.3859
   8   2.0000     -11.218905      -305.2819
   9   2.0000      -1.462518       -39.7971
  10   2.0000      -1.378137       -37.5010
  11   2.0000      -1.267844       -34.4998
  12   2.0000      -1.123544       -30.5732
  13   2.0000      -1.024982       -27.8912
  14   2.0000      -0.980680       -26.6857
  15   2.0000      -0.870158       -23.6782
  16   2.0000      -0.846163       -23.0253
  17   2.0000      -0.795211       -21.6388
  18   2.0000      -0.729484       -19.8503
  19   2.0000      -0.696418       -18.9505
  20   2.0000      -0.655301       -17.8317
  21   2.0000      -0.634608       -17.2686
  22   2.0000      -0.620725       -16.8908
  23   2.0000      -0.615454       -16.7474
  24   2.0000      -0.589270       -16.0349
  25   2.0000      -0.571336       -15.5468
  26   2.0000      -0.563178       -15.3249
  27   2.0000      -0.542179       -14.7534
  28   2.0000      -0.530712       -14.4414
  29   2.0000      -0.469395       -12.7729
  30   2.0000      -0.428263       -11.6536
  31   2.0000      -0.410360       -11.1665
  32   2.0000      -0.303845        -8.2681
  33   0.0000       0.102569         2.7911
  34   0.0000       0.106592         2.9005
  35   0.0000       0.140339         3.8188
  36   0.0000       0.159231         4.3329
  37   0.0000       0.178793         4.8652

MULLIKEN ATOMIC CHARGES
-----------------------
   0 C :   -0.431161
   1 C :    0.146484
   2 C :   -0.233099
   3 C :    0.214933
   4 O :   -0.369546
   5 N :   -0.250170
   6 C :    0.305819
   7 O :   -0.383952
   8 C :   -0.278104
   9 H :    0.147478
  10 H :    0.142640
  11 H :    0.147435
  12 H :    0.133664
  13 H :    0.232952
  14 H :    0.329762
  15 H :    0.144865
Sum of atomic charges:    0.0000000

LOEWDIN ATOMIC CHARGES
----------------------
   0 C :   -0.255958
   1 C :   -0.166087
   2 C :   -0.120191
   3 C :   -0.428473
   4 O :    0.061568
   5 N :    0.193966
   6 C :   -0.340189
   7 O :    0.099741
   8 C :   -0.150116
   9 H :    0.135249
  10 H :    0.131043
  11 H :    0.135222
  12 H :    0.156002
  13 H :    0.197367
  14 H :    0.193392
  15 H :    0.157464

  Mayer bond orders larger than 0.1
B(  0-C ,  1-C ) :   0.8701 B(  0-C ,  9-H ) :   0.9307 B(  0-C , 10-H ) :   0.9490
B(  0-C , 11-H ) :   0.9308 B(  1-C ,  2-C ) :   1.4341 B(  1-C ,  8-C ) :   1.1124
B(  2-C ,  3-C ) :   1.1102 B(  2-C , 12-H ) :   0.9393 B(  3-C ,  4-O ) :   1.9610
B(  3-C ,  5-N ) :   1.0003 B(  5-N ,  6-C ) :   1.1863 B(  5-N , 13-H ) :   0.8539
B(  6-C ,  7-O ) :   1.1469 B(  6-C ,  8-C ) :   1.4884 B(  7-O , 14-H ) :   0.8244
B(  8-C , 15-H ) :   0.9369

MP2 TOTAL ENERGY:     -437.233593828 Eh
FINAL SINGLE POINT ENERGY      -437.233593828420

DIPOLE MOMENT
-------------
                                X             Y             Z
Electronic contribution:      0.08280      -7.37231      -0.64191
Nuclear contribution   :     -0.04765       7.35271       1.97034
                        -----------------------------------------
Total Dipole Moment    :      0.03515      -0.01960       1.32843
                        -----------------------------------------
Magnitude (a.u.)       :      1.32904
Magnitude (Debye)      :      3.37814

                             ****ORCA TERMINATED NORMALLY****
TOTAL RUN TIME: 0 days 0 hours 15 minutes 0 seconds 986 msec
