                         Program Version 3.0.3 - RELEASE   -
|  1> ! RI-MP2 RIJK def2-TZVP def2-TZVP/C def2-TZVP/JK TIGHTSCF
|  2> % maxcore 2000
|  3> % mp2 density relaxed end
|  4> *xyz 0 1
|  5>  C       -0.1137676047     1.5112814423    -0.0956581781
|  6>  C        0.0208289044     0.0001326039     0.0933153993
|  7>  C        0.4266726329    -0.6982448568    -1.2135295806
|  8>  N        0.7282258411    -2.0895930321    -0.9403382986
|  9>  C        1.1296419023    -2.4960083504     0.2924466161
| 10>  C        1.3950428801    -3.9626081036     0.4167816053
| 11>  O        1.2713827196    -4.7366306855    -0.5028894987
| 12>  N        1.3031330059    -1.7813774155     1.3462552217
| 13>  C        1.0332555205    -0.3546753633     1.1990229374
| 14>  H        0.8408277458     1.9563728784    -0.3996701311
| 15>  H       -0.8555610194     1.7551241737    -0.8637002424
| 16>  H       -0.4254182434     1.9968537185     0.8343881465
| 17>  H       -0.9519138440    -0.4103063298     0.3947294080
| 18>  H       -0.3859584272    -0.6404320908    -1.9461008780
| 19>  H        1.2953952587    -0.1848114566    -1.6547793653
| 20>  H        0.6538011422    -2.8036524094    -1.6478615397
| 21>  H        1.7141423446    -4.2639236724     1.4319421434
| 22>  H        1.9862065157     0.1633389587     1.0053970082
| 23>  H        0.6775615648     0.0273318108     2.1630349664
| 24> *
| 25>
| 26>                          ****END OF INPUT****

CARTESIAN COORDINATES (ANGSTROEM)
---------------------------------
  C     -0.113768    1.511281   -0.095658
  C      0.020829    0.000133    0.093315
  C      0.426673   -0.698245   -1.213530
  N      0.728226   -2.089593   -0.940338
  C      1.129642   -2.496008    0.292447
  C      1.395043   -3.962608    0.416782
  O      1.271383   -4.736631   -0.502889
  N      1.303133   -1.781377    1.346255
  C      1.033256   -0.354675    1.199023
  H      0.840828    1.956373   -0.399670
  H     -0.855561    1.755124   -0.863700
  H     -0.425418    1.996854    0.834388
  H     -0.951914   -0.410306    0.394729
  H     -0.385958   -0.640432   -1.946101
  H      1.295395   -0.184811   -1.654779
  H      0.653801   -2.803652   -1.647862
  H      1.714142   -4.263924    1.431942
  H      1.986207    0.163339    1.005397
  H      0.677562    0.027332    2.163035

 Total Charge           Charge          ....    0
 Multiplicity           Mult            ....    1
 Number of Electrons    NEL             ....   68
 Basis Dimension        Dim             ....  339

ORBITAL ENERGIES
----------------

  NO   OCC          E(Eh)            E(eV)
   0   2.0000     -20.573580      -559.8356
   1   2.0000     -15.580237      -423.9598
   2   2.0000     -15.546274      -423.0356
   3   2.0000     -11.341361      -308.6141
   4   2.0000     -11.317236      -307.9576
   5   2.0000     -11.273654      -306.7717
   6   2.0000     -11.253158      -306.2140
   7   2.0000     -11.240229      -305.8622
   8   2.0000     -11.227182      -305.5072
   9   2.0000      -1.411434       -38.4071
  10   2.0000      -1.292826       -35.1796
  11   2.0000      -1.180525       -32.1237
  12   2.0000      -1.091785       -29.7090
  13   2.0000      -0.970286       -26.4028
  14   2.0000      -0.926609       -25.2143
  15   2.0000      -0.879430       -23.9305
  16   2.0000      -0.816502       -22.2181
  17   2.0000      -0.743538       -20.2327
  18   2.0000      -0.727849       -19.8058
  19   2.0000      -0.678078       -18.4514
  20   2.0000      -0.650954       -17.7134
  21   2.0000      -0.639862       -17.4115
  22   2.0000      -0.602433       -16.3930
  23   2.0000      -0.596780       -16.2392
  24   2.0000      -0.588081       -16.0025
  25   2.0000      -0.555576       -15.1180
  26   2.0000      -0.550146       -14.9702
  27   2.0000      -0.539686       -14.6856
  28   2.0000      -0.501999       -13.6601
  29   2.0000      -0.489987       -13.3332
  30   2.0000      -0.457565       -12.4510
  31   2.0000      -0.448877       -12.2146
  32   2.0000      -0.404442       -11.0054
  33   2.0000      -0.349221        -9.5028
  34   0.0000       0.086299         2.3483
  35   0.0000       0.126666         3.4468
  36   0.0000       0.154100         4.1933
  37   0.0000       0.166114         4.5202
  38   0.0000       0.173569         4.7230

MULLIKEN ATOMIC CHARGES
-----------------------
   0 C :   -0.404361
   1 C :   -0.074675
   2 C :   -0.121952
   3 N :   -0.335318
   4 C :    0.157663
   5 C :    0.107440
   6 O :   -0.295808
   7 N :   -0.267456
   8 C :   -0.122203
   9 H :    0.128588
  10 H :    0.135669
  11 H :    0.141156
  12 H :    0.098533
  13 H :    0.131192
  14 H :    0.113551
  15 H :    0.254542
  16 H :    0.109413
  17 H :    0.112148
  18 H :    0.131877
Sum of atomic charges:   -0.0000000

LOEWDIN ATOMIC CHARGES
----------------------
   0 C :   -0.291114
   1 C :   -0.283973
   2 C :   -0.255419
   3 N :    0.115872
   4 C :   -0.379544
   5 C :   -0.247236
   6 O :    0.126651
   7 N :    0.092042
   8 C :   -0.274793
   9 H :    0.125031
  10 H :    0.125373
  11 H :    0.127895
  12 H :    0.156160
  13 H :    0.136766
  14 H :    0.132513
  15 H :    0.191560
  16 H :    0.125834
  17 H :    0.138866
  18 H :    0.137515

  Mayer bond orders larger than 0.1
B(  0-C ,  1-C ) :   0.9187 B(  0-C ,  9-H ) :   0.9293 B(  0-C , 10-H ) :   0.9379
B(  0-C , 11-H ) :   0.9399 B(  1-C ,  2-C ) :   0.9270 B(  1-C ,  8-C ) :   0.9264
B(  1-C , 12-H ) :   0.9242 B(  2-C ,  3-N ) :   0.8838 B(  2-C , 13-H ) :   0.9229
B(  2-C , 14-H ) :   0.9327 B(  3-N ,  4-C ) :   1.1623 B(  3-N , 15-H ) :   0.8515
B(  4-C ,  5-C ) :   0.8712 B(  4-C ,  7-N ) :   1.7741 B(  5-C ,  6-O ) :   1.9258
B(  5-C , 16-H ) :   0.9456 B(  7-N ,  8-C ) :   0.9307 B(  8-C , 17-H ) :   0.9174
B(  8-C , 18-H ) :   0.9282

MP2 TOTAL ENERGY:     -418.531577697 Eh
FINAL SINGLE POINT ENERGY      -418.531577697438

DIPOLE MOMENT
-------------
                                X             Y             Z
Electronic contribution:      2.77173     -11.80541       0.49551
Nuclear contribution   :     -3.16821      12.90201      -1.03845
                        -----------------------------------------
Total Dipole Moment    :     -0.39648       1.09660      -0.54294
                        -----------------------------------------
Magnitude (a.u.)       :      1.28628
Magnitude (Debye)      :      3.26946

                             ****ORCA TERMINATED NORMALLY****
TOTAL RUN TIME: 0 days 0 hours 17 minutes 59 seconds 835 msec
