                         Program Version 3.0.3 - RELEASE   -
|  1> ! RI-MP2 RIJK def2-TZVP def2-TZVP/C def2-TZVP/JK TIGHTSCF
|  2> % maxcore 2000
|  3> % mp2 density relaxed end
|  4> *xyz 0 1
|  5>  C       -0.0512353420     1.6274433708     0.1063392246
|  6>  C        0.0100703352     0.1042475360     0.1740429929
|  7>  O        0.5152801620    -0.2311849755     1.4552333258
|  8>  C       -1.3729660320    -0.5251391785    -0.0763863225
|  9>  C       -1.3931158624    -2.0576658283    -0.2083101617
| 10>  C       -0.6343734658    -2.5584882543    -1.4475184724
| 11>  O       -0.7879793661    -2.5961315392     0.9771015878
| 12>  C       -2.8467129866    -2.5542547832    -0.2402762412
| 13>  O       -2.7993773906    -3.9775173249    -0.1508598107
| 14>  H        0.9281377443     2.0469142016     0.3519696180
| 15>  H       -0.3365966606     1.9688398564    -0.8936271760
| 16>  H       -0.7758019789     2.0138317780     0.8307456321
| 17>  H        0.7041223166    -0.2426200566    -0.6111979775
| 18>  H        0.3452950622    -1.1739168290     1.5847106764
| 19>  H       -2.0218815024    -0.2337617542     0.7588912887
| 20>  H       -1.8020971261    -0.0985492514    -0.9911831403
| 21>  H        0.4283832059    -2.3198893001    -1.3702108045
| 22>  H       -0.7389207362    -3.6427251456    -1.5384961034
| 23>  H       -1.0280418530    -2.1014766751    -2.3616090855
| 24>  H       -1.0498883492    -3.5249449715     1.0154981330
| 25>  H       -3.3875412058    -2.1284885363     0.6153828080
| 26>  H       -3.3437720462    -2.2308453428    -1.1663014359
| 27>  H       -3.6701064223    -4.3015805761     0.0935545943
| 28> *
| 29>
| 30>                          ****END OF INPUT****

CARTESIAN COORDINATES (ANGSTROEM)
---------------------------------
  C     -0.051235    1.627443    0.106339
  C      0.010070    0.104248    0.174043
  O      0.515280   -0.231185    1.455233
  C     -1.372966   -0.525139   -0.076386
  C     -1.393116   -2.057666   -0.208310
  C     -0.634373   -2.558488   -1.447518
  O     -0.787979   -2.596132    0.977102
  C     -2.846713   -2.554255   -0.240276
  O     -2.799377   -3.977517   -0.150860
  H      0.928138    2.046914    0.351970
  H     -0.336597    1.968840   -0.893627
  H     -0.775802    2.013832    0.830746
  H      0.704122   -0.242620   -0.611198
  H      0.345295   -1.173917    1.584711
  H     -2.021882   -0.233762    0.758891
  H     -1.802097   -0.098549   -0.991183
  H      0.428383   -2.319889   -1.370211
  H     -0.738921   -3.642725   -1.538496
  H     -1.028042   -2.101477   -2.361609
  H     -1.049888   -3.524945    1.015498
  H     -3.387541   -2.128489    0.615383
  H     -3.343772   -2.230845   -1.166301
  H     -3.670106   -4.301581    0.093555

 Total Charge           Charge          ....    0
 Multiplicity           Mult            ....    1
 Number of Electrons    NEL             ....   74
 Basis Dimension        Dim             ....  363

ORBITAL ENERGIES
----------------

  NO   OCC          E(Eh)            E(eV)
   0   2.0000     -20.578031      -559.9567
   1   2.0000     -20.558994      -559.4387
   2   2.0000     -20.524281      -558.4941
   3   2.0000     -11.294691      -307.3442
   4   2.0000     -11.288943      -307.1878
   5   2.0000     -11.269464      -306.6577
   6   2.0000     -11.223026      -305.3941
   7   2.0000     -11.216157      -305.2071
   8   2.0000     -11.203930      -304.8744
   9   2.0000      -1.392383       -37.8887
  10   2.0000      -1.360715       -37.0269
  11   2.0000      -1.334293       -36.3079
  12   2.0000      -1.078074       -29.3359
  13   2.0000      -1.011655       -27.5285
  14   2.0000      -0.942181       -25.6380
  15   2.0000      -0.927896       -25.2493
  16   2.0000      -0.806707       -21.9516
  17   2.0000      -0.770452       -20.9651
  18   2.0000      -0.730232       -19.8706
  19   2.0000      -0.696775       -18.9602
  20   2.0000      -0.674891       -18.3647
  21   2.0000      -0.655252       -17.8303
  22   2.0000      -0.616522       -16.7764
  23   2.0000      -0.610472       -16.6118
  24   2.0000      -0.588553       -16.0153
  25   2.0000      -0.572753       -15.5854
  26   2.0000      -0.552638       -15.0380
  27   2.0000      -0.545245       -14.8369
  28   2.0000      -0.524383       -14.2692
  29   2.0000      -0.520998       -14.1771
  30   2.0000      -0.513538       -13.9741
  31   2.0000      -0.506669       -13.7872
  32   2.0000      -0.495449       -13.4819
  33   2.0000      -0.471811       -12.8386
  34   2.0000      -0.444644       -12.0994
  35   2.0000      -0.440544       -11.9878
  36   2.0000      -0.415028       -11.2935
  37   0.0000       0.118374         3.2211
  38   0.0000       0.144254         3.9253
  39   0.0000       0.167648         4.5619
  40   0.0000       0.171018         4.6536
  41   0.0000       0.187663         5.1066

MULLIKEN ATOMIC CHARGES
-----------------------
   0 C :   -0.379945
   1 C :    0.123892
   2 O :   -0.488784
   3 C :   -0.300792
   4 C :    0.288043
   5 C :   -0.450461
   6 O :   -0.527167
   7 C :   -0.092214
   8 O :   -0.495435
   9 H :    0.141088
  10 H :    0.114785
  11 H :    0.120641
  12 H :    0.069575
  13 H :    0.337388
  14 H :    0.121925
  15 H :    0.112574
  16 H :    0.150561
  17 H :    0.150845
  18 H :    0.121796
  19 H :    0.331028
  20 H :    0.120304
  21 H :    0.103337
  22 H :    0.327018
Sum of atomic charges:    0.0000000

LOEWDIN ATOMIC CHARGES
----------------------
   0 C :   -0.295812
   1 C :   -0.377799
   2 O :   -0.024838
   3 C :   -0.215766
   4 C :   -0.403854
   5 C :   -0.275686
   6 O :   -0.004947
   7 C :   -0.309664
   8 O :   -0.052932
   9 H :    0.127456
  10 H :    0.120668
  11 H :    0.124159
  12 H :    0.131695
  13 H :    0.170133
  14 H :    0.148483
  15 H :    0.149604
  16 H :    0.127258
  17 H :    0.129977
  18 H :    0.127207
  19 H :    0.179992
  20 H :    0.124142
  21 H :    0.123791
  22 H :    0.176731

  Mayer bond orders larger than 0.1
B(  0-C ,  1-C ) :   0.9022 B(  0-C ,  9-H ) :   0.9409 B(  0-C , 10-H ) :   0.9379
B(  0-C , 11-H ) :   0.9364 B(  1-C ,  2-O ) :   0.9661 B(  1-C ,  3-C ) :   0.9299
B(  1-C , 12-H ) :   0.9400 B(  2-O , 13-H ) :   0.8125 B(  3-C ,  4-C ) :   0.9010
B(  3-C , 14-H ) :   0.9245 B(  3-C , 15-H ) :   0.9160 B(  4-C ,  5-C ) :   0.9318
B(  4-C ,  6-O ) :   0.8445 B(  4-C ,  7-C ) :   0.8991 B(  5-C , 16-H ) :   0.9397
B(  5-C , 17-H ) :   0.9247 B(  5-C , 18-H ) :   0.9295 B(  6-O , 19-H ) :   0.8173
B(  7-C ,  8-O ) :   0.9820 B(  7-C , 20-H ) :   0.9343 B(  7-C , 21-H ) :   0.9285
B(  8-O , 22-H ) :   0.8430

MP2 TOTAL ENERGY:     -461.850638619 Eh
FINAL SINGLE POINT ENERGY      -461.850638618659

DIPOLE MOMENT
-------------
                                X             Y             Z
Electronic contribution:     -0.31701      -4.85235       3.92857
Nuclear contribution   :     -1.01511       4.22766      -4.64494
                        -----------------------------------------
Total Dipole Moment    :     -1.33212      -0.62469      -0.71637
                        -----------------------------------------
Magnitude (a.u.)       :      1.63645
Magnitude (Debye)      :      4.15951

                             ****ORCA TERMINATED NORMALLY****
TOTAL RUN TIME: 0 days 0 hours 19 minutes 11 seconds 870 msec
