                         Program Version 3.0.3 - RELEASE   -
|  1> ! RI-MP2 RIJK def2-TZVP def2-TZVP/C def2-TZVP/JK TIGHTSCF
|  2> % maxcore 2000
|  3> % mp2 density relaxed end
|  4> *xyz 0 1
|  5>  C       -0.0596999798     1.5548790928     0.0097342755
|  6>  C        0.0641948889     0.0325021067     0.0226794109
|  7>  O        0.8650960998    -0.3904152374    -1.0867684306
|  8>  C        1.9264084167    -1.1292671192    -0.6337797256
|  9>  O        2.7497426948    -1.6007044432    -1.3693661828
| 10>  C        1.8384240504    -1.2161293648     0.8457373499
| 11>  C        2.8718502045    -1.9712145008     1.6132426410
| 12>  C        0.7492855513    -0.5440033658     1.2415930962
| 13>  C        0.2009431940    -0.3386223510     2.6146218033
| 14>  H        0.9221612505     2.0186893123     0.1407665609
| 15>  H       -0.4783982072     1.8866683129    -0.9434380647
| 16>  H       -0.7206087943     1.8942319623     0.8129641191
| 17>  H       -0.9328097844    -0.4151588257    -0.1014649483
| 18>  H        2.9327808535    -3.0050235436     1.2571202131
| 19>  H        3.8633273864    -1.5327122623     1.4561142457
| 20>  H        2.6646780886    -1.9826071177     2.6856728553
| 21>  H        0.7749578771    -0.8839200126     3.3666119303
| 22>  H        0.2073995763     0.7231818642     2.8892284587
| 23>  H       -0.8423856471    -0.6719602371     2.6743841422
| 24> *
| 25>
| 26>                          ****END OF INPUT****

CARTESIAN COORDINATES (ANGSTROEM)
---------------------------------
  C     -0.059700    1.554879    0.009734
  C      0.064195    0.032502    0.022679
  O      0.865096   -0.390415   -1.086768
  C      1.926408   -1.129267   -0.633780
  O      2.749743   -1.600704   -1.369366
  C      1.838424   -1.216129    0.845737
  C      2.871850   -1.971215    1.613243
  C      0.749286   -0.544003    1.241593
  C      0.200943   -0.338622    2.614622
  H      0.922161    2.018689    0.140767
  H     -0.478398    1.886668   -0.943438
  H     -0.720609    1.894232    0.812964
  H     -0.932810   -0.415159   -0.101465
  H      2.932781   -3.005024    1.257120
  H      3.863327   -1.532712    1.456114
  H      2.664678   -1.982607    2.685673
  H      0.774958   -0.883920    3.366612
  H      0.207400    0.723182    2.889228
  H     -0.842386   -0.671960    2.674384

 Total Charge           Charge          ....    0
 Multiplicity           Mult            ....    1
 Number of Electrons    NEL             ....   68
 Basis Dimension        Dim             ....  339

ORBITAL ENERGIES
----------------

  NO   OCC          E(Eh)            E(eV)
   0   2.0000     -20.592641      -560.3543
   1   2.0000     -20.530606      -558.6662
   2   2.0000     -11.368544      -309.3538
   3   2.0000     -11.309406      -307.7446
   4   2.0000     -11.270978      -306.6989
   5   2.0000     -11.252478      -306.1955
   6   2.0000     -11.251182      -306.1602
   7   2.0000     -11.236444      -305.7592
   8   2.0000     -11.234194      -305.6980
   9   2.0000      -1.450534       -39.4710
  10   2.0000      -1.358872       -36.9768
  11   2.0000      -1.134684       -30.8763
  12   2.0000      -1.051287       -28.6070
  13   2.0000      -1.001998       -27.2658
  14   2.0000      -0.948861       -25.8198
  15   2.0000      -0.885156       -24.0863
  16   2.0000      -0.781907       -21.2768
  17   2.0000      -0.759476       -20.6664
  18   2.0000      -0.693378       -18.8678
  19   2.0000      -0.661706       -18.0059
  20   2.0000      -0.630425       -17.1547
  21   2.0000      -0.621387       -16.9088
  22   2.0000      -0.599559       -16.3148
  23   2.0000      -0.584615       -15.9082
  24   2.0000      -0.576919       -15.6988
  25   2.0000      -0.568950       -15.4819
  26   2.0000      -0.561820       -15.2879
  27   2.0000      -0.553688       -15.0666
  28   2.0000      -0.537275       -14.6200
  29   2.0000      -0.530884       -14.4461
  30   2.0000      -0.493633       -13.4324
  31   2.0000      -0.452212       -12.3053
  32   2.0000      -0.436039       -11.8652
  33   2.0000      -0.370842       -10.0911
  34   0.0000       0.105372         2.8673
  35   0.0000       0.121976         3.3191
  36   0.0000       0.153786         4.1847
  37   0.0000       0.163645         4.4530
  38   0.0000       0.169573         4.6143

MULLIKEN ATOMIC CHARGES
-----------------------
   0 C :   -0.399705
   1 C :    0.141209
   2 O :   -0.237341
   3 C :    0.264299
   4 O :   -0.299989
   5 C :   -0.041126
   6 C :   -0.399225
   7 C :   -0.025706
   8 C :   -0.428072
   9 H :    0.137320
  10 H :    0.152390
  11 H :    0.129745
  12 H :    0.112413
  13 H :    0.156771
  14 H :    0.155119
  15 H :    0.129280
  16 H :    0.143414
  17 H :    0.157694
  18 H :    0.151511
Sum of atomic charges:   -0.0000000

LOEWDIN ATOMIC CHARGES
----------------------
   0 C :   -0.279121
   1 C :   -0.269821
   2 O :    0.277205
   3 C :   -0.429841
   4 O :    0.131897
   5 C :   -0.143957
   6 C :   -0.258002
   7 C :   -0.130336
   8 C :   -0.261323
   9 H :    0.130883
  10 H :    0.131851
  11 H :    0.127688
  12 H :    0.153127
  13 H :    0.141734
  14 H :    0.141445
  15 H :    0.127476
  16 H :    0.133154
  17 H :    0.137859
  18 H :    0.138080

  Mayer bond orders larger than 0.1
B(  0-C ,  1-C ) :   0.8911 B(  0-C ,  9-H ) :   0.9290 B(  0-C , 10-H ) :   0.9320
B(  0-C , 11-H ) :   0.9288 B(  1-C ,  2-O ) :   0.8952 B(  1-C ,  7-C ) :   0.9633
B(  1-C , 12-H ) :   0.9066 B(  2-O ,  3-C ) :   1.0979 B(  3-C ,  4-O ) :   2.0311
B(  3-C ,  5-C ) :   0.9644 B(  5-C ,  6-C ) :   0.8727 B(  5-C ,  7-C ) :   1.6604
B(  6-C , 13-H ) :   0.9246 B(  6-C , 14-H ) :   0.9254 B(  6-C , 15-H ) :   0.9607
B(  7-C ,  8-C ) :   0.8674 B(  8-C , 16-H ) :   0.9469 B(  8-C , 17-H ) :   0.9296
B(  8-C , 18-H ) :   0.9311

MP2 TOTAL ENERGY:     -422.385995388 Eh
FINAL SINGLE POINT ENERGY      -422.385995388352

DIPOLE MOMENT
-------------
                                X             Y             Z
Electronic contribution:      2.86366      -3.34313      -8.37276
Nuclear contribution   :     -3.82187       3.88454      10.06243
                        -----------------------------------------
Total Dipole Moment    :     -0.95821       0.54142       1.68967
                        -----------------------------------------
Magnitude (a.u.)       :      2.01651
Magnitude (Debye)      :      5.12555

                             ****ORCA TERMINATED NORMALLY****
TOTAL RUN TIME: 0 days 0 hours 16 minutes 59 seconds 387 msec
