                         Program Version 3.0.3 - RELEASE   -
|  1> ! RI-MP2 RIJK def2-TZVP def2-TZVP/C def2-TZVP/JK TIGHTSCF
|  2> % maxcore 2000
|  3> % mp2 density relaxed end
|  4> *xyz 0 1
|  5>  C       -0.0538026894     1.5236832786     0.1161584112
|  6>  C        0.0006639899     0.0404373173    -0.0276329560
|  7>  C       -0.0186997773    -0.7628958436    -1.1529001317
|  8>  N       -0.1515918077    -0.3598216316    -2.4903441882
|  9>  C        0.0443254309    -2.0964182649    -0.6561146169
| 10>  N        0.0973320160    -2.1159952015     0.6856858844
| 11>  N        0.0819006176    -0.8247882859     1.0270703582
| 12>  C        0.0438241249    -3.2694847751    -1.4471837807
| 13>  C        0.0468149658    -4.2196596169    -2.1883906989
| 14>  H        0.9420385878     1.9833014288     0.1549747165
| 15>  H       -0.5854314953     1.9556928889    -0.7368092872
| 16>  H       -0.5877295618     1.8193272247     1.0254261612
| 17>  H        0.5410194871     0.3234948052    -2.7715098171
| 18>  H       -0.0959136960    -1.1562958753    -3.1146232612
| 19>  H        0.1145676260    -0.5846769544     2.0037886280
| 20>  H        0.0443789517    -5.0748378043    -2.8174154415
| 21> *
| 22>
| 23>                          ****END OF INPUT****

CARTESIAN COORDINATES (ANGSTROEM)
---------------------------------
  C     -0.053803    1.523683    0.116158
  C      0.000664    0.040437   -0.027633
  C     -0.018700   -0.762896   -1.152900
  N     -0.151592   -0.359822   -2.490344
  C      0.044325   -2.096418   -0.656115
  N      0.097332   -2.115995    0.685686
  N      0.081901   -0.824788    1.027070
  C      0.043824   -3.269485   -1.447184
  C      0.046815   -4.219660   -2.188391
  H      0.942039    1.983301    0.154975
  H     -0.585431    1.955693   -0.736809
  H     -0.587730    1.819327    1.025426
  H      0.541019    0.323495   -2.771510
  H     -0.095914   -1.156296   -3.114623
  H      0.114568   -0.584677    2.003789
  H      0.044379   -5.074838   -2.817415

 Total Charge           Charge          ....    0
 Multiplicity           Mult            ....    1
 Number of Electrons    NEL             ....   64
 Basis Dimension        Dim             ....  321

ORBITAL ENERGIES
----------------

  NO   OCC          E(Eh)            E(eV)
   0   2.0000     -15.638880      -425.5555
   1   2.0000     -15.593927      -424.3323
   2   2.0000     -15.560621      -423.4260
   3   2.0000     -11.272899      -306.7512
   4   2.0000     -11.270202      -306.6778
   5   2.0000     -11.259832      -306.3956
   6   2.0000     -11.246238      -306.0257
   7   2.0000     -11.238721      -305.8211
   8   2.0000     -11.229488      -305.5699
   9   2.0000      -1.379360       -37.5343
  10   2.0000      -1.207944       -32.8698
  11   2.0000      -1.120108       -30.4797
  12   2.0000      -1.057382       -28.7728
  13   2.0000      -1.015819       -27.6418
  14   2.0000      -0.961535       -26.1647
  15   2.0000      -0.862342       -23.4655
  16   2.0000      -0.790860       -21.5204
  17   2.0000      -0.730245       -19.8710
  18   2.0000      -0.711592       -19.3634
  19   2.0000      -0.662863       -18.0374
  20   2.0000      -0.641952       -17.4684
  21   2.0000      -0.630090       -17.1456
  22   2.0000      -0.624468       -16.9926
  23   2.0000      -0.576721       -15.6934
  24   2.0000      -0.569954       -15.5092
  25   2.0000      -0.547009       -14.8849
  26   2.0000      -0.488943       -13.3048
  27   2.0000      -0.459527       -12.5044
  28   2.0000      -0.440850       -11.9961
  29   2.0000      -0.398809       -10.8522
  30   2.0000      -0.328730        -8.9452
  31   2.0000      -0.305458        -8.3119
  32   0.0000       0.119815         3.2603
  33   0.0000       0.124404         3.3852
  34   0.0000       0.141206         3.8424
  35   0.0000       0.161848         4.4041
  36   0.0000       0.169586         4.6147

MULLIKEN ATOMIC CHARGES
-----------------------
   0 C :   -0.475410
   1 C :    0.031843
   2 C :    0.087100
   3 N :   -0.550809
   4 C :   -0.034974
   5 N :   -0.231269
   6 N :   -0.104724
   7 C :    0.006673
   8 C :   -0.144879
   9 H :    0.153458
  10 H :    0.167048
  11 H :    0.141918
  12 H :    0.253384
  13 H :    0.255065
  14 H :    0.254209
  15 H :    0.191367
Sum of atomic charges:    0.0000000

LOEWDIN ATOMIC CHARGES
----------------------
   0 C :   -0.278416
   1 C :   -0.246209
   2 C :   -0.228024
   3 N :   -0.088481
   4 C :   -0.265290
   5 N :    0.054707
   6 N :    0.148757
   7 C :   -0.076749
   8 C :   -0.086097
   9 H :    0.131727
  10 H :    0.141674
  11 H :    0.133185
  12 H :    0.167786
  13 H :    0.174140
  14 H :    0.190264
  15 H :    0.127024

  Mayer bond orders larger than 0.1
B(  0-C ,  1-C ) :   0.8354 B(  0-C ,  9-H ) :   0.9293 B(  0-C , 10-H ) :   0.9484
B(  0-C , 11-H ) :   0.9432 B(  1-C ,  2-C ) :   1.4163 B(  1-C ,  5-N ) :   0.1350
B(  1-C ,  6-N ) :   1.1982 B(  2-C ,  3-N ) :   0.9997 B(  2-C ,  4-C ) :   1.1947
B(  3-N , 12-H ) :   0.8719 B(  3-N , 13-H ) :   0.8790 B(  4-C ,  5-N ) :   1.4833
B(  4-C ,  7-C ) :   1.1969 B(  4-C ,  8-C ) :  -0.1472 B(  5-N ,  6-N ) :   1.0935
B(  6-N , 14-H ) :   0.8690 B(  7-C ,  8-C ) :   2.6101 B(  8-C , 15-H ) :   0.8732

MP2 TOTAL ENERGY:     -396.222209805 Eh
FINAL SINGLE POINT ENERGY      -396.222209805376

DIPOLE MOMENT
-------------
                                X             Y             Z
Electronic contribution:      0.11934      -6.37471       1.35999
Nuclear contribution   :      0.26735       7.58004      -1.44279
                        -----------------------------------------
Total Dipole Moment    :      0.38669       1.20533      -0.08280
                        -----------------------------------------
Magnitude (a.u.)       :      1.26855
Magnitude (Debye)      :      3.22439

                             ****ORCA TERMINATED NORMALLY****
TOTAL RUN TIME: 0 days 0 hours 14 minutes 54 seconds 637 msec
