                         Program Version 3.0.3 - RELEASE   -
|  1> ! RI-MP2 RIJK def2-TZVP def2-TZVP/C def2-TZVP/JK TIGHTSCF
|  2> % maxcore 2000
|  3> % mp2 density relaxed end
|  4> *xyz 0 1
|  5>  O        0.0041265414     1.5196544930    -0.1130101863
|  6>  C        0.0206061983     0.1071832759    -0.2118802508
|  7>  C       -1.3754305383    -0.5269850231    -0.0068515190
|  8>  C       -1.3211207567    -2.0585951898    -0.0930682428
|  9>  N       -0.7931013086    -2.6256356990     1.1428545438
| 10>  C       -1.2175038026    -2.2115054266     2.3840647446
| 11>  O       -1.0129786710    -2.8579110458     3.3968867495
| 12>  C       -1.8969670221    -0.8883473427     2.3990908707
| 13>  C       -1.9694333551    -0.1101236584     1.3160895213
| 14>  H       -0.0551789732     1.7496608143     0.8193637845
| 15>  H        0.3687493862    -0.1222484177    -1.2250765812
| 16>  H        0.7303445084    -0.3426327178     0.4960687748
| 17>  H       -2.0176242945    -0.1590252845    -0.8151895361
| 18>  H       -2.3291717245    -2.4449702719    -0.3072601394
| 19>  H       -0.6726591194    -2.3684371497    -0.9195961582
| 20>  H       -0.4474704800    -3.5742391727     1.1257977176
| 21>  H       -2.2929795272    -0.5929143369     3.3639733583
| 22>  H       -2.4336193413     0.8709885935     1.3733197285
| 23> *
| 24>
| 25>                          ****END OF INPUT****

CARTESIAN COORDINATES (ANGSTROEM)
---------------------------------
  O      0.004127    1.519654   -0.113010
  C      0.020606    0.107183   -0.211880
  C     -1.375431   -0.526985   -0.006852
  C     -1.321121   -2.058595   -0.093068
  N     -0.793101   -2.625636    1.142855
  C     -1.217504   -2.211505    2.384065
  O     -1.012979   -2.857911    3.396887
  C     -1.896967   -0.888347    2.399091
  C     -1.969433   -0.110124    1.316090
  H     -0.055179    1.749661    0.819364
  H      0.368749   -0.122248   -1.225077
  H      0.730345   -0.342633    0.496069
  H     -2.017624   -0.159025   -0.815190
  H     -2.329172   -2.444970   -0.307260
  H     -0.672659   -2.368437   -0.919596
  H     -0.447470   -3.574239    1.125798
  H     -2.292980   -0.592914    3.363973
  H     -2.433619    0.870989    1.373320

 Total Charge           Charge          ....    0
 Multiplicity           Mult            ....    1
 Number of Electrons    NEL             ....   68
 Basis Dimension        Dim             ....  333

ORBITAL ENERGIES
----------------

  NO   OCC          E(Eh)            E(eV)
   0   2.0000     -20.569301      -559.7191
   1   2.0000     -20.519269      -558.3577
   2   2.0000     -15.583100      -424.0377
   3   2.0000     -11.351408      -308.8875
   4   2.0000     -11.291379      -307.2540
   5   2.0000     -11.286104      -307.1105
   6   2.0000     -11.267455      -306.6031
   7   2.0000     -11.257607      -306.3351
   8   2.0000     -11.248143      -306.0775
   9   2.0000      -1.381900       -37.6034
  10   2.0000      -1.374839       -37.4113
  11   2.0000      -1.242799       -33.8183
  12   2.0000      -1.109903       -30.2020
  13   2.0000      -1.041678       -28.3455
  14   2.0000      -0.934078       -25.4176
  15   2.0000      -0.881417       -23.9846
  16   2.0000      -0.837731       -22.7958
  17   2.0000      -0.735489       -20.0137
  18   2.0000      -0.720570       -19.6077
  19   2.0000      -0.689059       -18.7503
  20   2.0000      -0.669938       -18.2299
  21   2.0000      -0.644572       -17.5397
  22   2.0000      -0.634450       -17.2643
  23   2.0000      -0.614765       -16.7286
  24   2.0000      -0.595896       -16.2152
  25   2.0000      -0.589520       -16.0417
  26   2.0000      -0.548451       -14.9241
  27   2.0000      -0.547643       -14.9021
  28   2.0000      -0.507495       -13.8097
  29   2.0000      -0.495358       -13.4794
  30   2.0000      -0.465079       -12.6554
  31   2.0000      -0.427713       -11.6387
  32   2.0000      -0.397788       -10.8244
  33   2.0000      -0.382896       -10.4191
  34   0.0000       0.091388         2.4868
  35   0.0000       0.124973         3.4007
  36   0.0000       0.140985         3.8364
  37   0.0000       0.153444         4.1754
  38   0.0000       0.167092         4.5468

MULLIKEN ATOMIC CHARGES
-----------------------
   0 O :   -0.475058
   1 C :   -0.097234
   2 C :    0.088762
   3 C :   -0.148821
   4 N :   -0.319084
   5 C :    0.246508
   6 O :   -0.343899
   7 C :   -0.169539
   8 C :   -0.264812
   9 H :    0.324794
  10 H :    0.116869
  11 H :    0.133002
  12 H :    0.106213
  13 H :    0.129467
  14 H :    0.136341
  15 H :    0.236424
  16 H :    0.145654
  17 H :    0.154413
Sum of atomic charges:   -0.0000000

LOEWDIN ATOMIC CHARGES
----------------------
   0 O :   -0.038504
   1 C :   -0.317787
   2 C :   -0.252307
   3 C :   -0.247137
   4 N :    0.103242
   5 C :   -0.446303
   6 O :    0.088309
   7 C :   -0.121168
   8 C :   -0.126968
   9 H :    0.175081
  10 H :    0.130474
  11 H :    0.125414
  12 H :    0.163148
  13 H :    0.134073
  14 H :    0.139133
  15 H :    0.188162
  16 H :    0.155223
  17 H :    0.147916

  Mayer bond orders larger than 0.1
B(  0-O ,  1-C ) :   0.9426 B(  0-O ,  9-H ) :   0.8432 B(  1-C ,  2-C ) :   0.8570
B(  1-C , 10-H ) :   0.9306 B(  1-C , 11-H ) :   0.9369 B(  2-C ,  3-C ) :   0.9000
B(  2-C ,  8-C ) :   0.8772 B(  2-C , 12-H ) :   0.9168 B(  3-C ,  4-N ) :   0.8819
B(  3-C , 13-H ) :   0.9258 B(  3-C , 14-H ) :   0.9330 B(  4-N ,  5-C ) :   1.1455
B(  4-N , 15-H ) :   0.8623 B(  5-C ,  6-O ) :   1.9578 B(  5-C ,  7-C ) :   0.9760
B(  7-C ,  8-C ) :   1.7031 B(  7-C , 16-H ) :   0.9324 B(  8-C , 17-H ) :   0.9269

MP2 TOTAL ENERGY:     -438.403477646 Eh
FINAL SINGLE POINT ENERGY      -438.403477646255

DIPOLE MOMENT
-------------
                                X             Y             Z
Electronic contribution:     -0.33547      -2.15160       4.70583
Nuclear contribution   :      0.04435       2.31968      -5.74515
                        -----------------------------------------
Total Dipole Moment    :     -0.29112       0.16808      -1.03931
                        -----------------------------------------
Magnitude (a.u.)       :      1.09233
Magnitude (Debye)      :      2.77647

                             ****ORCA TERMINATED NORMALLY****
TOTAL RUN TIME: 0 days 0 hours 28 minutes 33 seconds 790 msec
