                         Program Version 3.0.3 - RELEASE   -
|  1> ! RI-MP2 RIJK def2-TZVP def2-TZVP/C def2-TZVP/JK TIGHTSCF
|  2> % maxcore 2000
|  3> % mp2 density relaxed end
|  4> *xyz 0 1
|  5>  N       -0.0579977594     1.3276711284     0.0081732199
|  6>  C        0.0374285033    -0.0339191096     0.0028697156
|  7>  O        1.1054545635    -0.6172300141    -0.0078995416
|  8>  C       -1.2704165535    -0.7657613034     0.0116271508
|  9>  C       -1.3426641529    -2.1044718639     0.0087609062
| 10>  C       -2.7532494467    -2.5555152459     0.0192411489
| 11>  O       -3.1557388430    -3.6943373598     0.0194548170
| 12>  C       -3.6282246860    -1.2895319646     0.0287305343
| 13>  C       -2.6383495469    -0.1079178252     0.0243610343
| 14>  H        0.7954517016     1.8613352826     0.0031236055
| 15>  H       -0.9354777320     1.8153883178     0.0177789446
| 16>  H       -0.4948694288    -2.7756865429     0.0001415224
| 17>  H       -4.2863142695    -1.2986936511    -0.8446350423
| 18>  H       -4.2737118092    -1.3029894205     0.9113764695
| 19>  H       -2.7570871359     0.5339416481     0.9063422320
| 20>  H       -2.7709531545     0.5391972242    -0.8517672871
| 21> *
| 22>
| 23>                          ****END OF INPUT****

CARTESIAN COORDINATES (ANGSTROEM)
---------------------------------
  N     -0.057998    1.327671    0.008173
  C      0.037429   -0.033919    0.002870
  O      1.105455   -0.617230   -0.007900
  C     -1.270417   -0.765761    0.011627
  C     -1.342664   -2.104472    0.008761
  C     -2.753249   -2.555515    0.019241
  O     -3.155739   -3.694337    0.019455
  C     -3.628225   -1.289532    0.028731
  C     -2.638350   -0.107918    0.024361
  H      0.795452    1.861335    0.003124
  H     -0.935478    1.815388    0.017779
  H     -0.494869   -2.775687    0.000142
  H     -4.286314   -1.298694   -0.844635
  H     -4.273712   -1.302989    0.911376
  H     -2.757087    0.533942    0.906342
  H     -2.770953    0.539197   -0.851767

 Total Charge           Charge          ....    0
 Multiplicity           Mult            ....    1
 Number of Electrons    NEL             ....   66
 Basis Dimension        Dim             ....  321

ORBITAL ENERGIES
----------------

  NO   OCC          E(Eh)            E(eV)
   0   2.0000     -20.549515      -559.1807
   1   2.0000     -20.532523      -558.7184
   2   2.0000     -15.602404      -424.5630
   3   2.0000     -11.373407      -309.4861
   4   2.0000     -11.338815      -308.5448
   5   2.0000     -11.281627      -306.9887
   6   2.0000     -11.268273      -306.6253
   7   2.0000     -11.257253      -306.3254
   8   2.0000     -11.253248      -306.2165
   9   2.0000      -1.397677       -38.0327
  10   2.0000      -1.391967       -37.8774
  11   2.0000      -1.230983       -33.4968
  12   2.0000      -1.164319       -31.6827
  13   2.0000      -1.018056       -27.7027
  14   2.0000      -0.964463       -26.2444
  15   2.0000      -0.871334       -23.7102
  16   2.0000      -0.791288       -21.5320
  17   2.0000      -0.753452       -20.5025
  18   2.0000      -0.740015       -20.1368
  19   2.0000      -0.687120       -18.6975
  20   2.0000      -0.665533       -18.1101
  21   2.0000      -0.644719       -17.5437
  22   2.0000      -0.615321       -16.7437
  23   2.0000      -0.596295       -16.2260
  24   2.0000      -0.593644       -16.1539
  25   2.0000      -0.559667       -15.2293
  26   2.0000      -0.554161       -15.0795
  27   2.0000      -0.551589       -15.0095
  28   2.0000      -0.511219       -13.9110
  29   2.0000      -0.445557       -12.1242
  30   2.0000      -0.432774       -11.7764
  31   2.0000      -0.417424       -11.3587
  32   2.0000      -0.391206       -10.6453
  33   0.0000       0.055488         1.5099
  34   0.0000       0.106915         2.9093
  35   0.0000       0.137300         3.7361
  36   0.0000       0.159735         4.3466
  37   0.0000       0.167464         4.5569

MULLIKEN ATOMIC CHARGES
-----------------------
   0 N :   -0.468314
   1 C :    0.242004
   2 O :   -0.334883
   3 C :    0.051745
   4 C :   -0.204757
   5 C :    0.192835
   6 O :   -0.278029
   7 C :   -0.192417
   8 C :   -0.277069
   9 H :    0.263420
  10 H :    0.266656
  11 H :    0.174318
  12 H :    0.142144
  13 H :    0.142126
  14 H :    0.140057
  15 H :    0.140163
Sum of atomic charges:   -0.0000000

LOEWDIN ATOMIC CHARGES
----------------------
   0 N :   -0.002434
   1 C :   -0.448215
   2 O :    0.099812
   3 C :   -0.100278
   4 C :   -0.056389
   5 C :   -0.317811
   6 O :    0.148650
   7 C :   -0.204775
   8 C :   -0.219181
   9 H :    0.177117
  10 H :    0.170470
  11 H :    0.159247
  12 H :    0.152257
  13 H :    0.152218
  14 H :    0.144652
  15 H :    0.144660

  Mayer bond orders larger than 0.1
B(  0-N ,  1-C ) :   1.1931 B(  0-N ,  9-H ) :   0.8582 B(  0-N , 10-H ) :   0.8682
B(  1-C ,  2-O ) :   2.0086 B(  1-C ,  3-C ) :   0.8764 B(  2-O ,  3-C ) :  -0.1279
B(  3-C ,  4-C ) :   1.6193 B(  3-C ,  8-C ) :   0.8674 B(  4-C ,  5-C ) :   0.9611
B(  4-C , 11-H ) :   0.9148 B(  5-C ,  6-O ) :   1.9968 B(  5-C ,  7-C ) :   0.9269
B(  7-C ,  8-C ) :   0.9493 B(  7-C , 12-H ) :   0.9103 B(  7-C , 13-H ) :   0.9104
B(  8-C , 14-H ) :   0.9091 B(  8-C , 15-H ) :   0.9092

MP2 TOTAL ENERGY:     -437.228540264 Eh
FINAL SINGLE POINT ENERGY      -437.228540263562

DIPOLE MOMENT
-------------
                                X             Y             Z
Electronic contribution:      3.28134      -4.23337      -0.03761
Nuclear contribution   :     -3.93787       6.39249       0.04983
                        -----------------------------------------
Total Dipole Moment    :     -0.65654       2.15912       0.01222
                        -----------------------------------------
Magnitude (a.u.)       :      2.25676
Magnitude (Debye)      :      5.73623

                             ****ORCA TERMINATED NORMALLY****
TOTAL RUN TIME: 0 days 0 hours 15 minutes 9 seconds 363 msec
