                         Program Version 3.0.3 - RELEASE   -
|  1> ! RI-MP2 RIJK def2-TZVP def2-TZVP/C def2-TZVP/JK TIGHTSCF
|  2> % maxcore 2000
|  3> % mp2 density relaxed end
|  4> *xyz 0 1
|  5>  O        0.3062116306     0.6398454986     0.7789076075
|  6>  C       -0.1818396374     0.2432632522    -0.4846691390
|  7>  C       -1.5134630115    -0.4740238091    -0.3906358649
|  8>  C       -1.9223704035    -1.5318161631    -1.3820353909
|  9>  C       -1.5927533978    -1.9237805464     0.0410127577
| 10>  C       -0.3224845584    -2.6945662745     0.3603835406
| 11>  O        0.3130784099    -2.1998751506     1.5175865194
| 12>  C       -0.6366000845    -4.1662976242     0.5416295724
| 13>  O       -0.3662078650    -4.7517122963     1.5623933929
| 14>  H        0.4123482987    -0.1673095777     1.3025016665
| 15>  H       -0.3022012210     1.1605001270    -1.0722108724
| 16>  H        0.5473276929    -0.3814282861    -1.0277511233
| 17>  H       -2.3100541137     0.1508501721     0.0031372580
| 18>  H       -2.9553389750    -1.5791387096    -1.7070326444
| 19>  H       -1.2049088191    -1.7990266764    -2.1527438656
| 20>  H       -2.4289431507    -2.1717464219     0.6894335819
| 21>  H        0.3642647731    -2.6254410249    -0.5003662373
| 22>  H        0.3807470176    -2.9478601699     2.1329488443
| 23>  H       -1.1377097352    -4.6674579392    -0.3096408334
| 24> *
| 25>
| 26>                          ****END OF INPUT****

CARTESIAN COORDINATES (ANGSTROEM)
---------------------------------
  O      0.306212    0.639845    0.778908
  C     -0.181840    0.243263   -0.484669
  C     -1.513463   -0.474024   -0.390636
  C     -1.922370   -1.531816   -1.382035
  C     -1.592753   -1.923781    0.041013
  C     -0.322485   -2.694566    0.360384
  O      0.313078   -2.199875    1.517587
  C     -0.636600   -4.166298    0.541630
  O     -0.366208   -4.751712    1.562393
  H      0.412348   -0.167310    1.302502
  H     -0.302201    1.160500   -1.072211
  H      0.547328   -0.381428   -1.027751
  H     -2.310054    0.150850    0.003137
  H     -2.955339   -1.579139   -1.707033
  H     -1.204909   -1.799027   -2.152744
  H     -2.428943   -2.171746    0.689434
  H      0.364265   -2.625441   -0.500366
  H      0.380747   -2.947860    2.132949
  H     -1.137710   -4.667458   -0.309641

 Total Charge           Charge          ....    0
 Multiplicity           Mult            ....    1
 Number of Electrons    NEL             ....   70
 Basis Dimension        Dim             ....  339

ORBITAL ENERGIES
----------------

  NO   OCC          E(Eh)            E(eV)
   0   2.0000     -20.586846      -560.1966
   1   2.0000     -20.576785      -559.9228
   2   2.0000     -20.538202      -558.8729
   3   2.0000     -11.356193      -309.0177
   4   2.0000     -11.315353      -307.9064
   5   2.0000     -11.277001      -306.8628
   6   2.0000     -11.254837      -306.2597
   7   2.0000     -11.248521      -306.0878
   8   2.0000     -11.244642      -305.9823
   9   2.0000      -1.433963       -39.0201
  10   2.0000      -1.381453       -37.5912
  11   2.0000      -1.347082       -36.6560
  12   2.0000      -1.169924       -31.8352
  13   2.0000      -1.019015       -27.7288
  14   2.0000      -0.942290       -25.6410
  15   2.0000      -0.853009       -23.2116
  16   2.0000      -0.815744       -22.1975
  17   2.0000      -0.782197       -21.2847
  18   2.0000      -0.750167       -20.4131
  19   2.0000      -0.705912       -19.2088
  20   2.0000      -0.687743       -18.7144
  21   2.0000      -0.675378       -18.3780
  22   2.0000      -0.645471       -17.5642
  23   2.0000      -0.622449       -16.9377
  24   2.0000      -0.599112       -16.3027
  25   2.0000      -0.571809       -15.5597
  26   2.0000      -0.565307       -15.3828
  27   2.0000      -0.547362       -14.8945
  28   2.0000      -0.545820       -14.8525
  29   2.0000      -0.500684       -13.6243
  30   2.0000      -0.474653       -12.9160
  31   2.0000      -0.467575       -12.7234
  32   2.0000      -0.442831       -12.0500
  33   2.0000      -0.426896       -11.6164
  34   2.0000      -0.417707       -11.3664
  35   0.0000       0.109834         2.9887
  36   0.0000       0.135547         3.6884
  37   0.0000       0.146298         3.9810
  38   0.0000       0.156162         4.2494
  39   0.0000       0.162033         4.4091

MULLIKEN ATOMIC CHARGES
-----------------------
   0 O :   -0.483124
   1 C :   -0.013936
   2 C :   -0.111180
   3 C :   -0.317895
   4 C :   -0.108886
   5 C :    0.079505
   6 O :   -0.503615
   7 C :    0.110210
   8 O :   -0.290651
   9 H :    0.338834
  10 H :    0.119268
  11 H :    0.083860
  12 H :    0.126075
  13 H :    0.143163
  14 H :    0.134829
  15 H :    0.130072
  16 H :    0.111934
  17 H :    0.337727
  18 H :    0.113810
Sum of atomic charges:   -0.0000000

LOEWDIN ATOMIC CHARGES
----------------------
   0 O :   -0.043203
   1 C :   -0.337277
   2 C :   -0.209507
   3 C :   -0.200716
   4 C :   -0.192098
   5 C :   -0.347182
   6 O :   -0.008417
   7 C :   -0.261200
   8 O :    0.130595
   9 H :    0.172971
  10 H :    0.132828
  11 H :    0.118066
  12 H :    0.153497
  13 H :    0.135017
  14 H :    0.136913
  15 H :    0.153720
  16 H :    0.156451
  17 H :    0.184659
  18 H :    0.124884

  Mayer bond orders larger than 0.1
B(  0-O ,  1-C ) :   0.9505 B(  0-O ,  9-H ) :   0.8183 B(  1-C ,  2-C ) :   0.9563
B(  1-C , 10-H ) :   0.9313 B(  1-C , 11-H ) :   0.9164 B(  2-C ,  3-C ) :   0.8719
B(  2-C ,  4-C ) :   0.8452 B(  2-C , 12-H ) :   0.9257 B(  3-C ,  4-C ) :   0.8758
B(  3-C , 13-H ) :   0.9249 B(  3-C , 14-H ) :   0.9169 B(  4-C ,  5-C ) :   0.8709
B(  4-C , 15-H ) :   0.9106 B(  5-C ,  6-O ) :   1.0272 B(  5-C ,  7-C ) :   0.8768
B(  5-C , 16-H ) :   0.9297 B(  6-O , 17-H ) :   0.7990 B(  7-C ,  8-O ) :   1.9182
B(  7-C , 18-H ) :   0.9361

MP2 TOTAL ENERGY:     -459.421522103 Eh
FINAL SINGLE POINT ENERGY      -459.421522103229

DIPOLE MOMENT
-------------
                                X             Y             Z
Electronic contribution:      1.75128      -4.10384       4.56894
Nuclear contribution   :     -2.39266       3.39436      -5.55673
                        -----------------------------------------
Total Dipole Moment    :     -0.64137      -0.70948      -0.98780
                        -----------------------------------------
Magnitude (a.u.)       :      1.37494
Magnitude (Debye)      :      3.49482

                             ****ORCA TERMINATED NORMALLY****
TOTAL RUN TIME: 0 days 0 hours 28 minutes 49 seconds 817 msec
