                         Program Version 3.0.3 - RELEASE   -
|  1> ! RI-MP2 RIJK def2-TZVP def2-TZVP/C def2-TZVP/JK TIGHTSCF
|  2> % maxcore 2000
|  3> % mp2 density relaxed end
|  4> *xyz 0 1
|  5>  C        0.0043638356     1.5559696445    -0.0234357725
|  6>  C        0.0804047021     0.0360929712     0.0398595131
|  7>  C       -1.1030274351    -0.6262594507    -0.4495878603
|  8>  C       -2.1087962069    -1.1943907250    -0.7932281087
|  9>  C        1.3627621281    -0.7789688758    -0.2250745722
| 10>  C        2.5873854031    -0.0503980800     0.3354992245
| 11>  C        1.9342660422    -0.0619892775     1.7579620447
| 12>  C        0.7200290266    -0.7676591741     1.1675204697
| 13>  O        0.0491360225    -1.7124632795     1.9054958818
| 14>  H        0.8951488016     2.0258307163     0.3979967641
| 15>  H       -0.0967135741     1.8930785301    -1.0599568233
| 16>  H       -0.8638961465     1.9198085638     0.5344207354
| 17>  H       -2.9874926472    -1.6786108510    -1.1417311002
| 18>  H        1.3685327296    -1.5347146294    -1.0011022471
| 19>  H        3.4880047822    -0.6659775971     0.2913103788
| 20>  H        2.8174245328     0.9291912471    -0.0936373921
| 21>  H        2.4678944977    -0.7216285596     2.4452795415
| 22>  H        1.7607486030     0.8969952910     2.2552665835
| 23>  H       -0.7912441672    -1.8975279945     1.4630708394
| 24> *
| 25>
| 26>                          ****END OF INPUT****

CARTESIAN COORDINATES (ANGSTROEM)
---------------------------------
  C      0.004364    1.555970   -0.023436
  C      0.080405    0.036093    0.039860
  C     -1.103027   -0.626259   -0.449588
  C     -2.108796   -1.194391   -0.793228
  C      1.362762   -0.778969   -0.225075
  C      2.587385   -0.050398    0.335499
  C      1.934266   -0.061989    1.757962
  C      0.720029   -0.767659    1.167520
  O      0.049136   -1.712463    1.905496
  H      0.895149    2.025831    0.397997
  H     -0.096714    1.893079   -1.059957
  H     -0.863896    1.919809    0.534421
  H     -2.987493   -1.678611   -1.141731
  H      1.368533   -1.534715   -1.001102
  H      3.488005   -0.665978    0.291310
  H      2.817425    0.929191   -0.093637
  H      2.467894   -0.721629    2.445280
  H      1.760749    0.896995    2.255267
  H     -0.791244   -1.897528    1.463071

 Total Charge           Charge          ....    0
 Multiplicity           Mult            ....    1
 Number of Electrons    NEL             ....   66
 Basis Dimension        Dim             ....  339

ORBITAL ENERGIES
----------------

  NO   OCC          E(Eh)            E(eV)
   0   2.0000     -20.565285      -559.6099
   1   2.0000     -11.299873      -307.4852
   2   2.0000     -11.266625      -306.5805
   3   2.0000     -11.244125      -305.9682
   4   2.0000     -11.238240      -305.8081
   5   2.0000     -11.233138      -305.6692
   6   2.0000     -11.231865      -305.6346
   7   2.0000     -11.229928      -305.5819
   8   2.0000     -11.226396      -305.4858
   9   2.0000      -1.382496       -37.6196
  10   2.0000      -1.195107       -32.5205
  11   2.0000      -1.066126       -29.0108
  12   2.0000      -0.998675       -27.1753
  13   2.0000      -0.950740       -25.8710
  14   2.0000      -0.898261       -24.4429
  15   2.0000      -0.815135       -22.1809
  16   2.0000      -0.750701       -20.4276
  17   2.0000      -0.735197       -20.0057
  18   2.0000      -0.704730       -19.1767
  19   2.0000      -0.651070       -17.7165
  20   2.0000      -0.648556       -17.6481
  21   2.0000      -0.598191       -16.2776
  22   2.0000      -0.573759       -15.6128
  23   2.0000      -0.566499       -15.4152
  24   2.0000      -0.549612       -14.9557
  25   2.0000      -0.537503       -14.6262
  26   2.0000      -0.513793       -13.9810
  27   2.0000      -0.490661       -13.3516
  28   2.0000      -0.477704       -12.9990
  29   2.0000      -0.449189       -12.2231
  30   2.0000      -0.410518       -11.1708
  31   2.0000      -0.364858        -9.9283
  32   2.0000      -0.355584        -9.6759
  33   0.0000       0.133907         3.6438
  34   0.0000       0.154561         4.2058
  35   0.0000       0.165171         4.4945
  36   0.0000       0.167022         4.5449
  37   0.0000       0.175745         4.7823

MULLIKEN ATOMIC CHARGES
-----------------------
   0 C :   -0.405096
   1 C :   -0.100915
   2 C :   -0.059133
   3 C :   -0.129401
   4 C :   -0.136538
   5 C :   -0.247788
   6 C :   -0.235638
   7 C :    0.157005
   8 O :   -0.436097
   9 H :    0.136291
  10 H :    0.139898
  11 H :    0.142323
  12 H :    0.194046
  13 H :    0.146617
  14 H :    0.126648
  15 H :    0.123196
  16 H :    0.128140
  17 H :    0.124500
  18 H :    0.331942
Sum of atomic charges:    0.0000000

LOEWDIN ATOMIC CHARGES
----------------------
   0 C :   -0.245639
   1 C :   -0.212928
   2 C :   -0.074839
   3 C :   -0.098716
   4 C :   -0.120528
   5 C :   -0.212150
   6 C :   -0.186304
   7 C :   -0.291482
   8 O :    0.049204
   9 H :    0.129743
  10 H :    0.132100
  11 H :    0.133190
  12 H :    0.128665
  13 H :    0.141048
  14 H :    0.137248
  15 H :    0.126238
  16 H :    0.143992
  17 H :    0.128556
  18 H :    0.192601

  Mayer bond orders larger than 0.1
B(  0-C ,  1-C ) :   0.9287 B(  0-C ,  9-H ) :   0.9306 B(  0-C , 10-H ) :   0.9337
B(  0-C , 11-H ) :   0.9328 B(  1-C ,  2-C ) :   1.1778 B(  1-C ,  3-C ) :  -0.1272
B(  1-C ,  4-C ) :   0.8116 B(  1-C ,  7-C ) :   0.8577 B(  2-C ,  3-C ) :   2.5464
B(  3-C , 12-H ) :   0.8901 B(  4-C ,  5-C ) :   0.9109 B(  4-C ,  7-C ) :   0.8015
B(  4-C , 13-H ) :   0.9112 B(  5-C ,  6-C ) :   0.9659 B(  5-C , 14-H ) :   0.9184
B(  5-C , 15-H ) :   0.9329 B(  6-C ,  7-C ) :   0.9540 B(  6-C , 16-H ) :   0.9059
B(  6-C , 17-H ) :   0.9281 B(  7-C ,  8-O ) :   1.0985 B(  8-O , 18-H ) :   0.8146

MP2 TOTAL ENERGY:     -385.145222496 Eh
FINAL SINGLE POINT ENERGY      -385.145222496499

DIPOLE MOMENT
-------------
                                X             Y             Z
Electronic contribution:     -3.67084      -4.59034       0.10124
Nuclear contribution   :      3.66316       4.82971      -0.46753
                        -----------------------------------------
Total Dipole Moment    :     -0.00768       0.23937      -0.36629
                        -----------------------------------------
Magnitude (a.u.)       :      0.43764
Magnitude (Debye)      :      1.11238

                             ****ORCA TERMINATED NORMALLY****
TOTAL RUN TIME: 0 days 0 hours 20 minutes 24 seconds 456 msec
