                         Program Version 3.0.3 - RELEASE   -
|  1> ! RI-MP2 RIJK def2-TZVP def2-TZVP/C def2-TZVP/JK TIGHTSCF
|  2> % maxcore 2000
|  3> % mp2 density relaxed end
|  4> *xyz 0 1
|  5>  C       -0.0222809594     1.3560868135     0.5510054198
|  6>  N        0.0128473140     0.1196603074    -0.1853706612
|  7>  C       -1.0858757258    -0.7893436160    -0.5335180412
|  8>  C        0.0038530042    -1.8603826004    -0.8672756808
|  9>  O       -0.0919503145    -3.0196999745    -0.0875271184
| 10>  C        0.1395443220    -2.1626785898    -2.2992850970
| 11>  N        0.2429428711    -2.4042262804    -3.4244314340
| 12>  C        1.0076649129    -0.8214508057    -0.3240773711
| 13>  N        2.2358045086    -0.9700462895    -0.0707416944
| 14>  H        0.9900310075     1.7651275276     0.6067686433
| 15>  H       -0.6556112224     2.0878668711     0.0392784443
| 16>  H       -0.4003748565     1.2207711265     1.5741786359
| 17>  H       -1.7008268770    -1.1064023125     0.3158173365
| 18>  H       -1.7135709541    -0.4521756380    -1.3626318481
| 19>  H        0.8129759609    -3.3053838896     0.0976630114
| 20>  H        2.6550652285    -0.1634932696     0.3919431751
| 21> *
| 22>
| 23>                          ****END OF INPUT****

CARTESIAN COORDINATES (ANGSTROEM)
---------------------------------
  C     -0.022281    1.356087    0.551005
  N      0.012847    0.119660   -0.185371
  C     -1.085876   -0.789344   -0.533518
  C      0.003853   -1.860383   -0.867276
  O     -0.091950   -3.019700   -0.087527
  C      0.139544   -2.162679   -2.299285
  N      0.242943   -2.404226   -3.424431
  C      1.007665   -0.821451   -0.324077
  N      2.235805   -0.970046   -0.070742
  H      0.990031    1.765128    0.606769
  H     -0.655611    2.087867    0.039278
  H     -0.400375    1.220771    1.574179
  H     -1.700827   -1.106402    0.315817
  H     -1.713571   -0.452176   -1.362632
  H      0.812976   -3.305384    0.097663
  H      2.655065   -0.163493    0.391943

 Total Charge           Charge          ....    0
 Multiplicity           Mult            ....    1
 Number of Electrons    NEL             ....   66
 Basis Dimension        Dim             ....  321

ORBITAL ENERGIES
----------------

  NO   OCC          E(Eh)            E(eV)
   0   2.0000     -20.599604      -560.5437
   1   2.0000     -15.609879      -424.7664
   2   2.0000     -15.581940      -424.0061
   3   2.0000     -15.550034      -423.1379
   4   2.0000     -11.360003      -309.1214
   5   2.0000     -11.343681      -308.6773
   6   2.0000     -11.303945      -307.5960
   7   2.0000     -11.289237      -307.1958
   8   2.0000     -11.279581      -306.9330
   9   2.0000      -1.418889       -38.6099
  10   2.0000      -1.326414       -36.0936
  11   2.0000      -1.224731       -33.3266
  12   2.0000      -1.197901       -32.5966
  13   2.0000      -1.077709       -29.3260
  14   2.0000      -0.953821       -25.9548
  15   2.0000      -0.925813       -25.1926
  16   2.0000      -0.800541       -21.7838
  17   2.0000      -0.767068       -20.8730
  18   2.0000      -0.721711       -19.6388
  19   2.0000      -0.701209       -19.0809
  20   2.0000      -0.667813       -18.1721
  21   2.0000      -0.638321       -17.3696
  22   2.0000      -0.609445       -16.5838
  23   2.0000      -0.594459       -16.1761
  24   2.0000      -0.571658       -15.5556
  25   2.0000      -0.567712       -15.4482
  26   2.0000      -0.547840       -14.9075
  27   2.0000      -0.506643       -13.7865
  28   2.0000      -0.504321       -13.7233
  29   2.0000      -0.476399       -12.9635
  30   2.0000      -0.468854       -12.7582
  31   2.0000      -0.436091       -11.8666
  32   2.0000      -0.375282       -10.2119
  33   0.0000       0.112734         3.0677
  34   0.0000       0.134776         3.6674
  35   0.0000       0.147463         4.0127
  36   0.0000       0.155045         4.2190
  37   0.0000       0.165428         4.5015

MULLIKEN ATOMIC CHARGES
-----------------------
   0 C :   -0.325939
   1 N :   -0.111181
   2 C :   -0.163817
   3 C :    0.469170
   4 O :   -0.456751
   5 C :   -0.251265
   6 N :   -0.048615
   7 C :   -0.014870
   8 N :   -0.389124
   9 H :    0.144925
  10 H :    0.154161
  11 H :    0.146705
  12 H :    0.136388
  13 H :    0.145208
  14 H :    0.347383
  15 H :    0.217622
Sum of atomic charges:    0.0000000

LOEWDIN ATOMIC CHARGES
----------------------
   0 C :   -0.299697
   1 N :    0.180968
   2 C :   -0.157704
   3 C :   -0.315870
   4 O :    0.050197
   5 C :   -0.138057
   6 N :    0.080408
   7 C :   -0.338887
   8 N :   -0.068950
   9 H :    0.128065
  10 H :    0.125934
  11 H :    0.119767
  12 H :    0.135997
  13 H :    0.132826
  14 H :    0.199241
  15 H :    0.165762

  Mayer bond orders larger than 0.1
B(  0-C ,  1-N ) :   0.8844 B(  0-C ,  9-H ) :   0.9287 B(  0-C , 10-H ) :   0.9306
B(  0-C , 11-H ) :   0.9293 B(  1-N ,  2-C ) :   0.9285 B(  1-N ,  7-C ) :   1.1406
B(  2-C ,  3-C ) :   0.8489 B(  2-C , 12-H ) :   0.9201 B(  2-C , 13-H ) :   0.9117
B(  3-C ,  4-O ) :   0.9936 B(  3-C ,  5-C ) :   0.8872 B(  3-C ,  7-C ) :   0.8243
B(  4-O , 14-H ) :   0.8188 B(  5-C ,  6-N ) :   2.8539 B(  7-C ,  8-N ) :   2.0596
B(  8-N , 15-H ) :   0.8541

MP2 TOTAL ENERGY:     -433.336862905 Eh
FINAL SINGLE POINT ENERGY      -433.336862904594

DIPOLE MOMENT
-------------
                                X             Y             Z
Electronic contribution:      1.19705      -6.12182      -4.84751
Nuclear contribution   :     -1.78851       7.63946       6.44247
                        -----------------------------------------
Total Dipole Moment    :     -0.59146       1.51764       1.59497
                        -----------------------------------------
Magnitude (a.u.)       :      2.27968
Magnitude (Debye)      :      5.79450

                             ****ORCA TERMINATED NORMALLY****
TOTAL RUN TIME: 0 days 0 hours 16 minutes 12 seconds 177 msec
