                         Program Version 3.0.3 - RELEASE   -
|  1> ! RI-MP2 RIJK def2-TZVP def2-TZVP/C def2-TZVP/JK TIGHTSCF
|  2> % maxcore 2000
|  3> % mp2 density relaxed end
|  4> *xyz 0 1
|  5>  C       -0.0435098013     1.5624484676    -0.0419163509
|  6>  C        0.0153172698     0.0459355065     0.0203583938
|  7>  O        0.7630259024    -0.4562211053    -1.1078136299
|  8>  C        1.5108475228    -1.5531443837    -0.6630169700
|  9>  C        1.2146907200    -1.9446692162     0.7212346449
| 10>  C        2.6223013223    -1.3366977317     0.3831311814
| 11>  C        2.2534821889    -0.1616180861     1.2213685613
| 12>  O        2.8867130993     0.6635476475     1.8197923487
| 13>  C        0.7506874778    -0.5510802407     1.2332729944
| 14>  H        0.9550969393     1.9971281082     0.0493632588
| 15>  H       -0.4803221340     1.8835582768    -0.9912366724
| 16>  H       -0.6661983779     1.9492535439     0.7708226706
| 17>  H       -1.0024208715    -0.3722596154    -0.0241434736
| 18>  H        1.7296251298    -2.2749970897    -1.4408027473
| 19>  H        0.9847734292    -2.9181791084     1.1288412401
| 20>  H        3.5890811732    -1.8182865610     0.2984801876
| 21>  H        0.2345770998    -0.4615990923     2.1876853925
| 22> *
| 23>
| 24>                          ****END OF INPUT****

CARTESIAN COORDINATES (ANGSTROEM)
---------------------------------
  C     -0.043510    1.562448   -0.041916
  C      0.015317    0.045936    0.020358
  O      0.763026   -0.456221   -1.107814
  C      1.510848   -1.553144   -0.663017
  C      1.214691   -1.944669    0.721235
  C      2.622301   -1.336698    0.383131
  C      2.253482   -0.161618    1.221369
  O      2.886713    0.663548    1.819792
  C      0.750687   -0.551080    1.233273
  H      0.955097    1.997128    0.049363
  H     -0.480322    1.883558   -0.991237
  H     -0.666198    1.949254    0.770823
  H     -1.002421   -0.372260   -0.024143
  H      1.729625   -2.274997   -1.440803
  H      0.984773   -2.918179    1.128841
  H      3.589081   -1.818287    0.298480
  H      0.234577   -0.461599    2.187685

 Total Charge           Charge          ....    0
 Multiplicity           Mult            ....    1
 Number of Electrons    NEL             ....   66
 Basis Dimension        Dim             ....  327

ORBITAL ENERGIES
----------------

  NO   OCC          E(Eh)            E(eV)
   0   2.0000     -20.571676      -559.7838
   1   2.0000     -20.544820      -559.0530
   2   2.0000     -11.337274      -308.5029
   3   2.0000     -11.314038      -307.8706
   4   2.0000     -11.299660      -307.4794
   5   2.0000     -11.268513      -306.6318
   6   2.0000     -11.259590      -306.3890
   7   2.0000     -11.256980      -306.3180
   8   2.0000     -11.222106      -305.3690
   9   2.0000      -1.409606       -38.3573
  10   2.0000      -1.387583       -37.7581
  11   2.0000      -1.200611       -32.6703
  12   2.0000      -1.066244       -29.0140
  13   2.0000      -0.959197       -26.1011
  14   2.0000      -0.904637       -24.6164
  15   2.0000      -0.834634       -22.7115
  16   2.0000      -0.807959       -21.9857
  17   2.0000      -0.741895       -20.1880
  18   2.0000      -0.699807       -19.0427
  19   2.0000      -0.680544       -18.5185
  20   2.0000      -0.654031       -17.7971
  21   2.0000      -0.623972       -16.9791
  22   2.0000      -0.601746       -16.3743
  23   2.0000      -0.591781       -16.1032
  24   2.0000      -0.561810       -15.2876
  25   2.0000      -0.544578       -14.8187
  26   2.0000      -0.530716       -14.4415
  27   2.0000      -0.526106       -14.3161
  28   2.0000      -0.503233       -13.6937
  29   2.0000      -0.477788       -13.0013
  30   2.0000      -0.424390       -11.5482
  31   2.0000      -0.399393       -10.8680
  32   2.0000      -0.398829       -10.8527
  33   0.0000       0.130210         3.5432
  34   0.0000       0.150142         4.0856
  35   0.0000       0.155569         4.2332
  36   0.0000       0.168015         4.5719
  37   0.0000       0.180017         4.8985

MULLIKEN ATOMIC CHARGES
-----------------------
   0 C :   -0.399143
   1 C :    0.061831
   2 O :   -0.306152
   3 C :    0.047531
   4 C :   -0.211040
   5 C :   -0.145120
   6 C :    0.096600
   7 O :   -0.269056
   8 C :    0.007507
   9 H :    0.151563
  10 H :    0.143613
  11 H :    0.127787
  12 H :    0.088703
  13 H :    0.141323
  14 H :    0.163112
  15 H :    0.149868
  16 H :    0.151073
Sum of atomic charges:    0.0000000

LOEWDIN ATOMIC CHARGES
----------------------
   0 C :   -0.283051
   1 C :   -0.288987
   2 O :    0.203317
   3 C :   -0.251778
   4 C :   -0.112679
   5 C :   -0.105332
   6 C :   -0.297746
   7 O :    0.150975
   8 C :   -0.139955
   9 H :    0.132456
  10 H :    0.129895
  11 H :    0.129845
  12 H :    0.141305
  13 H :    0.150863
  14 H :    0.141691
  15 H :    0.143292
  16 H :    0.155887

  Mayer bond orders larger than 0.1
B(  0-C ,  1-C ) :   0.9141 B(  0-C ,  9-H ) :   0.9320 B(  0-C , 10-H ) :   0.9348
B(  0-C , 11-H ) :   0.9294 B(  1-C ,  2-O ) :   0.9070 B(  1-C ,  8-C ) :   0.9055
B(  1-C , 12-H ) :   0.9197 B(  2-O ,  3-C ) :   1.0018 B(  3-C ,  4-C ) :   0.9339
B(  3-C ,  5-C ) :   0.7793 B(  3-C , 13-H ) :   0.9379 B(  4-C ,  5-C ) :   0.7892
B(  4-C ,  8-C ) :   0.8824 B(  4-C , 14-H ) :   0.8966 B(  5-C ,  6-C ) :   0.9534
B(  5-C ,  8-C ) :  -0.1155 B(  5-C , 15-H ) :   0.9026 B(  6-C ,  7-O ) :   2.0212
B(  6-C ,  8-C ) :   0.8387 B(  8-C , 16-H ) :   0.8910

MP2 TOTAL ENERGY:     -421.109867823 Eh
FINAL SINGLE POINT ENERGY      -421.109867822927

DIPOLE MOMENT
-------------
                                X             Y             Z
Electronic contribution:      4.13200      -1.94096       0.95807
Nuclear contribution   :     -4.87190       0.90583      -1.04089
                        -----------------------------------------
Total Dipole Moment    :     -0.73991      -1.03513      -0.08282
                        -----------------------------------------
Magnitude (a.u.)       :      1.27508
Magnitude (Debye)      :      3.24098

                             ****ORCA TERMINATED NORMALLY****
TOTAL RUN TIME: 0 days 0 hours 18 minutes 48 seconds 784 msec
