                         Program Version 3.0.3 - RELEASE   -
|  1> ! RI-MP2 RIJK def2-TZVP def2-TZVP/C def2-TZVP/JK TIGHTSCF
|  2> % maxcore 2000
|  3> % mp2 density relaxed end
|  4> *xyz 0 1
|  5>  C        1.4283392313    -2.1935423847     2.6418439209
|  6>  C        0.7799984282    -2.1148086741     1.2571436909
|  7>  C       -0.7094921270    -2.4762490807     1.2664535176
|  8>  C       -1.3640170586    -2.3744952296    -0.1183489610
|  9>  C       -2.8186840840    -2.8268167639    -0.1672767062
| 10>  C       -3.8151805998    -2.0430577111     0.6791502318
| 11>  C       -3.9542476636    -0.5677593507     0.2833485378
| 12>  C       -3.3260931562    -3.3707791152    -1.4829039723
| 13>  C       -3.0678558637    -4.3087888003    -0.3264020699
| 14>  H        2.4909936361    -1.9338483560     2.6027148677
| 15>  H        0.9437851077    -1.5069737565     3.3451711297
| 16>  H        1.3477998635    -3.2031394946     3.0603655854
| 17>  H        0.9048787845    -1.1016728309     0.8516486503
| 18>  H        1.3099870522    -2.7830578785     0.5652112502
| 19>  H       -0.8347420382    -3.4972871444     1.6521937204
| 20>  H       -1.2302416586    -1.8194494108     1.9755741557
| 21>  H       -1.2839090607    -1.3408190117    -0.4814587062
| 22>  H       -0.7874153739    -2.9835126858    -0.8270003829
| 23>  H       -4.7955195066    -2.5281827772     0.5957668820
| 24>  H       -3.5374725080    -2.1124504210     1.7386974635
| 25>  H       -4.7263558854    -0.0741773448     0.8819221745
| 26>  H       -3.0209407123    -0.0160895257     0.4344468293
| 27>  H       -4.2311358644    -0.4676879337    -0.7715556159
| 28>  H       -4.3577109229    -3.1715062657    -1.7554203631
| 29>  H       -2.6451134061    -3.4003448630    -2.3272733613
| 30>  H       -2.2085975810    -4.9688785132    -0.3900790337
| 31>  H       -3.9233735624    -4.7461269260     0.1780537947
| 32> *
| 33>
| 34>                          ****END OF INPUT****

CARTESIAN COORDINATES (ANGSTROEM)
---------------------------------
  C      1.428339   -2.193542    2.641844
  C      0.779998   -2.114809    1.257144
  C     -0.709492   -2.476249    1.266454
  C     -1.364017   -2.374495   -0.118349
  C     -2.818684   -2.826817   -0.167277
  C     -3.815181   -2.043058    0.679150
  C     -3.954248   -0.567759    0.283349
  C     -3.326093   -3.370779   -1.482904
  C     -3.067856   -4.308789   -0.326402
  H      2.490994   -1.933848    2.602715
  H      0.943785   -1.506974    3.345171
  H      1.347800   -3.203139    3.060366
  H      0.904879   -1.101673    0.851649
  H      1.309987   -2.783058    0.565211
  H     -0.834742   -3.497287    1.652194
  H     -1.230242   -1.819449    1.975574
  H     -1.283909   -1.340819   -0.481459
  H     -0.787415   -2.983513   -0.827000
  H     -4.795520   -2.528183    0.595767
  H     -3.537473   -2.112450    1.738697
  H     -4.726356   -0.074177    0.881922
  H     -3.020941   -0.016090    0.434447
  H     -4.231136   -0.467688   -0.771556
  H     -4.357711   -3.171506   -1.755420
  H     -2.645113   -3.400345   -2.327273
  H     -2.208598   -4.968879   -0.390079
  H     -3.923374   -4.746127    0.178054

 Total Charge           Charge          ....    0
 Multiplicity           Mult            ....    1
 Number of Electrons    NEL             ....   72
 Basis Dimension        Dim             ....  387

ORBITAL ENERGIES
----------------

  NO   OCC          E(Eh)            E(eV)
   0   2.0000     -11.228854      -305.5526
   1   2.0000     -11.217901      -305.2546
   2   2.0000     -11.216051      -305.2043
   3   2.0000     -11.215798      -305.1974
   4   2.0000     -11.215693      -305.1945
   5   2.0000     -11.215405      -305.1867
   6   2.0000     -11.212551      -305.1090
   7   2.0000     -11.209811      -305.0345
   8   2.0000     -11.209427      -305.0240
   9   2.0000      -1.151552       -31.3353
  10   2.0000      -1.064639       -28.9703
  11   2.0000      -1.016663       -27.6648
  12   2.0000      -0.979960       -26.6661
  13   2.0000      -0.877040       -23.8655
  14   2.0000      -0.853803       -23.2332
  15   2.0000      -0.817340       -22.2410
  16   2.0000      -0.789710       -21.4891
  17   2.0000      -0.724511       -19.7149
  18   2.0000      -0.653756       -17.7896
  19   2.0000      -0.641245       -17.4492
  20   2.0000      -0.620398       -16.8819
  21   2.0000      -0.592683       -16.1277
  22   2.0000      -0.582475       -15.8499
  23   2.0000      -0.561676       -15.2840
  24   2.0000      -0.551582       -15.0093
  25   2.0000      -0.530981       -14.4487
  26   2.0000      -0.517961       -14.0944
  27   2.0000      -0.506338       -13.7782
  28   2.0000      -0.495589       -13.4857
  29   2.0000      -0.489795       -13.3280
  30   2.0000      -0.477531       -12.9943
  31   2.0000      -0.473167       -12.8755
  32   2.0000      -0.460067       -12.5191
  33   2.0000      -0.444251       -12.0887
  34   2.0000      -0.400166       -10.8891
  35   2.0000      -0.384144       -10.4531
  36   0.0000       0.132229         3.5981
  37   0.0000       0.149033         4.0554
  38   0.0000       0.158827         4.3219
  39   0.0000       0.159651         4.3443
  40   0.0000       0.177322         4.8252

MULLIKEN ATOMIC CHARGES
-----------------------
   0 C :   -0.383194
   1 C :   -0.176534
   2 C :   -0.277693
   3 C :   -0.254857
   4 C :    0.165116
   5 C :   -0.221217
   6 C :   -0.421132
   7 C :   -0.294628
   8 C :   -0.296024
   9 H :    0.132303
  10 H :    0.120774
  11 H :    0.121159
  12 H :    0.103523
  13 H :    0.104700
  14 H :    0.116113
  15 H :    0.109792
  16 H :    0.124850
  17 H :    0.111761
  18 H :    0.106979
  19 H :    0.121385
  20 H :    0.133864
  21 H :    0.126880
  22 H :    0.129870
  23 H :    0.124391
  24 H :    0.124034
  25 H :    0.123995
  26 H :    0.123790
Sum of atomic charges:   -0.0000000

LOEWDIN ATOMIC CHARGES
----------------------
   0 C :   -0.322780
   1 C :   -0.297661
   2 C :   -0.265439
   3 C :   -0.224901
   4 C :   -0.255418
   5 C :   -0.250154
   6 C :   -0.313034
   7 C :   -0.213425
   8 C :   -0.213469
   9 H :    0.119675
  10 H :    0.119608
  11 H :    0.119861
  12 H :    0.134006
  13 H :    0.133646
  14 H :    0.138591
  15 H :    0.136090
  16 H :    0.140848
  17 H :    0.144911
  18 H :    0.142034
  19 H :    0.138332
  20 H :    0.120434
  21 H :    0.119215
  22 H :    0.122503
  23 H :    0.132143
  24 H :    0.131173
  25 H :    0.132057
  26 H :    0.131153

  Mayer bond orders larger than 0.1
B(  0-C ,  1-C ) :   0.9220 B(  0-C ,  9-H ) :   0.9434 B(  0-C , 10-H ) :   0.9401
B(  0-C , 11-H ) :   0.9395 B(  1-C ,  2-C ) :   0.9328 B(  1-C , 12-H ) :   0.9327
B(  1-C , 13-H ) :   0.9355 B(  2-C ,  3-C ) :   0.9257 B(  2-C , 14-H ) :   0.9326
B(  2-C , 15-H ) :   0.9293 B(  3-C ,  4-C ) :   0.8994 B(  3-C , 16-H ) :   0.9363
B(  3-C , 17-H ) :   0.9260 B(  4-C ,  5-C ) :   0.9152 B(  4-C ,  7-C ) :   0.8661
B(  4-C ,  8-C ) :   0.8671 B(  5-C ,  6-C ) :   0.9147 B(  5-C , 18-H ) :   0.9235
B(  5-C , 19-H ) :   0.9395 B(  6-C , 20-H ) :   0.9400 B(  6-C , 21-H ) :   0.9389
B(  6-C , 22-H ) :   0.9390 B(  7-C ,  8-C ) :   0.9199 B(  7-C , 23-H ) :   0.9281
B(  7-C , 24-H ) :   0.9235 B(  8-C , 25-H ) :   0.9268 B(  8-C , 26-H ) :   0.9238

MP2 TOTAL ENERGY:     -352.908435224 Eh
FINAL SINGLE POINT ENERGY      -352.908435223616

DIPOLE MOMENT
-------------
                                X             Y             Z
Electronic contribution:     -2.47863      -2.28284      -2.58202
Nuclear contribution   :      2.49789       2.32759       2.62127
                        -----------------------------------------
Total Dipole Moment    :      0.01926       0.04474       0.03925
                        -----------------------------------------
Magnitude (a.u.)       :      0.06256
Magnitude (Debye)      :      0.15900

                             ****ORCA TERMINATED NORMALLY****
TOTAL RUN TIME: 0 days 0 hours 21 minutes 13 seconds 882 msec
