                         Program Version 3.0.3 - RELEASE   -
|  1> ! RI-MP2 RIJK def2-TZVP def2-TZVP/C def2-TZVP/JK TIGHTSCF
|  2> % maxcore 2000
|  3> % mp2 density relaxed end
|  4> *xyz 0 1
|  5>  C       -0.0675846358     1.5619431461     0.0235358235
|  6>  C        0.0307725542     0.0293428045     0.0023748629
|  7>  C        0.7006245341    -0.4871199606    -1.2809017781
|  8>  C        1.0099784426    -1.9840272575    -1.1802467203
|  9>  C        1.9751370904    -2.2812564262    -0.0227431061
| 10>  O        3.3420885356    -2.0331710440    -0.3789464928
| 11>  C        1.6061480195    -1.5129070916     1.2205665691
| 12>  C        0.7491236547    -0.4905063814     1.2255601647
| 13>  H        0.9286169773     2.0182668236     0.0103206792
| 14>  H       -0.6180220255     1.9301272381    -0.8482866734
| 15>  H       -0.5844686768     1.9155384506     0.9219629518
| 16>  H       -0.9987787413    -0.3643752807     0.0297446981
| 17>  H        0.0643736281    -0.2778052315    -2.1476613941
| 18>  H        1.6350669572     0.0688881772    -1.4443898225
| 19>  H        0.0769319029    -2.5389877977    -1.0149591401
| 20>  H        1.4538239591    -2.3606534732    -2.1067652190
| 21>  H        1.9501736686    -3.3563880567     0.1915534989
| 22>  H        3.4842453167    -1.0829648026    -0.3159349819
| 23>  H        2.1078174892    -1.8127393422     2.1374612423
| 24>  H        0.5342478990     0.0215556257     2.1626517378
| 25> *
| 26>
| 27>                          ****END OF INPUT****

CARTESIAN COORDINATES (ANGSTROEM)
---------------------------------
  C     -0.067585    1.561943    0.023536
  C      0.030773    0.029343    0.002375
  C      0.700625   -0.487120   -1.280902
  C      1.009978   -1.984027   -1.180247
  C      1.975137   -2.281256   -0.022743
  O      3.342089   -2.033171   -0.378946
  C      1.606148   -1.512907    1.220567
  C      0.749124   -0.490506    1.225560
  H      0.928617    2.018267    0.010321
  H     -0.618022    1.930127   -0.848287
  H     -0.584469    1.915538    0.921963
  H     -0.998779   -0.364375    0.029745
  H      0.064374   -0.277805   -2.147661
  H      1.635067    0.068888   -1.444390
  H      0.076932   -2.538988   -1.014959
  H      1.453824   -2.360653   -2.106765
  H      1.950174   -3.356388    0.191553
  H      3.484245   -1.082965   -0.315935
  H      2.107817   -1.812739    2.137461
  H      0.534248    0.021556    2.162652

 Total Charge           Charge          ....    0
 Multiplicity           Mult            ....    1
 Number of Electrons    NEL             ....   62
 Basis Dimension        Dim             ....  320

ORBITAL ENERGIES
----------------

  NO   OCC          E(Eh)            E(eV)
   0   2.0000     -20.548297      -559.1476
   1   2.0000     -11.278292      -306.8979
   2   2.0000     -11.236155      -305.7513
   3   2.0000     -11.233489      -305.6788
   4   2.0000     -11.224458      -305.4330
   5   2.0000     -11.223255      -305.4003
   6   2.0000     -11.220146      -305.3157
   7   2.0000     -11.218264      -305.2645
   8   2.0000      -1.352815       -36.8120
   9   2.0000      -1.125748       -30.6332
  10   2.0000      -1.026846       -27.9419
  11   2.0000      -1.013032       -27.5660
  12   2.0000      -0.920390       -25.0451
  13   2.0000      -0.828096       -22.5336
  14   2.0000      -0.819810       -22.3082
  15   2.0000      -0.723561       -19.6891
  16   2.0000      -0.689366       -18.7586
  17   2.0000      -0.632464       -17.2102
  18   2.0000      -0.617905       -16.8141
  19   2.0000      -0.607142       -16.5212
  20   2.0000      -0.599113       -16.3027
  21   2.0000      -0.567331       -15.4379
  22   2.0000      -0.553996       -15.0750
  23   2.0000      -0.533399       -14.5145
  24   2.0000      -0.519042       -14.1239
  25   2.0000      -0.499022       -13.5791
  26   2.0000      -0.479744       -13.0545
  27   2.0000      -0.474818       -12.9205
  28   2.0000      -0.446087       -12.1386
  29   2.0000      -0.422101       -11.4860
  30   2.0000      -0.359866        -9.7924
  31   0.0000       0.128373         3.4932
  32   0.0000       0.143047         3.8925
  33   0.0000       0.153221         4.1694
  34   0.0000       0.165589         4.5059
  35   0.0000       0.177010         4.8167

MULLIKEN ATOMIC CHARGES
-----------------------
   0 C :   -0.408853
   1 C :    0.047980
   2 C :   -0.314759
   3 C :   -0.167256
   4 C :    0.129021
   5 O :   -0.470385
   6 C :   -0.233685
   7 C :   -0.198531
   8 H :    0.125670
   9 H :    0.133420
  10 H :    0.133369
  11 H :    0.097601
  12 H :    0.128467
  13 H :    0.105726
  14 H :    0.105714
  15 H :    0.126664
  16 H :    0.103902
  17 H :    0.311606
  18 H :    0.124921
  19 H :    0.119408
Sum of atomic charges:    0.0000000

LOEWDIN ATOMIC CHARGES
----------------------
   0 C :   -0.289892
   1 C :   -0.270673
   2 C :   -0.240052
   3 C :   -0.241800
   4 C :   -0.330159
   5 O :   -0.027361
   6 C :   -0.161645
   7 C :   -0.138869
   8 H :    0.123584
   9 H :    0.124073
  10 H :    0.122992
  11 H :    0.160396
  12 H :    0.138656
  13 H :    0.137972
  14 H :    0.143170
  15 H :    0.141602
  16 H :    0.148148
  17 H :    0.169718
  18 H :    0.144452
  19 H :    0.145688

  Mayer bond orders larger than 0.1
B(  0-C ,  1-C ) :   0.9030 B(  0-C ,  8-H ) :   0.9325 B(  0-C ,  9-H ) :   0.9395
B(  0-C , 10-H ) :   0.9403 B(  1-C ,  2-C ) :   0.9253 B(  1-C ,  7-C ) :   0.9009
B(  1-C , 11-H ) :   0.9113 B(  2-C ,  3-C ) :   0.8904 B(  2-C , 12-H ) :   0.9283
B(  2-C , 13-H ) :   0.9385 B(  3-C ,  4-C ) :   0.9124 B(  3-C , 14-H ) :   0.9172
B(  3-C , 15-H ) :   0.9308 B(  4-C ,  5-O ) :   0.9146 B(  4-C ,  6-C ) :   0.9660
B(  4-C , 16-H ) :   0.9354 B(  5-O , 17-H ) :   0.8430 B(  6-C ,  7-C ) :   1.7743
B(  6-C , 18-H ) :   0.9355 B(  7-C , 19-H ) :   0.9262

MP2 TOTAL ENERGY:     -348.420013718 Eh
FINAL SINGLE POINT ENERGY      -348.420013718322

DIPOLE MOMENT
-------------
                                X             Y             Z
Electronic contribution:      3.58388      -4.09095       1.49901
Nuclear contribution   :     -4.17436       4.58591      -1.41085
                        -----------------------------------------
Total Dipole Moment    :     -0.59048       0.49496       0.08817
                        -----------------------------------------
Magnitude (a.u.)       :      0.77551
Magnitude (Debye)      :      1.97120

                             ****ORCA TERMINATED NORMALLY****
TOTAL RUN TIME: 0 days 0 hours 14 minutes 14 seconds 189 msec
