                         Program Version 3.0.3 - RELEASE   -
|  1> ! RI-MP2 RIJK def2-TZVP def2-TZVP/C def2-TZVP/JK TIGHTSCF
|  2> % maxcore 2000
|  3> % mp2 density relaxed end
|  4> *xyz 0 1
|  5>  N        0.1742851400     0.2264475893     0.9571703152
|  6>  C       -0.1239197077     0.2288512309    -0.3636298312
|  7>  O        0.2134180871     1.0938192680    -1.1443847983
|  8>  C       -1.0249147447    -0.9304804666    -0.8495014843
|  9>  C       -0.8596077667    -2.2492332892    -0.1791557617
| 10>  N       -0.7325624522    -2.5147023389     1.0921051578
| 11>  C       -0.6339384792    -3.8831191025     1.0931618172
| 12>  N       -0.6962418411    -4.4431890708    -0.0816104108
| 13>  O       -0.8455778248    -3.3463956624    -0.9422504546
| 14>  H        0.7651044383     0.9641839412     1.3040183597
| 15>  H       -0.0564600828    -0.5620964138     1.5452912864
| 16>  H       -2.0620516095    -0.5977026839    -0.7130082837
| 17>  H       -0.8606946178    -1.0385120512    -1.9215319025
| 18>  H       -0.5137174289    -4.4715350600     1.9908859707
| 19> *
| 20>
| 21>                          ****END OF INPUT****

CARTESIAN COORDINATES (ANGSTROEM)
---------------------------------
  N      0.174285    0.226448    0.957170
  C     -0.123920    0.228851   -0.363630
  O      0.213418    1.093819   -1.144385
  C     -1.024915   -0.930480   -0.849501
  C     -0.859608   -2.249233   -0.179156
  N     -0.732562   -2.514702    1.092105
  C     -0.633938   -3.883119    1.093162
  N     -0.696242   -4.443189   -0.081610
  O     -0.845578   -3.346396   -0.942250
  H      0.765104    0.964184    1.304018
  H     -0.056460   -0.562096    1.545291
  H     -2.062052   -0.597703   -0.713008
  H     -0.860695   -1.038512   -1.921532
  H     -0.513717   -4.471535    1.990886

 Total Charge           Charge          ....    0
 Multiplicity           Mult            ....    1
 Number of Electrons    NEL             ....   66
 Basis Dimension        Dim             ....  309

ORBITAL ENERGIES
----------------

  NO   OCC          E(Eh)            E(eV)
   0   2.0000     -20.679665      -562.7223
   1   2.0000     -20.530864      -558.6732
   2   2.0000     -15.647924      -425.8017
   3   2.0000     -15.597190      -424.4211
   4   2.0000     -15.589480      -424.2113
   5   2.0000     -11.389500      -309.9241
   6   2.0000     -11.372706      -309.4671
   7   2.0000     -11.332518      -308.3735
   8   2.0000     -11.284617      -307.0700
   9   2.0000      -1.543004       -41.9873
  10   2.0000      -1.397358       -38.0240
  11   2.0000      -1.277485       -34.7621
  12   2.0000      -1.225604       -33.3504
  13   2.0000      -1.190151       -32.3857
  14   2.0000      -1.052270       -28.6337
  15   2.0000      -0.883219       -24.0336
  16   2.0000      -0.861732       -23.4489
  17   2.0000      -0.812207       -22.1013
  18   2.0000      -0.751472       -20.4486
  19   2.0000      -0.741063       -20.1653
  20   2.0000      -0.708226       -19.2718
  21   2.0000      -0.669582       -18.2203
  22   2.0000      -0.644987       -17.5510
  23   2.0000      -0.619330       -16.8528
  24   2.0000      -0.606275       -16.4976
  25   2.0000      -0.589420       -16.0389
  26   2.0000      -0.558963       -15.2102
  27   2.0000      -0.537581       -14.6283
  28   2.0000      -0.496390       -13.5075
  29   2.0000      -0.494522       -13.4566
  30   2.0000      -0.450013       -12.2455
  31   2.0000      -0.426257       -11.5990
  32   2.0000      -0.412884       -11.2351
  33   0.0000       0.099547         2.7088
  34   0.0000       0.126747         3.4490
  35   0.0000       0.152444         4.1482
  36   0.0000       0.163146         4.4394
  37   0.0000       0.175632         4.7792

MULLIKEN ATOMIC CHARGES
-----------------------
   0 N :   -0.463010
   1 C :    0.247234
   2 O :   -0.337812
   3 C :   -0.222284
   4 C :    0.268113
   5 N :   -0.365634
   6 C :    0.035463
   7 N :   -0.124378
   8 O :   -0.082154
   9 H :    0.260700
  10 H :    0.284210
  11 H :    0.164159
  12 H :    0.171832
  13 H :    0.163561
Sum of atomic charges:   -0.0000000

LOEWDIN ATOMIC CHARGES
----------------------
   0 N :   -0.001320
   1 C :   -0.479715
   2 O :    0.089372
   3 C :   -0.185121
   4 C :   -0.356921
   5 N :    0.086927
   6 C :   -0.329537
   7 N :    0.038545
   8 O :    0.301378
   9 H :    0.176442
  10 H :    0.173558
  11 H :    0.175001
  12 H :    0.170008
  13 H :    0.141384

  Mayer bond orders larger than 0.1
B(  0-N ,  1-C ) :   1.1930 B(  0-N ,  9-H ) :   0.8582 B(  0-N , 10-H ) :   0.8323
B(  1-C ,  2-O ) :   1.9929 B(  1-C ,  3-C ) :   0.9036 B(  3-C ,  4-C ) :   0.8670
B(  3-C , 11-H ) :   0.8953 B(  3-C , 12-H ) :   0.9269 B(  4-C ,  5-N ) :   1.4738
B(  4-C ,  8-O ) :   1.1826 B(  5-N ,  6-C ) :   1.2069 B(  6-C ,  7-N ) :   1.5904
B(  6-C , 13-H ) :   0.9254 B(  7-N ,  8-O ) :   0.8818

MP2 TOTAL ENERGY:     -469.289639999 Eh
FINAL SINGLE POINT ENERGY      -469.289639998814

DIPOLE MOMENT
-------------
                                X             Y             Z
Electronic contribution:      0.01948      -3.04337      -1.18480
Nuclear contribution   :     -0.25831       2.70729       2.31732
                        -----------------------------------------
Total Dipole Moment    :     -0.23883      -0.33608       1.13252
                        -----------------------------------------
Magnitude (a.u.)       :      1.20524
Magnitude (Debye)      :      3.06348

                             ****ORCA TERMINATED NORMALLY****
TOTAL RUN TIME: 0 days 0 hours 14 minutes 52 seconds 289 msec
