                         Program Version 3.0.3 - RELEASE   -
|  1> ! RI-MP2 RIJK def2-TZVP def2-TZVP/C def2-TZVP/JK TIGHTSCF
|  2> % maxcore 2000
|  3> % mp2 density relaxed end
|  4> *xyz 0 1
|  5>  C        0.2306754473     1.1325825412    -0.4676331977
|  6>  N       -0.0150810580    -0.0744860447     0.3208278449
|  7>  C        0.4478868644     0.0397294796     1.7052534893
|  8>  C       -1.2557766681    -0.6590245176     0.1493175519
|  9>  C       -1.6503561348    -1.8841575341    -0.2949389772
| 10>  N       -0.8711793599    -2.9678337358    -0.6745274724
| 11>  N       -3.0334405986    -1.9766980132    -0.2636457203
| 12>  C       -3.4154474619    -0.8260498732     0.1968852633
| 13>  O       -2.4350177205     0.0348621531     0.4866161800
| 14>  H        1.3017314525     1.3615790957    -0.4569870728
| 15>  H       -0.0782904927     0.9600437750    -1.5012972789
| 16>  H       -0.3108648212     2.0127278472    -0.0852505151
| 17>  H       -0.0728994116     0.8325520695     2.2663953767
| 18>  H        0.2887341216    -0.9109143373     2.2187743930
| 19>  H        1.5197931225     0.2652963701     1.7127220702
| 20>  H        0.0601490672    -2.6973779011    -0.9605788593
| 21>  H       -1.3262825508    -3.5451055827    -1.3686584336
| 22>  H       -4.4295026075    -0.4934989716     0.3615077783
| 23> *
| 24>
| 25>                          ****END OF INPUT****

CARTESIAN COORDINATES (ANGSTROEM)
---------------------------------
  C      0.230675    1.132583   -0.467633
  N     -0.015081   -0.074486    0.320828
  C      0.447887    0.039729    1.705253
  C     -1.255777   -0.659025    0.149318
  C     -1.650356   -1.884158   -0.294939
  N     -0.871179   -2.967834   -0.674527
  N     -3.033441   -1.976698   -0.263646
  C     -3.415447   -0.826050    0.196885
  O     -2.435018    0.034862    0.486616
  H      1.301731    1.361579   -0.456987
  H     -0.078290    0.960044   -1.501297
  H     -0.310865    2.012728   -0.085251
  H     -0.072899    0.832552    2.266395
  H      0.288734   -0.910914    2.218774
  H      1.519793    0.265296    1.712722
  H      0.060149   -2.697378   -0.960579
  H     -1.326283   -3.545106   -1.368658
  H     -4.429503   -0.493499    0.361508

 Total Charge           Charge          ....    0
 Multiplicity           Mult            ....    1
 Number of Electrons    NEL             ....   68
 Basis Dimension        Dim             ....  333

ORBITAL ENERGIES
----------------

  NO   OCC          E(Eh)            E(eV)
   0   2.0000     -20.622695      -561.1721
   1   2.0000     -15.567642      -423.6171
   2   2.0000     -15.560212      -423.4149
   3   2.0000     -15.557125      -423.3309
   4   2.0000     -11.331857      -308.3555
   5   2.0000     -11.290863      -307.2400
   6   2.0000     -11.289022      -307.1899
   7   2.0000     -11.252023      -306.1831
   8   2.0000     -11.250578      -306.1438
   9   2.0000      -1.472191       -40.0603
  10   2.0000      -1.252488       -34.0819
  11   2.0000      -1.243392       -33.8344
  12   2.0000      -1.173765       -31.9398
  13   2.0000      -1.001305       -27.2469
  14   2.0000      -0.959355       -26.1054
  15   2.0000      -0.886447       -24.1215
  16   2.0000      -0.829636       -22.5755
  17   2.0000      -0.784923       -21.3588
  18   2.0000      -0.723896       -19.6982
  19   2.0000      -0.673458       -18.3257
  20   2.0000      -0.662206       -18.0195
  21   2.0000      -0.654002       -17.7963
  22   2.0000      -0.624333       -16.9890
  23   2.0000      -0.612486       -16.6666
  24   2.0000      -0.605260       -16.4699
  25   2.0000      -0.566283       -15.4094
  26   2.0000      -0.548508       -14.9257
  27   2.0000      -0.539970       -14.6933
  28   2.0000      -0.520018       -14.1504
  29   2.0000      -0.506936       -13.7944
  30   2.0000      -0.460921       -12.5423
  31   2.0000      -0.414356       -11.2752
  32   2.0000      -0.379609       -10.3297
  33   2.0000      -0.300406        -8.1745
  34   0.0000       0.131457         3.5771
  35   0.0000       0.144947         3.9442
  36   0.0000       0.154515         4.2046
  37   0.0000       0.180643         4.9155
  38   0.0000       0.186967         5.0876

MULLIKEN ATOMIC CHARGES
-----------------------
   0 C :   -0.305087
   1 N :   -0.201982
   2 C :   -0.306346
   3 C :    0.127063
   4 C :    0.123925
   5 N :   -0.515987
   6 N :   -0.287917
   7 C :    0.108444
   8 O :   -0.213797
   9 H :    0.133867
  10 H :    0.141615
  11 H :    0.128837
  12 H :    0.126557
  13 H :    0.150528
  14 H :    0.132547
  15 H :    0.249083
  16 H :    0.256590
  17 H :    0.152059
Sum of atomic charges:    0.0000000

LOEWDIN ATOMIC CHARGES
----------------------
   0 C :   -0.306624
   1 N :    0.080947
   2 C :   -0.304117
   3 C :   -0.316952
   4 C :   -0.341837
   5 N :   -0.076869
   6 N :    0.107251
   7 C :   -0.346069
   8 O :    0.329473
   9 H :    0.117549
  10 H :    0.122711
  11 H :    0.109671
  12 H :    0.109154
  13 H :    0.125178
  14 H :    0.117329
  15 H :    0.170333
  16 H :    0.172593
  17 H :    0.130280

  Mayer bond orders larger than 0.1
B(  0-C ,  1-N ) :   0.8928 B(  0-C ,  9-H ) :   0.9342 B(  0-C , 10-H ) :   0.9371
B(  0-C , 11-H ) :   0.9314 B(  1-N ,  2-C ) :   0.8917 B(  1-N ,  3-C ) :   1.0440
B(  2-C , 12-H ) :   0.9304 B(  2-C , 13-H ) :   0.9369 B(  2-C , 14-H ) :   0.9344
B(  3-C ,  4-C ) :   1.5654 B(  3-C ,  8-O ) :   0.9540 B(  4-C ,  5-N ) :   1.0691
B(  4-C ,  6-N ) :   1.2294 B(  5-N , 15-H ) :   0.8715 B(  5-N , 16-H ) :   0.8697
B(  6-N ,  7-C ) :   1.6136 B(  7-C ,  8-O ) :   1.1312 B(  7-C , 17-H ) :   0.9279

MP2 TOTAL ENERGY:     -434.557804027 Eh
FINAL SINGLE POINT ENERGY      -434.557804026778

DIPOLE MOMENT
-------------
                                X             Y             Z
Electronic contribution:     -7.39040      -3.81664      -1.15193
Nuclear contribution   :      8.06209       4.45144       0.93391
                        -----------------------------------------
Total Dipole Moment    :      0.67168       0.63479      -0.21802
                        -----------------------------------------
Magnitude (a.u.)       :      0.94955
Magnitude (Debye)      :      2.41357

                             ****ORCA TERMINATED NORMALLY****
TOTAL RUN TIME: 0 days 0 hours 16 minutes 45 seconds 754 msec
