                         Program Version 3.0.3 - RELEASE   -
|  1> ! RI-MP2 RIJK def2-TZVP def2-TZVP/C def2-TZVP/JK TIGHTSCF
|  2> % maxcore 2000
|  3> % mp2 density relaxed end
|  4> *xyz 0 1
|  5>  C        0.1332576195     1.5314699955    -0.0007394267
|  6>  C       -0.0342877676     0.0052703547     0.0887802621
|  7>  C        0.7552572725    -0.5202985400     1.2994833410
|  8>  C       -1.5240379130    -0.4845255630     0.0441931874
|  9>  C       -2.3367163867     0.0628726271     1.2315154371
| 10>  C       -2.1876929561    -0.0052953343    -1.2660156162
| 11>  C       -1.5198875763    -2.0217521596    -0.0011541851
| 12>  C       -1.7069654429    -2.9323021262     1.1872824388
| 13>  C       -2.7698454408    -2.8580917818     0.1196105040
| 14>  H        1.1976002158     1.7878346587    -0.0307486668
| 15>  H       -0.3280992208     1.9552705670    -0.8961557992
| 16>  H       -0.2942053516     2.0382297621     0.8712266658
| 17>  H        0.4367067421    -0.4200419762    -0.8099021727
| 18>  H        0.3842296600    -0.0960346278     2.2388906585
| 19>  H        0.7085962773    -1.6080914627     1.3818017502
| 20>  H        1.8089783248    -0.2345560698     1.2125068383
| 21>  H       -2.3999496558     1.1537873118     1.1860461657
| 22>  H       -3.3645453704    -0.3138313314     1.2161897967
| 23>  H       -1.8995563104    -0.2028979927     2.1975226714
| 24>  H       -1.6098335308    -0.3239091320    -2.1411985778
| 25>  H       -3.1916812941    -0.4300783016    -1.3609565846
| 26>  H       -2.2852407527     1.0832085261    -1.3054390323
| 27>  H       -0.8148553246    -2.3963907560    -0.7415672577
| 28>  H       -1.0949221756    -3.8258474398     1.2523717079
| 29>  H       -1.9376163419    -2.4890766813     2.1491365361
| 30>  H       -3.7017589211    -2.3658537564     0.3767103488
| 31>  H       -2.8916157690    -3.6987751006    -0.5548471908
| 32> *
| 33>
| 34>                          ****END OF INPUT****

CARTESIAN COORDINATES (ANGSTROEM)
---------------------------------
  C      0.133258    1.531470   -0.000739
  C     -0.034288    0.005270    0.088780
  C      0.755257   -0.520299    1.299483
  C     -1.524038   -0.484526    0.044193
  C     -2.336716    0.062873    1.231515
  C     -2.187693   -0.005295   -1.266016
  C     -1.519888   -2.021752   -0.001154
  C     -1.706965   -2.932302    1.187282
  C     -2.769845   -2.858092    0.119611
  H      1.197600    1.787835   -0.030749
  H     -0.328099    1.955271   -0.896156
  H     -0.294205    2.038230    0.871227
  H      0.436707   -0.420042   -0.809902
  H      0.384230   -0.096035    2.238891
  H      0.708596   -1.608091    1.381802
  H      1.808978   -0.234556    1.212507
  H     -2.399950    1.153787    1.186046
  H     -3.364545   -0.313831    1.216190
  H     -1.899556   -0.202898    2.197523
  H     -1.609834   -0.323909   -2.141199
  H     -3.191681   -0.430078   -1.360957
  H     -2.285241    1.083209   -1.305439
  H     -0.814855   -2.396391   -0.741567
  H     -1.094922   -3.825847    1.252372
  H     -1.937616   -2.489077    2.149137
  H     -3.701759   -2.365854    0.376710
  H     -2.891616   -3.698775   -0.554847

 Total Charge           Charge          ....    0
 Multiplicity           Mult            ....    1
 Number of Electrons    NEL             ....   72
 Basis Dimension        Dim             ....  387

ORBITAL ENERGIES
----------------

  NO   OCC          E(Eh)            E(eV)
   0   2.0000     -11.234066      -305.6945
   1   2.0000     -11.223287      -305.4012
   2   2.0000     -11.222402      -305.3771
   3   2.0000     -11.218225      -305.2634
   4   2.0000     -11.217069      -305.2320
   5   2.0000     -11.207837      -304.9808
   6   2.0000     -11.206567      -304.9462
   7   2.0000     -11.205038      -304.9046
   8   2.0000     -11.204002      -304.8764
   9   2.0000      -1.147490       -31.2248
  10   2.0000      -1.084405       -29.5081
  11   2.0000      -1.007589       -27.4179
  12   2.0000      -0.930665       -25.3247
  13   2.0000      -0.919634       -25.0245
  14   2.0000      -0.858818       -23.3696
  15   2.0000      -0.816695       -22.2234
  16   2.0000      -0.787121       -21.4187
  17   2.0000      -0.714157       -19.4332
  18   2.0000      -0.661365       -17.9967
  19   2.0000      -0.639387       -17.3986
  20   2.0000      -0.613147       -16.6846
  21   2.0000      -0.602549       -16.3962
  22   2.0000      -0.564676       -15.3656
  23   2.0000      -0.560750       -15.2588
  24   2.0000      -0.543563       -14.7911
  25   2.0000      -0.537778       -14.6337
  26   2.0000      -0.521196       -14.1825
  27   2.0000      -0.517573       -14.0839
  28   2.0000      -0.505611       -13.7584
  29   2.0000      -0.485627       -13.2146
  30   2.0000      -0.482564       -13.1312
  31   2.0000      -0.454585       -12.3699
  32   2.0000      -0.453429       -12.3384
  33   2.0000      -0.440074       -11.9750
  34   2.0000      -0.401763       -10.9325
  35   2.0000      -0.393385       -10.7045
  36   0.0000       0.134288         3.6542
  37   0.0000       0.156839         4.2678
  38   0.0000       0.157384         4.2826
  39   0.0000       0.165062         4.4916
  40   0.0000       0.184479         5.0199

MULLIKEN ATOMIC CHARGES
-----------------------
   0 C :   -0.434636
   1 C :   -0.019916
   2 C :   -0.428071
   3 C :    0.169025
   4 C :   -0.499834
   5 C :   -0.420262
   6 C :   -0.155654
   7 C :   -0.254656
   8 C :   -0.262411
   9 H :    0.133234
  10 H :    0.136280
  11 H :    0.127928
  12 H :    0.080311
  13 H :    0.121068
  14 H :    0.145578
  15 H :    0.130712
  16 H :    0.143006
  17 H :    0.134707
  18 H :    0.137440
  19 H :    0.127493
  20 H :    0.132296
  21 H :    0.132831
  22 H :    0.114550
  23 H :    0.127081
  24 H :    0.130497
  25 H :    0.123241
  26 H :    0.128161
Sum of atomic charges:   -0.0000000

LOEWDIN ATOMIC CHARGES
----------------------
   0 C :   -0.294349
   1 C :   -0.262078
   2 C :   -0.290177
   3 C :   -0.284405
   4 C :   -0.265517
   5 C :   -0.265093
   6 C :   -0.194535
   7 C :   -0.232718
   8 C :   -0.230641
   9 H :    0.124317
  10 H :    0.121196
  11 H :    0.122158
  12 H :    0.153345
  13 H :    0.121500
  14 H :    0.126726
  15 H :    0.122772
  16 H :    0.127535
  17 H :    0.126526
  18 H :    0.124127
  19 H :    0.126073
  20 H :    0.126552
  21 H :    0.121209
  22 H :    0.153646
  23 H :    0.129048
  24 H :    0.132586
  25 H :    0.130460
  26 H :    0.129736

  Mayer bond orders larger than 0.1
B(  0-C ,  1-C ) :   0.8996 B(  0-C ,  9-H ) :   0.9416 B(  0-C , 10-H ) :   0.9422
B(  0-C , 11-H ) :   0.9355 B(  1-C ,  2-C ) :   0.9089 B(  1-C ,  3-C ) :   0.8795
B(  1-C , 12-H ) :   0.9218 B(  2-C , 13-H ) :   0.9352 B(  2-C , 14-H ) :   0.9396
B(  2-C , 15-H ) :   0.9405 B(  3-C ,  4-C ) :   0.8739 B(  3-C ,  5-C ) :   0.9037
B(  3-C ,  6-C ) :   0.8846 B(  4-C , 16-H ) :   0.9376 B(  4-C , 17-H ) :   0.9394
B(  4-C , 18-H ) :   0.9416 B(  5-C , 19-H ) :   0.9337 B(  5-C , 20-H ) :   0.9351
B(  5-C , 21-H ) :   0.9399 B(  6-C ,  7-C ) :   0.8942 B(  6-C ,  8-C ) :   0.8841
B(  6-C , 22-H ) :   0.9259 B(  7-C ,  8-C ) :   0.9072 B(  7-C , 23-H ) :   0.9310
B(  7-C , 24-H ) :   0.9279 B(  8-C , 25-H ) :   0.9280 B(  8-C , 26-H ) :   0.9292

MP2 TOTAL ENERGY:     -352.908020630 Eh
FINAL SINGLE POINT ENERGY      -352.908020629772

DIPOLE MOMENT
-------------
                                X             Y             Z
Electronic contribution:     -0.85419      -3.26460      -0.70748
Nuclear contribution   :      0.88694       3.26015       0.67133
                        -----------------------------------------
Total Dipole Moment    :      0.03275      -0.00445      -0.03615
                        -----------------------------------------
Magnitude (a.u.)       :      0.04898
Magnitude (Debye)      :      0.12449

                             ****ORCA TERMINATED NORMALLY****
TOTAL RUN TIME: 0 days 0 hours 28 minutes 12 seconds 920 msec
