                         Program Version 3.0.3 - RELEASE   -
|  1> ! RI-MP2 RIJK def2-TZVP def2-TZVP/C def2-TZVP/JK TIGHTSCF
|  2> % maxcore 2000
|  3> % mp2 density relaxed end
|  4> *xyz 0 1
|  5>  N        0.3057111102     1.2890089305    -0.0260685422
|  6>  C       -0.0189584675    -0.1251146096     0.0243018195
|  7>  C       -1.5097283577    -0.4518824926    -0.0309978151
|  8>  O       -2.3924016788     0.3661312863    -0.1093668330
|  9>  O       -1.7131207910    -1.7811563862     0.0196302292
| 10>  C       -3.0870322193    -2.2122995105    -0.0251055481
| 11>  C       -3.0933069119    -3.7298992432     0.0425669864
| 12>  C       -4.5063579285    -4.2998146582     0.0023987041
| 13>  O       -4.3981219574    -5.7119547362     0.0705226857
| 14>  H       -0.0944684706     1.6892755003    -0.8704033276
| 15>  H       -0.1732677868     1.7644280376     0.7340811281
| 16>  H        0.4719504707    -0.6516015278    -0.8025839564
| 17>  H        0.3893063157    -0.5705475876     0.9391231837
| 18>  H       -3.6283678417    -1.7609961017     0.8134546864
| 19>  H       -3.5463131712    -1.8398201134    -0.9471715292
| 20>  H       -2.5192288756    -4.1402693066    -0.7948774910
| 21>  H       -2.6009197227    -4.0615422416     0.9628108791
| 22>  H       -5.0944731007    -3.9022789456     0.8459491299
| 23>  H       -5.0122689491    -3.9813555526    -0.9239532777
| 24>  H       -5.2845817963    -6.0836362612     0.0458326885
| 25> *
| 26>
| 27>                          ****END OF INPUT****

CARTESIAN COORDINATES (ANGSTROEM)
---------------------------------
  N      0.305711    1.289009   -0.026069
  C     -0.018958   -0.125115    0.024302
  C     -1.509728   -0.451882   -0.030998
  O     -2.392402    0.366131   -0.109367
  O     -1.713121   -1.781156    0.019630
  C     -3.087032   -2.212300   -0.025106
  C     -3.093307   -3.729899    0.042567
  C     -4.506358   -4.299815    0.002399
  O     -4.398122   -5.711955    0.070523
  H     -0.094468    1.689276   -0.870403
  H     -0.173268    1.764428    0.734081
  H      0.471950   -0.651602   -0.802584
  H      0.389306   -0.570548    0.939123
  H     -3.628368   -1.760996    0.813455
  H     -3.546313   -1.839820   -0.947172
  H     -2.519229   -4.140269   -0.794877
  H     -2.600920   -4.061542    0.962811
  H     -5.094473   -3.902279    0.845949
  H     -5.012269   -3.981356   -0.923953
  H     -5.284582   -6.083636    0.045833

 Total Charge           Charge          ....    0
 Multiplicity           Mult            ....    1
 Number of Electrons    NEL             ....   72
 Basis Dimension        Dim             ....  345

ORBITAL ENERGIES
----------------

  NO   OCC          E(Eh)            E(eV)
   0   2.0000     -20.604600      -560.6797
   1   2.0000     -20.563674      -559.5660
   2   2.0000     -20.546635      -559.1024
   3   2.0000     -15.547798      -423.0771
   4   2.0000     -11.377459      -309.5964
   5   2.0000     -11.293499      -307.3117
   6   2.0000     -11.286888      -307.1318
   7   2.0000     -11.272039      -306.7278
   8   2.0000     -11.230233      -305.5902
   9   2.0000      -1.463087       -39.8126
  10   2.0000      -1.368371       -37.2353
  11   2.0000      -1.363593       -37.1052
  12   2.0000      -1.190226       -32.3877
  13   2.0000      -1.071389       -29.1540
  14   2.0000      -0.977418       -26.5969
  15   2.0000      -0.910590       -24.7784
  16   2.0000      -0.823349       -22.4045
  17   2.0000      -0.781624       -21.2691
  18   2.0000      -0.712227       -19.3807
  19   2.0000      -0.701489       -19.0885
  20   2.0000      -0.698837       -19.0163
  21   2.0000      -0.677133       -18.4257
  22   2.0000      -0.672741       -18.3062
  23   2.0000      -0.643766       -17.5177
  24   2.0000      -0.587640       -15.9905
  25   2.0000      -0.579555       -15.7705
  26   2.0000      -0.576813       -15.6959
  27   2.0000      -0.564190       -15.3524
  28   2.0000      -0.527892       -14.3647
  29   2.0000      -0.513598       -13.9757
  30   2.0000      -0.502292       -13.6681
  31   2.0000      -0.498424       -13.5628
  32   2.0000      -0.464826       -12.6486
  33   2.0000      -0.461706       -12.5636
  34   2.0000      -0.452902       -12.3241
  35   2.0000      -0.408922       -11.1273
  36   0.0000       0.126714         3.4481
  37   0.0000       0.134334         3.6554
  38   0.0000       0.153381         4.1737
  39   0.0000       0.168766         4.5923
  40   0.0000       0.170652         4.6437

MULLIKEN ATOMIC CHARGES
-----------------------
   0 N :   -0.512263
   1 C :   -0.115444
   2 C :    0.243387
   3 O :   -0.337092
   4 O :   -0.240307
   5 C :   -0.106381
   6 C :   -0.135017
   7 C :   -0.080407
   8 O :   -0.462731
   9 H :    0.230008
  10 H :    0.230123
  11 H :    0.145239
  12 H :    0.145179
  13 H :    0.121630
  14 H :    0.121658
  15 H :    0.121955
  16 H :    0.121961
  17 H :    0.095599
  18 H :    0.095597
  19 H :    0.317306
Sum of atomic charges:    0.0000000

LOEWDIN ATOMIC CHARGES
----------------------
   0 N :   -0.166336
   1 C :   -0.316779
   2 C :   -0.495475
   3 O :    0.112615
   4 O :    0.249852
   5 C :   -0.276599
   6 C :   -0.270198
   7 C :   -0.350642
   8 O :   -0.047979
   9 H :    0.157279
  10 H :    0.157303
  11 H :    0.147133
  12 H :    0.147152
  13 H :    0.130133
  14 H :    0.130138
  15 H :    0.144050
  16 H :    0.144051
  17 H :    0.115388
  18 H :    0.115388
  19 H :    0.173526

  Mayer bond orders larger than 0.1
B(  0-N ,  1-C ) :   0.9818 B(  0-N ,  9-H ) :   0.8945 B(  0-N , 10-H ) :   0.8945
B(  1-C ,  2-C ) :   0.9388 B(  1-C , 11-H ) :   0.9170 B(  1-C , 12-H ) :   0.9168
B(  2-C ,  3-O ) :   1.9449 B(  2-C ,  4-O ) :   1.1132 B(  4-O ,  5-C ) :   0.8421
B(  5-C ,  6-C ) :   0.9254 B(  5-C , 13-H ) :   0.9318 B(  5-C , 14-H ) :   0.9318
B(  6-C ,  7-C ) :   0.9323 B(  6-C , 15-H ) :   0.9181 B(  6-C , 16-H ) :   0.9181
B(  7-C ,  8-O ) :   1.0107 B(  7-C , 17-H ) :   0.9282 B(  7-C , 18-H ) :   0.9282
B(  8-O , 19-H ) :   0.8478

MP2 TOTAL ENERGY:     -476.697544396 Eh
FINAL SINGLE POINT ENERGY      -476.697544395875

DIPOLE MOMENT
-------------
                                X             Y             Z
Electronic contribution:      0.85932       2.28982      -0.06275
Nuclear contribution   :     -1.72560      -2.73860       0.04158
                        -----------------------------------------
Total Dipole Moment    :     -0.86628      -0.44878      -0.02117
                        -----------------------------------------
Magnitude (a.u.)       :      0.97586
Magnitude (Debye)      :      2.48043

                             ****ORCA TERMINATED NORMALLY****
TOTAL RUN TIME: 0 days 0 hours 13 minutes 13 seconds 520 msec
