                         Program Version 3.0.3 - RELEASE   -
|  1> ! RI-MP2 RIJK def2-TZVP def2-TZVP/C def2-TZVP/JK TIGHTSCF
|  2> % maxcore 2000
|  3> % mp2 density relaxed end
|  4> *xyz 0 1
|  5>  O       -0.2612012292     0.4906915387     0.8540129626
|  6>  C        0.0140065345     1.1616824212    -0.1027587748
|  7>  C        1.4099742765     1.7387458885    -0.3421282361
|  8>  N        1.4002649494     2.8495175654    -1.2627023372
|  9>  C        1.3000887368     4.1740260762    -0.9773147047
| 10>  C        1.2247501157     4.8363325577    -2.1840141263
| 11>  C        1.2769432316     3.8109684882    -3.1500779455
| 12>  N        1.3786082803     2.6074931415    -2.5911337013
| 13>  H       -0.7217301385     1.4037581534    -0.9000961399
| 14>  H        1.8460783708     2.0398464459     0.6132905849
| 15>  H        2.0343219742     0.9470706888    -0.7696866771
| 16>  H        1.3003193064     4.5303059822     0.0409155937
| 17>  H        1.1524298173     5.9001189392    -2.3403634769
| 18>  H        1.2521049342     3.8984953630    -4.2263380313
| 19> *
| 20>
| 21>                          ****END OF INPUT****

CARTESIAN COORDINATES (ANGSTROEM)
---------------------------------
  O     -0.261201    0.490692    0.854013
  C      0.014007    1.161682   -0.102759
  C      1.409974    1.738746   -0.342128
  N      1.400265    2.849518   -1.262702
  C      1.300089    4.174026   -0.977315
  C      1.224750    4.836333   -2.184014
  C      1.276943    3.810968   -3.150078
  N      1.378608    2.607493   -2.591134
  H     -0.721730    1.403758   -0.900096
  H      1.846078    2.039846    0.613291
  H      2.034322    0.947071   -0.769687
  H      1.300319    4.530306    0.040916
  H      1.152430    5.900119   -2.340363
  H      1.252105    3.898495   -4.226338

 Total Charge           Charge          ....    0
 Multiplicity           Mult            ....    1
 Number of Electrons    NEL             ....   58
 Basis Dimension        Dim             ....  284

ORBITAL ENERGIES
----------------

  NO   OCC          E(Eh)            E(eV)
   0   2.0000     -20.571610      -559.7820
   1   2.0000     -15.654227      -425.9732
   2   2.0000     -15.595738      -424.3816
   3   2.0000     -11.345842      -308.7361
   4   2.0000     -11.298992      -307.4612
   5   2.0000     -11.287652      -307.1526
   6   2.0000     -11.263335      -306.4909
   7   2.0000     -11.231581      -305.6269
   8   2.0000      -1.413096       -38.4523
   9   2.0000      -1.392474       -37.8912
  10   2.0000      -1.145807       -31.1790
  11   2.0000      -1.073418       -29.2092
  12   2.0000      -0.989386       -26.9226
  13   2.0000      -0.836169       -22.7533
  14   2.0000      -0.823385       -22.4054
  15   2.0000      -0.787156       -21.4196
  16   2.0000      -0.741181       -20.1686
  17   2.0000      -0.672176       -18.2908
  18   2.0000      -0.665669       -18.1138
  19   2.0000      -0.642008       -17.4699
  20   2.0000      -0.605724       -16.4826
  21   2.0000      -0.590304       -16.0630
  22   2.0000      -0.585437       -15.9306
  23   2.0000      -0.570339       -15.5197
  24   2.0000      -0.521334       -14.1862
  25   2.0000      -0.472474       -12.8567
  26   2.0000      -0.444943       -12.1075
  27   2.0000      -0.366449        -9.9716
  28   2.0000      -0.357749        -9.7349
  29   0.0000       0.113941         3.1005
  30   0.0000       0.128563         3.4984
  31   0.0000       0.143734         3.9112
  32   0.0000       0.171274         4.6606
  33   0.0000       0.179071         4.8728

MULLIKEN ATOMIC CHARGES
-----------------------
   0 O :   -0.250105
   1 C :    0.071185
   2 C :   -0.118036
   3 N :    0.116321
   4 C :   -0.144101
   5 C :   -0.178627
   6 C :   -0.099056
   7 N :   -0.272144
   8 H :    0.110794
   9 H :    0.155764
  10 H :    0.166107
  11 H :    0.156643
  12 H :    0.145962
  13 H :    0.139294
Sum of atomic charges:    0.0000000

LOEWDIN ATOMIC CHARGES
----------------------
   0 O :    0.146070
   1 C :   -0.285928
   2 C :   -0.246936
   3 N :    0.189020
   4 C :   -0.222949
   5 C :   -0.203518
   6 C :   -0.269615
   7 N :    0.043347
   8 H :    0.118194
   9 H :    0.152766
  10 H :    0.161351
  11 H :    0.140543
  12 H :    0.142698
  13 H :    0.134956

  Mayer bond orders larger than 0.1
B(  0-O ,  1-C ) :   2.0030 B(  1-C ,  2-C ) :   0.8527 B(  1-C ,  8-H ) :   0.9408
B(  2-C ,  3-N ) :   0.8524 B(  2-C ,  9-H ) :   0.9066 B(  2-C , 10-H ) :   0.8953
B(  3-N ,  4-C ) :   1.1924 B(  3-N ,  7-N ) :   1.0084 B(  4-C ,  5-C ) :   1.4380
B(  4-C ,  7-N ) :   0.1008 B(  4-C , 11-H ) :   0.9073 B(  5-C ,  6-C ) :   1.3141
B(  5-C , 12-H ) :   0.9212 B(  6-C ,  7-N ) :   1.4631 B(  6-C , 13-H ) :   0.9356

MP2 TOTAL ENERGY:     -378.102593838 Eh
FINAL SINGLE POINT ENERGY      -378.102593838223

DIPOLE MOMENT
-------------
                                X             Y             Z
Electronic contribution:     -0.76648      -1.81986       0.59459
Nuclear contribution   :      1.08778       2.60482      -0.49183
                        -----------------------------------------
Total Dipole Moment    :      0.32131       0.78496       0.10276
                        -----------------------------------------
Magnitude (a.u.)       :      0.85437
Magnitude (Debye)      :      2.17165

                             ****ORCA TERMINATED NORMALLY****
TOTAL RUN TIME: 0 days 0 hours 10 minutes 0 seconds 682 msec
