                         Program Version 3.0.3 - RELEASE   -
|  1> ! RI-MP2 RIJK def2-TZVP def2-TZVP/C def2-TZVP/JK TIGHTSCF
|  2> % maxcore 2000
|  3> % mp2 density relaxed end
|  4> *xyz 0 1
|  5>  C        0.0937610329     1.4540828008     0.1106192284
|  6>  N        0.0001787753     0.0105957815     0.2522153180
|  7>  C       -1.0572114554    -0.6100507956    -0.0192447861
|  8>  C       -1.1919416105    -2.1057872136     0.1242971422
|  9>  N       -1.9481947693    -2.7044498803    -0.9725021294
| 10>  C       -3.2680469047    -2.1016919744    -1.0586515473
| 11>  C       -3.3243025308    -0.5798451215    -0.9468020105
| 12>  O       -4.2808688281     0.0788602561    -1.2294801696
| 13>  O       -2.1955390640     0.0554804312    -0.4853367751
| 14>  H        0.9012477438     1.6829508237    -0.5934936724
| 15>  H       -0.8255017226     1.9401723373    -0.2287980545
| 16>  H        0.3892219658     1.8784445162     1.0761822717
| 17>  H       -0.1908657106    -2.5331674465     0.1875068737
| 18>  H       -1.7127292139    -2.3391335154     1.0633864820
| 19>  H       -1.4467978915    -2.5663958157    -1.8446930095
| 20>  H       -3.7592534787    -2.3749468607    -1.9952184963
| 21>  H       -3.9008719180    -2.4942731233    -0.2501868853
| 22> *
| 23>
| 24>                          ****END OF INPUT****

CARTESIAN COORDINATES (ANGSTROEM)
---------------------------------
  C      0.093761    1.454083    0.110619
  N      0.000179    0.010596    0.252215
  C     -1.057211   -0.610051   -0.019245
  C     -1.191942   -2.105787    0.124297
  N     -1.948195   -2.704450   -0.972502
  C     -3.268047   -2.101692   -1.058652
  C     -3.324303   -0.579845   -0.946802
  O     -4.280869    0.078860   -1.229480
  O     -2.195539    0.055480   -0.485337
  H      0.901248    1.682951   -0.593494
  H     -0.825502    1.940172   -0.228798
  H      0.389222    1.878445    1.076182
  H     -0.190866   -2.533167    0.187507
  H     -1.712729   -2.339134    1.063386
  H     -1.446798   -2.566396   -1.844693
  H     -3.759253   -2.374947   -1.995218
  H     -3.900872   -2.494273   -0.250187

 Total Charge           Charge          ....    0
 Multiplicity           Mult            ....    1
 Number of Electrons    NEL             ....   68
 Basis Dimension        Dim             ....  327

ORBITAL ENERGIES
----------------

  NO   OCC          E(Eh)            E(eV)
   0   2.0000     -20.627941      -561.3148
   1   2.0000     -20.559403      -559.4498
   2   2.0000     -15.584279      -424.0698
   3   2.0000     -15.562352      -423.4731
   4   2.0000     -11.399826      -310.2050
   5   2.0000     -11.352677      -308.9221
   6   2.0000     -11.295377      -307.3628
   7   2.0000     -11.287208      -307.1406
   8   2.0000     -11.249525      -306.1151
   9   2.0000      -1.483093       -40.3570
  10   2.0000      -1.391876       -37.8749
  11   2.0000      -1.252430       -34.0804
  12   2.0000      -1.234309       -33.5873
  13   2.0000      -1.033902       -28.1339
  14   2.0000      -0.968664       -26.3587
  15   2.0000      -0.920003       -25.0346
  16   2.0000      -0.870610       -23.6905
  17   2.0000      -0.762881       -20.7591
  18   2.0000      -0.717694       -19.5294
  19   2.0000      -0.707853       -19.2617
  20   2.0000      -0.678752       -18.4698
  21   2.0000      -0.663756       -18.0617
  22   2.0000      -0.643809       -17.5189
  23   2.0000      -0.624437       -16.9918
  24   2.0000      -0.583874       -15.8880
  25   2.0000      -0.570694       -15.5294
  26   2.0000      -0.568034       -15.4570
  27   2.0000      -0.553631       -15.0651
  28   2.0000      -0.549226       -14.9452
  29   2.0000      -0.507557       -13.8113
  30   2.0000      -0.495635       -13.4869
  31   2.0000      -0.428197       -11.6518
  32   2.0000      -0.409710       -11.1488
  33   2.0000      -0.398673       -10.8484
  34   0.0000       0.115439         3.1412
  35   0.0000       0.138982         3.7819
  36   0.0000       0.150404         4.0927
  37   0.0000       0.157719         4.2918
  38   0.0000       0.162406         4.4193

MULLIKEN ATOMIC CHARGES
-----------------------
   0 C :   -0.279562
   1 N :   -0.228865
   2 C :    0.100731
   3 C :   -0.091656
   4 N :   -0.329900
   5 C :   -0.192995
   6 C :    0.238772
   7 O :   -0.262297
   8 O :   -0.210844
   9 H :    0.139091
  10 H :    0.143896
  11 H :    0.141151
  12 H :    0.161477
  13 H :    0.139273
  14 H :    0.218226
  15 H :    0.168666
  16 H :    0.144836
Sum of atomic charges:    0.0000000

LOEWDIN ATOMIC CHARGES
----------------------
   0 C :   -0.326014
   1 N :    0.095488
   2 C :   -0.354961
   3 C :   -0.268515
   4 N :   -0.011967
   5 C :   -0.282848
   6 C :   -0.455061
   7 O :    0.157645
   8 O :    0.301465
   9 H :    0.121875
  10 H :    0.112822
  11 H :    0.122418
  12 H :    0.152361
  13 H :    0.148984
  14 H :    0.175951
  15 H :    0.154645
  16 H :    0.155712

  Mayer bond orders larger than 0.1
B(  0-C ,  1-N ) :   0.8532 B(  0-C ,  9-H ) :   0.9316 B(  0-C , 10-H ) :   0.9292
B(  0-C , 11-H ) :   0.9323 B(  1-N ,  2-C ) :   2.0000 B(  2-C ,  3-C ) :   0.9212
B(  2-C ,  8-O ) :   0.9351 B(  3-C ,  4-N ) :   0.9117 B(  3-C , 12-H ) :   0.9256
B(  3-C , 13-H ) :   0.9253 B(  4-N ,  5-C ) :   0.9725 B(  4-N , 14-H ) :   0.8816
B(  5-C ,  6-C ) :   0.9209 B(  5-C , 15-H ) :   0.9177 B(  5-C , 16-H ) :   0.9042
B(  6-C ,  7-O ) :   2.0427 B(  6-C ,  8-O ) :   1.0559

MP2 TOTAL ENERGY:     -454.434059665 Eh
FINAL SINGLE POINT ENERGY      -454.434059664872

DIPOLE MOMENT
-------------
                                X             Y             Z
Electronic contribution:     -4.09903       0.52763      -1.24535
Nuclear contribution   :      4.52294      -1.10940       1.17461
                        -----------------------------------------
Total Dipole Moment    :      0.42391      -0.58177      -0.07074
                        -----------------------------------------
Magnitude (a.u.)       :      0.72330
Magnitude (Debye)      :      1.83847

                             ****ORCA TERMINATED NORMALLY****
TOTAL RUN TIME: 0 days 0 hours 14 minutes 31 seconds 661 msec
