                         Program Version 3.0.3 - RELEASE   -
|  1> ! RI-MP2 RIJK def2-TZVP def2-TZVP/C def2-TZVP/JK TIGHTSCF
|  2> % maxcore 2000
|  3> % mp2 density relaxed end
|  4> *xyz 0 1
|  5>  C        0.2220838012     1.4835703001     0.0740900219
|  6>  N       -0.2063109745     0.1410535928    -0.3259288129
|  7>  C        0.6456623217    -0.4711522409    -1.3132161508
|  8>  C        1.9784806294    -1.1183407743    -0.9156808769
|  9>  N        3.0173640725    -0.7334085865    -0.3276282749
| 10>  O        1.6275627268    -2.3669376714    -1.4005076682
| 11>  C        0.3000811782    -1.8972082194    -1.7433230764
| 12>  C       -0.9172380388    -2.7029086370    -1.4591563207
| 13>  C       -0.4624803161    -2.4425449480    -2.8929884198
| 14>  H        1.2471395734     1.5251339731     0.4686714467
| 15>  H        0.1637673654     2.1510194695    -0.7929881439
| 16>  H       -0.4653740715     1.8641413807     0.8346540429
| 17>  H       -0.2588183871    -0.4581484245     0.4919254721
| 18>  H        0.7660520286     0.2187364064    -2.1554200839
| 19>  H        3.6859947488    -1.4970490276    -0.2074652378
| 20>  H       -0.7767128301    -3.7042436471    -1.0673068151
| 21>  H       -1.7892749770    -2.1744938373    -1.0884304930
| 22>  H       -1.0343600411    -1.7530167074    -3.5052307648
| 23>  H       -0.0216843196    -3.2743840613    -3.4314367344
| 24> *
| 25>
| 26>                          ****END OF INPUT****

CARTESIAN COORDINATES (ANGSTROEM)
---------------------------------
  C      0.222084    1.483570    0.074090
  N     -0.206311    0.141054   -0.325929
  C      0.645662   -0.471152   -1.313216
  C      1.978481   -1.118341   -0.915681
  N      3.017364   -0.733409   -0.327628
  O      1.627563   -2.366938   -1.400508
  C      0.300081   -1.897208   -1.743323
  C     -0.917238   -2.702909   -1.459156
  C     -0.462480   -2.442545   -2.892988
  H      1.247140    1.525134    0.468671
  H      0.163767    2.151019   -0.792988
  H     -0.465374    1.864141    0.834654
  H     -0.258818   -0.458148    0.491925
  H      0.766052    0.218736   -2.155420
  H      3.685995   -1.497049   -0.207465
  H     -0.776713   -3.704244   -1.067307
  H     -1.789275   -2.174494   -1.088430
  H     -1.034360   -1.753017   -3.505231
  H     -0.021684   -3.274384   -3.431437

 Total Charge           Charge          ....    0
 Multiplicity           Mult            ....    1
 Number of Electrons    NEL             ....   68
 Basis Dimension        Dim             ....  339

ORBITAL ENERGIES
----------------

  NO   OCC          E(Eh)            E(eV)
   0   2.0000     -20.593655      -560.3818
   1   2.0000     -15.560620      -423.4260
   2   2.0000     -15.540242      -422.8715
   3   2.0000     -11.337265      -308.5027
   4   2.0000     -11.306134      -307.6555
   5   2.0000     -11.283246      -307.0327
   6   2.0000     -11.247840      -306.0693
   7   2.0000     -11.240990      -305.8829
   8   2.0000     -11.239080      -305.8309
   9   2.0000      -1.437683       -39.1214
  10   2.0000      -1.222536       -33.2669
  11   2.0000      -1.200208       -32.6593
  12   2.0000      -1.142926       -31.1006
  13   2.0000      -1.000287       -27.2192
  14   2.0000      -0.894047       -24.3283
  15   2.0000      -0.845282       -23.0013
  16   2.0000      -0.809518       -22.0281
  17   2.0000      -0.759100       -20.6561
  18   2.0000      -0.714939       -19.4545
  19   2.0000      -0.689817       -18.7709
  20   2.0000      -0.652538       -17.7565
  21   2.0000      -0.644266       -17.5314
  22   2.0000      -0.617190       -16.7946
  23   2.0000      -0.600020       -16.3274
  24   2.0000      -0.581714       -15.8292
  25   2.0000      -0.548073       -14.9138
  26   2.0000      -0.531208       -14.4549
  27   2.0000      -0.523692       -14.2504
  28   2.0000      -0.498375       -13.5615
  29   2.0000      -0.461322       -12.5532
  30   2.0000      -0.453900       -12.3512
  31   2.0000      -0.435538       -11.8516
  32   2.0000      -0.388086       -10.5604
  33   2.0000      -0.378290       -10.2938
  34   0.0000       0.138048         3.7565
  35   0.0000       0.149891         4.0787
  36   0.0000       0.162374         4.4184
  37   0.0000       0.171552         4.6682
  38   0.0000       0.176932         4.8146

MULLIKEN ATOMIC CHARGES
-----------------------
   0 C :   -0.317855
   1 N :   -0.327895
   2 C :   -0.001459
   3 C :    0.096951
   4 N :   -0.369881
   5 O :   -0.256552
   6 C :    0.210784
   7 C :   -0.278239
   8 C :   -0.295671
   9 H :    0.151434
  10 H :    0.125708
  11 H :    0.135469
  12 H :    0.211438
  13 H :    0.118672
  14 H :    0.228453
  15 H :    0.143011
  16 H :    0.142644
  17 H :    0.139681
  18 H :    0.143308
Sum of atomic charges:    0.0000000

LOEWDIN ATOMIC CHARGES
----------------------
   0 C :   -0.338663
   1 N :   -0.013307
   2 C :   -0.226222
   3 C :   -0.369235
   4 N :   -0.056635
   5 O :    0.254723
   6 C :   -0.263704
   7 C :   -0.200630
   8 C :   -0.198705
   9 H :    0.110522
  10 H :    0.116294
  11 H :    0.115621
  12 H :    0.175737
  13 H :    0.159941
  14 H :    0.172635
  15 H :    0.140658
  16 H :    0.139685
  17 H :    0.138678
  18 H :    0.142609

  Mayer bond orders larger than 0.1
B(  0-C ,  1-N ) :   0.9163 B(  0-C ,  9-H ) :   0.9287 B(  0-C , 10-H ) :   0.9384
B(  0-C , 11-H ) :   0.9360 B(  1-N ,  2-C ) :   1.0382 B(  1-N , 12-H ) :   0.8750
B(  2-C ,  3-C ) :   0.8850 B(  2-C ,  6-C ) :   0.9029 B(  2-C , 13-H ) :   0.8918
B(  3-C ,  4-N ) :   2.0782 B(  3-C ,  5-O ) :   1.0569 B(  4-N , 14-H ) :   0.8463
B(  5-O ,  6-C ) :   0.9290 B(  6-C ,  7-C ) :   0.8532 B(  6-C ,  8-C ) :   0.8813
B(  7-C ,  8-C ) :   0.9291 B(  7-C , 15-H ) :   0.9187 B(  7-C , 16-H ) :   0.9078
B(  8-C , 17-H ) :   0.9155 B(  8-C , 18-H ) :   0.9189

MP2 TOTAL ENERGY:     -418.461618692 Eh
FINAL SINGLE POINT ENERGY      -418.461618692362

DIPOLE MOMENT
-------------
                                X             Y             Z
Electronic contribution:      4.50403      -3.84420      -0.80395
Nuclear contribution   :     -5.11159       3.67754       0.69745
                        -----------------------------------------
Total Dipole Moment    :     -0.60756      -0.16666      -0.10649
                        -----------------------------------------
Magnitude (a.u.)       :      0.63894
Magnitude (Debye)      :      1.62407

                             ****ORCA TERMINATED NORMALLY****
TOTAL RUN TIME: 0 days 0 hours 16 minutes 27 seconds 607 msec
