                         Program Version 3.0.3 - RELEASE   -
|  1> ! RI-MP2 RIJK def2-TZVP def2-TZVP/C def2-TZVP/JK TIGHTSCF
|  2> % maxcore 2000
|  3> % mp2 density relaxed end
|  4> *xyz 0 1
|  5>  C        0.0996663790     1.4724634749    -0.0383289881
|  6>  C        0.0294902350    -0.0177225647     0.0340879565
|  7>  N       -0.0066459519    -0.7516866461    -1.0726480784
|  8>  N       -0.0715733657    -2.0323411889    -0.6394931556
|  9>  C       -0.0745354305    -2.1389705882     0.7026007367
| 10>  C       -0.0040200743    -0.8463638312     1.1963354614
| 11>  C        0.0020232923    -0.3817675137     2.5957361800
| 12>  N        0.2092339049    -1.3578398198     3.5512434814
| 13>  O       -0.1981909459     0.7806342268     2.9041756459
| 14>  H        0.9949560276     1.8492613742     0.4653030341
| 15>  H        0.1146546353     1.7890054425    -1.0832690081
| 16>  H       -0.7531227261     1.9253369732     0.4732052795
| 17>  H       -0.1299355132    -2.7725030497    -1.3182018838
| 18>  H       -0.1553917012    -3.0954390544     1.1954271600
| 19>  H        0.7381822740    -2.1791487190     3.3064402750
| 20>  H        0.3574740007    -1.0036825858     4.4845643335
| 21> *
| 22>
| 23>                          ****END OF INPUT****

CARTESIAN COORDINATES (ANGSTROEM)
---------------------------------
  C      0.099666    1.472463   -0.038329
  C      0.029490   -0.017723    0.034088
  N     -0.006646   -0.751687   -1.072648
  N     -0.071573   -2.032341   -0.639493
  C     -0.074535   -2.138971    0.702601
  C     -0.004020   -0.846364    1.196335
  C      0.002023   -0.381768    2.595736
  N      0.209234   -1.357840    3.551243
  O     -0.198191    0.780634    2.904176
  H      0.994956    1.849261    0.465303
  H      0.114655    1.789005   -1.083269
  H     -0.753123    1.925337    0.473205
  H     -0.129936   -2.772503   -1.318202
  H     -0.155392   -3.095439    1.195427
  H      0.738182   -2.179149    3.306440
  H      0.357474   -1.003683    4.484564

 Total Charge           Charge          ....    0
 Multiplicity           Mult            ....    1
 Number of Electrons    NEL             ....   66
 Basis Dimension        Dim             ....  321

ORBITAL ENERGIES
----------------

  NO   OCC          E(Eh)            E(eV)
   0   2.0000     -20.518062      -558.3248
   1   2.0000     -15.650668      -425.8763
   2   2.0000     -15.589487      -424.2115
   3   2.0000     -15.581250      -423.9874
   4   2.0000     -11.357114      -309.0428
   5   2.0000     -11.302163      -307.5475
   6   2.0000     -11.271095      -306.7021
   7   2.0000     -11.235574      -305.7355
   8   2.0000     -11.213718      -305.1408
   9   2.0000      -1.387675       -37.7606
  10   2.0000      -1.378895       -37.5216
  11   2.0000      -1.208865       -32.8949
  12   2.0000      -1.123644       -30.5759
  13   2.0000      -1.075268       -29.2595
  14   2.0000      -0.964022       -26.2324
  15   2.0000      -0.887506       -24.1503
  16   2.0000      -0.800851       -21.7923
  17   2.0000      -0.761414       -20.7191
  18   2.0000      -0.756383       -20.5822
  19   2.0000      -0.702107       -19.1053
  20   2.0000      -0.665294       -18.1036
  21   2.0000      -0.630958       -17.1692
  22   2.0000      -0.618199       -16.8220
  23   2.0000      -0.600777       -16.3480
  24   2.0000      -0.569443       -15.4953
  25   2.0000      -0.551544       -15.0083
  26   2.0000      -0.550425       -14.9778
  27   2.0000      -0.527471       -14.3532
  28   2.0000      -0.466083       -12.6828
  29   2.0000      -0.435417       -11.8483
  30   2.0000      -0.419609       -11.4181
  31   2.0000      -0.363938        -9.9033
  32   2.0000      -0.361747        -9.8436
  33   0.0000       0.112206         3.0533
  34   0.0000       0.122772         3.3408
  35   0.0000       0.134963         3.6725
  36   0.0000       0.167133         4.5479
  37   0.0000       0.169266         4.6060

MULLIKEN ATOMIC CHARGES
-----------------------
   0 C :   -0.385278
   1 C :    0.041999
   2 N :   -0.200020
   3 N :   -0.098567
   4 C :   -0.102606
   5 C :   -0.050076
   6 C :    0.271080
   7 N :   -0.484630
   8 O :   -0.349617
   9 H :    0.137997
  10 H :    0.143066
  11 H :    0.151885
  12 H :    0.259796
  13 H :    0.156646
  14 H :    0.250981
  15 H :    0.257344
Sum of atomic charges:    0.0000000

LOEWDIN ATOMIC CHARGES
----------------------
   0 C :   -0.268073
   1 C :   -0.250426
   2 N :    0.055140
   3 N :    0.138266
   4 C :   -0.213541
   5 C :   -0.156713
   6 C :   -0.439749
   7 N :   -0.037191
   8 O :    0.096026
   9 H :    0.135716
  10 H :    0.132141
  11 H :    0.138405
  12 H :    0.190083
  13 H :    0.138743
  14 H :    0.167744
  15 H :    0.173427

  Mayer bond orders larger than 0.1
B(  0-C ,  1-C ) :   0.9161 B(  0-C ,  9-H ) :   0.9263 B(  0-C , 10-H ) :   0.9413
B(  0-C , 11-H ) :   0.9236 B(  1-C ,  2-N ) :   1.6101 B(  1-C ,  5-C ) :   1.2386
B(  2-N ,  3-N ) :   1.0397 B(  2-N ,  4-C ) :   0.1118 B(  3-N ,  4-C ) :   1.2396
B(  3-N , 12-H ) :   0.8734 B(  4-C ,  5-C ) :   1.3743 B(  4-C , 13-H ) :   0.8986
B(  5-C ,  6-C ) :   0.9038 B(  6-C ,  7-N ) :   1.1610 B(  6-C ,  8-O ) :   1.9763
B(  7-N , 14-H ) :   0.8679 B(  7-N , 15-H ) :   0.8644

MP2 TOTAL ENERGY:     -433.410151975 Eh
FINAL SINGLE POINT ENERGY      -433.410151974794

DIPOLE MOMENT
-------------
                                X             Y             Z
Electronic contribution:     -0.60922      -2.37181       0.00046
Nuclear contribution   :      1.06755       0.51448       0.05877
                        -----------------------------------------
Total Dipole Moment    :      0.45833      -1.85733       0.05923
                        -----------------------------------------
Magnitude (a.u.)       :      1.91396
Magnitude (Debye)      :      4.86490

                             ****ORCA TERMINATED NORMALLY****
TOTAL RUN TIME: 0 days 0 hours 16 minutes 3 seconds 915 msec
