                         Program Version 3.0.3 - RELEASE   -
|  1> ! RI-MP2 RIJK def2-TZVP def2-TZVP/C def2-TZVP/JK TIGHTSCF
|  2> % maxcore 2000
|  3> % mp2 density relaxed end
|  4> *xyz 0 1
|  5>  C        0.1365915266     1.5861481089    -0.3434979918
|  6>  C       -0.0010389254     0.1009312482    -0.0083706381
|  7>  N        0.5047566539    -0.7172754424    -1.1306456068
|  8>  C        1.4266563496    -1.4373122613    -0.6472795439
|  9>  O        1.7310683804    -1.3550422695     0.6676084913
| 10>  C        0.7928503987    -0.4116188425     1.2401434411
| 11>  C        1.4352680594     0.5941528868     2.2266757420
| 12>  C        0.2672849373     0.3167684842     3.2121292333
| 13>  C       -0.0460652321    -0.9783358938     2.4132476400
| 14>  H        1.1855544099     1.8639173128    -0.4855937599
| 15>  H       -0.3958202708     1.7966294380    -1.2744162484
| 16>  H       -0.2869841749     2.2153705863     0.4455918976
| 17>  H       -1.0663598880    -0.1259726564     0.1226079472
| 18>  H        2.0300176272    -2.1461826143    -1.2045037271
| 19>  H        2.3813465465     0.1907522409     2.5961616113
| 20>  H        1.5976626940     1.6181854625     1.8870215284
| 21>  H        0.5223415480     0.2019779784     4.2667919722
| 22>  H       -0.5310758204     1.0587014849     3.1268151001
| 23>  H       -1.0920449774    -1.2193869411     2.2052453668
| 24>  H        0.4445806174    -1.8547212405     2.8442449647
| 25> *
| 26>
| 27>                          ****END OF INPUT****

CARTESIAN COORDINATES (ANGSTROEM)
---------------------------------
  C      0.136592    1.586148   -0.343498
  C     -0.001039    0.100931   -0.008371
  N      0.504757   -0.717275   -1.130646
  C      1.426656   -1.437312   -0.647280
  O      1.731068   -1.355042    0.667608
  C      0.792850   -0.411619    1.240143
  C      1.435268    0.594153    2.226676
  C      0.267285    0.316768    3.212129
  C     -0.046065   -0.978336    2.413248
  H      1.185554    1.863917   -0.485594
  H     -0.395820    1.796629   -1.274416
  H     -0.286984    2.215371    0.445592
  H     -1.066360   -0.125973    0.122608
  H      2.030018   -2.146183   -1.204504
  H      2.381347    0.190752    2.596162
  H      1.597663    1.618185    1.887022
  H      0.522342    0.201978    4.266792
  H     -0.531076    1.058701    3.126815
  H     -1.092045   -1.219387    2.205245
  H      0.444581   -1.854721    2.844245

 Total Charge           Charge          ....    0
 Multiplicity           Mult            ....    1
 Number of Electrons    NEL             ....   68
 Basis Dimension        Dim             ....  345

ORBITAL ENERGIES
----------------

  NO   OCC          E(Eh)            E(eV)
   0   2.0000     -20.589542      -560.2699
   1   2.0000     -15.542264      -422.9265
   2   2.0000     -11.326058      -308.1977
   3   2.0000     -11.296199      -307.3852
   4   2.0000     -11.263717      -306.5013
   5   2.0000     -11.230788      -305.6053
   6   2.0000     -11.228313      -305.5379
   7   2.0000     -11.227936      -305.5277
   8   2.0000     -11.217634      -305.2473
   9   2.0000      -1.434330       -39.0301
  10   2.0000      -1.210305       -32.9341
  11   2.0000      -1.140408       -31.0321
  12   2.0000      -1.020760       -27.7763
  13   2.0000      -0.926292       -25.2057
  14   2.0000      -0.910709       -24.7816
  15   2.0000      -0.835760       -22.7422
  16   2.0000      -0.801163       -21.8008
  17   2.0000      -0.748099       -20.3568
  18   2.0000      -0.698955       -19.0195
  19   2.0000      -0.656448       -17.8628
  20   2.0000      -0.644278       -17.5317
  21   2.0000      -0.637785       -17.3550
  22   2.0000      -0.597318       -16.2539
  23   2.0000      -0.575748       -15.6669
  24   2.0000      -0.548400       -14.9227
  25   2.0000      -0.532557       -14.4916
  26   2.0000      -0.516130       -14.0446
  27   2.0000      -0.503255       -13.6943
  28   2.0000      -0.488790       -13.3007
  29   2.0000      -0.484268       -13.1776
  30   2.0000      -0.468447       -12.7471
  31   2.0000      -0.453658       -12.3447
  32   2.0000      -0.418146       -11.3783
  33   2.0000      -0.373143       -10.1537
  34   0.0000       0.132749         3.6123
  35   0.0000       0.157036         4.2732
  36   0.0000       0.163456         4.4479
  37   0.0000       0.168621         4.5884
  38   0.0000       0.173977         4.7342

MULLIKEN ATOMIC CHARGES
-----------------------
   0 C :   -0.434862
   1 C :    0.032127
   2 N :   -0.282558
   3 C :    0.083354
   4 O :   -0.266387
   5 C :    0.219284
   6 C :   -0.248662
   7 C :   -0.240701
   8 C :   -0.266587
   9 H :    0.134110
  10 H :    0.149908
  11 H :    0.127845
  12 H :    0.101804
  13 H :    0.141361
  14 H :    0.128499
  15 H :    0.129573
  16 H :    0.123090
  17 H :    0.120029
  18 H :    0.124008
  19 H :    0.124764
Sum of atomic charges:   -0.0000000

LOEWDIN ATOMIC CHARGES
----------------------
   0 C :   -0.290808
   1 C :   -0.259330
   2 N :    0.081674
   3 C :   -0.350813
   4 O :    0.250851
   5 C :   -0.252945
   6 C :   -0.201312
   7 C :   -0.238147
   8 C :   -0.201286
   9 H :    0.126508
  10 H :    0.130790
  11 H :    0.122982
  12 H :    0.150516
  13 H :    0.132852
  14 H :    0.143543
  15 H :    0.128503
  16 H :    0.125216
  17 H :    0.132521
  18 H :    0.126961
  19 H :    0.141727

  Mayer bond orders larger than 0.1
B(  0-C ,  1-C ) :   0.8897 B(  0-C ,  9-H ) :   0.9356 B(  0-C , 10-H ) :   0.9323
B(  0-C , 11-H ) :   0.9375 B(  1-C ,  2-N ) :   0.9130 B(  1-C ,  5-C ) :   0.9416
B(  1-C , 12-H ) :   0.9147 B(  2-N ,  3-C ) :   1.8299 B(  3-C ,  4-O ) :   1.0716
B(  3-C , 13-H ) :   0.9242 B(  4-O ,  5-C ) :   0.8871 B(  5-C ,  6-C ) :   0.8783
B(  5-C ,  8-C ) :   0.8822 B(  6-C ,  7-C ) :   0.9466 B(  6-C , 14-H ) :   0.9171
B(  6-C , 15-H ) :   0.9266 B(  7-C ,  8-C ) :   0.9389 B(  7-C , 16-H ) :   0.9304
B(  7-C , 17-H ) :   0.9248 B(  8-C , 18-H ) :   0.9285 B(  8-C , 19-H ) :   0.9180

MP2 TOTAL ENERGY:     -402.465924527 Eh
FINAL SINGLE POINT ENERGY      -402.465924526729

DIPOLE MOMENT
-------------
                                X             Y             Z
Electronic contribution:      2.69666      -5.66360      -4.11134
Nuclear contribution   :     -2.72954       5.90140       4.82129
                        -----------------------------------------
Total Dipole Moment    :     -0.03288       0.23780       0.70995
                        -----------------------------------------
Magnitude (a.u.)       :      0.74944
Magnitude (Debye)      :      1.90493

                             ****ORCA TERMINATED NORMALLY****
TOTAL RUN TIME: 0 days 0 hours 19 minutes 35 seconds 885 msec
