                         Program Version 3.0.3 - RELEASE   -
|  1> ! RI-MP2 RIJK def2-TZVP def2-TZVP/C def2-TZVP/JK TIGHTSCF
|  2> % maxcore 2000
|  3> % mp2 density relaxed end
|  4> *xyz 0 1
|  5>  C       -0.0468511117     1.5143097507     0.0106345270
|  6>  C        1.4117793857     1.9065074844    -0.0011077075
|  7>  C        2.2043809713     0.8205413415    -0.0146805959
|  8>  C        1.3753520499    -0.3857747576    -0.0134689717
|  9>  C        1.6812693171    -1.7419694898    -0.0239091585
| 10>  C        0.6100722856    -2.6362784062    -0.0186537508
| 11>  N       -0.6774771326    -2.2783244174    -0.0043796073
| 12>  C       -0.9586932573    -0.9666451081     0.0055855973
| 13>  C        0.0237127627     0.0069782377     0.0016076738
| 14>  H       -0.5675100500     1.9067454984     0.8946551264
| 15>  H       -0.5842536570     1.9164749663    -0.8588727826
| 16>  H        1.7441930637     2.9369461868     0.0014321082
| 17>  H        3.2872492891     0.8164324582    -0.0250276514
| 18>  H        2.7037171646    -2.1041361166    -0.0356685480
| 19>  H        0.8032022637    -3.7068728057    -0.0264287890
| 20>  H       -2.0148742547    -0.7035110926     0.0171139243
| 21> *
| 22>
| 23>                          ****END OF INPUT****

CARTESIAN COORDINATES (ANGSTROEM)
---------------------------------
  C     -0.046851    1.514310    0.010635
  C      1.411779    1.906507   -0.001108
  C      2.204381    0.820541   -0.014681
  C      1.375352   -0.385775   -0.013469
  C      1.681269   -1.741969   -0.023909
  C      0.610072   -2.636278   -0.018654
  N     -0.677477   -2.278324   -0.004380
  C     -0.958693   -0.966645    0.005586
  C      0.023713    0.006978    0.001608
  H     -0.567510    1.906745    0.894655
  H     -0.584254    1.916475   -0.858873
  H      1.744193    2.936946    0.001432
  H      3.287249    0.816432   -0.025028
  H      2.703717   -2.104136   -0.035669
  H      0.803202   -3.706873   -0.026429
  H     -2.014874   -0.703511    0.017114

 Total Charge           Charge          ....    0
 Multiplicity           Mult            ....    1
 Number of Electrons    NEL             ....   62
 Basis Dimension        Dim             ....  321

ORBITAL ENERGIES
----------------

  NO   OCC          E(Eh)            E(eV)
   0   2.0000     -15.554615      -423.2626
   1   2.0000     -11.267352      -306.6002
   2   2.0000     -11.266427      -306.5751
   3   2.0000     -11.255504      -306.2778
   4   2.0000     -11.251708      -306.1745
   5   2.0000     -11.247498      -306.0600
   6   2.0000     -11.243375      -305.9478
   7   2.0000     -11.236401      -305.7580
   8   2.0000     -11.234023      -305.6933
   9   2.0000      -1.250360       -34.0240
  10   2.0000      -1.165011       -31.7016
  11   2.0000      -1.050502       -28.5856
  12   2.0000      -1.013810       -27.5872
  13   2.0000      -0.959236       -26.1021
  14   2.0000      -0.854493       -23.2519
  15   2.0000      -0.816620       -22.2214
  16   2.0000      -0.771220       -20.9860
  17   2.0000      -0.708944       -19.2914
  18   2.0000      -0.662476       -18.0269
  19   2.0000      -0.633940       -17.2504
  20   2.0000      -0.611442       -16.6382
  21   2.0000      -0.605237       -16.4693
  22   2.0000      -0.576903       -15.6983
  23   2.0000      -0.549095       -14.9416
  24   2.0000      -0.526994       -14.3402
  25   2.0000      -0.524263       -14.2659
  26   2.0000      -0.492877       -13.4119
  27   2.0000      -0.429994       -11.7007
  28   2.0000      -0.411830       -11.2065
  29   2.0000      -0.338179        -9.2023
  30   2.0000      -0.326070        -8.8728
  31   0.0000       0.087706         2.3866
  32   0.0000       0.122029         3.3206
  33   0.0000       0.141715         3.8563
  34   0.0000       0.164092         4.4652
  35   0.0000       0.171224         4.6593

MULLIKEN ATOMIC CHARGES
-----------------------
   0 C :   -0.111356
   1 C :   -0.181617
   2 C :   -0.201361
   3 C :    0.064178
   4 C :   -0.159408
   5 C :   -0.021310
   6 N :   -0.240700
   7 C :   -0.093888
   8 C :    0.010049
   9 H :    0.142422
  10 H :    0.142424
  11 H :    0.137474
  12 H :    0.134506
  13 H :    0.127602
  14 H :    0.126536
  15 H :    0.124451
Sum of atomic charges:   -0.0000000

LOEWDIN ATOMIC CHARGES
----------------------
   0 C :   -0.189043
   1 C :   -0.129071
   2 C :   -0.106872
   3 C :   -0.103210
   4 C :   -0.117404
   5 C :   -0.218943
   6 N :    0.126384
   7 C :   -0.192680
   8 C :   -0.097346
   9 H :    0.159787
  10 H :    0.159785
  11 H :    0.138286
  12 H :    0.143804
  13 H :    0.149258
  14 H :    0.137764
  15 H :    0.139501

  Mayer bond orders larger than 0.1
B(  0-C ,  1-C ) :   0.9667 B(  0-C ,  8-C ) :   0.9707 B(  0-C ,  9-H ) :   0.8833
B(  0-C , 10-H ) :   0.8833 B(  1-C ,  2-C ) :   1.7193 B(  1-C , 11-H ) :   0.9307
B(  2-C ,  3-C ) :   1.0077 B(  2-C , 12-H ) :   0.9276 B(  3-C ,  4-C ) :   1.3141
B(  3-C ,  8-C ) :   1.2523 B(  4-C ,  5-C ) :   1.3240 B(  4-C , 13-H ) :   0.9224
B(  5-C ,  6-N ) :   1.3868 B(  5-C , 14-H ) :   0.9445 B(  6-N ,  7-C ) :   1.4013
B(  7-C ,  8-C ) :   1.2849 B(  7-C , 15-H ) :   0.9567

MP2 TOTAL ENERGY:     -363.011104188 Eh
FINAL SINGLE POINT ENERGY      -363.011104187502

DIPOLE MOMENT
-------------
                                X             Y             Z
Electronic contribution:     -0.42081      -2.73698      -0.01117
Nuclear contribution   :      1.01840       3.71316       0.01089
                        -----------------------------------------
Total Dipole Moment    :      0.59759       0.97618      -0.00028
                        -----------------------------------------
Magnitude (a.u.)       :      1.14457
Magnitude (Debye)      :      2.90927

                             ****ORCA TERMINATED NORMALLY****
TOTAL RUN TIME: 0 days 0 hours 16 minutes 41 seconds 505 msec
