                         Program Version 3.0.3 - RELEASE   -
|  1> ! RI-MP2 RIJK def2-TZVP def2-TZVP/C def2-TZVP/JK TIGHTSCF
|  2> % maxcore 2000
|  3> % mp2 density relaxed end
|  4> *xyz 0 1
|  5>  N       -0.0900221999     1.2949131396     0.1361718879
|  6>  C        0.0028900693     0.0336033778    -0.0232175060
|  7>  C       -1.2182334931    -0.7759936619    -0.0938982989
|  8>  N       -1.2677511072    -2.0453555858    -0.2508580525
|  9>  O       -0.0121348216    -2.6881911989    -0.3621369056
| 10>  C        1.1035702900    -1.9401981991    -0.2966324949
| 11>  N        1.2081234127    -0.6798836359    -0.1421098080
| 12>  H        0.8488516144     1.7012945181     0.1634828561
| 13>  H       -2.1831270224    -0.2841255129    -0.0086910699
| 14>  H        1.9784330977    -2.5794654710    -0.3979687382
| 15> *
| 16>
| 17>                          ****END OF INPUT****

CARTESIAN COORDINATES (ANGSTROEM)
---------------------------------
  N     -0.090022    1.294913    0.136172
  C      0.002890    0.033603   -0.023218
  C     -1.218233   -0.775994   -0.093898
  N     -1.267751   -2.045356   -0.250858
  O     -0.012135   -2.688191   -0.362137
  C      1.103570   -1.940198   -0.296632
  N      1.208123   -0.679884   -0.142110
  H      0.848852    1.701295    0.163483
  H     -2.183127   -0.284126   -0.008691
  H      1.978433   -2.579465   -0.397969

 Total Charge           Charge          ....    0
 Multiplicity           Mult            ....    1
 Number of Electrons    NEL             ....   50
 Basis Dimension        Dim             ....  235

ORBITAL ENERGIES
----------------

  NO   OCC          E(Eh)            E(eV)
   0   2.0000     -20.670057      -562.4609
   1   2.0000     -15.676441      -426.5776
   2   2.0000     -15.591891      -424.2769
   3   2.0000     -15.567388      -423.6102
   4   2.0000     -11.387725      -309.8757
   5   2.0000     -11.342457      -308.6439
   6   2.0000     -11.318327      -307.9873
   7   2.0000      -1.511384       -41.1268
   8   2.0000      -1.299207       -35.3532
   9   2.0000      -1.237604       -33.6769
  10   2.0000      -1.187710       -32.3192
  11   2.0000      -0.948760       -25.8171
  12   2.0000      -0.918463       -24.9927
  13   2.0000      -0.785060       -21.3626
  14   2.0000      -0.747297       -20.3350
  15   2.0000      -0.712148       -19.3785
  16   2.0000      -0.687497       -18.7078
  17   2.0000      -0.656826       -17.8731
  18   2.0000      -0.586512       -15.9598
  19   2.0000      -0.545654       -14.8480
  20   2.0000      -0.544381       -14.8134
  21   2.0000      -0.492147       -13.3920
  22   2.0000      -0.479626       -13.0513
  23   2.0000      -0.443479       -12.0677
  24   2.0000      -0.385754       -10.4969
  25   0.0000       0.073241         1.9930
  26   0.0000       0.104445         2.8421
  27   0.0000       0.156259         4.2520
  28   0.0000       0.163682         4.4540
  29   0.0000       0.177999         4.8436

MULLIKEN ATOMIC CHARGES
-----------------------
   0 N :   -0.323405
   1 C :    0.102796
   2 C :   -0.020585
   3 N :   -0.059983
   4 O :   -0.126709
   5 C :    0.136371
   6 N :   -0.271572
   7 H :    0.229083
   8 H :    0.169209
   9 H :    0.164794
Sum of atomic charges:    0.0000000

LOEWDIN ATOMIC CHARGES
----------------------
   0 N :   -0.017825
   1 C :   -0.380794
   2 C :   -0.188749
   3 N :    0.083132
   4 O :    0.224459
   5 C :   -0.316341
   6 N :    0.119132
   7 H :    0.170027
   8 H :    0.162728
   9 H :    0.144231

  Mayer bond orders larger than 0.1
B(  0-N ,  1-C ) :   1.9715 B(  0-N ,  7-H ) :   0.8567 B(  1-C ,  2-C ) :   1.0080
B(  1-C ,  6-N ) :   1.0497 B(  2-C ,  3-N ) :   1.7519 B(  2-C ,  8-H ) :   0.8998
B(  3-N ,  4-O ) :   0.7840 B(  4-O ,  5-C ) :   1.1021 B(  5-C ,  6-N ) :   1.7252
B(  5-C ,  9-H ) :   0.9129

MP2 TOTAL ENERGY:     -354.873718457 Eh
FINAL SINGLE POINT ENERGY      -354.873718457119

DIPOLE MOMENT
-------------
                                X             Y             Z
Electronic contribution:     -0.23218      -2.03737      -0.24805
Nuclear contribution   :      0.69079       1.68895       0.19325
                        -----------------------------------------
Total Dipole Moment    :      0.45862      -0.34842      -0.05480
                        -----------------------------------------
Magnitude (a.u.)       :      0.57856
Magnitude (Debye)      :      1.47057

                             ****ORCA TERMINATED NORMALLY****
TOTAL RUN TIME: 0 days 0 hours 5 minutes 58 seconds 484 msec
