                         Program Version 3.0.3 - RELEASE   -
|  1> ! RI-MP2 RIJK def2-TZVP def2-TZVP/C def2-TZVP/JK TIGHTSCF
|  2> % maxcore 2000
|  3> % mp2 density relaxed end
|  4> *xyz 0 1
|  5>  N       -0.0803391950     1.4600909971     0.1167791675
|  6>  C        0.0830179473     0.0137006194    -0.0523850783
|  7>  C        0.8842836237    -0.3503079289    -1.2410962056
|  8>  N        1.5360788286    -0.5754961894    -2.1692755378
|  9>  C        0.7138668659    -0.5801793536     1.2095246187
| 10>  N       -0.1266513166    -0.5000742490     2.4177386498
| 11>  C        0.3902796071    -1.8101858813     2.8814835589
| 12>  C        0.7466736073    -2.1281042388     1.4056984286
| 13>  O       -0.2440849861    -2.8372123102     0.7007795623
| 14>  H        0.8286608577     1.9143124125     0.0832561902
| 15>  H       -0.6182597544     1.8432674101    -0.6548432052
| 16>  H       -0.9112076831    -0.4271807964    -0.1684464972
| 17>  H        1.7247818711    -0.1588803904     1.3359048326
| 18>  H        0.0178385150     0.3017291972     3.0198662501
| 19>  H        1.2827390643    -1.7555878357     3.5209982344
| 20>  H       -0.3520802590    -2.4605136969     3.3569636984
| 21>  H        1.6932061211    -2.6285101481     1.2033671350
| 22>  H       -1.1028543150    -2.5216673675     1.0054245375
| 23> *
| 24>
| 25>                          ****END OF INPUT****

CARTESIAN COORDINATES (ANGSTROEM)
---------------------------------
  N     -0.080339    1.460091    0.116779
  C      0.083018    0.013701   -0.052385
  C      0.884284   -0.350308   -1.241096
  N      1.536079   -0.575496   -2.169276
  C      0.713867   -0.580179    1.209525
  N     -0.126651   -0.500074    2.417739
  C      0.390280   -1.810186    2.881484
  C      0.746674   -2.128104    1.405698
  O     -0.244085   -2.837212    0.700780
  H      0.828661    1.914312    0.083256
  H     -0.618260    1.843267   -0.654843
  H     -0.911208   -0.427181   -0.168446
  H      1.724782   -0.158880    1.335905
  H      0.017839    0.301729    3.019866
  H      1.282739   -1.755588    3.520998
  H     -0.352080   -2.460514    3.356964
  H      1.693206   -2.628510    1.203367
  H     -1.102854   -2.521667    1.005425

 Total Charge           Charge          ....    0
 Multiplicity           Mult            ....    1
 Number of Electrons    NEL             ....   68
 Basis Dimension        Dim             ....  333

ORBITAL ENERGIES
----------------

  NO   OCC          E(Eh)            E(eV)
   0   2.0000     -20.571389      -559.7759
   1   2.0000     -15.574009      -423.7903
   2   2.0000     -15.571210      -423.7142
   3   2.0000     -15.563294      -423.4988
   4   2.0000     -11.312432      -307.8269
   5   2.0000     -11.299422      -307.4729
   6   2.0000     -11.282590      -307.0149
   7   2.0000     -11.270028      -306.6731
   8   2.0000     -11.268904      -306.6425
   9   2.0000      -1.384013       -37.6609
  10   2.0000      -1.257991       -34.2317
  11   2.0000      -1.227537       -33.4030
  12   2.0000      -1.199292       -32.6344
  13   2.0000      -1.015873       -27.6433
  14   2.0000      -0.971239       -26.4288
  15   2.0000      -0.895519       -24.3683
  16   2.0000      -0.802211       -21.8293
  17   2.0000      -0.750256       -20.4155
  18   2.0000      -0.724959       -19.7271
  19   2.0000      -0.688883       -18.7455
  20   2.0000      -0.653114       -17.7721
  21   2.0000      -0.630379       -17.1535
  22   2.0000      -0.621654       -16.9161
  23   2.0000      -0.586368       -15.9559
  24   2.0000      -0.579084       -15.7577
  25   2.0000      -0.563677       -15.3384
  26   2.0000      -0.550307       -14.9746
  27   2.0000      -0.531304       -14.4575
  28   2.0000      -0.486125       -13.2281
  29   2.0000      -0.474644       -12.9157
  30   2.0000      -0.459619       -12.5069
  31   2.0000      -0.437044       -11.8926
  32   2.0000      -0.428667       -11.6646
  33   2.0000      -0.399883       -10.8814
  34   0.0000       0.114998         3.1293
  35   0.0000       0.134317         3.6549
  36   0.0000       0.141299         3.8449
  37   0.0000       0.155852         4.2410
  38   0.0000       0.174804         4.7567

MULLIKEN ATOMIC CHARGES
-----------------------
   0 N :   -0.522358
   1 C :    0.223709
   2 C :   -0.219616
   3 N :   -0.062714
   4 C :   -0.139003
   5 N :   -0.340037
   6 C :   -0.140120
   7 C :    0.084189
   8 O :   -0.457663
   9 H :    0.236135
  10 H :    0.242507
  11 H :    0.094759
  12 H :    0.100708
  13 H :    0.212521
  14 H :    0.112855
  15 H :    0.119970
  16 H :    0.128261
  17 H :    0.325896
Sum of atomic charges:    0.0000000

LOEWDIN ATOMIC CHARGES
----------------------
   0 N :   -0.121558
   1 C :   -0.310856
   2 C :   -0.176004
   3 N :    0.061059
   4 C :   -0.251537
   5 N :    0.003798
   6 C :   -0.263874
   7 C :   -0.299572
   8 O :    0.001269
   9 H :    0.160849
  10 H :    0.161575
  11 H :    0.167541
  12 H :    0.144461
  13 H :    0.159281
  14 H :    0.123073
  15 H :    0.121370
  16 H :    0.137246
  17 H :    0.181878

  Mayer bond orders larger than 0.1
B(  0-N ,  1-C ) :   0.9486 B(  0-N ,  9-H ) :   0.8886 B(  0-N , 10-H ) :   0.8940
B(  1-C ,  2-C ) :   0.9247 B(  1-C ,  4-C ) :   0.9040 B(  1-C , 11-H ) :   0.8851
B(  2-C ,  3-N ) :   2.8653 B(  4-C ,  5-N ) :   1.0593 B(  4-C ,  7-C ) :   0.9304
B(  4-C , 12-H ) :   0.8987 B(  5-N ,  6-C ) :   0.9246 B(  5-N , 13-H ) :   0.8833
B(  6-C ,  7-C ) :   0.9341 B(  6-C , 14-H ) :   0.9211 B(  6-C , 15-H ) :   0.9175
B(  7-C ,  8-O ) :   0.9341 B(  7-C , 16-H ) :   0.9264 B(  8-O , 17-H ) :   0.8334

MP2 TOTAL ENERGY:     -434.528981496 Eh
FINAL SINGLE POINT ENERGY      -434.528981496226

DIPOLE MOMENT
-------------
                                X             Y             Z
Electronic contribution:      0.74937      -0.67841      -5.22086
Nuclear contribution   :     -1.00083       1.38091       6.62275
                        -----------------------------------------
Total Dipole Moment    :     -0.25146       0.70250       1.40189
                        -----------------------------------------
Magnitude (a.u.)       :      1.58809
Magnitude (Debye)      :      4.03660

                             ****ORCA TERMINATED NORMALLY****
TOTAL RUN TIME: 0 days 0 hours 17 minutes 49 seconds 226 msec
