                         Program Version 3.0.3 - RELEASE   -
|  1> ! RI-MP2 RIJK def2-TZVP def2-TZVP/C def2-TZVP/JK TIGHTSCF
|  2> % maxcore 2000
|  3> % mp2 density relaxed end
|  4> *xyz 0 1
|  5>  C       -0.0826485841     1.5347793919     0.1429356099
|  6>  N       -0.0162773358     0.0907575263     0.1335391105
|  7>  C       -1.2569417009    -0.6574103456     0.4650550950
|  8>  C       -0.4548695297    -1.5399917001     1.4418345143
|  9>  C       -1.0481895611    -2.0341883266     2.7372905849
| 10>  O       -1.9102464708    -3.1301286849     2.4861387075
| 11>  O        0.2600426090    -2.6164299495     0.7750357131
| 12>  C        1.4797532044    -1.8272078892     0.7019761960
| 13>  C        0.7417172038    -0.5813696895     1.2126707919
| 14>  H        0.9158511185     1.9549087715    -0.0176041965
| 15>  H       -0.7231336613     1.8768482929    -0.6768013415
| 16>  H       -0.4859507885     1.9568641447     1.0840050170
| 17>  H       -2.0051965504    -0.0440258434     0.9913942830
| 18>  H       -1.7295855710    -1.1617331946    -0.3827469213
| 19>  H       -0.2362578578    -2.3090929523     3.4301306149
| 20>  H       -1.6496981423    -1.2542926793     3.2156018742
| 21>  H       -1.3916807729    -3.7582354865     1.9675710755
| 22>  H        2.2461884333    -2.2230356934     1.3808729128
| 23>  H        1.8701716712    -1.7615192558    -0.3178247927
| 24>  H        1.2012297664     0.0595780434     1.9691629215
| 25> *
| 26>
| 27>                          ****END OF INPUT****

CARTESIAN COORDINATES (ANGSTROEM)
---------------------------------
  C     -0.082649    1.534779    0.142936
  N     -0.016277    0.090758    0.133539
  C     -1.256942   -0.657410    0.465055
  C     -0.454870   -1.539992    1.441835
  C     -1.048190   -2.034188    2.737291
  O     -1.910246   -3.130129    2.486139
  O      0.260043   -2.616430    0.775036
  C      1.479753   -1.827208    0.701976
  C      0.741717   -0.581370    1.212671
  H      0.915851    1.954909   -0.017604
  H     -0.723134    1.876848   -0.676801
  H     -0.485951    1.956864    1.084005
  H     -2.005197   -0.044026    0.991394
  H     -1.729586   -1.161733   -0.382747
  H     -0.236258   -2.309093    3.430131
  H     -1.649698   -1.254293    3.215602
  H     -1.391681   -3.758235    1.967571
  H      2.246188   -2.223036    1.380873
  H      1.870172   -1.761519   -0.317825
  H      1.201230    0.059578    1.969163

 Total Charge           Charge          ....    0
 Multiplicity           Mult            ....    1
 Number of Electrons    NEL             ....   70
 Basis Dimension        Dim             ....  345

ORBITAL ENERGIES
----------------

  NO   OCC          E(Eh)            E(eV)
   0   2.0000     -20.555892      -559.3543
   1   2.0000     -20.554017      -559.3032
   2   2.0000     -15.552094      -423.1940
   3   2.0000     -11.290656      -307.2344
   4   2.0000     -11.282477      -307.0118
   5   2.0000     -11.279899      -306.9417
   6   2.0000     -11.267931      -306.6160
   7   2.0000     -11.254931      -306.2622
   8   2.0000     -11.251162      -306.1597
   9   2.0000      -1.394723       -37.9523
  10   2.0000      -1.355497       -36.8850
  11   2.0000      -1.240372       -33.7522
  12   2.0000      -1.028787       -27.9947
  13   2.0000      -0.992712       -27.0131
  14   2.0000      -0.946604       -25.7584
  15   2.0000      -0.864833       -23.5333
  16   2.0000      -0.839768       -22.8512
  17   2.0000      -0.723972       -19.7003
  18   2.0000      -0.715255       -19.4631
  19   2.0000      -0.677763       -18.4429
  20   2.0000      -0.664903       -18.0929
  21   2.0000      -0.654261       -17.8033
  22   2.0000      -0.613518       -16.6947
  23   2.0000      -0.594172       -16.1682
  24   2.0000      -0.591415       -16.0932
  25   2.0000      -0.573497       -15.6056
  26   2.0000      -0.560195       -15.2437
  27   2.0000      -0.541152       -14.7255
  28   2.0000      -0.524664       -14.2768
  29   2.0000      -0.493526       -13.4295
  30   2.0000      -0.465944       -12.6790
  31   2.0000      -0.461436       -12.5563
  32   2.0000      -0.441976       -12.0268
  33   2.0000      -0.410520       -11.1708
  34   2.0000      -0.357925        -9.7396
  35   0.0000       0.133785         3.6405
  36   0.0000       0.151175         4.1137
  37   0.0000       0.159431         4.3383
  38   0.0000       0.173957         4.7336
  39   0.0000       0.187803         5.1104

MULLIKEN ATOMIC CHARGES
-----------------------
   0 C :   -0.328118
   1 N :   -0.157296
   2 C :   -0.174878
   3 C :    0.133965
   4 C :    0.012128
   5 O :   -0.473768
   6 O :   -0.366549
   7 C :   -0.014408
   8 C :   -0.083684
   9 H :    0.136624
  10 H :    0.143260
  11 H :    0.102235
  12 H :    0.103759
  13 H :    0.113899
  14 H :    0.097879
  15 H :    0.105367
  16 H :    0.331248
  17 H :    0.095080
  18 H :    0.106661
  19 H :    0.116596
Sum of atomic charges:    0.0000000

LOEWDIN ATOMIC CHARGES
----------------------
   0 C :   -0.342437
   1 N :    0.083249
   2 C :   -0.200043
   3 C :   -0.295503
   4 C :   -0.315026
   5 O :   -0.038652
   6 O :    0.141189
   7 C :   -0.241103
   8 C :   -0.197697
   9 H :    0.118683
  10 H :    0.120807
  11 H :    0.099851
  12 H :    0.128000
  13 H :    0.128902
  14 H :    0.122993
  15 H :    0.132753
  16 H :    0.181600
  17 H :    0.117796
  18 H :    0.122096
  19 H :    0.132543

  Mayer bond orders larger than 0.1
B(  0-C ,  1-N ) :   0.8987 B(  0-C ,  9-H ) :   0.9386 B(  0-C , 10-H ) :   0.9395
B(  0-C , 11-H ) :   0.9220 B(  1-N ,  2-C ) :   0.9445 B(  1-N ,  8-C ) :   0.9377
B(  2-C ,  3-C ) :   0.9406 B(  2-C , 12-H ) :   0.9143 B(  2-C , 13-H ) :   0.9028
B(  3-C ,  4-C ) :   0.9602 B(  3-C ,  6-O ) :   0.8770 B(  3-C ,  8-C ) :   0.9050
B(  4-C ,  5-O ) :   0.9209 B(  4-C , 14-H ) :   0.9146 B(  4-C , 15-H ) :   0.9215
B(  5-O , 16-H ) :   0.8299 B(  6-O ,  7-C ) :   0.9346 B(  7-C ,  8-C ) :   0.9541
B(  7-C , 17-H ) :   0.9217 B(  7-C , 18-H ) :   0.8995 B(  8-C , 19-H ) :   0.9039

MP2 TOTAL ENERGY:     -439.506459677 Eh
FINAL SINGLE POINT ENERGY      -439.506459677032

DIPOLE MOMENT
-------------
                                X             Y             Z
Electronic contribution:     -0.35324      -5.55998       0.13061
Nuclear contribution   :      1.00415       6.38763       0.10274
                        -----------------------------------------
Total Dipole Moment    :      0.65091       0.82764       0.23336
                        -----------------------------------------
Magnitude (a.u.)       :      1.07849
Magnitude (Debye)      :      2.74130

                             ****ORCA TERMINATED NORMALLY****
TOTAL RUN TIME: 0 days 0 hours 16 minutes 49 seconds 524 msec
