                         Program Version 3.0.3 - RELEASE   -
|  1> ! RI-MP2 RIJK def2-TZVP def2-TZVP/C def2-TZVP/JK TIGHTSCF
|  2> % maxcore 2000
|  3> % mp2 density relaxed end
|  4> *xyz 0 1
|  5>  C       -0.0100955987     1.5038207615     0.1866865807
|  6>  C        0.0071906419    -0.0066377465    -0.0649719946
|  7>  O        0.6058914412    -0.7195742192     1.0175364559
|  8>  C       -1.3821701396    -0.5524344062    -0.2210427603
|  9>  N       -2.2509775484    -0.7836990777     0.9608311205
| 10>  C       -1.9658378811    -1.8984034663     0.0126316289
| 11>  C       -2.9696202171    -1.7307292028    -1.1278593250
| 12>  C       -2.3788139187    -0.2844604350    -1.3630242435
| 13>  O       -3.2181656886     0.8252071368    -1.1993785036
| 14>  H        1.0095828573     1.9028071920     0.2370424465
| 15>  H       -0.5410175841     2.0234150327    -0.6162438146
| 16>  H       -0.5192855355     1.7230892385     1.1299467194
| 17>  H        0.5630473961    -0.2072021361    -0.9962628081
| 18>  H        1.4267937397    -0.2750810520     1.2503434385
| 19>  H       -1.6088629441    -0.8972846916     1.7457028667
| 20>  H       -1.4798447832    -2.7995127946     0.3631691656
| 21>  H       -2.7941410440    -2.3963774000    -1.9761274471
| 22>  H       -4.0233692603    -1.7644694771    -0.8397522623
| 23>  H       -1.9015399690    -0.1882369397    -2.3417273206
| 24>  H       -3.5120859934     0.7810924736    -0.2783513731
| 25> *
| 26>
| 27>                          ****END OF INPUT****

CARTESIAN COORDINATES (ANGSTROEM)
---------------------------------
  C     -0.010096    1.503821    0.186687
  C      0.007191   -0.006638   -0.064972
  O      0.605891   -0.719574    1.017536
  C     -1.382170   -0.552434   -0.221043
  N     -2.250978   -0.783699    0.960831
  C     -1.965838   -1.898403    0.012632
  C     -2.969620   -1.730729   -1.127859
  C     -2.378814   -0.284460   -1.363024
  O     -3.218166    0.825207   -1.199379
  H      1.009583    1.902807    0.237042
  H     -0.541018    2.023415   -0.616244
  H     -0.519286    1.723089    1.129947
  H      0.563047   -0.207202   -0.996263
  H      1.426794   -0.275081    1.250343
  H     -1.608863   -0.897285    1.745703
  H     -1.479845   -2.799513    0.363169
  H     -2.794141   -2.396377   -1.976127
  H     -4.023369   -1.764469   -0.839752
  H     -1.901540   -0.188237   -2.341727
  H     -3.512086    0.781092   -0.278351

 Total Charge           Charge          ....    0
 Multiplicity           Mult            ....    1
 Number of Electrons    NEL             ....   70
 Basis Dimension        Dim             ....  345

ORBITAL ENERGIES
----------------

  NO   OCC          E(Eh)            E(eV)
   0   2.0000     -20.569615      -559.7277
   1   2.0000     -20.546713      -559.1045
   2   2.0000     -15.557649      -423.3451
   3   2.0000     -11.297040      -307.4081
   4   2.0000     -11.283028      -307.0268
   5   2.0000     -11.260383      -306.4106
   6   2.0000     -11.258730      -306.3656
   7   2.0000     -11.225805      -305.4697
   8   2.0000     -11.224607      -305.4371
   9   2.0000      -1.377761       -37.4908
  10   2.0000      -1.361351       -37.0442
  11   2.0000      -1.272587       -34.6288
  12   2.0000      -1.039019       -28.2731
  13   2.0000      -1.032949       -28.1080
  14   2.0000      -0.911764       -24.8104
  15   2.0000      -0.861311       -23.4375
  16   2.0000      -0.819374       -22.2963
  17   2.0000      -0.761985       -20.7347
  18   2.0000      -0.712781       -19.3958
  19   2.0000      -0.683269       -18.5927
  20   2.0000      -0.647167       -17.6103
  21   2.0000      -0.631778       -17.1916
  22   2.0000      -0.624061       -16.9816
  23   2.0000      -0.584127       -15.8949
  24   2.0000      -0.572493       -15.5783
  25   2.0000      -0.554148       -15.0791
  26   2.0000      -0.550909       -14.9910
  27   2.0000      -0.544567       -14.8184
  28   2.0000      -0.518347       -14.1049
  29   2.0000      -0.496868       -13.5205
  30   2.0000      -0.477821       -13.0022
  31   2.0000      -0.453332       -12.3358
  32   2.0000      -0.439248       -11.9525
  33   2.0000      -0.411361       -11.1937
  34   2.0000      -0.364707        -9.9242
  35   0.0000       0.125696         3.4204
  36   0.0000       0.154563         4.2059
  37   0.0000       0.164287         4.4705
  38   0.0000       0.167506         4.5581
  39   0.0000       0.190048         5.1715

MULLIKEN ATOMIC CHARGES
-----------------------
   0 C :   -0.422170
   1 C :    0.063299
   2 O :   -0.478776
   3 C :    0.107600
   4 N :   -0.436612
   5 C :   -0.118197
   6 C :   -0.147700
   7 C :    0.041495
   8 O :   -0.469461
   9 H :    0.127791
  10 H :    0.150167
  11 H :    0.139722
  12 H :    0.081552
  13 H :    0.318090
  14 H :    0.235907
  15 H :    0.146513
  16 H :    0.116324
  17 H :    0.107200
  18 H :    0.105603
  19 H :    0.331656
Sum of atomic charges:   -0.0000000

LOEWDIN ATOMIC CHARGES
----------------------
   0 C :   -0.293831
   1 C :   -0.345659
   2 O :   -0.021759
   3 C :   -0.248831
   4 N :    0.012905
   5 C :   -0.207614
   6 C :   -0.201451
   7 C :   -0.283671
   8 O :   -0.013452
   9 H :    0.119593
  10 H :    0.135935
  11 H :    0.128729
  12 H :    0.141858
  13 H :    0.176136
  14 H :    0.176931
  15 H :    0.133455
  16 H :    0.134167
  17 H :    0.132068
  18 H :    0.141275
  19 H :    0.183214

  Mayer bond orders larger than 0.1
B(  0-C ,  1-C ) :   0.9350 B(  0-C ,  9-H ) :   0.9332 B(  0-C , 10-H ) :   0.9220
B(  0-C , 11-H ) :   0.9308 B(  1-C ,  2-O ) :   1.0003 B(  1-C ,  3-C ) :   0.8950
B(  1-C , 12-H ) :   0.9294 B(  2-O , 13-H ) :   0.8424 B(  3-C ,  4-N ) :   0.8768
B(  3-C ,  5-C ) :   0.8474 B(  3-C ,  7-C ) :   0.9067 B(  4-N ,  5-C ) :   0.9311
B(  4-N , 14-H ) :   0.8677 B(  5-C ,  6-C ) :   0.9624 B(  5-C , 15-H ) :   0.8982
B(  6-C ,  7-C ) :   0.9612 B(  6-C , 16-H ) :   0.9218 B(  6-C , 17-H ) :   0.8951
B(  7-C ,  8-O ) :   0.9764 B(  7-C , 18-H ) :   0.9420 B(  8-O , 19-H ) :   0.8201

MP2 TOTAL ENERGY:     -439.532765499 Eh
FINAL SINGLE POINT ENERGY      -439.532765499399

DIPOLE MOMENT
-------------
                                X             Y             Z
Electronic contribution:     -1.63663      -1.93902       0.48018
Nuclear contribution   :      2.73244       1.80215      -0.35207
                        -----------------------------------------
Total Dipole Moment    :      1.09581      -0.13687       0.12810
                        -----------------------------------------
Magnitude (a.u.)       :      1.11173
Magnitude (Debye)      :      2.82579

                             ****ORCA TERMINATED NORMALLY****
TOTAL RUN TIME: 0 days 0 hours 19 minutes 6 seconds 392 msec
