                         Program Version 3.0.3 - RELEASE   -
|  1> ! RI-MP2 RIJK def2-TZVP def2-TZVP/C def2-TZVP/JK TIGHTSCF
|  2> % maxcore 2000
|  3> % mp2 density relaxed end
|  4> *xyz 0 1
|  5>  O        0.1029165675    -0.0288067547    -0.5143025610
|  6>  C       -0.0247195945     1.1424709270    -0.2479407811
|  7>  C        1.1646246276     1.9746447452     0.0351249941
|  8>  N        2.0909640262     2.6335059319     0.2472630543
|  9>  C       -1.3147178606     1.8627487101    -0.1569786612
| 10>  C       -2.5334414956     1.2362617224    -0.7901315159
| 11>  C       -2.4481316623     1.2361474223     0.7073873127
| 12>  C       -2.2391922056     0.0300633386     1.4478258709
| 13>  C       -2.0853962490    -0.9721877873     2.0929282730
| 14>  H       -1.2467347988     2.9429484140    -0.1070617907
| 15>  H       -3.2449175808     1.9023287021    -1.2633045873
| 16>  H       -2.3620094810     0.2877466584    -1.2850805237
| 17>  H       -3.0374990639     1.9901558026     1.2208895375
| 18>  H       -1.9434220391    -1.8643165727     2.6515206685
| 19> *
| 20>
| 21>                          ****END OF INPUT****

CARTESIAN COORDINATES (ANGSTROEM)
---------------------------------
  O      0.102917   -0.028807   -0.514303
  C     -0.024720    1.142471   -0.247941
  C      1.164625    1.974645    0.035125
  N      2.090964    2.633506    0.247263
  C     -1.314718    1.862749   -0.156979
  C     -2.533441    1.236262   -0.790132
  C     -2.448132    1.236147    0.707387
  C     -2.239192    0.030063    1.447826
  C     -2.085396   -0.972188    2.092928
  H     -1.246735    2.942948   -0.107062
  H     -3.244918    1.902329   -1.263305
  H     -2.362009    0.287747   -1.285081
  H     -3.037499    1.990156    1.220890
  H     -1.943422   -1.864317    2.651521

 Total Charge           Charge          ....    0
 Multiplicity           Mult            ....    1
 Number of Electrons    NEL             ....   62
 Basis Dimension        Dim             ....  309

ORBITAL ENERGIES
----------------

  NO   OCC          E(Eh)            E(eV)
   0   2.0000     -20.594978      -560.4179
   1   2.0000     -15.608811      -424.7373
   2   2.0000     -11.398659      -310.1733
   3   2.0000     -11.302618      -307.5599
   4   2.0000     -11.297189      -307.4121
   5   2.0000     -11.288814      -307.1842
   6   2.0000     -11.276141      -306.8394
   7   2.0000     -11.249515      -306.1149
   8   2.0000     -11.239479      -305.8418
   9   2.0000      -1.439098       -39.1598
  10   2.0000      -1.245255       -33.8851
  11   2.0000      -1.202290       -32.7160
  12   2.0000      -1.047803       -28.5122
  13   2.0000      -0.996955       -27.1285
  14   2.0000      -0.896771       -24.4024
  15   2.0000      -0.850044       -23.1309
  16   2.0000      -0.776144       -21.1199
  17   2.0000      -0.725242       -19.7348
  18   2.0000      -0.696893       -18.9634
  19   2.0000      -0.689162       -18.7531
  20   2.0000      -0.627412       -17.0727
  21   2.0000      -0.607223       -16.5234
  22   2.0000      -0.594581       -16.1794
  23   2.0000      -0.572603       -15.5813
  24   2.0000      -0.527931       -14.3657
  25   2.0000      -0.497218       -13.5300
  26   2.0000      -0.492558       -13.4032
  27   2.0000      -0.482382       -13.1263
  28   2.0000      -0.471286       -12.8243
  29   2.0000      -0.402027       -10.9397
  30   2.0000      -0.384458       -10.4616
  31   0.0000       0.051717         1.4073
  32   0.0000       0.120031         3.2662
  33   0.0000       0.147527         4.0144
  34   0.0000       0.160251         4.3606
  35   0.0000       0.161602         4.3974

MULLIKEN ATOMIC CHARGES
-----------------------
   0 O :   -0.244552
   1 C :    0.310676
   2 C :   -0.163568
   3 N :   -0.041375
   4 C :   -0.111318
   5 C :   -0.216022
   6 C :   -0.273647
   7 C :   -0.002237
   8 C :   -0.099139
   9 H :    0.158330
  10 H :    0.157488
  11 H :    0.170501
  12 H :    0.156559
  13 H :    0.198303
Sum of atomic charges:    0.0000000

LOEWDIN ATOMIC CHARGES
----------------------
   0 O :    0.214448
   1 C :   -0.315144
   2 C :   -0.128950
   3 N :    0.098152
   4 C :   -0.150534
   5 C :   -0.154046
   6 C :   -0.164042
   7 C :   -0.094095
   8 C :   -0.069227
   9 H :    0.163945
  10 H :    0.142514
  11 H :    0.154640
  12 H :    0.171909
  13 H :    0.130431

  Mayer bond orders larger than 0.1
B(  0-O ,  1-C ) :   1.9322 B(  1-C ,  2-C ) :   0.8790 B(  1-C ,  4-C ) :   0.9736
B(  2-C ,  3-N ) :   2.7976 B(  4-C ,  5-C ) :   0.8554 B(  4-C ,  6-C ) :   0.7984
B(  4-C ,  9-H ) :   0.9134 B(  5-C ,  6-C ) :   0.8597 B(  5-C , 10-H ) :   0.9250
B(  5-C , 11-H ) :   0.9183 B(  6-C ,  7-C ) :   1.2035 B(  6-C ,  8-C ) :  -0.1247
B(  6-C , 12-H ) :   0.9299 B(  7-C ,  8-C ) :   2.5647 B(  8-C , 13-H ) :   0.8900

MP2 TOTAL ENERGY:     -398.812282618 Eh
FINAL SINGLE POINT ENERGY      -398.812282617523

DIPOLE MOMENT
-------------
                                X             Y             Z
Electronic contribution:      5.76222       0.03060       0.10618
Nuclear contribution   :     -7.33787       0.20508      -0.19155
                        -----------------------------------------
Total Dipole Moment    :     -1.57565       0.23568      -0.08538
                        -----------------------------------------
Magnitude (a.u.)       :      1.59546
Magnitude (Debye)      :      4.05534

                             ****ORCA TERMINATED NORMALLY****
TOTAL RUN TIME: 0 days 0 hours 14 minutes 9 seconds 674 msec
