                         Program Version 3.0.3 - RELEASE   -
|  1> ! RI-MP2 RIJK def2-TZVP def2-TZVP/C def2-TZVP/JK TIGHTSCF
|  2> % maxcore 2000
|  3> % mp2 density relaxed end
|  4> *xyz 0 1
|  5>  C       -0.0729563137     1.5303913586     0.1948053824
|  6>  C       -0.1355331298     0.0106249151     0.0100212300
|  7>  C        0.5852347130    -0.4949347411    -1.2508991731
|  8>  C        0.8337220820    -1.9931891491    -1.3248986882
|  9>  C       -0.3475118758    -2.8892672782    -1.6120024112
| 10>  C        0.5711404354    -2.4847609780    -2.7379215681
| 11>  C        0.1277424108    -1.3063229928    -3.5810253269
| 12>  C       -0.1438346756    -0.1791208215    -2.5727956848
| 13>  O       -0.8364464128     0.7839705758    -2.7846625580
| 14>  H        0.9655076639     1.8731853317     0.2735959607
| 15>  H       -0.5361941357     2.0427138217    -0.6502502896
| 16>  H       -0.5907003213     1.8319842002     1.1107916369
| 17>  H        0.3142876690    -0.4849748886     0.8791368914
| 18>  H       -1.1814590191    -0.3169371247    -0.0210108148
| 19>  H        1.5599063204     0.0158161533    -1.3206267915
| 20>  H        1.6531774758    -2.4024009987    -0.7447833730
| 21>  H       -0.2919604816    -3.9140437894    -1.2625056250
| 22>  H       -1.3494406913    -2.4690761256    -1.5821013216
| 23>  H        1.2064219664    -3.2398801034    -3.1855075545
| 24>  H        0.9298705960    -0.9727680998    -4.2532106681
| 25>  H       -0.7582071059    -1.4798673754    -4.1989619630
| 26> *
| 27>
| 28>                          ****END OF INPUT****

CARTESIAN COORDINATES (ANGSTROEM)
---------------------------------
  C     -0.072956    1.530391    0.194805
  C     -0.135533    0.010625    0.010021
  C      0.585235   -0.494935   -1.250899
  C      0.833722   -1.993189   -1.324899
  C     -0.347512   -2.889267   -1.612002
  C      0.571140   -2.484761   -2.737922
  C      0.127742   -1.306323   -3.581025
  C     -0.143835   -0.179121   -2.572796
  O     -0.836446    0.783971   -2.784663
  H      0.965508    1.873185    0.273596
  H     -0.536194    2.042714   -0.650250
  H     -0.590700    1.831984    1.110792
  H      0.314288   -0.484975    0.879137
  H     -1.181459   -0.316937   -0.021011
  H      1.559906    0.015816   -1.320627
  H      1.653177   -2.402401   -0.744783
  H     -0.291960   -3.914044   -1.262506
  H     -1.349441   -2.469076   -1.582101
  H      1.206422   -3.239880   -3.185508
  H      0.929871   -0.972768   -4.253211
  H     -0.758207   -1.479867   -4.198962

 Total Charge           Charge          ....    0
 Multiplicity           Mult            ....    1
 Number of Electrons    NEL             ....   68
 Basis Dimension        Dim             ....  351

ORBITAL ENERGIES
----------------

  NO   OCC          E(Eh)            E(eV)
   0   2.0000     -20.544172      -559.0353
   1   2.0000     -11.327401      -308.2343
   2   2.0000     -11.242478      -305.9234
   3   2.0000     -11.241926      -305.9084
   4   2.0000     -11.240886      -305.8801
   5   2.0000     -11.237926      -305.7995
   6   2.0000     -11.235086      -305.7222
   7   2.0000     -11.224374      -305.4307
   8   2.0000     -11.204749      -304.8967
   9   2.0000      -1.388778       -37.7906
  10   2.0000      -1.186169       -32.2773
  11   2.0000      -1.060497       -28.8576
  12   2.0000      -1.004632       -27.3374
  13   2.0000      -0.958033       -26.0694
  14   2.0000      -0.834107       -22.6972
  15   2.0000      -0.822208       -22.3734
  16   2.0000      -0.778953       -21.1964
  17   2.0000      -0.726707       -19.7747
  18   2.0000      -0.693739       -18.8776
  19   2.0000      -0.636778       -17.3276
  20   2.0000      -0.626333       -17.0434
  21   2.0000      -0.614753       -16.7283
  22   2.0000      -0.592180       -16.1140
  23   2.0000      -0.565818       -15.3967
  24   2.0000      -0.562087       -15.2952
  25   2.0000      -0.557853       -15.1799
  26   2.0000      -0.519615       -14.1394
  27   2.0000      -0.506834       -13.7916
  28   2.0000      -0.485009       -13.1978
  29   2.0000      -0.484680       -13.1888
  30   2.0000      -0.478643       -13.0245
  31   2.0000      -0.421142       -11.4598
  32   2.0000      -0.404375       -11.0036
  33   2.0000      -0.389985       -10.6120
  34   0.0000       0.121399         3.3034
  35   0.0000       0.152609         4.1527
  36   0.0000       0.154873         4.2143
  37   0.0000       0.160932         4.3792
  38   0.0000       0.165934         4.5153

MULLIKEN ATOMIC CHARGES
-----------------------
   0 C :   -0.407195
   1 C :   -0.192748
   2 C :   -0.072748
   3 C :   -0.070920
   4 C :   -0.302297
   5 C :   -0.114291
   6 C :   -0.186298
   7 C :    0.085163
   8 O :   -0.273742
   9 H :    0.114403
  10 H :    0.160637
  11 H :    0.128774
  12 H :    0.114224
  13 H :    0.108322
  14 H :    0.108882
  15 H :    0.127980
  16 H :    0.135102
  17 H :    0.139049
  18 H :    0.128284
  19 H :    0.135648
  20 H :    0.133771
Sum of atomic charges:    0.0000000

LOEWDIN ATOMIC CHARGES
----------------------
   0 C :   -0.318443
   1 C :   -0.259574
   2 C :   -0.205375
   3 C :   -0.177093
   4 C :   -0.200242
   5 C :   -0.198991
   6 C :   -0.204502
   7 C :   -0.278781
   8 O :    0.158061
   9 H :    0.118507
  10 H :    0.127117
  11 H :    0.120051
  12 H :    0.139133
  13 H :    0.140336
  14 H :    0.172647
  15 H :    0.144627
  16 H :    0.136189
  17 H :    0.138066
  18 H :    0.142953
  19 H :    0.156307
  20 H :    0.149007

  Mayer bond orders larger than 0.1
B(  0-C ,  1-C ) :   0.9164 B(  0-C ,  9-H ) :   0.9373 B(  0-C , 10-H ) :   0.9339
B(  0-C , 11-H ) :   0.9399 B(  1-C ,  2-C ) :   0.9062 B(  1-C , 12-H ) :   0.9416
B(  1-C , 13-H ) :   0.9243 B(  2-C ,  3-C ) :   0.9086 B(  2-C ,  7-C ) :   0.8875
B(  2-C , 14-H ) :   0.8902 B(  3-C ,  4-C ) :   0.8810 B(  3-C ,  5-C ) :   0.8469
B(  3-C , 15-H ) :   0.9241 B(  4-C ,  5-C ) :   0.8840 B(  4-C , 16-H ) :   0.9318
B(  4-C , 17-H ) :   0.9228 B(  5-C ,  6-C ) :   0.9353 B(  5-C , 18-H ) :   0.9280
B(  6-C ,  7-C ) :   0.9417 B(  6-C , 19-H ) :   0.9084 B(  6-C , 20-H ) :   0.9096
B(  7-C ,  8-O ) :   2.0288

MP2 TOTAL ENERGY:     -386.435731861 Eh
FINAL SINGLE POINT ENERGY      -386.435731860986

DIPOLE MOMENT
-------------
                                X             Y             Z
Electronic contribution:     -0.65836      -0.16883      -5.17598
Nuclear contribution   :      1.28299      -0.67250       5.37823
                        -----------------------------------------
Total Dipole Moment    :      0.62463      -0.84133       0.20225
                        -----------------------------------------
Magnitude (a.u.)       :      1.06719
Magnitude (Debye)      :      2.71259

                             ****ORCA TERMINATED NORMALLY****
TOTAL RUN TIME: 0 days 0 hours 32 minutes 55 seconds 289 msec
