                         Program Version 3.0.3 - RELEASE   -
|  1> ! RI-MP2 RIJK def2-TZVP def2-TZVP/C def2-TZVP/JK TIGHTSCF
|  2> % maxcore 2000
|  3> % mp2 density relaxed end
|  4> *xyz 0 1
|  5>  C       -0.1944369735     1.6177621753    -0.0580025096
|  6>  C        0.0379318239     0.1066292607     0.0456965466
|  7>  C        0.8087802644    -0.4906114671    -1.1502667651
|  8>  C        2.2662461481    -0.0809752236    -1.1552012977
|  9>  C        3.2585953840    -0.8514845002    -1.6008867073
| 10>  C        3.0492087898    -2.2295570255    -2.1684509892
| 11>  C        1.5617830261    -2.5271523675    -2.4166505878
| 12>  C        0.6682400728    -2.0306270773    -1.2636068188
| 13>  C        0.9689588867    -2.7727896952     0.0485916381
| 14>  H        0.7456963927     2.1772634140    -0.0988460369
| 15>  H       -0.7649221131     1.8672724721    -0.9597775521
| 16>  H       -0.7568213091     1.9883879275     0.8048388789
| 17>  H        0.5688687462    -0.1187124917     0.9783257584
| 18>  H       -0.9357916975    -0.3952244775     0.1168665814
| 19>  H        0.3419314831    -0.0677410982    -2.0554993800
| 20>  H        2.5005063630     0.9076541545    -0.7667509950
| 21>  H        4.2832282955    -0.4882406780    -1.5544807795
| 22>  H        3.6138162307    -2.3381083917    -3.1035337136
| 23>  H        3.4837066285    -2.9740700162    -1.4850709812
| 24>  H        1.2490638784    -2.0267715646    -3.3417389086
| 25>  H        1.4133728480    -3.6015123947    -2.5755568308
| 26>  H       -0.3754392326    -2.2445234505    -1.5306552455
| 27>  H        1.9611996493    -2.5253524097     0.4381240180
| 28>  H        0.2394203035    -2.5282872752     0.8256048204
| 29>  H        0.9299347110    -3.8563691096    -0.1079783427
| 30> *
| 31>
| 32>                          ****END OF INPUT****

CARTESIAN COORDINATES (ANGSTROEM)
---------------------------------
  C     -0.194437    1.617762   -0.058003
  C      0.037932    0.106629    0.045697
  C      0.808780   -0.490611   -1.150267
  C      2.266246   -0.080975   -1.155201
  C      3.258595   -0.851485   -1.600887
  C      3.049209   -2.229557   -2.168451
  C      1.561783   -2.527152   -2.416651
  C      0.668240   -2.030627   -1.263607
  C      0.968959   -2.772790    0.048592
  H      0.745696    2.177263   -0.098846
  H     -0.764922    1.867272   -0.959778
  H     -0.756821    1.988388    0.804839
  H      0.568869   -0.118712    0.978326
  H     -0.935792   -0.395224    0.116867
  H      0.341931   -0.067741   -2.055499
  H      2.500506    0.907654   -0.766751
  H      4.283228   -0.488241   -1.554481
  H      3.613816   -2.338108   -3.103534
  H      3.483707   -2.974070   -1.485071
  H      1.249064   -2.026772   -3.341739
  H      1.413373   -3.601512   -2.575557
  H     -0.375439   -2.244523   -1.530655
  H      1.961200   -2.525352    0.438124
  H      0.239420   -2.528287    0.825605
  H      0.929935   -3.856369   -0.107978

 Total Charge           Charge          ....    0
 Multiplicity           Mult            ....    1
 Number of Electrons    NEL             ....   70
 Basis Dimension        Dim             ....  375

ORBITAL ENERGIES
----------------

  NO   OCC          E(Eh)            E(eV)
   0   2.0000     -11.223103      -305.3962
   1   2.0000     -11.221321      -305.3477
   2   2.0000     -11.219261      -305.2916
   3   2.0000     -11.217592      -305.2462
   4   2.0000     -11.216865      -305.2264
   5   2.0000     -11.214946      -305.1742
   6   2.0000     -11.214080      -305.1506
   7   2.0000     -11.211276      -305.0743
   8   2.0000     -11.205321      -304.9123
   9   2.0000      -1.128622       -30.7114
  10   2.0000      -1.047880       -28.5143
  11   2.0000      -1.022792       -27.8316
  12   2.0000      -0.974444       -26.5160
  13   2.0000      -0.919372       -25.0174
  14   2.0000      -0.861380       -23.4394
  15   2.0000      -0.795466       -21.6457
  16   2.0000      -0.785575       -21.3766
  17   2.0000      -0.682787       -18.5796
  18   2.0000      -0.667107       -18.1529
  19   2.0000      -0.618841       -16.8395
  20   2.0000      -0.613736       -16.7006
  21   2.0000      -0.586404       -15.9569
  22   2.0000      -0.568330       -15.4651
  23   2.0000      -0.562425       -15.3044
  24   2.0000      -0.544947       -14.8288
  25   2.0000      -0.533221       -14.5097
  26   2.0000      -0.519053       -14.1242
  27   2.0000      -0.509789       -13.8721
  28   2.0000      -0.492827       -13.4105
  29   2.0000      -0.485099       -13.2002
  30   2.0000      -0.473380       -12.8813
  31   2.0000      -0.448550       -12.2057
  32   2.0000      -0.430872       -11.7246
  33   2.0000      -0.420118       -11.4320
  34   2.0000      -0.339276        -9.2322
  35   0.0000       0.129904         3.5349
  36   0.0000       0.152744         4.1564
  37   0.0000       0.159003         4.3267
  38   0.0000       0.165431         4.5016
  39   0.0000       0.172788         4.7018

MULLIKEN ATOMIC CHARGES
-----------------------
   0 C :   -0.400154
   1 C :   -0.239203
   2 C :    0.028358
   3 C :   -0.262506
   4 C :   -0.184660
   5 C :   -0.184235
   6 C :   -0.247203
   7 C :    0.038280
   8 C :   -0.479121
   9 H :    0.125168
  10 H :    0.124258
  11 H :    0.134439
  12 H :    0.123852
  13 H :    0.113193
  14 H :    0.092118
  15 H :    0.107735
  16 H :    0.117078
  17 H :    0.125518
  18 H :    0.122721
  19 H :    0.112262
  20 H :    0.123151
  21 H :    0.090337
  22 H :    0.147528
  23 H :    0.138936
  24 H :    0.132151
Sum of atomic charges:    0.0000000

LOEWDIN ATOMIC CHARGES
----------------------
   0 C :   -0.318795
   1 C :   -0.268404
   2 C :   -0.226881
   3 C :   -0.151285
   4 C :   -0.173990
   5 C :   -0.256224
   6 C :   -0.234993
   7 C :   -0.251680
   8 C :   -0.289579
   9 H :    0.118462
  10 H :    0.120625
  11 H :    0.121027
  12 H :    0.138926
  13 H :    0.138867
  14 H :    0.162267
  15 H :    0.142799
  16 H :    0.140106
  17 H :    0.142386
  18 H :    0.143457
  19 H :    0.141393
  20 H :    0.136215
  21 H :    0.150842
  22 H :    0.127928
  23 H :    0.122691
  24 H :    0.123841

  Mayer bond orders larger than 0.1
B(  0-C ,  1-C ) :   0.9197 B(  0-C ,  9-H ) :   0.9400 B(  0-C , 10-H ) :   0.9397
B(  0-C , 11-H ) :   0.9426 B(  1-C ,  2-C ) :   0.8793 B(  1-C , 12-H ) :   0.9307
B(  1-C , 13-H ) :   0.9389 B(  2-C ,  3-C ) :   0.9047 B(  2-C ,  7-C ) :   0.9130
B(  2-C , 14-H ) :   0.9183 B(  3-C ,  4-C ) :   1.8098 B(  3-C , 15-H ) :   0.9316
B(  4-C ,  5-C ) :   0.9348 B(  4-C , 16-H ) :   0.9302 B(  5-C ,  6-C ) :   0.9415
B(  5-C , 17-H ) :   0.9262 B(  5-C , 18-H ) :   0.9134 B(  6-C ,  7-C ) :   0.8932
B(  6-C , 19-H ) :   0.9319 B(  6-C , 20-H ) :   0.9358 B(  7-C ,  8-C ) :   0.8854
B(  7-C , 21-H ) :   0.9276 B(  8-C , 22-H ) :   0.9338 B(  8-C , 23-H ) :   0.9384
B(  8-C , 24-H ) :   0.9389

MP2 TOTAL ENERGY:     -351.732211027 Eh
FINAL SINGLE POINT ENERGY      -351.732211026888

DIPOLE MOMENT
-------------
                                X             Y             Z
Electronic contribution:      2.84295      -0.27520      -2.36802
Nuclear contribution   :     -2.93215       0.19247       2.33622
                        -----------------------------------------
Total Dipole Moment    :     -0.08920      -0.08273      -0.03180
                        -----------------------------------------
Magnitude (a.u.)       :      0.12575
Magnitude (Debye)      :      0.31962

                             ****ORCA TERMINATED NORMALLY****
TOTAL RUN TIME: 0 days 0 hours 36 minutes 59 seconds 531 msec
