                         Program Version 3.0.3 - RELEASE   -
|  1> ! RI-MP2 RIJK def2-TZVP def2-TZVP/C def2-TZVP/JK TIGHTSCF
|  2> % maxcore 2000
|  3> % mp2 density relaxed end
|  4> *xyz 0 1
|  5>  O       -0.1262086298     0.0811864586     0.0442910200
|  6>  C        0.0250245028     1.2643711232     0.0421833594
|  7>  O       -0.9767019608     2.1864463917     0.1499855464
|  8>  C       -0.2681894265     3.4814071133     0.0974020566
|  9>  C       -1.0579649637     4.2688605689    -0.9755567656
| 10>  O       -0.2979026874     3.5144923049    -2.0016169366
| 11>  C        0.7309117062     3.3030241178    -0.9903817141
| 12>  C        1.2547221173     2.1394429363    -0.0567989244
| 13>  C        0.8807918759     3.2131116718     1.1136228038
| 14>  H       -2.1282098826     4.0689832601    -1.0348848980
| 15>  H       -0.8332180003     5.3383945229    -1.0305582779
| 16>  H        1.4889080315     4.0878573987    -1.0713567751
| 17>  H        2.2235014715     1.6546403458    -0.1405517727
| 18>  H        1.6176057647     4.0115874634     1.1995014641
| 19>  H        0.6175800110     2.7990899726     2.0879209041
| 20> *
| 21>
| 22>                          ****END OF INPUT****

CARTESIAN COORDINATES (ANGSTROEM)
---------------------------------
  O     -0.126209    0.081186    0.044291
  C      0.025025    1.264371    0.042183
  O     -0.976702    2.186446    0.149986
  C     -0.268189    3.481407    0.097402
  C     -1.057965    4.268861   -0.975557
  O     -0.297903    3.514492   -2.001617
  C      0.730912    3.303024   -0.990382
  C      1.254722    2.139443   -0.056799
  C      0.880792    3.213112    1.113623
  H     -2.128210    4.068983   -1.034885
  H     -0.833218    5.338395   -1.030558
  H      1.488908    4.087857   -1.071357
  H      2.223501    1.654640   -0.140552
  H      1.617606    4.011587    1.199501
  H      0.617580    2.799090    2.087921

 Total Charge           Charge          ....    0
 Multiplicity           Mult            ....    1
 Number of Electrons    NEL             ....   66
 Basis Dimension        Dim             ....  315

ORBITAL ENERGIES
----------------

  NO   OCC          E(Eh)            E(eV)
   0   2.0000     -20.600412      -560.5657
   1   2.0000     -20.582321      -560.0734
   2   2.0000     -20.548639      -559.1569
   3   2.0000     -11.383176      -309.7520
   4   2.0000     -11.323166      -308.1190
   5   2.0000     -11.322351      -308.0968
   6   2.0000     -11.314967      -307.8959
   7   2.0000     -11.295164      -307.3571
   8   2.0000     -11.294499      -307.3389
   9   2.0000      -1.473758       -40.1030
  10   2.0000      -1.402439       -38.1623
  11   2.0000      -1.364110       -37.1193
  12   2.0000      -1.160170       -31.5698
  13   2.0000      -1.011095       -27.5133
  14   2.0000      -0.927364       -25.2348
  15   2.0000      -0.915212       -24.9042
  16   2.0000      -0.813771       -22.1438
  17   2.0000      -0.784036       -21.3347
  18   2.0000      -0.711285       -19.3551
  19   2.0000      -0.700831       -19.0706
  20   2.0000      -0.662266       -18.0212
  21   2.0000      -0.661267       -17.9940
  22   2.0000      -0.620317       -16.8797
  23   2.0000      -0.603979       -16.4351
  24   2.0000      -0.583863       -15.8877
  25   2.0000      -0.573229       -15.5984
  26   2.0000      -0.544712       -14.8224
  27   2.0000      -0.521589       -14.1931
  28   2.0000      -0.513217       -13.9653
  29   2.0000      -0.482070       -13.1178
  30   2.0000      -0.461321       -12.5532
  31   2.0000      -0.439956       -11.9718
  32   2.0000      -0.403383       -10.9766
  33   0.0000       0.121691         3.3114
  34   0.0000       0.132403         3.6029
  35   0.0000       0.155482         4.2309
  36   0.0000       0.161609         4.3976
  37   0.0000       0.171275         4.6606

MULLIKEN ATOMIC CHARGES
-----------------------
   0 O :   -0.263844
   1 C :    0.213164
   2 O :   -0.237027
   3 C :    0.112562
   4 C :   -0.047039
   5 O :   -0.309657
   6 C :   -0.006088
   7 C :   -0.076726
   8 C :   -0.236221
   9 H :    0.143405
  10 H :    0.117275
  11 H :    0.125465
  12 H :    0.163160
  13 H :    0.146779
  14 H :    0.154792
Sum of atomic charges:   -0.0000000

LOEWDIN ATOMIC CHARGES
----------------------
   0 O :    0.154363
   1 C :   -0.453342
   2 O :    0.282589
   3 C :   -0.250191
   4 C :   -0.202771
   5 O :    0.125592
   6 C :   -0.216407
   7 C :   -0.136774
   8 C :   -0.143116
   9 H :    0.133053
  10 H :    0.128138
  11 H :    0.152543
  12 H :    0.144219
  13 H :    0.142679
  14 H :    0.139425

  Mayer bond orders larger than 0.1
B(  0-O ,  1-C ) :   2.0606 B(  1-C ,  2-O ) :   1.0927 B(  1-C ,  7-C ) :   0.8954
B(  2-O ,  3-C ) :   0.7989 B(  3-C ,  4-C ) :   0.9402 B(  3-C ,  6-C ) :   0.8934
B(  3-C ,  8-C ) :   0.9171 B(  4-C ,  5-O ) :   0.9079 B(  4-C ,  9-H ) :   0.9009
B(  4-C , 10-H ) :   0.9205 B(  5-O ,  6-C ) :   0.9621 B(  6-C ,  7-C ) :   0.8224
B(  6-C , 11-H ) :   0.9614 B(  7-C ,  8-C ) :   0.8719 B(  7-C , 12-H ) :   0.9037
B(  8-C , 13-H ) :   0.9188 B(  8-C , 14-H ) :   0.9100

MP2 TOTAL ENERGY:     -456.942798412 Eh
FINAL SINGLE POINT ENERGY      -456.942798412039

DIPOLE MOMENT
-------------
                                X             Y             Z
Electronic contribution:     -1.90910      -4.26607      -1.07316
Nuclear contribution   :      2.80786       5.98279       1.69892
                        -----------------------------------------
Total Dipole Moment    :      0.89876       1.71672       0.62575
                        -----------------------------------------
Magnitude (a.u.)       :      2.03629
Magnitude (Debye)      :      5.17584

                             ****ORCA TERMINATED NORMALLY****
TOTAL RUN TIME: 0 days 0 hours 15 minutes 11 seconds 85 msec
