                         Program Version 3.0.3 - RELEASE   -
|  1> ! RI-MP2 RIJK def2-TZVP def2-TZVP/C def2-TZVP/JK TIGHTSCF
|  2> % maxcore 2000
|  3> % mp2 density relaxed end
|  4> *xyz 0 1
|  5>  C       -0.0158336849     1.5310278972    -0.0253348002
|  6>  C        0.0627265573     0.0008376361    -0.0416436958
|  7>  C        0.7048625154    -0.5748624134     1.2212426871
|  8>  C       -0.1363992861    -0.4947616457     2.5388171592
|  9>  N       -0.2061484118    -1.9233759158     2.9923596540
| 10>  C       -0.5296600758    -2.5960459618     1.6763595583
| 11>  C        0.8820107213    -2.1065233311     1.2347871202
| 12>  O        1.6066289508    -2.5894897700     0.1506836772
| 13>  C        1.2252291146    -2.3462255703     2.7333698200
| 14>  H        0.9816136706     1.9759918866     0.0634450514
| 15>  H       -0.4704544143     1.9147109155    -0.9438569552
| 16>  H       -0.6145204972     1.8948126926     0.8172107541
| 17>  H       -0.9452291289    -0.4132426119    -0.1731179790
| 18>  H        0.6453686621    -0.3302738673    -0.9090930593
| 19>  H        1.6872892710    -0.1041521285     1.3517452309
| 20>  H        0.3279395324     0.1117346760     3.3200330069
| 21>  H       -1.1505281635    -0.1200028580     2.3710601664
| 22>  H       -0.5933838739    -3.6793198557     1.8151608076
| 23>  H       -1.4244682317    -2.2275561735     1.1685462006
| 24>  H        1.6611023041    -3.5482328098     0.2176309497
| 25>  H        1.9904490211    -1.7283871607     3.2128359743
| 26>  H        1.3606820377    -3.3987305304     2.9986979117
| 27> *
| 28>
| 29>                          ****END OF INPUT****

CARTESIAN COORDINATES (ANGSTROEM)
---------------------------------
  C     -0.015834    1.531028   -0.025335
  C      0.062727    0.000838   -0.041644
  C      0.704863   -0.574862    1.221243
  C     -0.136399   -0.494762    2.538817
  N     -0.206148   -1.923376    2.992360
  C     -0.529660   -2.596046    1.676360
  C      0.882011   -2.106523    1.234787
  O      1.606629   -2.589490    0.150684
  C      1.225229   -2.346226    2.733370
  H      0.981614    1.975992    0.063445
  H     -0.470454    1.914711   -0.943857
  H     -0.614520    1.894813    0.817211
  H     -0.945229   -0.413243   -0.173118
  H      0.645369   -0.330274   -0.909093
  H      1.687289   -0.104152    1.351745
  H      0.327940    0.111735    3.320033
  H     -1.150528   -0.120003    2.371060
  H     -0.593384   -3.679320    1.815161
  H     -1.424468   -2.227556    1.168546
  H      1.661102   -3.548233    0.217631
  H      1.990449   -1.728387    3.212836
  H      1.360682   -3.398731    2.998698

 Total Charge           Charge          ....    0
 Multiplicity           Mult            ....    1
 Number of Electrons    NEL             ....   70
 Basis Dimension        Dim             ....  357

ORBITAL ENERGIES
----------------

  NO   OCC          E(Eh)            E(eV)
   0   2.0000     -20.568936      -559.7092
   1   2.0000     -15.557686      -423.3462
   2   2.0000     -11.291532      -307.2582
   3   2.0000     -11.252038      -306.1835
   4   2.0000     -11.251811      -306.1773
   5   2.0000     -11.246973      -306.0457
   6   2.0000     -11.225274      -305.4552
   7   2.0000     -11.216703      -305.2220
   8   2.0000     -11.212599      -305.1103
   9   2.0000      -1.381303       -37.5872
  10   2.0000      -1.269198       -34.5366
  11   2.0000      -1.064220       -28.9589
  12   2.0000      -0.975580       -26.5469
  13   2.0000      -0.967142       -26.3173
  14   2.0000      -0.920851       -25.0576
  15   2.0000      -0.840621       -22.8745
  16   2.0000      -0.786325       -21.3970
  17   2.0000      -0.751415       -20.4471
  18   2.0000      -0.711499       -19.3609
  19   2.0000      -0.663074       -18.0432
  20   2.0000      -0.636371       -17.3165
  21   2.0000      -0.602974       -16.4078
  22   2.0000      -0.598006       -16.2726
  23   2.0000      -0.594656       -16.1814
  24   2.0000      -0.560855       -15.2616
  25   2.0000      -0.529695       -14.4137
  26   2.0000      -0.525150       -14.2900
  27   2.0000      -0.520015       -14.1503
  28   2.0000      -0.494909       -13.4672
  29   2.0000      -0.483231       -13.1494
  30   2.0000      -0.471830       -12.8391
  31   2.0000      -0.464140       -12.6299
  32   2.0000      -0.453547       -12.3416
  33   2.0000      -0.413322       -11.2471
  34   2.0000      -0.369444       -10.0531
  35   0.0000       0.128928         3.5083
  36   0.0000       0.142590         3.8801
  37   0.0000       0.164087         4.4650
  38   0.0000       0.165881         4.5138
  39   0.0000       0.181929         4.9505

MULLIKEN ATOMIC CHARGES
-----------------------
   0 C :   -0.390549
   1 C :   -0.243097
   2 C :   -0.092240
   3 C :   -0.176713
   4 N :   -0.178977
   5 C :   -0.225645
   6 C :    0.182242
   7 O :   -0.451894
   8 C :   -0.176613
   9 H :    0.124710
  10 H :    0.135351
  11 H :    0.123286
  12 H :    0.097658
  13 H :    0.130818
  14 H :    0.092974
  15 H :    0.129570
  16 H :    0.122986
  17 H :    0.117905
  18 H :    0.120703
  19 H :    0.323234
  20 H :    0.117277
  21 H :    0.117014
Sum of atomic charges:   -0.0000000

LOEWDIN ATOMIC CHARGES
----------------------
   0 C :   -0.317143
   1 C :   -0.271514
   2 C :   -0.218720
   3 C :   -0.240831
   4 N :    0.082008
   5 C :   -0.222346
   6 C :   -0.366314
   7 O :    0.028470
   8 C :   -0.219791
   9 H :    0.121195
  10 H :    0.120967
  11 H :    0.119564
  12 H :    0.135087
  13 H :    0.143077
  14 H :    0.153525
  15 H :    0.129040
  16 H :    0.132365
  17 H :    0.130470
  18 H :    0.123704
  19 H :    0.181362
  20 H :    0.126124
  21 H :    0.129700

  Mayer bond orders larger than 0.1
B(  0-C ,  1-C ) :   0.9171 B(  0-C ,  9-H ) :   0.9389 B(  0-C , 10-H ) :   0.9433
B(  0-C , 11-H ) :   0.9390 B(  1-C ,  2-C ) :   0.9233 B(  1-C , 12-H ) :   0.9233
B(  1-C , 13-H ) :   0.9371 B(  2-C ,  3-C ) :   0.9248 B(  2-C ,  6-C ) :   0.8980
B(  2-C , 14-H ) :   0.9200 B(  3-C ,  4-N ) :   0.9099 B(  3-C , 15-H ) :   0.9340
B(  3-C , 16-H ) :   0.9299 B(  4-N ,  5-C ) :   0.9345 B(  4-N ,  8-C ) :   0.9339
B(  5-C ,  6-C ) :   0.9084 B(  5-C , 17-H ) :   0.9162 B(  5-C , 18-H ) :   0.9244
B(  6-C ,  7-O ) :   1.0367 B(  6-C ,  8-C ) :   0.9217 B(  7-O , 19-H ) :   0.8370
B(  8-C , 20-H ) :   0.9264 B(  8-C , 21-H ) :   0.9158

MP2 TOTAL ENERGY:     -403.638577847 Eh
FINAL SINGLE POINT ENERGY      -403.638577846511

DIPOLE MOMENT
-------------
                                X             Y             Z
Electronic contribution:      1.93340      -6.25353       1.88767
Nuclear contribution   :     -1.79134       5.99568      -2.13000
                        -----------------------------------------
Total Dipole Moment    :      0.14207      -0.25785      -0.24234
                        -----------------------------------------
Magnitude (a.u.)       :      0.38131
Magnitude (Debye)      :      0.96921

                             ****ORCA TERMINATED NORMALLY****
TOTAL RUN TIME: 0 days 0 hours 32 minutes 16 seconds 99 msec
