                         Program Version 3.0.3 - RELEASE   -
|  1> ! RI-MP2 RIJK def2-TZVP def2-TZVP/C def2-TZVP/JK TIGHTSCF
|  2> % maxcore 2000
|  3> % mp2 density relaxed end
|  4> *xyz 0 1
|  5>  N       -0.0895833406     1.0591232036    -0.1575736931
|  6>  H       -0.2129309922     0.0622256483    -0.3747435400
|  7>  H        0.9149080586     1.2519769981    -0.0845959936
|  8>  H       -0.4449310963     1.6078036199    -0.9479061331
|  9>  C       -0.8047880586     1.4904516981     1.1373183160
| 10>  C       -0.5902582934     2.9674529834     1.3866743119
| 11>  C       -1.3620376203     3.4565674248     2.6294913955
| 12>  C       -1.2223892162     4.9715979683     2.7939478106
| 13>  C       -2.1137686007     5.5968033937     3.8612002882
| 14>  C       -2.4708699028     7.1104437876     3.4965371853
| 15>  O       -2.4311356525     7.3751822380     2.2747411033
| 16>  O       -2.7703125355     7.8094218066     4.4767723146
| 17>  H       -1.8566108675     1.2378170810     0.9851929947
| 18>  H       -0.3931580154     0.8554073632     1.9250012605
| 19>  H        0.4811258315     3.1744419401     1.5120252508
| 20>  H       -0.9340899480     3.5457876764     0.5186239183
| 21>  H       -2.4233184664     3.2002834253     2.5080569099
| 22>  H       -1.0056716164     2.9143073097     3.5163478383
| 23>  H       -0.1664414930     5.2168225965     2.9776582269
| 24>  H       -1.5086705626     5.4823486815     1.8632799412
| 25>  H       -3.0728442154     5.0594422106     3.9076356549
| 26>  H       -1.6778131362     5.5551387554     4.8637636288
| 27> *
| 28>
| 29>                          ****END OF INPUT****

CARTESIAN COORDINATES (ANGSTROEM)
---------------------------------
  N     -0.089583    1.059123   -0.157574
  H     -0.212931    0.062226   -0.374744
  H      0.914908    1.251977   -0.084596
  H     -0.444931    1.607804   -0.947906
  C     -0.804788    1.490452    1.137318
  C     -0.590258    2.967453    1.386674
  C     -1.362038    3.456567    2.629491
  C     -1.222389    4.971598    2.793948
  C     -2.113769    5.596803    3.861200
  C     -2.470870    7.110444    3.496537
  O     -2.431136    7.375182    2.274741
  O     -2.770313    7.809422    4.476772
  H     -1.856611    1.237817    0.985193
  H     -0.393158    0.855407    1.925001
  H      0.481126    3.174442    1.512025
  H     -0.934090    3.545788    0.518624
  H     -2.423318    3.200283    2.508057
  H     -1.005672    2.914307    3.516348
  H     -0.166441    5.216823    2.977658
  H     -1.508671    5.482349    1.863280
  H     -3.072844    5.059442    3.907636
  H     -1.677813    5.555139    4.863764

 Total Charge           Charge          ....    0
 Multiplicity           Mult            ....    1
 Number of Electrons    NEL             ....   72
 Basis Dimension        Dim             ....  357

ORBITAL ENERGIES
----------------

  NO   OCC          E(Eh)            E(eV)
   0   2.0000     -20.372217      -554.3562
   1   2.0000     -20.366332      -554.1961
   2   2.0000     -15.808806      -430.1795
   3   2.0000     -11.387470      -309.8688
   4   2.0000     -11.292213      -307.2767
   5   2.0000     -11.241443      -305.8952
   6   2.0000     -11.217645      -305.2476
   7   2.0000     -11.180719      -304.2428
   8   2.0000     -11.146405      -303.3091
   9   2.0000      -1.420091       -38.6427
  10   2.0000      -1.252820       -34.0910
  11   2.0000      -1.155864       -31.4527
  12   2.0000      -1.140411       -31.0322
  13   2.0000      -1.036907       -28.2157
  14   2.0000      -0.953276       -25.9400
  15   2.0000      -0.892858       -24.2959
  16   2.0000      -0.884116       -24.0580
  17   2.0000      -0.845612       -23.0103
  18   2.0000      -0.783273       -21.3139
  19   2.0000      -0.742351       -20.2004
  20   2.0000      -0.716057       -19.4849
  21   2.0000      -0.631755       -17.1909
  22   2.0000      -0.629772       -17.1370
  23   2.0000      -0.603854       -16.4317
  24   2.0000      -0.566522       -15.4159
  25   2.0000      -0.556325       -15.1384
  26   2.0000      -0.527697       -14.3594
  27   2.0000      -0.512351       -13.9418
  28   2.0000      -0.489898       -13.3308
  29   2.0000      -0.462164       -12.5761
  30   2.0000      -0.458591       -12.4789
  31   2.0000      -0.424294       -11.5456
  32   2.0000      -0.404730       -11.0133
  33   2.0000      -0.294822        -8.0225
  34   2.0000      -0.277460        -7.5501
  35   2.0000      -0.272460        -7.4140
  36   0.0000      -0.004683        -0.1274
  37   0.0000       0.061806         1.6818
  38   0.0000       0.068214         1.8562
  39   0.0000       0.086297         2.3483
  40   0.0000       0.135398         3.6844

MULLIKEN ATOMIC CHARGES
-----------------------
   0 N :   -0.348985
   1 H :    0.333108
   2 H :    0.332559
   3 H :    0.335864
   4 C :   -0.188211
   5 C :   -0.252232
   6 C :   -0.241917
   7 C :   -0.225626
   8 C :   -0.264772
   9 C :    0.245045
  10 O :   -0.510529
  11 O :   -0.483298
  12 H :    0.191931
  13 H :    0.188198
  14 H :    0.135550
  15 H :    0.146860
  16 H :    0.115895
  17 H :    0.115934
  18 H :    0.086939
  19 H :    0.135587
  20 H :    0.065306
  21 H :    0.086792
Sum of atomic charges:   -0.0000000

LOEWDIN ATOMIC CHARGES
----------------------
   0 N :    0.141150
   1 H :    0.211938
   2 H :    0.216005
   3 H :    0.217436
   4 C :   -0.236810
   5 C :   -0.282869
   6 C :   -0.267111
   7 C :   -0.287571
   8 C :   -0.276594
   9 C :   -0.689200
  10 O :   -0.089069
  11 O :   -0.058975
  12 H :    0.149848
  13 H :    0.147832
  14 H :    0.144091
  15 H :    0.149101
  16 H :    0.139891
  17 H :    0.135053
  18 H :    0.131171
  19 H :    0.151243
  20 H :    0.128738
  21 H :    0.124703

  Mayer bond orders larger than 0.1
B(  0-N ,  1-H ) :   0.8437 B(  0-N ,  2-H ) :   0.8422 B(  0-N ,  3-H ) :   0.8403
B(  0-N ,  4-C ) :   0.7689 B(  4-C ,  5-C ) :   0.8974 B(  4-C , 12-H ) :   0.9258
B(  4-C , 13-H ) :   0.9275 B(  5-C ,  6-C ) :   0.9231 B(  5-C , 14-H ) :   0.9198
B(  5-C , 15-H ) :   0.9271 B(  6-C ,  7-C ) :   0.8995 B(  6-C , 16-H ) :   0.9305
B(  6-C , 17-H ) :   0.9197 B(  7-C ,  8-C ) :   0.9095 B(  7-C , 18-H ) :   0.9191
B(  7-C , 19-H ) :   0.9078 B(  8-C ,  9-C ) :   0.8783 B(  8-C , 20-H ) :   0.9306
B(  8-C , 21-H ) :   0.9117 B(  9-C , 10-O ) :   1.7002 B(  9-C , 11-O ) :   1.8015
B( 10-O , 19-H ) :   0.1070

MP2 TOTAL ENERGY:     -440.688481334 Eh
FINAL SINGLE POINT ENERGY      -440.688481334132

DIPOLE MOMENT
-------------
                                X             Y             Z
Electronic contribution:     -3.06883       8.87519       1.91253
Nuclear contribution   :      7.00684     -19.40767      -7.34842
                        -----------------------------------------
Total Dipole Moment    :      3.93801     -10.53247      -5.43589
                        -----------------------------------------
Magnitude (a.u.)       :     12.48959
Magnitude (Debye)      :     31.74601

                             ****ORCA TERMINATED NORMALLY****
TOTAL RUN TIME: 0 days 0 hours 14 minutes 54 seconds 795 msec
