                         Program Version 3.0.3 - RELEASE   -
|  1> ! RI-MP2 RIJK def2-TZVP def2-TZVP/C def2-TZVP/JK TIGHTSCF
|  2> % maxcore 2000
|  3> % mp2 density relaxed end
|  4> *xyz 0 1
|  5>  C       -0.0162385268     1.5587924074     0.1827912787
|  6>  C       -0.0166190003     0.0340004702     0.0653068994
|  7>  O       -1.3167215101    -0.4982096563     0.0758869545
|  8>  C        0.7131631792    -0.4666827428    -1.2409018075
|  9>  N       -0.1167841637    -0.0392857372    -2.3917621991
| 10>  C        2.1020742773     0.0072150423    -1.3064181717
| 11>  C        3.2239139953     0.4326625926    -1.3720069403
| 12>  C        0.7204223602    -1.9449298988    -1.2217037349
| 13>  N        0.7511360366    -3.0990147918    -1.2253200986
| 14>  H        0.9985594545     1.9629054453     0.2179502998
| 15>  H       -0.5528104607     2.0193222516    -0.6535217568
| 16>  H       -0.5386782944     1.8368874612     1.1011056940
| 17>  H        0.5108224541    -0.4018941585     0.9193407201
| 18>  H       -1.6786623983    -0.3300355261    -0.8070469144
| 19>  H        0.1177313575     0.9219699196    -2.6219087998
| 20>  H        0.1091470207    -0.5985504104    -3.2085249448
| 21>  H        4.2215746889     0.7944384517    -1.4285039486
| 22> *
| 23>
| 24>                          ****END OF INPUT****

CARTESIAN COORDINATES (ANGSTROEM)
---------------------------------
  C     -0.016239    1.558792    0.182791
  C     -0.016619    0.034000    0.065307
  O     -1.316722   -0.498210    0.075887
  C      0.713163   -0.466683   -1.240902
  N     -0.116784   -0.039286   -2.391762
  C      2.102074    0.007215   -1.306418
  C      3.223914    0.432663   -1.372007
  C      0.720422   -1.944930   -1.221704
  N      0.751136   -3.099015   -1.225320
  H      0.998559    1.962905    0.217950
  H     -0.552810    2.019322   -0.653522
  H     -0.538678    1.836887    1.101106
  H      0.510822   -0.401894    0.919341
  H     -1.678662   -0.330036   -0.807047
  H      0.117731    0.921970   -2.621909
  H      0.109147   -0.598550   -3.208525
  H      4.221575    0.794438   -1.428504

 Total Charge           Charge          ....    0
 Multiplicity           Mult            ....    1
 Number of Electrons    NEL             ....   66
 Basis Dimension        Dim             ....  327

ORBITAL ENERGIES
----------------

  NO   OCC          E(Eh)            E(eV)
   0   2.0000     -20.564383      -559.5853
   1   2.0000     -15.593996      -424.3342
   2   2.0000     -15.579892      -423.9504
   3   2.0000     -11.356390      -309.0231
   4   2.0000     -11.312903      -307.8398
   5   2.0000     -11.280848      -306.9675
   6   2.0000     -11.265605      -306.5527
   7   2.0000     -11.259837      -306.3957
   8   2.0000     -11.233809      -305.6875
   9   2.0000      -1.382798       -37.6278
  10   2.0000      -1.255148       -34.1543
  11   2.0000      -1.214184       -33.0396
  12   2.0000      -1.085261       -29.5314
  13   2.0000      -1.034440       -28.1485
  14   2.0000      -0.983092       -26.7513
  15   2.0000      -0.849204       -23.1080
  16   2.0000      -0.788499       -21.4561
  17   2.0000      -0.754853       -20.5406
  18   2.0000      -0.713453       -19.4141
  19   2.0000      -0.676805       -18.4168
  20   2.0000      -0.663340       -18.0504
  21   2.0000      -0.631510       -17.1843
  22   2.0000      -0.608052       -16.5459
  23   2.0000      -0.572118       -15.5681
  24   2.0000      -0.556091       -15.1320
  25   2.0000      -0.545498       -14.8438
  26   2.0000      -0.517660       -14.0863
  27   2.0000      -0.491303       -13.3690
  28   2.0000      -0.475712       -12.9448
  29   2.0000      -0.470664       -12.8074
  30   2.0000      -0.452964       -12.3258
  31   2.0000      -0.419916       -11.4265
  32   2.0000      -0.416333       -11.3290
  33   0.0000       0.108065         2.9406
  34   0.0000       0.136597         3.7170
  35   0.0000       0.142228         3.8702
  36   0.0000       0.151398         4.1198
  37   0.0000       0.155545         4.2326

MULLIKEN ATOMIC CHARGES
-----------------------
   0 C :   -0.410397
   1 C :    0.111628
   2 O :   -0.455395
   3 C :    0.180548
   4 N :   -0.585901
   5 C :   -0.120651
   6 C :   -0.126612
   7 C :   -0.148388
   8 N :   -0.029408
   9 H :    0.147515
  10 H :    0.120580
  11 H :    0.155773
  12 H :    0.115958
  13 H :    0.337714
  14 H :    0.248975
  15 H :    0.253403
  16 H :    0.204659
Sum of atomic charges:    0.0000000

LOEWDIN ATOMIC CHARGES
----------------------
   0 C :   -0.292356
   1 C :   -0.322584
   2 O :    0.010766
   3 C :   -0.324028
   4 N :   -0.091944
   5 C :   -0.065647
   6 C :   -0.060903
   7 C :   -0.135786
   8 N :    0.086313
   9 H :    0.131349
  10 H :    0.123147
  11 H :    0.133810
  12 H :    0.155820
  13 H :    0.182053
  14 H :    0.166567
  15 H :    0.170652
  16 H :    0.132771

  Mayer bond orders larger than 0.1
B(  0-C ,  1-C ) :   0.9028 B(  0-C ,  9-H ) :   0.9280 B(  0-C , 10-H ) :   0.9283
B(  0-C , 11-H ) :   0.9369 B(  1-C ,  2-O ) :   0.9667 B(  1-C ,  3-C ) :   0.8537
B(  1-C , 12-H ) :   0.9138 B(  2-O ,  3-C ) :   0.1102 B(  2-O , 13-H ) :   0.8087
B(  3-C ,  4-N ) :   0.8394 B(  3-C ,  5-C ) :   1.1947 B(  3-C ,  7-C ) :   0.9187
B(  4-N , 14-H ) :   0.8847 B(  4-N , 15-H ) :   0.8841 B(  5-C ,  6-C ) :   2.5820
B(  6-C , 16-H ) :   0.8784 B(  7-C ,  8-N ) :   2.8727

MP2 TOTAL ENERGY:     -417.269972613 Eh
FINAL SINGLE POINT ENERGY      -417.269972612743

DIPOLE MOMENT
-------------
                                X             Y             Z
Electronic contribution:      2.03837      -7.00291      -1.51496
Nuclear contribution   :     -1.38280       8.84376       0.86230
                        -----------------------------------------
Total Dipole Moment    :      0.65557       1.84085      -0.65265
                        -----------------------------------------
Magnitude (a.u.)       :      2.06021
Magnitude (Debye)      :      5.23664

                             ****ORCA TERMINATED NORMALLY****
TOTAL RUN TIME: 0 days 0 hours 18 minutes 23 seconds 317 msec
