                         Program Version 3.0.3 - RELEASE   -
|  1> ! RI-MP2 RIJK def2-TZVP def2-TZVP/C def2-TZVP/JK TIGHTSCF
|  2> % maxcore 2000
|  3> % mp2 density relaxed end
|  4> *xyz 0 1
|  5>  C        0.0154146782     1.5010393868     0.0057298173
|  6>  C        0.0251324655    -0.0087048437    -0.0447725856
|  7>  O        0.8367003521    -0.4206136042    -1.1079691849
|  8>  C        0.9133691955    -1.8180431174    -1.2202259301
|  9>  C        2.1684473069    -2.4454699712    -0.7091656943
| 10>  C        0.8652790342    -2.5974574216     0.0716348105
| 11>  C        0.6624465780    -1.8421452239     1.3364250937
| 12>  N        0.6306231883    -2.4205026414     2.4611019658
| 13>  O        0.5405679621    -0.4816614956     1.2090107749
| 14>  H        1.0364941239     1.8684245785     0.1326705906
| 15>  H       -0.3938245132     1.8985840460    -0.9256399106
| 16>  H       -0.5953281951     1.8432082405     0.8436782732
| 17>  H       -0.9891728139    -0.4215739699    -0.1641153079
| 18>  H        0.4220637604    -2.2138006730    -2.1052346357
| 19>  H        2.5525477385    -3.3335423741    -1.1970168580
| 20>  H        2.9156983559    -1.7680077984    -0.3134424022
| 21>  H        0.4161259750    -3.5820739750     0.0735201154
| 22>  H        0.4688313376    -1.7328910523     3.2001524977
| 23> *
| 24>
| 25>                          ****END OF INPUT****

CARTESIAN COORDINATES (ANGSTROEM)
---------------------------------
  C      0.015415    1.501039    0.005730
  C      0.025132   -0.008705   -0.044773
  O      0.836700   -0.420614   -1.107969
  C      0.913369   -1.818043   -1.220226
  C      2.168447   -2.445470   -0.709166
  C      0.865279   -2.597457    0.071635
  C      0.662447   -1.842145    1.336425
  N      0.630623   -2.420503    2.461102
  O      0.540568   -0.481661    1.209011
  H      1.036494    1.868425    0.132671
  H     -0.393825    1.898584   -0.925640
  H     -0.595328    1.843208    0.843678
  H     -0.989173   -0.421574   -0.164115
  H      0.422064   -2.213801   -2.105235
  H      2.552548   -3.333542   -1.197017
  H      2.915698   -1.768008   -0.313442
  H      0.416126   -3.582074    0.073520
  H      0.468831   -1.732891    3.200152

 Total Charge           Charge          ....    0
 Multiplicity           Mult            ....    1
 Number of Electrons    NEL             ....   68
 Basis Dimension        Dim             ....  333

ORBITAL ENERGIES
----------------

  NO   OCC          E(Eh)            E(eV)
   0   2.0000     -20.593402      -560.3750
   1   2.0000     -20.583517      -560.1060
   2   2.0000     -15.532603      -422.6636
   3   2.0000     -11.355483      -308.9984
   4   2.0000     -11.341152      -308.6084
   5   2.0000     -11.304493      -307.6109
   6   2.0000     -11.255052      -306.2655
   7   2.0000     -11.246551      -306.0342
   8   2.0000     -11.228445      -305.5415
   9   2.0000      -1.456897       -39.6442
  10   2.0000      -1.383648       -37.6510
  11   2.0000      -1.204057       -32.7641
  12   2.0000      -1.149339       -31.2751
  13   2.0000      -1.028112       -27.9763
  14   2.0000      -0.911158       -24.7939
  15   2.0000      -0.868635       -23.6368
  16   2.0000      -0.838109       -22.8061
  17   2.0000      -0.759124       -20.6568
  18   2.0000      -0.736646       -20.0451
  19   2.0000      -0.720609       -19.6088
  20   2.0000      -0.675298       -18.3758
  21   2.0000      -0.649554       -17.6753
  22   2.0000      -0.612070       -16.6553
  23   2.0000      -0.605954       -16.4888
  24   2.0000      -0.567359       -15.4386
  25   2.0000      -0.561601       -15.2819
  26   2.0000      -0.547591       -14.9007
  27   2.0000      -0.541051       -14.7227
  28   2.0000      -0.519480       -14.1358
  29   2.0000      -0.483714       -13.1625
  30   2.0000      -0.452916       -12.3245
  31   2.0000      -0.441131       -12.0038
  32   2.0000      -0.422347       -11.4926
  33   2.0000      -0.387199       -10.5362
  34   0.0000       0.140095         3.8122
  35   0.0000       0.144753         3.9389
  36   0.0000       0.156115         4.2481
  37   0.0000       0.174968         4.7611
  38   0.0000       0.184346         5.0163

MULLIKEN ATOMIC CHARGES
-----------------------
   0 C :   -0.346108
   1 C :    0.164165
   2 O :   -0.279890
   3 C :    0.036867
   4 C :   -0.267438
   5 C :   -0.077090
   6 C :    0.105428
   7 N :   -0.363938
   8 O :   -0.255983
   9 H :    0.137948
  10 H :    0.136637
  11 H :    0.137311
  12 H :    0.085653
  13 H :    0.123641
  14 H :    0.141914
  15 H :    0.147889
  16 H :    0.151503
  17 H :    0.221490
Sum of atomic charges:   -0.0000000

LOEWDIN ATOMIC CHARGES
----------------------
   0 C :   -0.282001
   1 C :   -0.400358
   2 O :    0.223801
   3 C :   -0.272411
   4 C :   -0.180132
   5 C :   -0.168391
   6 C :   -0.397551
   7 N :   -0.045495
   8 O :    0.243030
   9 H :    0.132943
  10 H :    0.132118
  11 H :    0.131654
  12 H :    0.130349
  13 H :    0.137588
  14 H :    0.138365
  15 H :    0.145862
  16 H :    0.163251
  17 H :    0.167377

  Mayer bond orders larger than 0.1
B(  0-C ,  1-C ) :   0.9374 B(  0-C ,  9-H ) :   0.9298 B(  0-C , 10-H ) :   0.9308
B(  0-C , 11-H ) :   0.9312 B(  1-C ,  2-O ) :   0.9907 B(  1-C ,  8-O ) :   0.8979
B(  1-C , 12-H ) :   0.9324 B(  2-O ,  3-C ) :   0.9587 B(  3-C ,  4-C ) :   0.8949
B(  3-C ,  5-C ) :   0.8550 B(  3-C , 13-H ) :   0.9410 B(  4-C ,  5-C ) :   0.8604
B(  4-C , 14-H ) :   0.9246 B(  4-C , 15-H ) :   0.9113 B(  5-C ,  6-C ) :   0.9289
B(  5-C , 16-H ) :   0.9236 B(  6-C ,  7-N ) :   2.0431 B(  6-C ,  8-O ) :   1.0777
B(  7-N , 17-H ) :   0.8535

MP2 TOTAL ENERGY:     -438.364699100 Eh
FINAL SINGLE POINT ENERGY      -438.364699099921

DIPOLE MOMENT
-------------
                                X             Y             Z
Electronic contribution:      0.32463      -2.16577       1.59178
Nuclear contribution   :     -0.67853       2.49112      -2.33942
                        -----------------------------------------
Total Dipole Moment    :     -0.35390       0.32535      -0.74764
                        -----------------------------------------
Magnitude (a.u.)       :      0.88885
Magnitude (Debye)      :      2.25929

                             ****ORCA TERMINATED NORMALLY****
TOTAL RUN TIME: 0 days 0 hours 16 minutes 40 seconds 705 msec
