                         Program Version 3.0.3 - RELEASE   -
|  1> ! RI-MP2 RIJK def2-TZVP def2-TZVP/C def2-TZVP/JK TIGHTSCF
|  2> % maxcore 2000
|  3> % mp2 density relaxed end
|  4> *xyz 0 1
|  5>  C        0.0418606558     1.5113639320     0.0862709010
|  6>  C       -0.0120847123     0.0199965118    -0.0069191998
|  7>  C       -0.0113872482    -0.7429200269    -1.1063317038
|  8>  C       -0.0815514568    -2.2225526294    -0.7961650724
|  9>  C       -0.0733547744    -2.2660382183     0.7350765741
| 10>  C       -0.6942620646    -3.4175709894     1.4766171812
| 11>  O        1.1309414149    -1.7258918277     1.2975249119
| 12>  C       -0.0334785431    -0.8676954410     1.2013551928
| 13>  H        0.9451009545     1.8436761663     0.6130726735
| 14>  H        0.0349137909     1.9752370354    -0.9037561388
| 15>  H       -0.8124247260     1.9065749028     0.6506768988
| 16>  H        0.0662289610    -0.3654592022    -2.1207184160
| 17>  H       -0.9918366970    -2.6847256696    -1.2013492980
| 18>  H        0.7679436619    -2.7782983077    -1.2122702996
| 19>  H       -0.1680075560    -4.3522125818     1.2515916129
| 20>  H       -0.6414517588    -3.2518859664     2.5555512984
| 21>  H       -1.7434632539    -3.5473239351     1.1908102003
| 22>  H       -0.4353652779    -0.5353266730     2.1557263135
| 23> *
| 24>
| 25>                          ****END OF INPUT****

CARTESIAN COORDINATES (ANGSTROEM)
---------------------------------
  C      0.041861    1.511364    0.086271
  C     -0.012085    0.019997   -0.006919
  C     -0.011387   -0.742920   -1.106332
  C     -0.081551   -2.222553   -0.796165
  C     -0.073355   -2.266038    0.735077
  C     -0.694262   -3.417571    1.476617
  O      1.130941   -1.725892    1.297525
  C     -0.033479   -0.867695    1.201355
  H      0.945101    1.843676    0.613073
  H      0.034914    1.975237   -0.903756
  H     -0.812425    1.906575    0.650677
  H      0.066229   -0.365459   -2.120718
  H     -0.991837   -2.684726   -1.201349
  H      0.767944   -2.778298   -1.212270
  H     -0.168008   -4.352213    1.251592
  H     -0.641452   -3.251886    2.555551
  H     -1.743463   -3.547324    1.190810
  H     -0.435365   -0.535327    2.155726

 Total Charge           Charge          ....    0
 Multiplicity           Mult            ....    1
 Number of Electrons    NEL             ....   60
 Basis Dimension        Dim             ....  308

ORBITAL ENERGIES
----------------

  NO   OCC          E(Eh)            E(eV)
   0   2.0000     -20.555233      -559.3363
   1   2.0000     -11.285026      -307.0812
   2   2.0000     -11.277625      -306.8798
   3   2.0000     -11.233614      -305.6822
   4   2.0000     -11.230546      -305.5987
   5   2.0000     -11.226070      -305.4769
   6   2.0000     -11.225324      -305.4566
   7   2.0000     -11.223870      -305.4170
   8   2.0000      -1.400625       -38.1129
   9   2.0000      -1.112747       -30.2794
  10   2.0000      -1.029335       -28.0096
  11   2.0000      -0.979026       -26.6407
  12   2.0000      -0.915371       -24.9085
  13   2.0000      -0.877069       -23.8663
  14   2.0000      -0.767884       -20.8952
  15   2.0000      -0.736572       -20.0431
  16   2.0000      -0.665358       -18.1053
  17   2.0000      -0.614488       -16.7211
  18   2.0000      -0.599572       -16.3152
  19   2.0000      -0.592237       -16.1156
  20   2.0000      -0.578949       -15.7540
  21   2.0000      -0.569572       -15.4988
  22   2.0000      -0.557078       -15.1589
  23   2.0000      -0.530031       -14.4229
  24   2.0000      -0.516859       -14.0645
  25   2.0000      -0.500931       -13.6310
  26   2.0000      -0.496563       -13.5122
  27   2.0000      -0.439470       -11.9586
  28   2.0000      -0.407396       -11.0858
  29   2.0000      -0.338514        -9.2114
  30   0.0000       0.137864         3.7515
  31   0.0000       0.148191         4.0325
  32   0.0000       0.150293         4.0897
  33   0.0000       0.172360         4.6902
  34   0.0000       0.188262         5.1229

MULLIKEN ATOMIC CHARGES
-----------------------
   0 C :   -0.436514
   1 C :    0.039297
   2 C :   -0.234022
   3 C :   -0.111555
   4 C :    0.148760
   5 C :   -0.422216
   6 O :   -0.328503
   7 C :    0.023171
   8 H :    0.147481
   9 H :    0.139296
  10 H :    0.137995
  11 H :    0.125599
  12 H :    0.113831
  13 H :    0.122835
  14 H :    0.138096
  15 H :    0.142225
  16 H :    0.131500
  17 H :    0.122726
Sum of atomic charges:   -0.0000000

LOEWDIN ATOMIC CHARGES
----------------------
   0 C :   -0.272725
   1 C :   -0.177157
   2 C :   -0.121080
   3 C :   -0.196744
   4 C :   -0.308555
   5 C :   -0.269793
   6 O :    0.178069
   7 C :   -0.192930
   8 H :    0.134068
   9 H :    0.131017
  10 H :    0.131156
  11 H :    0.136994
  12 H :    0.145069
  13 H :    0.149643
  14 H :    0.131465
  15 H :    0.133474
  16 H :    0.130433
  17 H :    0.137596

  Mayer bond orders larger than 0.1
B(  0-C ,  1-C ) :   0.8736 B(  0-C ,  8-H ) :   0.9289 B(  0-C ,  9-H ) :   0.9561
B(  0-C , 10-H ) :   0.9336 B(  1-C ,  2-C ) :   1.7450 B(  1-C ,  7-C ) :   0.8903
B(  2-C ,  3-C ) :   0.9514 B(  2-C , 11-H ) :   0.9221 B(  3-C ,  4-C ) :   0.9528
B(  3-C , 12-H ) :   0.9038 B(  3-C , 13-H ) :   0.8928 B(  4-C ,  5-C ) :   0.8853
B(  4-C ,  6-O ) :   0.9149 B(  4-C ,  7-C ) :   0.9538 B(  5-C , 14-H ) :   0.9406
B(  5-C , 15-H ) :   0.9409 B(  5-C , 16-H ) :   0.9304 B(  6-O ,  7-C ) :   0.8847
B(  7-C , 17-H ) :   0.9215

MP2 TOTAL ENERGY:     -347.194754929 Eh
FINAL SINGLE POINT ENERGY      -347.194754929440

DIPOLE MOMENT
-------------
                                X             Y             Z
Electronic contribution:      2.48830      -0.38364       0.61196
Nuclear contribution   :     -3.17937       0.46434      -0.84160
                        -----------------------------------------
Total Dipole Moment    :     -0.69108       0.08070      -0.22964
                        -----------------------------------------
Magnitude (a.u.)       :      0.73269
Magnitude (Debye)      :      1.86235

                             ****ORCA TERMINATED NORMALLY****
TOTAL RUN TIME: 0 days 0 hours 13 minutes 18 seconds 68 msec
