                         Program Version 3.0.3 - RELEASE   -
|  1> ! RI-MP2 RIJK def2-TZVP def2-TZVP/C def2-TZVP/JK TIGHTSCF
|  2> % maxcore 2000
|  3> % mp2 density relaxed end
|  4> *xyz 0 1
|  5>  C        0.1583106837     1.3629128370     0.2051148793
|  6>  C       -0.0979742402    -0.1553740903     0.1427697554
|  7>  C        0.5085708706    -0.7850015097    -1.1545272530
|  8>  C        1.8644201632    -1.4115460153    -0.7413162800
|  9>  C        1.7357965340    -1.5403516733     0.7572741776
| 10>  C        0.6833830972    -0.8770095088     1.2295072296
| 11>  C       -1.5818847115    -0.4835485591     0.2420390864
| 12>  C       -2.5966969054     0.3592945536     0.8882355620
| 13>  O       -2.4976288616     0.2920354790    -0.5369360015
| 14>  H        1.2002121118     1.5791036163    -0.0473278611
| 15>  H       -0.4903835297     1.8886630879    -0.5016123315
| 16>  H       -0.0236380855     1.7636536975     1.2076033617
| 17>  H       -0.1578911775    -1.5725108525    -1.5205055504
| 18>  H        0.6031364248    -0.0496418267    -1.9573020558
| 19>  H        2.0470883410    -2.3713571178    -1.2377257056
| 20>  H        2.7170378788    -0.7691715283    -1.0022135532
| 21>  H        2.4550784893    -2.0811693014     1.3632213927
| 22>  H        0.4096169322    -0.7926437196     2.2764935793
| 23>  H       -1.7870668338    -1.5561213379     0.2078276285
| 24>  H       -3.4844415642    -0.1050828528     1.3162569455
| 25>  H       -2.3206512870     1.3153492721     1.3273407939
| 26> *
| 27>
| 28>                          ****END OF INPUT****

CARTESIAN COORDINATES (ANGSTROEM)
---------------------------------
  C      0.158311    1.362913    0.205115
  C     -0.097974   -0.155374    0.142770
  C      0.508571   -0.785002   -1.154527
  C      1.864420   -1.411546   -0.741316
  C      1.735797   -1.540352    0.757274
  C      0.683383   -0.877010    1.229507
  C     -1.581885   -0.483549    0.242039
  C     -2.596697    0.359295    0.888236
  O     -2.497629    0.292035   -0.536936
  H      1.200212    1.579104   -0.047328
  H     -0.490384    1.888663   -0.501612
  H     -0.023638    1.763654    1.207603
  H     -0.157891   -1.572511   -1.520506
  H      0.603136   -0.049642   -1.957302
  H      2.047088   -2.371357   -1.237726
  H      2.717038   -0.769172   -1.002214
  H      2.455078   -2.081169    1.363221
  H      0.409617   -0.792644    2.276494
  H     -1.787067   -1.556121    0.207828
  H     -3.484442   -0.105083    1.316257
  H     -2.320651    1.315349    1.327341

 Total Charge           Charge          ....    0
 Multiplicity           Mult            ....    1
 Number of Electrons    NEL             ....   68
 Basis Dimension        Dim             ....  351

ORBITAL ENERGIES
----------------

  NO   OCC          E(Eh)            E(eV)
   0   2.0000     -20.563179      -559.5525
   1   2.0000     -11.282306      -307.0072
   2   2.0000     -11.278543      -306.9048
   3   2.0000     -11.243022      -305.9382
   4   2.0000     -11.228355      -305.5391
   5   2.0000     -11.226357      -305.4847
   6   2.0000     -11.223682      -305.4119
   7   2.0000     -11.221007      -305.3391
   8   2.0000     -11.213166      -305.1258
   9   2.0000      -1.406290       -38.2671
  10   2.0000      -1.145330       -31.1660
  11   2.0000      -1.022924       -27.8352
  12   2.0000      -0.968160       -26.3450
  13   2.0000      -0.926379       -25.2081
  14   2.0000      -0.902204       -24.5502
  15   2.0000      -0.839854       -22.8536
  16   2.0000      -0.764509       -20.8034
  17   2.0000      -0.726842       -19.7784
  18   2.0000      -0.696634       -18.9564
  19   2.0000      -0.669325       -18.2133
  20   2.0000      -0.641673       -17.4608
  21   2.0000      -0.608283       -16.5522
  22   2.0000      -0.572564       -15.5802
  23   2.0000      -0.553630       -15.0650
  24   2.0000      -0.548388       -14.9224
  25   2.0000      -0.527319       -14.3491
  26   2.0000      -0.516543       -14.0559
  27   2.0000      -0.495362       -13.4795
  28   2.0000      -0.488902       -13.3037
  29   2.0000      -0.475733       -12.9454
  30   2.0000      -0.471005       -12.8167
  31   2.0000      -0.440133       -11.9766
  32   2.0000      -0.421330       -11.4650
  33   2.0000      -0.350660        -9.5419
  34   0.0000       0.135481         3.6866
  35   0.0000       0.150386         4.0922
  36   0.0000       0.159394         4.3373
  37   0.0000       0.170956         4.6520
  38   0.0000       0.177338         4.8256

MULLIKEN ATOMIC CHARGES
-----------------------
   0 C :   -0.467445
   1 C :    0.287416
   2 C :   -0.336380
   3 C :   -0.163604
   4 C :   -0.157598
   5 C :   -0.267108
   6 C :   -0.025889
   7 C :   -0.072936
   8 O :   -0.335463
   9 H :    0.141228
  10 H :    0.162717
  11 H :    0.124021
  12 H :    0.124261
  13 H :    0.135338
  14 H :    0.122646
  15 H :    0.115391
  16 H :    0.127226
  17 H :    0.124744
  18 H :    0.125966
  19 H :    0.116922
  20 H :    0.118547
Sum of atomic charges:   -0.0000000

LOEWDIN ATOMIC CHARGES
----------------------
   0 C :   -0.261040
   1 C :   -0.266030
   2 C :   -0.185166
   3 C :   -0.241406
   4 C :   -0.152800
   5 C :   -0.120931
   6 C :   -0.257163
   7 C :   -0.264839
   8 O :    0.145949
   9 H :    0.129793
  10 H :    0.132360
  11 H :    0.123449
  12 H :    0.143266
  13 H :    0.138612
  14 H :    0.136910
  15 H :    0.139658
  16 H :    0.136401
  17 H :    0.141028
  18 H :    0.142664
  19 H :    0.118723
  20 H :    0.120562

  Mayer bond orders larger than 0.1
B(  0-C ,  1-C ) :   0.8768 B(  0-C ,  9-H ) :   0.9354 B(  0-C , 10-H ) :   0.9322
B(  0-C , 11-H ) :   0.9323 B(  1-C ,  2-C ) :   0.8572 B(  1-C ,  5-C ) :   0.8813
B(  1-C ,  6-C ) :   0.8958 B(  2-C ,  3-C ) :   0.9586 B(  2-C , 12-H ) :   0.9292
B(  2-C , 13-H ) :   0.9357 B(  3-C ,  4-C ) :   0.9350 B(  3-C , 14-H ) :   0.9291
B(  3-C , 15-H ) :   0.9088 B(  4-C ,  5-C ) :   1.7951 B(  4-C , 16-H ) :   0.9270
B(  5-C , 17-H ) :   0.9193 B(  6-C ,  7-C ) :   0.9766 B(  6-C ,  8-O ) :   0.9063
B(  6-C , 18-H ) :   0.9186 B(  7-C ,  8-O ) :   0.8973 B(  7-C , 19-H ) :   0.9186
B(  7-C , 20-H ) :   0.9112

MP2 TOTAL ENERGY:     -386.400522242 Eh
FINAL SINGLE POINT ENERGY      -386.400522242107

DIPOLE MOMENT
-------------
                                X             Y             Z
Electronic contribution:     -3.45611      -1.27129       0.24051
Nuclear contribution   :      3.84466       1.10055       0.27354
                        -----------------------------------------
Total Dipole Moment    :      0.38855      -0.17074       0.51405
                        -----------------------------------------
Magnitude (a.u.)       :      0.66661
Magnitude (Debye)      :      1.69440

                             ****ORCA TERMINATED NORMALLY****
TOTAL RUN TIME: 0 days 0 hours 18 minutes 29 seconds 298 msec
