                         Program Version 3.0.3 - RELEASE   -
|  1> ! RI-MP2 RIJK def2-TZVP def2-TZVP/C def2-TZVP/JK TIGHTSCF
|  2> % maxcore 2000
|  3> % mp2 density relaxed end
|  4> *xyz 0 1
|  5>  C       -0.0021499710     1.5181823554     0.0116893820
|  6>  C        0.0031651104    -0.0081039246    -0.0025150529
|  7>  C        0.6042279804    -0.6076839355    -1.3006163083
|  8>  C        0.0316975896    -2.0397711507    -1.4220259871
|  9>  C       -1.2751912533    -2.0021157105    -0.6308797925
| 10>  C       -1.1522384508    -1.9133643336     0.8758435114
| 11>  O        0.1465872362    -1.9211612265     1.4177184083
| 12>  C        0.6878961751    -0.6089136021     1.2467769654
| 13>  C       -1.3968680114    -0.6667668194     0.0874862239
| 14>  H        1.0175419221     1.9177648095    -0.0251994674
| 15>  H       -0.5428213151     1.9168225091    -0.8527492856
| 16>  H       -0.4780712562     1.9076107136     0.9179528018
| 17>  H        0.2617330722    -0.0056912000    -2.1504510006
| 18>  H        1.6992782533    -0.5798414364    -1.3045325990
| 19>  H       -0.1462824455    -2.3155116909    -2.4648477395
| 20>  H        0.7180901204    -2.7799098792    -0.9986589878
| 21>  H       -2.1573756569    -2.4921205330    -1.0294798105
| 22>  H       -1.8990860894    -2.3734659670     1.5147229451
| 23>  H        1.7739544173    -0.7027366662     1.1470408230
| 24>  H        0.4696094086     0.0051325612     2.1349535448
| 25>  H       -2.3028455858    -0.0753239831     0.1415491057
| 26> *
| 27>
| 28>                          ****END OF INPUT****

CARTESIAN COORDINATES (ANGSTROEM)
---------------------------------
  C     -0.002150    1.518182    0.011689
  C      0.003165   -0.008104   -0.002515
  C      0.604228   -0.607684   -1.300616
  C      0.031698   -2.039771   -1.422026
  C     -1.275191   -2.002116   -0.630880
  C     -1.152238   -1.913364    0.875844
  O      0.146587   -1.921161    1.417718
  C      0.687896   -0.608914    1.246777
  C     -1.396868   -0.666767    0.087486
  H      1.017542    1.917765   -0.025199
  H     -0.542821    1.916823   -0.852749
  H     -0.478071    1.907611    0.917953
  H      0.261733   -0.005691   -2.150451
  H      1.699278   -0.579841   -1.304533
  H     -0.146282   -2.315512   -2.464848
  H      0.718090   -2.779910   -0.998659
  H     -2.157376   -2.492121   -1.029480
  H     -1.899086   -2.373466    1.514723
  H      1.773954   -0.702737    1.147041
  H      0.469609    0.005133    2.134954
  H     -2.302846   -0.075324    0.141549

 Total Charge           Charge          ....    0
 Multiplicity           Mult            ....    1
 Number of Electrons    NEL             ....   68
 Basis Dimension        Dim             ....  351

ORBITAL ENERGIES
----------------

  NO   OCC          E(Eh)            E(eV)
   0   2.0000     -20.549589      -559.1827
   1   2.0000     -11.273219      -306.7599
   2   2.0000     -11.268288      -306.6257
   3   2.0000     -11.238033      -305.8024
   4   2.0000     -11.225730      -305.4676
   5   2.0000     -11.223570      -305.4089
   6   2.0000     -11.219536      -305.2991
   7   2.0000     -11.217894      -305.2544
   8   2.0000     -11.217074      -305.2321
   9   2.0000      -1.379595       -37.5407
  10   2.0000      -1.158551       -31.5258
  11   2.0000      -1.065057       -28.9817
  12   2.0000      -0.999673       -27.2025
  13   2.0000      -0.924779       -25.1645
  14   2.0000      -0.880580       -23.9618
  15   2.0000      -0.797690       -21.7062
  16   2.0000      -0.770398       -20.9636
  17   2.0000      -0.744994       -20.2723
  18   2.0000      -0.693789       -18.8789
  19   2.0000      -0.647470       -17.6186
  20   2.0000      -0.616702       -16.7813
  21   2.0000      -0.597049       -16.2465
  22   2.0000      -0.575524       -15.6608
  23   2.0000      -0.571040       -15.5388
  24   2.0000      -0.567864       -15.4524
  25   2.0000      -0.561519       -15.2797
  26   2.0000      -0.515995       -14.0409
  27   2.0000      -0.488855       -13.3024
  28   2.0000      -0.473630       -12.8881
  29   2.0000      -0.469000       -12.7621
  30   2.0000      -0.447947       -12.1893
  31   2.0000      -0.433696       -11.8015
  32   2.0000      -0.395747       -10.7688
  33   2.0000      -0.372631       -10.1398
  34   0.0000       0.133464         3.6317
  35   0.0000       0.157290         4.2801
  36   0.0000       0.166831         4.5397
  37   0.0000       0.178468         4.8564
  38   0.0000       0.187442         5.1006

MULLIKEN ATOMIC CHARGES
-----------------------
   0 C :   -0.418620
   1 C :    0.173507
   2 C :   -0.299678
   3 C :   -0.197468
   4 C :   -0.150480
   5 C :    0.045561
   6 O :   -0.329320
   7 C :   -0.055463
   8 C :   -0.221035
   9 H :    0.137457
  10 H :    0.135872
  11 H :    0.135872
  12 H :    0.112793
  13 H :    0.115591
  14 H :    0.120122
  15 H :    0.123491
  16 H :    0.125309
  17 H :    0.118156
  18 H :    0.108415
  19 H :    0.084675
  20 H :    0.135247
Sum of atomic charges:   -0.0000000

LOEWDIN ATOMIC CHARGES
----------------------
   0 C :   -0.270000
   1 C :   -0.266641
   2 C :   -0.202765
   3 C :   -0.229242
   4 C :   -0.175765
   5 C :   -0.255257
   6 O :    0.177714
   7 C :   -0.245538
   8 C :   -0.140552
   9 H :    0.128651
  10 H :    0.127549
  11 H :    0.126911
  12 H :    0.140433
  13 H :    0.134079
  14 H :    0.135958
  15 H :    0.141657
  16 H :    0.143600
  17 H :    0.136221
  18 H :    0.128090
  19 H :    0.123080
  20 H :    0.141814

  Mayer bond orders larger than 0.1
B(  0-C ,  1-C ) :   0.8781 B(  0-C ,  9-H ) :   0.9400 B(  0-C , 10-H ) :   0.9392
B(  0-C , 11-H ) :   0.9368 B(  1-C ,  2-C ) :   0.8972 B(  1-C ,  7-C ) :   0.9568
B(  1-C ,  8-C ) :   0.8600 B(  2-C ,  3-C ) :   0.9710 B(  2-C , 12-H ) :   0.9233
B(  2-C , 13-H ) :   0.9273 B(  3-C ,  4-C ) :   0.9238 B(  3-C , 14-H ) :   0.9320
B(  3-C , 15-H ) :   0.9177 B(  4-C ,  5-C ) :   0.8518 B(  4-C ,  8-C ) :   0.8576
B(  4-C , 16-H ) :   0.9218 B(  5-C ,  6-O ) :   0.9744 B(  5-C ,  8-C ) :   0.9100
B(  5-C , 17-H ) :   0.9466 B(  6-O ,  7-C ) :   0.9349 B(  7-C , 18-H ) :   0.9179
B(  7-C , 19-H ) :   0.9130 B(  8-C , 20-H ) :   0.9188

MP2 TOTAL ENERGY:     -386.422398298 Eh
FINAL SINGLE POINT ENERGY      -386.422398297808

DIPOLE MOMENT
-------------
                                X             Y             Z
Electronic contribution:     -1.40622      -4.41655       2.97881
Nuclear contribution   :      1.17142       4.93974      -3.31572
                        -----------------------------------------
Total Dipole Moment    :     -0.23480       0.52320      -0.33691
                        -----------------------------------------
Magnitude (a.u.)       :      0.66511
Magnitude (Debye)      :      1.69058

                             ****ORCA TERMINATED NORMALLY****
TOTAL RUN TIME: 0 days 0 hours 21 minutes 11 seconds 745 msec
