                         Program Version 3.0.3 - RELEASE   -
|  1> ! RI-MP2 RIJK def2-TZVP def2-TZVP/C def2-TZVP/JK TIGHTSCF
|  2> % maxcore 2000
|  3> % mp2 density relaxed end
|  4> *xyz 0 1
|  5>  C       -0.0110439928     1.5660959069    -0.0524579934
|  6>  C       -0.0209315698     0.0713064550     0.0249939414
|  7>  C        0.4724770591    -1.0451931813    -0.8511229423
|  8>  O        1.1555652546    -1.7311642608     0.1878373855
|  9>  C        0.4659040000    -0.8684560702     1.1679696417
| 10>  C       -0.7675814951    -1.6866072958     1.5033709931
| 11>  N       -0.9283355507    -2.3260117880     2.7076492927
| 12>  N       -1.5812237560    -1.7657809616     0.5098231437
| 13>  C       -1.0401131191    -0.9105541447    -0.5137533502
| 14>  H        0.9893958941     1.9778098796     0.1222459803
| 15>  H       -0.3376610704     1.8965476085    -1.0437570972
| 16>  H       -0.6936782042     2.0080718829     0.6824880959
| 17>  H        0.8889421089    -1.1029667157    -1.8504181393
| 18>  H        1.1375112946    -0.5315723208     1.9587825218
| 19>  H       -0.0848121508    -2.5501454625     3.2120008533
| 20>  H       -1.6032227896    -3.0783875054     2.6927095272
| 21>  H       -1.6995497927    -0.6170713960    -1.3226864545
| 22> *
| 23>
| 24>                          ****END OF INPUT****

CARTESIAN COORDINATES (ANGSTROEM)
---------------------------------
  C     -0.011044    1.566096   -0.052458
  C     -0.020932    0.071306    0.024994
  C      0.472477   -1.045193   -0.851123
  O      1.155565   -1.731164    0.187837
  C      0.465904   -0.868456    1.167970
  C     -0.767581   -1.686607    1.503371
  N     -0.928336   -2.326012    2.707649
  N     -1.581224   -1.765781    0.509823
  C     -1.040113   -0.910554   -0.513753
  H      0.989396    1.977810    0.122246
  H     -0.337661    1.896548   -1.043757
  H     -0.693678    2.008072    0.682488
  H      0.888942   -1.102967   -1.850418
  H      1.137511   -0.531572    1.958783
  H     -0.084812   -2.550145    3.212001
  H     -1.603223   -3.078388    2.692710
  H     -1.699550   -0.617071   -1.322686

 Total Charge           Charge          ....    0
 Multiplicity           Mult            ....    1
 Number of Electrons    NEL             ....   66
 Basis Dimension        Dim             ....  327

ORBITAL ENERGIES
----------------

  NO   OCC          E(Eh)            E(eV)
   0   2.0000     -20.564714      -559.5943
   1   2.0000     -15.577682      -423.8903
   2   2.0000     -15.528675      -422.5567
   3   2.0000     -11.309326      -307.7424
   4   2.0000     -11.305488      -307.6380
   5   2.0000     -11.289522      -307.2035
   6   2.0000     -11.256654      -306.3091
   7   2.0000     -11.245841      -306.0149
   8   2.0000     -11.233095      -305.6681
   9   2.0000      -1.409110       -38.3438
  10   2.0000      -1.267277       -34.4844
  11   2.0000      -1.189633       -32.3716
  12   2.0000      -1.090938       -29.6859
  13   2.0000      -0.987554       -26.8727
  14   2.0000      -0.953816       -25.9546
  15   2.0000      -0.832518       -22.6540
  16   2.0000      -0.781732       -21.2720
  17   2.0000      -0.735433       -20.0121
  18   2.0000      -0.719581       -19.5808
  19   2.0000      -0.678860       -18.4727
  20   2.0000      -0.647649       -17.6234
  21   2.0000      -0.642369       -17.4797
  22   2.0000      -0.582558       -15.8522
  23   2.0000      -0.572230       -15.5712
  24   2.0000      -0.566213       -15.4074
  25   2.0000      -0.561311       -15.2740
  26   2.0000      -0.548938       -14.9373
  27   2.0000      -0.499849       -13.6016
  28   2.0000      -0.466849       -12.7036
  29   2.0000      -0.442193       -12.0327
  30   2.0000      -0.431551       -11.7431
  31   2.0000      -0.367550       -10.0015
  32   2.0000      -0.330740        -8.9999
  33   0.0000       0.129082         3.5125
  34   0.0000       0.137515         3.7420
  35   0.0000       0.155567         4.2332
  36   0.0000       0.177313         4.8249
  37   0.0000       0.179419         4.8822

MULLIKEN ATOMIC CHARGES
-----------------------
   0 C :   -0.409764
   1 C :   -0.063105
   2 C :    0.022230
   3 O :   -0.314387
   4 C :    0.111181
   5 C :    0.118194
   6 N :   -0.510826
   7 N :   -0.251271
   8 C :   -0.040821
   9 H :    0.140513
  10 H :    0.135562
  11 H :    0.144795
  12 H :    0.136406
  13 H :    0.137209
  14 H :    0.257313
  15 H :    0.261566
  16 H :    0.125205
Sum of atomic charges:    0.0000000

LOEWDIN ATOMIC CHARGES
----------------------
   0 C :   -0.274956
   1 C :   -0.195366
   2 C :   -0.209054
   3 O :    0.177257
   4 C :   -0.159410
   5 C :   -0.348471
   6 N :   -0.044646
   7 N :    0.110714
   8 C :   -0.215392
   9 H :    0.129443
  10 H :    0.134444
  11 H :    0.132601
  12 H :    0.132090
  13 H :    0.138290
  14 H :    0.171978
  15 H :    0.175926
  16 H :    0.144552

  Mayer bond orders larger than 0.1
B(  0-C ,  1-C ) :   0.8421 B(  0-C ,  9-H ) :   0.9459 B(  0-C , 10-H ) :   0.9348
B(  0-C , 11-H ) :   0.9370 B(  1-C ,  2-C ) :   0.9162 B(  1-C ,  4-C ) :   0.9649
B(  1-C ,  8-C ) :   0.8649 B(  2-C ,  3-O ) :   0.9612 B(  2-C ,  8-C ) :   0.8150
B(  2-C , 12-H ) :   0.9120 B(  3-O ,  4-C ) :   0.8506 B(  4-C ,  5-C ) :   0.9329
B(  4-C , 13-H ) :   0.8885 B(  5-C ,  6-N ) :   1.1055 B(  5-C ,  7-N ) :   1.7995
B(  6-N , 14-H ) :   0.8737 B(  6-N , 15-H ) :   0.8655 B(  7-N ,  8-C ) :   1.0264
B(  8-C , 16-H ) :   0.9379

MP2 TOTAL ENERGY:     -417.263752611 Eh
FINAL SINGLE POINT ENERGY      -417.263752611113

DIPOLE MOMENT
-------------
                                X             Y             Z
Electronic contribution:      0.02655      -4.93163       0.30601
Nuclear contribution   :      0.44037       5.45077       0.07617
                        -----------------------------------------
Total Dipole Moment    :      0.46692       0.51913       0.38218
                        -----------------------------------------
Magnitude (a.u.)       :      0.79597
Magnitude (Debye)      :      2.02320

                             ****ORCA TERMINATED NORMALLY****
TOTAL RUN TIME: 0 days 0 hours 17 minutes 52 seconds 33 msec
