                         Program Version 3.0.3 - RELEASE   -
|  1> ! RI-MP2 RIJK def2-TZVP def2-TZVP/C def2-TZVP/JK TIGHTSCF
|  2> % maxcore 2000
|  3> % mp2 density relaxed end
|  4> *xyz 0 1
|  5>  C        0.6632790215     0.4995244914    -0.7697554502
|  6>  C       -0.5808947039     0.7216423083     0.0595594685
|  7>  O       -0.8324514074     1.7759034978     0.6057866196
|  8>  C       -1.5498007477    -0.4361528293     0.2170978741
|  9>  N       -1.0899555850    -1.8025013198    -0.1107061478
| 10>  C       -1.8272642040    -2.3532063633     1.0561690184
| 11>  C       -1.8833902593    -0.9355973281     1.6738428401
| 12>  C       -0.8050517993    -0.6558901322     2.7114165385
| 13>  O       -3.1663676535    -0.6162836354     2.1501015721
| 14>  H        1.2933722535     1.3892873105    -0.7454422009
| 15>  H        1.2040860628    -0.3780569449    -0.4040342353
| 16>  H        0.3835966470     0.2738430902    -1.8063553160
| 17>  H       -2.4983914223    -0.1455744547    -0.2579508790
| 18>  H       -1.3947086029    -2.1572895935    -1.0104245041
| 19>  H       -2.8414245154    -2.7045735995     0.8306251514
| 20>  H       -1.2856282168    -3.1256005497     1.6117465894
| 21>  H        0.1757849062    -0.9845574888     2.3540902353
| 22>  H       -0.7427339162     0.4151509573     2.9290645527
| 23>  H       -1.0378488606    -1.1930969959     3.6357110182
| 24>  H       -3.1381026267     0.2868316996     2.4867248849
| 25> *
| 26>
| 27>                          ****END OF INPUT****

CARTESIAN COORDINATES (ANGSTROEM)
---------------------------------
  C      0.663279    0.499524   -0.769755
  C     -0.580895    0.721642    0.059559
  O     -0.832451    1.775903    0.605787
  C     -1.549801   -0.436153    0.217098
  N     -1.089956   -1.802501   -0.110706
  C     -1.827264   -2.353206    1.056169
  C     -1.883390   -0.935597    1.673843
  C     -0.805052   -0.655890    2.711417
  O     -3.166368   -0.616284    2.150102
  H      1.293372    1.389287   -0.745442
  H      1.204086   -0.378057   -0.404034
  H      0.383597    0.273843   -1.806355
  H     -2.498391   -0.145574   -0.257951
  H     -1.394709   -2.157290   -1.010425
  H     -2.841425   -2.704574    0.830625
  H     -1.285628   -3.125601    1.611747
  H      0.175785   -0.984557    2.354090
  H     -0.742734    0.415151    2.929065
  H     -1.037849   -1.193097    3.635711
  H     -3.138103    0.286832    2.486725

 Total Charge           Charge          ....    0
 Multiplicity           Mult            ....    1
 Number of Electrons    NEL             ....   70
 Basis Dimension        Dim             ....  345

ORBITAL ENERGIES
----------------

  NO   OCC          E(Eh)            E(eV)
   0   2.0000     -20.563070      -559.5496
   1   2.0000     -20.544237      -559.0371
   2   2.0000     -15.557870      -423.3512
   3   2.0000     -11.330069      -308.3069
   4   2.0000     -11.300266      -307.4959
   5   2.0000     -11.267091      -306.5931
   6   2.0000     -11.257440      -306.3305
   7   2.0000     -11.231129      -305.6145
   8   2.0000     -11.221830      -305.3615
   9   2.0000      -1.388864       -37.7929
  10   2.0000      -1.376294       -37.4509
  11   2.0000      -1.242672       -33.8148
  12   2.0000      -1.020814       -27.7778
  13   2.0000      -1.019541       -27.7431
  14   2.0000      -0.943242       -25.6669
  15   2.0000      -0.915699       -24.9174
  16   2.0000      -0.790721       -21.5166
  17   2.0000      -0.735779       -20.0216
  18   2.0000      -0.712411       -19.3857
  19   2.0000      -0.670344       -18.2410
  20   2.0000      -0.657447       -17.8900
  21   2.0000      -0.625811       -17.0292
  22   2.0000      -0.615512       -16.7489
  23   2.0000      -0.587106       -15.9760
  24   2.0000      -0.583744       -15.8845
  25   2.0000      -0.577537       -15.7156
  26   2.0000      -0.557177       -15.1616
  27   2.0000      -0.540433       -14.7059
  28   2.0000      -0.529950       -14.4207
  29   2.0000      -0.516224       -14.0472
  30   2.0000      -0.494035       -13.4434
  31   2.0000      -0.469470       -12.7749
  32   2.0000      -0.435141       -11.8408
  33   2.0000      -0.412114       -11.2142
  34   2.0000      -0.385599       -10.4927
  35   0.0000       0.123528         3.3614
  36   0.0000       0.139091         3.7849
  37   0.0000       0.144121         3.9217
  38   0.0000       0.163300         4.4436
  39   0.0000       0.179496         4.8843

MULLIKEN ATOMIC CHARGES
-----------------------
   0 C :   -0.398537
   1 C :    0.191120
   2 O :   -0.303717
   3 C :   -0.078451
   4 N :   -0.367184
   5 C :   -0.157554
   6 C :    0.290264
   7 C :   -0.489842
   8 O :   -0.457394
   9 H :    0.149560
  10 H :    0.161377
  11 H :    0.137191
  12 H :    0.116046
  13 H :    0.210978
  14 H :    0.118448
  15 H :    0.113511
  16 H :    0.141233
  17 H :    0.151406
  18 H :    0.148404
  19 H :    0.323142
Sum of atomic charges:   -0.0000000

LOEWDIN ATOMIC CHARGES
----------------------
   0 C :   -0.280519
   1 C :   -0.337348
   2 O :    0.139648
   3 C :   -0.222363
   4 N :   -0.002022
   5 C :   -0.227397
   6 C :   -0.367009
   7 C :   -0.276940
   8 O :    0.017707
   9 H :    0.131710
  10 H :    0.140929
  11 H :    0.139116
  12 H :    0.156175
  13 H :    0.157414
  14 H :    0.128270
  15 H :    0.122086
  16 H :    0.135601
  17 H :    0.130869
  18 H :    0.130667
  19 H :    0.183407

  Mayer bond orders larger than 0.1
B(  0-C ,  1-C ) :   0.9319 B(  0-C ,  9-H ) :   0.9350 B(  0-C , 10-H ) :   0.9112
B(  0-C , 11-H ) :   0.9074 B(  1-C ,  2-O ) :   1.9943 B(  1-C ,  3-C ) :   0.8449
B(  3-C ,  4-N ) :   0.9828 B(  3-C ,  6-C ) :   0.8659 B(  3-C , 12-H ) :   0.8975
B(  4-N ,  5-C ) :   0.9464 B(  4-N , 13-H ) :   0.8764 B(  5-C ,  6-C ) :   0.8675
B(  5-C , 14-H ) :   0.9174 B(  5-C , 15-H ) :   0.9233 B(  6-C ,  7-C ) :   0.9241
B(  6-C ,  8-O ) :   1.0045 B(  7-C , 16-H ) :   0.9276 B(  7-C , 17-H ) :   0.9260
B(  7-C , 18-H ) :   0.9313 B(  8-O , 19-H ) :   0.8367

MP2 TOTAL ENERGY:     -439.565835303 Eh
FINAL SINGLE POINT ENERGY      -439.565835302559

DIPOLE MOMENT
-------------
                                X             Y             Z
Electronic contribution:     -3.41474       2.96892      -0.50376
Nuclear contribution   :      3.57709      -3.54977       0.11557
                        -----------------------------------------
Total Dipole Moment    :      0.16236      -0.58086      -0.38819
                        -----------------------------------------
Magnitude (a.u.)       :      0.71725
Magnitude (Debye)      :      1.82310

                             ****ORCA TERMINATED NORMALLY****
TOTAL RUN TIME: 0 days 0 hours 21 minutes 51 seconds 598 msec
