                         Program Version 3.0.3 - RELEASE   -
|  1> ! RI-MP2 RIJK def2-TZVP def2-TZVP/C def2-TZVP/JK TIGHTSCF
|  2> % maxcore 2000
|  3> % mp2 density relaxed end
|  4> *xyz 0 1
|  5>  O        0.0110805364     0.0699168049     0.0127227593
|  6>  C        0.0111899763     1.2608115106     0.0695917306
|  7>  C       -1.0496779993     2.3263184497    -0.0032388187
|  8>  C       -0.4097826455     3.5538260290     0.6171810639
|  9>  N        0.8616113691     3.1195784152     1.2348912941
| 10>  C        1.1023930415     2.3517238155    -0.0326830238
| 11>  C       -0.0139017196     3.2062222761    -0.7943990749
| 12>  C       -0.1368753870     3.8017656068    -2.0680584146
| 13>  N       -0.2096535271     4.3058534865    -3.1085991060
| 14>  H       -2.1100473089     2.2457113257    -0.1964790400
| 15>  H       -1.0053734462     4.3813886466     0.9797709625
| 16>  H        1.4872799218     3.9243441720     1.2363692496
| 17>  H        2.1207407284     2.1479802715    -0.3479762920
| 18> *
| 19>
| 20>                          ****END OF INPUT****

CARTESIAN COORDINATES (ANGSTROEM)
---------------------------------
  O      0.011081    0.069917    0.012723
  C      0.011190    1.260812    0.069592
  C     -1.049678    2.326318   -0.003239
  C     -0.409783    3.553826    0.617181
  N      0.861611    3.119578    1.234891
  C      1.102393    2.351724   -0.032683
  C     -0.013902    3.206222   -0.794399
  C     -0.136875    3.801766   -2.068058
  N     -0.209654    4.305853   -3.108599
  H     -2.110047    2.245711   -0.196479
  H     -1.005373    4.381389    0.979771
  H      1.487280    3.924344    1.236369
  H      2.120741    2.147980   -0.347976

 Total Charge           Charge          ....    0
 Multiplicity           Mult            ....    1
 Number of Electrons    NEL             ....   62
 Basis Dimension        Dim             ....  303

ORBITAL ENERGIES
----------------

  NO   OCC          E(Eh)            E(eV)
   0   2.0000     -20.573144      -559.8237
   1   2.0000     -15.602988      -424.5789
   2   2.0000     -15.593029      -424.3079
   3   2.0000     -11.367193      -309.3171
   4   2.0000     -11.335251      -308.4479
   5   2.0000     -11.327439      -308.2353
   6   2.0000     -11.324547      -308.1566
   7   2.0000     -11.301035      -307.5168
   8   2.0000     -11.299214      -307.4672
   9   2.0000      -1.423263       -38.7290
  10   2.0000      -1.345718       -36.6188
  11   2.0000      -1.236697       -33.6522
  12   2.0000      -1.141770       -31.0692
  13   2.0000      -1.003154       -27.2972
  14   2.0000      -0.962140       -26.1812
  15   2.0000      -0.853989       -23.2382
  16   2.0000      -0.778225       -21.1766
  17   2.0000      -0.764007       -20.7897
  18   2.0000      -0.696739       -18.9592
  19   2.0000      -0.669750       -18.2248
  20   2.0000      -0.661902       -18.0113
  21   2.0000      -0.620422       -16.8825
  22   2.0000      -0.582686       -15.8557
  23   2.0000      -0.579426       -15.7670
  24   2.0000      -0.557920       -15.1818
  25   2.0000      -0.536374       -14.5955
  26   2.0000      -0.519267       -14.1300
  27   2.0000      -0.472444       -12.8558
  28   2.0000      -0.451896       -12.2967
  29   2.0000      -0.427759       -11.6399
  30   2.0000      -0.397944       -10.8286
  31   0.0000       0.109741         2.9862
  32   0.0000       0.120855         3.2886
  33   0.0000       0.123381         3.3574
  34   0.0000       0.136339         3.7100
  35   0.0000       0.164200         4.4681

MULLIKEN ATOMIC CHARGES
-----------------------
   0 O :   -0.234701
   1 C :    0.129270
   2 C :   -0.100679
   3 C :   -0.023034
   4 N :   -0.326067
   5 C :    0.083757
   6 C :    0.023251
   7 C :   -0.263632
   8 N :   -0.027220
   9 H :    0.179472
  10 H :    0.166364
  11 H :    0.221470
  12 H :    0.171749
Sum of atomic charges:   -0.0000000

LOEWDIN ATOMIC CHARGES
----------------------
   0 O :    0.181364
   1 C :   -0.288425
   2 C :   -0.061834
   3 C :   -0.162665
   4 N :    0.025859
   5 C :   -0.118353
   6 C :   -0.120054
   7 C :   -0.167785
   8 N :    0.085272
   9 H :    0.155897
  10 H :    0.149547
  11 H :    0.177416
  12 H :    0.143760

  Mayer bond orders larger than 0.1
B(  0-O ,  1-C ) :   2.0669 B(  1-C ,  2-C ) :   0.9421 B(  1-C ,  5-C ) :   0.8493
B(  2-C ,  3-C ) :   0.8506 B(  2-C ,  5-C ) :  -0.1179 B(  2-C ,  6-C ) :   0.7359
B(  2-C ,  9-H ) :   0.8978 B(  3-C ,  4-N ) :   0.9573 B(  3-C ,  6-C ) :   0.8857
B(  3-C , 10-H ) :   0.9141 B(  4-N ,  5-C ) :   0.9013 B(  4-N , 11-H ) :   0.8685
B(  5-C ,  6-C ) :   0.8389 B(  5-C , 12-H ) :   0.8985 B(  6-C ,  7-C ) :   0.8834
B(  7-C ,  8-N ) :   2.8514

MP2 TOTAL ENERGY:     -414.845073638 Eh
FINAL SINGLE POINT ENERGY      -414.845073637937

DIPOLE MOMENT
-------------
                                X             Y             Z
Electronic contribution:     -0.29694      -1.18951      -2.22918
Nuclear contribution   :      0.34508       2.01166       3.16007
                        -----------------------------------------
Total Dipole Moment    :      0.04814       0.82215       0.93090
                        -----------------------------------------
Magnitude (a.u.)       :      1.24291
Magnitude (Debye)      :      3.15922

                             ****ORCA TERMINATED NORMALLY****
TOTAL RUN TIME: 0 days 0 hours 13 minutes 53 seconds 492 msec
