                         Program Version 3.0.3 - RELEASE   -
|  1> ! RI-MP2 RIJK def2-TZVP def2-TZVP/C def2-TZVP/JK TIGHTSCF
|  2> % maxcore 2000
|  3> % mp2 density relaxed end
|  4> *xyz 0 1
|  5>  C       -0.0247783731     1.5180249782     0.0415352193
|  6>  C       -0.0767313853     0.0277197932    -0.0336751052
|  7>  C        0.0105797601    -0.7790219783    -1.0981198153
|  8>  C       -0.0046293036    -2.2048489511    -0.6607582624
|  9>  C        0.9209691801    -2.6410566827     0.5076806058
| 10>  C        1.4145936835    -1.4474000956     1.3175128745
| 11>  C       -0.0471917991    -0.8456164557     1.2145900528
| 12>  O       -0.6449480685    -0.3514326900     2.3796229716
| 13>  C       -0.5188657352    -2.2581078101     0.7508345117
| 14>  H        0.8767799300     1.8681120697     0.5650177152
| 15>  H       -0.0234569236     1.9709373522    -0.9533016012
| 16>  H       -0.8840177569     1.9130208453     0.5972114511
| 17>  H        0.1329185183    -0.4664777197    -2.1285357343
| 18>  H       -0.2654974299    -2.9981436459    -1.3519002718
| 19>  H        1.3697019089    -3.6273188335     0.4984581573
| 20>  H        1.5997605330    -1.7504752463     2.3517773568
| 21>  H        2.2481733613    -0.8447641651     0.9396560295
| 22>  H       -0.1315824386     0.4026484872     2.6886933462
| 23>  H       -1.3686293314    -2.8186945819     1.1193722682
| 24> *
| 25>
| 26>                          ****END OF INPUT****

CARTESIAN COORDINATES (ANGSTROEM)
---------------------------------
  C     -0.024778    1.518025    0.041535
  C     -0.076731    0.027720   -0.033675
  C      0.010580   -0.779022   -1.098120
  C     -0.004629   -2.204849   -0.660758
  C      0.920969   -2.641057    0.507681
  C      1.414594   -1.447400    1.317513
  C     -0.047192   -0.845616    1.214590
  O     -0.644948   -0.351433    2.379623
  C     -0.518866   -2.258108    0.750835
  H      0.876780    1.868112    0.565018
  H     -0.023457    1.970937   -0.953302
  H     -0.884018    1.913021    0.597211
  H      0.132919   -0.466478   -2.128536
  H     -0.265497   -2.998144   -1.351900
  H      1.369702   -3.627319    0.498458
  H      1.599761   -1.750475    2.351777
  H      2.248173   -0.844764    0.939656
  H     -0.131582    0.402648    2.688693
  H     -1.368629   -2.818695    1.119372

 Total Charge           Charge          ....    0
 Multiplicity           Mult            ....    1
 Number of Electrons    NEL             ....   66
 Basis Dimension        Dim             ....  339

ORBITAL ENERGIES
----------------

  NO   OCC          E(Eh)            E(eV)
   0   2.0000     -20.561780      -559.5145
   1   2.0000     -11.290853      -307.2397
   2   2.0000     -11.235252      -305.7268
   3   2.0000     -11.233279      -305.6731
   4   2.0000     -11.227143      -305.5061
   5   2.0000     -11.226613      -305.4917
   6   2.0000     -11.225129      -305.4513
   7   2.0000     -11.224960      -305.4467
   8   2.0000     -11.216621      -305.2198
   9   2.0000      -1.372597       -37.3503
  10   2.0000      -1.210487       -32.9390
  11   2.0000      -1.061785       -28.8926
  12   2.0000      -0.986497       -26.8440
  13   2.0000      -0.939233       -25.5578
  14   2.0000      -0.885580       -24.0979
  15   2.0000      -0.776789       -21.1375
  16   2.0000      -0.758732       -20.6461
  17   2.0000      -0.730253       -19.8712
  18   2.0000      -0.694989       -18.9116
  19   2.0000      -0.637989       -17.3606
  20   2.0000      -0.623076       -16.9548
  21   2.0000      -0.591974       -16.1084
  22   2.0000      -0.584766       -15.9123
  23   2.0000      -0.571289       -15.5456
  24   2.0000      -0.557105       -15.1596
  25   2.0000      -0.536468       -14.5980
  26   2.0000      -0.520874       -14.1737
  27   2.0000      -0.500862       -13.6291
  28   2.0000      -0.469588       -12.7781
  29   2.0000      -0.425071       -11.5668
  30   2.0000      -0.414945       -11.2912
  31   2.0000      -0.381090       -10.3700
  32   2.0000      -0.318392        -8.6639
  33   0.0000       0.127374         3.4660
  34   0.0000       0.152843         4.1591
  35   0.0000       0.159736         4.3466
  36   0.0000       0.174524         4.7490
  37   0.0000       0.180832         4.9207

MULLIKEN ATOMIC CHARGES
-----------------------
   0 C :   -0.506354
   1 C :   -0.034402
   2 C :   -0.197390
   3 C :   -0.086082
   4 C :   -0.156465
   5 C :   -0.235223
   6 C :    0.356037
   7 O :   -0.463907
   8 C :   -0.195225
   9 H :    0.136906
  10 H :    0.143900
  11 H :    0.159850
  12 H :    0.123648
  13 H :    0.130802
  14 H :    0.130407
  15 H :    0.118777
  16 H :    0.104738
  17 H :    0.323082
  18 H :    0.146903
Sum of atomic charges:    0.0000000

LOEWDIN ATOMIC CHARGES
----------------------
   0 C :   -0.281509
   1 C :   -0.155416
   2 C :   -0.117564
   3 C :   -0.162032
   4 C :   -0.155538
   5 C :   -0.179550
   6 C :   -0.280057
   7 O :    0.025343
   8 C :   -0.099519
   9 H :    0.129218
  10 H :    0.133516
  11 H :    0.133304
  12 H :    0.138357
  13 H :    0.149502
  14 H :    0.134962
  15 H :    0.143412
  16 H :    0.124479
  17 H :    0.179982
  18 H :    0.139111

  Mayer bond orders larger than 0.1
B(  0-C ,  1-C ) :   0.8427 B(  0-C ,  9-H ) :   0.9254 B(  0-C , 10-H ) :   0.9439
B(  0-C , 11-H ) :   0.9490 B(  1-C ,  2-C ) :   1.7406 B(  1-C ,  6-C ) :   0.9188
B(  2-C ,  3-C ) :   0.9620 B(  2-C , 12-H ) :   0.9226 B(  3-C ,  4-C ) :   0.8136
B(  3-C ,  8-C ) :   0.8912 B(  3-C , 13-H ) :   0.9317 B(  4-C ,  5-C ) :   0.9813
B(  4-C ,  8-C ) :   0.8796 B(  4-C , 14-H ) :   0.9289 B(  5-C ,  6-C ) :   0.9191
B(  5-C , 15-H ) :   0.9144 B(  5-C , 16-H ) :   0.9032 B(  6-C ,  7-O ) :   0.9489
B(  6-C ,  8-C ) :   0.8847 B(  7-O , 17-H ) :   0.8358 B(  8-C , 18-H ) :   0.9046

MP2 TOTAL ENERGY:     -385.187158684 Eh
FINAL SINGLE POINT ENERGY      -385.187158684404

DIPOLE MOMENT
-------------
                                X             Y             Z
Electronic contribution:     -1.81962      -2.71143       0.93624
Nuclear contribution   :      2.29653       2.93414      -1.05382
                        -----------------------------------------
Total Dipole Moment    :      0.47691       0.22272      -0.11758
                        -----------------------------------------
Magnitude (a.u.)       :      0.53933
Magnitude (Debye)      :      1.37087

                             ****ORCA TERMINATED NORMALLY****
TOTAL RUN TIME: 0 days 0 hours 19 minutes 59 seconds 302 msec
