                         Program Version 3.0.3 - RELEASE   -
|  1> ! RI-MP2 RIJK def2-TZVP def2-TZVP/C def2-TZVP/JK TIGHTSCF
|  2> % maxcore 2000
|  3> % mp2 density relaxed end
|  4> *xyz 0 1
|  5>  C       -0.0555304531     1.5991456054     0.0116113679
|  6>  C        0.0211803983     0.0709935692     0.0028132150
|  7>  C       -1.3638744457    -0.5811285900     0.0118694311
|  8>  C       -1.3300129377    -2.0790240899     0.0041830952
|  9>  N       -0.2761501196    -2.8055984454    -0.0063417039
| 10>  C       -0.7288382336    -4.1969654642    -0.0099650971
| 11>  C       -2.2628083226    -4.1622809249     0.0001841368
| 12>  O       -3.0694845440    -5.0583046777     0.0013330343
| 13>  N       -2.5310014977    -2.7979021808     0.0087424734
| 14>  H        0.9448117955     2.0418170325     0.0050491495
| 15>  H       -0.5917862793     1.9787935606    -0.8655863765
| 16>  H       -0.5760221874     1.9693716168     0.9022291733
| 17>  H        0.5719461487    -0.2774959592    -0.8765639648
| 18>  H        0.5877076959    -0.2867915917     0.8683213997
| 19>  H       -1.9344841711    -0.2533993981     0.8931734463
| 20>  H       -1.9501496209    -0.2446640897    -0.8557412001
| 21>  H       -0.3639333156    -4.7301963511    -0.8949493893
| 22>  H       -0.3524784087    -4.7384816105     0.8651414936
| 23>  H       -3.4611222313    -2.4114952113     0.0167551957
| 24> *
| 25>
| 26>                          ****END OF INPUT****

CARTESIAN COORDINATES (ANGSTROEM)
---------------------------------
  C     -0.055530    1.599146    0.011611
  C      0.021180    0.070994    0.002813
  C     -1.363874   -0.581129    0.011869
  C     -1.330013   -2.079024    0.004183
  N     -0.276150   -2.805598   -0.006342
  C     -0.728838   -4.196965   -0.009965
  C     -2.262808   -4.162281    0.000184
  O     -3.069485   -5.058305    0.001333
  N     -2.531001   -2.797902    0.008742
  H      0.944812    2.041817    0.005049
  H     -0.591786    1.978794   -0.865586
  H     -0.576022    1.969372    0.902229
  H      0.571946   -0.277496   -0.876564
  H      0.587708   -0.286792    0.868321
  H     -1.934484   -0.253399    0.893173
  H     -1.950150   -0.244664   -0.855741
  H     -0.363933   -4.730196   -0.894949
  H     -0.352478   -4.738482    0.865141
  H     -3.461122   -2.411495    0.016755

 Total Charge           Charge          ....    0
 Multiplicity           Mult            ....    1
 Number of Electrons    NEL             ....   68
 Basis Dimension        Dim             ....  339

ORBITAL ENERGIES
----------------

  NO   OCC          E(Eh)            E(eV)
   0   2.0000     -20.537641      -558.8576
   1   2.0000     -15.610013      -424.7700
   2   2.0000     -15.551043      -423.1654
   3   2.0000     -11.363195      -309.2082
   4   2.0000     -11.331745      -308.3525
   5   2.0000     -11.269199      -306.6505
   6   2.0000     -11.254789      -306.2584
   7   2.0000     -11.231488      -305.6243
   8   2.0000     -11.223534      -305.4079
   9   2.0000      -1.403311       -38.1860
  10   2.0000      -1.321522       -35.9604
  11   2.0000      -1.176436       -32.0125
  12   2.0000      -1.090224       -29.6665
  13   2.0000      -1.008914       -27.4539
  14   2.0000      -0.941233       -25.6122
  15   2.0000      -0.846853       -23.0441
  16   2.0000      -0.821360       -22.3503
  17   2.0000      -0.784484       -21.3469
  18   2.0000      -0.706500       -19.2249
  19   2.0000      -0.669889       -18.2286
  20   2.0000      -0.640803       -17.4371
  21   2.0000      -0.639113       -17.3912
  22   2.0000      -0.625289       -17.0150
  23   2.0000      -0.590464       -16.0674
  24   2.0000      -0.568249       -15.4628
  25   2.0000      -0.557400       -15.1676
  26   2.0000      -0.545443       -14.8422
  27   2.0000      -0.506484       -13.7821
  28   2.0000      -0.496504       -13.5106
  29   2.0000      -0.495439       -13.4816
  30   2.0000      -0.486156       -13.2290
  31   2.0000      -0.477337       -12.9890
  32   2.0000      -0.406749       -11.0682
  33   2.0000      -0.374235       -10.1834
  34   0.0000       0.117819         3.2060
  35   0.0000       0.138794         3.7768
  36   0.0000       0.138909         3.7799
  37   0.0000       0.156520         4.2591
  38   0.0000       0.174243         4.7414

MULLIKEN ATOMIC CHARGES
-----------------------
   0 C :   -0.384202
   1 C :   -0.174096
   2 C :   -0.280695
   3 C :    0.214385
   4 N :   -0.266784
   5 C :   -0.116416
   6 C :    0.189244
   7 O :   -0.315200
   8 N :   -0.306283
   9 H :    0.140076
  10 H :    0.122103
  11 H :    0.122118
  12 H :    0.121903
  13 H :    0.122076
  14 H :    0.132800
  15 H :    0.132745
  16 H :    0.148963
  17 H :    0.148984
  18 H :    0.248280
Sum of atomic charges:   -0.0000000

LOEWDIN ATOMIC CHARGES
----------------------
   0 C :   -0.319531
   1 C :   -0.282824
   2 C :   -0.233650
   3 C :   -0.310584
   4 N :    0.093129
   5 C :   -0.243100
   6 C :   -0.414587
   7 O :    0.104650
   8 N :    0.160330
   9 H :    0.123495
  10 H :    0.120043
  11 H :    0.120049
  12 H :    0.142206
  13 H :    0.142238
  14 H :    0.151662
  15 H :    0.151605
  16 H :    0.151853
  17 H :    0.151866
  18 H :    0.191150

  Mayer bond orders larger than 0.1
B(  0-C ,  1-C ) :   0.9072 B(  0-C ,  9-H ) :   0.9451 B(  0-C , 10-H ) :   0.9375
B(  0-C , 11-H ) :   0.9376 B(  1-C ,  2-C ) :   0.9639 B(  1-C , 12-H ) :   0.9343
B(  1-C , 13-H ) :   0.9343 B(  2-C ,  3-C ) :   0.9256 B(  2-C , 14-H ) :   0.9126
B(  2-C , 15-H ) :   0.9129 B(  3-C ,  4-N ) :   1.8015 B(  3-C ,  8-N ) :   1.0276
B(  4-N ,  5-C ) :   0.9389 B(  5-C ,  6-C ) :   0.9112 B(  5-C , 16-H ) :   0.9035
B(  5-C , 17-H ) :   0.9035 B(  6-C ,  7-O ) :   2.0199 B(  6-C ,  8-N ) :   1.0780
B(  8-N , 18-H ) :   0.8595

MP2 TOTAL ENERGY:     -418.559656350 Eh
FINAL SINGLE POINT ENERGY      -418.559656350151

DIPOLE MOMENT
-------------
                                X             Y             Z
Electronic contribution:     -5.60267     -12.93521      -0.02073
Nuclear contribution   :      5.50680      14.15540       0.02731
                        -----------------------------------------
Total Dipole Moment    :     -0.09587       1.22018       0.00658
                        -----------------------------------------
Magnitude (a.u.)       :      1.22396
Magnitude (Debye)      :      3.11106

                             ****ORCA TERMINATED NORMALLY****
TOTAL RUN TIME: 0 days 0 hours 16 minutes 9 seconds 905 msec
