                         Program Version 3.0.3 - RELEASE   -
|  1> ! RI-MP2 RIJK def2-TZVP def2-TZVP/C def2-TZVP/JK TIGHTSCF
|  2> % maxcore 2000
|  3> % mp2 density relaxed end
|  4> *xyz 0 1
|  5>  C        0.1723974200     1.5189810633     0.1236372760
|  6>  O        1.0454370690     0.5538616059    -0.4741133087
|  7>  C       -0.2326498774     0.1126570197    -0.0153487004
|  8>  C       -0.3845968876    -0.7894751223     1.1810682441
|  9>  C        0.2605589830    -2.1910355138     1.3538485088
| 10>  C        1.5676545962    -1.4226459684     1.6472205287
| 11>  N        0.5167465022    -0.5823052665     2.4169543809
| 12>  C       -0.0314343224    -1.9572096130     2.8510310569
| 13>  H        0.4829266447     1.8750905377     1.1032195707
| 14>  H       -0.2260881920     2.2689705219    -0.5572135567
| 15>  H       -0.9221457812    -0.1364007181    -0.8252704787
| 16>  H       -1.4471569772    -0.7449622336     1.4570644645
| 17>  H        0.1067633464    -3.0953682986     0.7545873197
| 18>  H        2.2887934345    -1.9038329568     2.3138646512
| 19>  H        2.0548939410    -0.8810610900     0.8418695697
| 20>  H       -1.0731761000    -1.9303925768     3.1840413353
| 21>  H        0.6098447607    -2.4596557508     3.5794073378
| 22> *
| 23>
| 24>                          ****END OF INPUT****

CARTESIAN COORDINATES (ANGSTROEM)
---------------------------------
  C      0.172397    1.518981    0.123637
  O      1.045437    0.553862   -0.474113
  C     -0.232650    0.112657   -0.015349
  C     -0.384597   -0.789475    1.181068
  C      0.260559   -2.191036    1.353849
  C      1.567655   -1.422646    1.647221
  N      0.516747   -0.582305    2.416954
  C     -0.031434   -1.957210    2.851031
  H      0.482927    1.875091    1.103220
  H     -0.226088    2.268971   -0.557214
  H     -0.922146   -0.136401   -0.825270
  H     -1.447157   -0.744962    1.457064
  H      0.106763   -3.095368    0.754587
  H      2.288793   -1.903833    2.313865
  H      2.054894   -0.881061    0.841870
  H     -1.073176   -1.930393    3.184041
  H      0.609845   -2.459656    3.579407

 Total Charge           Charge          ....    0
 Multiplicity           Mult            ....    1
 Number of Electrons    NEL             ....   60
 Basis Dimension        Dim             ....  302

ORBITAL ENERGIES
----------------

  NO   OCC          E(Eh)            E(eV)
   0   2.0000     -20.569552      -559.7260
   1   2.0000     -15.569402      -423.6650
   2   2.0000     -11.290844      -307.2395
   3   2.0000     -11.281569      -306.9871
   4   2.0000     -11.272494      -306.7402
   5   2.0000     -11.261099      -306.4301
   6   2.0000     -11.251553      -306.1703
   7   2.0000     -11.250985      -306.1549
   8   2.0000      -1.413282       -38.4574
   9   2.0000      -1.292151       -35.1612
  10   2.0000      -0.992223       -26.9998
  11   2.0000      -0.928676       -25.2706
  12   2.0000      -0.919259       -25.0143
  13   2.0000      -0.902749       -24.5651
  14   2.0000      -0.832586       -22.6558
  15   2.0000      -0.746977       -20.3263
  16   2.0000      -0.697923       -18.9914
  17   2.0000      -0.654163       -17.8007
  18   2.0000      -0.645964       -17.5776
  19   2.0000      -0.636538       -17.3211
  20   2.0000      -0.583086       -15.8666
  21   2.0000      -0.545897       -14.8546
  22   2.0000      -0.509916       -13.8755
  23   2.0000      -0.506887       -13.7931
  24   2.0000      -0.490918       -13.3585
  25   2.0000      -0.489376       -13.3166
  26   2.0000      -0.463052       -12.6003
  27   2.0000      -0.432861       -11.7788
  28   2.0000      -0.424811       -11.5597
  29   2.0000      -0.372849       -10.1457
  30   0.0000       0.150098         4.0844
  31   0.0000       0.161528         4.3954
  32   0.0000       0.165132         4.4935
  33   0.0000       0.178693         4.8625
  34   0.0000       0.195707         5.3255

MULLIKEN ATOMIC CHARGES
-----------------------
   0 C :   -0.080141
   1 O :   -0.340267
   2 C :   -0.015671
   3 C :   -0.031021
   4 C :   -0.082537
   5 C :   -0.190996
   6 N :   -0.215477
   7 C :   -0.153613
   8 H :    0.142302
   9 H :    0.117804
  10 H :    0.132771
  11 H :    0.101070
  12 H :    0.113867
  13 H :    0.109930
  14 H :    0.158713
  15 H :    0.113324
  16 H :    0.119942
Sum of atomic charges:    0.0000000

LOEWDIN ATOMIC CHARGES
----------------------
   0 C :   -0.252445
   1 O :    0.144030
   2 C :   -0.283130
   3 C :   -0.225519
   4 C :   -0.197777
   5 C :   -0.216504
   6 N :    0.102069
   7 C :   -0.230053
   8 H :    0.127820
   9 H :    0.118965
  10 H :    0.142847
  11 H :    0.152816
  12 H :    0.119245
  13 H :    0.121792
  14 H :    0.129446
  15 H :    0.122047
  16 H :    0.124353

  Mayer bond orders larger than 0.1
B(  0-C ,  1-O ) :   0.8992 B(  0-C ,  2-C ) :   0.9811 B(  0-C ,  8-H ) :   0.9018
B(  0-C ,  9-H ) :   0.9245 B(  1-O ,  2-C ) :   0.8900 B(  2-C ,  3-C ) :   0.9241
B(  2-C , 10-H ) :   0.9232 B(  3-C ,  4-C ) :   0.9237 B(  3-C ,  6-N ) :   0.9263
B(  3-C , 11-H ) :   0.9127 B(  4-C ,  5-C ) :   0.9369 B(  4-C ,  7-C ) :   0.9286
B(  4-C , 12-H ) :   0.8986 B(  5-C ,  6-N ) :   0.9058 B(  5-C , 13-H ) :   0.9286
B(  5-C , 14-H ) :   0.9165 B(  6-N ,  7-C ) :   0.9049 B(  7-C , 15-H ) :   0.9257
B(  7-C , 16-H ) :   0.9270

MP2 TOTAL ENERGY:     -363.129941027 Eh
FINAL SINGLE POINT ENERGY      -363.129941026651

DIPOLE MOMENT
-------------
                                X             Y             Z
Electronic contribution:      0.76915       1.35691      -1.75937
Nuclear contribution   :     -1.42832      -1.75995       1.68292
                        -----------------------------------------
Total Dipole Moment    :     -0.65917      -0.40303      -0.07645
                        -----------------------------------------
Magnitude (a.u.)       :      0.77639
Magnitude (Debye)      :      1.97343

                             ****ORCA TERMINATED NORMALLY****
TOTAL RUN TIME: 0 days 0 hours 11 minutes 42 seconds 119 msec
