                         Program Version 3.0.3 - RELEASE   -
|  1> ! RI-MP2 RIJK def2-TZVP def2-TZVP/C def2-TZVP/JK TIGHTSCF
|  2> % maxcore 2000
|  3> % mp2 density relaxed end
|  4> *xyz 0 1
|  5>  C       -0.0677151751     1.3837924557     0.1200270373
|  6>  N       -0.0194296781    -0.0526875631    -0.0514206183
|  7>  C       -1.1992714222    -0.8886530136     0.0471948985
|  8>  C       -0.6866690036    -2.2863609897    -0.4050180743
|  9>  C        0.8121888892    -2.2465891621    -0.0839243995
| 10>  C        1.1660356150    -0.7601712747    -0.0853634996
| 11>  O        2.2692653913    -0.2646046253    -0.1016226017
| 12>  C       -1.7515658412    -0.9033208138     1.4199677612
| 13>  N       -2.1782484490    -0.9029614981     2.4939979559
| 14>  H        0.9572217429     1.7508976035     0.0501549763
| 15>  H       -0.6773941348     1.8508789599    -0.6616608784
| 16>  H       -0.4830615458     1.6535253416     1.0984575211
| 17>  H       -1.9925973642    -0.5223366865    -0.6153772866
| 18>  H       -1.2277945327    -3.0941472500     0.0879674348
| 19>  H       -0.8478155506    -2.3743754955    -1.4821746814
| 20>  H        1.0319528278    -2.6444354417     0.9128697381
| 21>  H        1.4344987213    -2.7873391265    -0.7980381533
| 22> *
| 23>
| 24>                          ****END OF INPUT****

CARTESIAN COORDINATES (ANGSTROEM)
---------------------------------
  C     -0.067715    1.383792    0.120027
  N     -0.019430   -0.052688   -0.051421
  C     -1.199271   -0.888653    0.047195
  C     -0.686669   -2.286361   -0.405018
  C      0.812189   -2.246589   -0.083924
  C      1.166036   -0.760171   -0.085363
  O      2.269265   -0.264605   -0.101623
  C     -1.751566   -0.903321    1.419968
  N     -2.178248   -0.902961    2.493998
  H      0.957222    1.750898    0.050155
  H     -0.677394    1.850879   -0.661661
  H     -0.483062    1.653525    1.098458
  H     -1.992597   -0.522337   -0.615377
  H     -1.227795   -3.094147    0.087967
  H     -0.847816   -2.374375   -1.482175
  H      1.031953   -2.644435    0.912870
  H      1.434499   -2.787339   -0.798038

 Total Charge           Charge          ....    0
 Multiplicity           Mult            ....    1
 Number of Electrons    NEL             ....   66
 Basis Dimension        Dim             ....  327

ORBITAL ENERGIES
----------------

  NO   OCC          E(Eh)            E(eV)
   0   2.0000     -20.532416      -558.7154
   1   2.0000     -15.608930      -424.7406
   2   2.0000     -15.586542      -424.1314
   3   2.0000     -11.362827      -309.1982
   4   2.0000     -11.340228      -308.5833
   5   2.0000     -11.284553      -307.0683
   6   2.0000     -11.273312      -306.7624
   7   2.0000     -11.272289      -306.7346
   8   2.0000     -11.260120      -306.4034
   9   2.0000      -1.400322       -38.1047
  10   2.0000      -1.292300       -35.1653
  11   2.0000      -1.228961       -33.4417
  12   2.0000      -1.105499       -30.0822
  13   2.0000      -1.024805       -27.8864
  14   2.0000      -0.961034       -26.1511
  15   2.0000      -0.876621       -23.8541
  16   2.0000      -0.780812       -21.2470
  17   2.0000      -0.740489       -20.1497
  18   2.0000      -0.710553       -19.3351
  19   2.0000      -0.662863       -18.0374
  20   2.0000      -0.646195       -17.5839
  21   2.0000      -0.625281       -17.0148
  22   2.0000      -0.596444       -16.2301
  23   2.0000      -0.585993       -15.9457
  24   2.0000      -0.574577       -15.6350
  25   2.0000      -0.560267       -15.2456
  26   2.0000      -0.558721       -15.2036
  27   2.0000      -0.544007       -14.8032
  28   2.0000      -0.511647       -13.9226
  29   2.0000      -0.481079       -13.0908
  30   2.0000      -0.470784       -12.8107
  31   2.0000      -0.432618       -11.7721
  32   2.0000      -0.402988       -10.9659
  33   0.0000       0.108639         2.9562
  34   0.0000       0.140878         3.8335
  35   0.0000       0.144878         3.9423
  36   0.0000       0.153542         4.1781
  37   0.0000       0.159798         4.3483

MULLIKEN ATOMIC CHARGES
-----------------------
   0 C :   -0.337266
   1 N :   -0.104738
   2 C :    0.152007
   3 C :   -0.258720
   4 C :   -0.220954
   5 C :    0.186082
   6 O :   -0.344181
   7 C :   -0.245313
   8 N :   -0.045905
   9 H :    0.182145
  10 H :    0.138580
  11 H :    0.154588
  12 H :    0.152251
  13 H :    0.157060
  14 H :    0.138240
  15 H :    0.148263
  16 H :    0.147861
Sum of atomic charges:   -0.0000000

LOEWDIN ATOMIC CHARGES
----------------------
   0 C :   -0.281269
   1 N :    0.196379
   2 C :   -0.241489
   3 C :   -0.201234
   4 C :   -0.210492
   5 C :   -0.418875
   6 O :    0.098726
   7 C :   -0.167177
   8 N :    0.071932
   9 H :    0.139123
  10 H :    0.120177
  11 H :    0.124429
  12 H :    0.169326
  13 H :    0.146131
  14 H :    0.146167
  15 H :    0.157461
  16 H :    0.150685

  Mayer bond orders larger than 0.1
B(  0-C ,  1-N ) :   0.8714 B(  0-C ,  9-H ) :   0.9187 B(  0-C , 10-H ) :   0.9317
B(  0-C , 11-H ) :   0.9252 B(  1-N ,  2-C ) :   0.9040 B(  1-N ,  5-C ) :   1.1234
B(  2-C ,  3-C ) :   0.8551 B(  2-C ,  7-C ) :   0.8869 B(  2-C , 12-H ) :   0.9249
B(  3-C ,  4-C ) :   0.9440 B(  3-C , 13-H ) :   0.9322 B(  3-C , 14-H ) :   0.9236
B(  4-C ,  5-C ) :   0.9145 B(  4-C , 15-H ) :   0.9074 B(  4-C , 16-H ) :   0.9251
B(  5-C ,  6-O ) :   1.9671 B(  7-C ,  8-N ) :   2.8587

MP2 TOTAL ENERGY:     -417.361280395 Eh
FINAL SINGLE POINT ENERGY      -417.361280394765

DIPOLE MOMENT
-------------
                                X             Y             Z
Electronic contribution:     -0.06496      -0.11370       2.71837
Nuclear contribution   :     -0.63824      -0.19492      -3.93770
                        -----------------------------------------
Total Dipole Moment    :     -0.70320      -0.30863      -1.21933
                        -----------------------------------------
Magnitude (a.u.)       :      1.44101
Magnitude (Debye)      :      3.66276

                             ****ORCA TERMINATED NORMALLY****
TOTAL RUN TIME: 0 days 0 hours 16 minutes 52 seconds 806 msec
