                         Program Version 3.0.3 - RELEASE   -
|  1> ! RI-MP2 RIJK def2-TZVP def2-TZVP/C def2-TZVP/JK TIGHTSCF
|  2> % maxcore 2000
|  3> % mp2 density relaxed end
|  4> *xyz 0 1
|  5>  C       -1.0234688461     1.0093283424    -0.1634658967
|  6>  C        0.0870012602     0.0071401307     0.1068946237
|  7>  C        1.2197760574    -0.1533218459    -0.9560736915
|  8>  C        2.2141879809    -0.2088038432     0.2041772753
|  9>  C        3.1988640588    -1.2943090533     0.5183233898
| 10>  N        3.6359278030     0.0361382484     0.1425030004
| 11>  C        4.3665960336     0.8726045452     0.9661222868
| 12>  O        5.2655795300     0.5216703174     1.6910448031
| 13>  C        1.1732733434     0.3730922544     1.1682096479
| 14>  H       -0.6119116855     1.9980619888    -0.3966736758
| 15>  H       -1.6418132616     0.6971907658    -1.0121363262
| 16>  H       -1.6813690784     1.1182732952     0.7057188484
| 17>  H       -0.3397039654    -0.9731956069     0.3419255196
| 18>  H        1.1774708268    -1.0134475012    -1.6282562945
| 19>  H        1.3484979432     0.7566645485    -1.5516767064
| 20>  H        3.3417543430    -1.5804215800     1.5578570531
| 21>  H        3.3892840709    -2.0780739298    -0.2105724406
| 22>  H        4.0752572390     1.9325913617     0.8333650263
| 23>  H        1.2718743127     1.4587856329     1.2737848200
| 24>  H        1.0970608241    -0.0729511610     2.1626909973
| 25> *
| 26>
| 27>                          ****END OF INPUT****

CARTESIAN COORDINATES (ANGSTROEM)
---------------------------------
  C     -1.023469    1.009328   -0.163466
  C      0.087001    0.007140    0.106895
  C      1.219776   -0.153322   -0.956074
  C      2.214188   -0.208804    0.204177
  C      3.198864   -1.294309    0.518323
  N      3.635928    0.036138    0.142503
  C      4.366596    0.872605    0.966122
  O      5.265580    0.521670    1.691045
  C      1.173273    0.373092    1.168210
  H     -0.611912    1.998062   -0.396674
  H     -1.641813    0.697191   -1.012136
  H     -1.681369    1.118273    0.705719
  H     -0.339704   -0.973196    0.341926
  H      1.177471   -1.013448   -1.628256
  H      1.348498    0.756665   -1.551677
  H      3.341754   -1.580422    1.557857
  H      3.389284   -2.078074   -0.210572
  H      4.075257    1.932591    0.833365
  H      1.271874    1.458786    1.273785
  H      1.097061   -0.072951    2.162691

 Total Charge           Charge          ....    0
 Multiplicity           Mult            ....    1
 Number of Electrons    NEL             ....   68
 Basis Dimension        Dim             ....  345

ORBITAL ENERGIES
----------------

  NO   OCC          E(Eh)            E(eV)
   0   2.0000     -20.537555      -558.8553
   1   2.0000     -15.582593      -424.0239
   2   2.0000     -11.350684      -308.8678
   3   2.0000     -11.290389      -307.2271
   4   2.0000     -11.271109      -306.7025
   5   2.0000     -11.245186      -305.9971
   6   2.0000     -11.239879      -305.8527
   7   2.0000     -11.235207      -305.7255
   8   2.0000     -11.225612      -305.4644
   9   2.0000      -1.393810       -37.9275
  10   2.0000      -1.295927       -35.2640
  11   2.0000      -1.137534       -30.9539
  12   2.0000      -0.997948       -27.1555
  13   2.0000      -0.962521       -26.1915
  14   2.0000      -0.923694       -25.1350
  15   2.0000      -0.827963       -22.5300
  16   2.0000      -0.783933       -21.3319
  17   2.0000      -0.748938       -20.3796
  18   2.0000      -0.697441       -18.9783
  19   2.0000      -0.671041       -18.2600
  20   2.0000      -0.652645       -17.7594
  21   2.0000      -0.647324       -17.6146
  22   2.0000      -0.581747       -15.8301
  23   2.0000      -0.577780       -15.7222
  24   2.0000      -0.562008       -15.2930
  25   2.0000      -0.545771       -14.8512
  26   2.0000      -0.536390       -14.5959
  27   2.0000      -0.511211       -13.9108
  28   2.0000      -0.493013       -13.4156
  29   2.0000      -0.474158       -12.9025
  30   2.0000      -0.455691       -12.4000
  31   2.0000      -0.445398       -12.1199
  32   2.0000      -0.424736       -11.5576
  33   2.0000      -0.388771       -10.5790
  34   0.0000       0.123823         3.3694
  35   0.0000       0.140437         3.8215
  36   0.0000       0.149942         4.0801
  37   0.0000       0.164870         4.4863
  38   0.0000       0.171464         4.6658

MULLIKEN ATOMIC CHARGES
-----------------------
   0 C :   -0.425045
   1 C :   -0.024029
   2 C :   -0.194753
   3 C :    0.050379
   4 C :   -0.197676
   5 N :   -0.182671
   6 C :    0.150416
   7 O :   -0.306503
   8 C :   -0.218125
   9 H :    0.122645
  10 H :    0.135494
  11 H :    0.135558
  12 H :    0.104356
  13 H :    0.126249
  14 H :    0.114555
  15 H :    0.139595
  16 H :    0.133106
  17 H :    0.085543
  18 H :    0.119705
  19 H :    0.131201
Sum of atomic charges:   -0.0000000

LOEWDIN ATOMIC CHARGES
----------------------
   0 C :   -0.301950
   1 C :   -0.242424
   2 C :   -0.172011
   3 C :   -0.251002
   4 C :   -0.190196
   5 N :    0.182084
   6 C :   -0.396178
   7 O :    0.098397
   8 C :   -0.176370
   9 H :    0.123190
  10 H :    0.125938
  11 H :    0.125664
  12 H :    0.150260
  13 H :    0.131212
  14 H :    0.143014
  15 H :    0.133513
  16 H :    0.130975
  17 H :    0.111420
  18 H :    0.141789
  19 H :    0.132675

  Mayer bond orders larger than 0.1
B(  0-C ,  1-C ) :   0.8839 B(  0-C ,  9-H ) :   0.9371 B(  0-C , 10-H ) :   0.9412
B(  0-C , 11-H ) :   0.9420 B(  1-C ,  2-C ) :   0.9457 B(  1-C ,  8-C ) :   0.9480
B(  1-C , 12-H ) :   0.9232 B(  2-C ,  3-C ) :   0.8869 B(  2-C , 13-H ) :   0.9203
B(  2-C , 14-H ) :   0.9105 B(  3-C ,  4-C ) :   0.9238 B(  3-C ,  5-N ) :   0.8341
B(  3-C ,  8-C ) :   0.9106 B(  4-C ,  5-N ) :   0.8979 B(  4-C , 15-H ) :   0.9242
B(  4-C , 16-H ) :   0.9127 B(  5-N ,  6-C ) :   1.0337 B(  6-C ,  7-O ) :   1.9649
B(  6-C , 17-H ) :   0.9343 B(  8-C , 18-H ) :   0.9133 B(  8-C , 19-H ) :   0.9203

MP2 TOTAL ENERGY:     -402.436229573 Eh
FINAL SINGLE POINT ENERGY      -402.436229573296

DIPOLE MOMENT
-------------
                                X             Y             Z
Electronic contribution:     10.93836      -0.71863       2.03190
Nuclear contribution   :    -12.44880       0.59358      -2.42910
                        -----------------------------------------
Total Dipole Moment    :     -1.51044      -0.12505      -0.39720
                        -----------------------------------------
Magnitude (a.u.)       :      1.56679
Magnitude (Debye)      :      3.98247

                             ****ORCA TERMINATED NORMALLY****
TOTAL RUN TIME: 0 days 0 hours 19 minutes 24 seconds 203 msec
