                         Program Version 3.0.3 - RELEASE   -
|  1> ! RI-MP2 RIJK def2-TZVP def2-TZVP/C def2-TZVP/JK TIGHTSCF
|  2> % maxcore 2000
|  3> % mp2 density relaxed end
|  4> *xyz 0 1
|  5>  C       -0.3709525691     1.4183678913    -0.1697248552
|  6>  O       -0.2719804131     0.0115338215    -0.1445881567
|  7>  C        0.6868835357    -0.4949285600    -1.0464517899
|  8>  C        0.7009824761    -2.0133320544    -0.9149645211
|  9>  C       -0.6141225197    -2.6925444280    -1.4077850686
| 10>  O        0.0687952351    -3.3048452573    -2.5133182148
| 11>  C        1.3450861655    -2.7835879065    -2.0839822967
| 12>  C        1.1237086075    -2.4485343968     0.4727725288
| 13>  O        1.8799936751    -3.3599968994     0.6988935337
| 14>  H        0.5792771336     1.8974598065     0.1113636644
| 15>  H       -0.6614416141     1.7856176942    -1.1658869820
| 16>  H       -1.1395345086     1.7033636568     0.5519590109
| 17>  H        0.4320995333    -0.2175398781    -2.0832046303
| 18>  H        1.6857856406    -0.0757508031    -0.8324822164
| 19>  H       -1.0468912830    -3.4342726520    -0.7249189503
| 20>  H       -1.3961767755    -1.9926936508    -1.7232052665
| 21>  H        1.8201325970    -2.1673822333    -2.8570374120
| 22>  H        2.0303716207    -3.5735130085    -1.7618589275
| 23>  H        0.6617491230    -1.8629834922     1.2942762902
| 24> *
| 25>
| 26>                          ****END OF INPUT****

CARTESIAN COORDINATES (ANGSTROEM)
---------------------------------
  C     -0.370953    1.418368   -0.169725
  O     -0.271980    0.011534   -0.144588
  C      0.686884   -0.494929   -1.046452
  C      0.700982   -2.013332   -0.914965
  C     -0.614123   -2.692544   -1.407785
  O      0.068795   -3.304845   -2.513318
  C      1.345086   -2.783588   -2.083982
  C      1.123709   -2.448534    0.472773
  O      1.879994   -3.359997    0.698894
  H      0.579277    1.897460    0.111364
  H     -0.661442    1.785618   -1.165887
  H     -1.139535    1.703364    0.551959
  H      0.432100   -0.217540   -2.083205
  H      1.685786   -0.075751   -0.832482
  H     -1.046891   -3.434273   -0.724919
  H     -1.396177   -1.992694   -1.723205
  H      1.820133   -2.167382   -2.857037
  H      2.030372   -3.573513   -1.761859
  H      0.661749   -1.862983    1.294276

 Total Charge           Charge          ....    0
 Multiplicity           Mult            ....    1
 Number of Electrons    NEL             ....   70
 Basis Dimension        Dim             ....  339

ORBITAL ENERGIES
----------------

  NO   OCC          E(Eh)            E(eV)
   0   2.0000     -20.579305      -559.9913
   1   2.0000     -20.562038      -559.5215
   2   2.0000     -20.556355      -559.3669
   3   2.0000     -11.334023      -308.4144
   4   2.0000     -11.302471      -307.5559
   5   2.0000     -11.293010      -307.2984
   6   2.0000     -11.288975      -307.1886
   7   2.0000     -11.285696      -307.0994
   8   2.0000     -11.258346      -306.3552
   9   2.0000      -1.405285       -38.2398
  10   2.0000      -1.398598       -38.0578
  11   2.0000      -1.385161       -37.6922
  12   2.0000      -1.087968       -29.6051
  13   2.0000      -0.964394       -26.2425
  14   2.0000      -0.946537       -25.7566
  15   2.0000      -0.889629       -24.2080
  16   2.0000      -0.865773       -23.5589
  17   2.0000      -0.744944       -20.2710
  18   2.0000      -0.715586       -19.4721
  19   2.0000      -0.690904       -18.8005
  20   2.0000      -0.681610       -18.5475
  21   2.0000      -0.672938       -18.3116
  22   2.0000      -0.649788       -17.6816
  23   2.0000      -0.626932       -17.0597
  24   2.0000      -0.605364       -16.4728
  25   2.0000      -0.576159       -15.6781
  26   2.0000      -0.572116       -15.5681
  27   2.0000      -0.560424       -15.2499
  28   2.0000      -0.532514       -14.4904
  29   2.0000      -0.512431       -13.9439
  30   2.0000      -0.479300       -13.0424
  31   2.0000      -0.463705       -12.6181
  32   2.0000      -0.452236       -12.3060
  33   2.0000      -0.425380       -11.5752
  34   2.0000      -0.413833       -11.2610
  35   0.0000       0.117234         3.1901
  36   0.0000       0.135546         3.6884
  37   0.0000       0.157978         4.2988
  38   0.0000       0.172509         4.6942
  39   0.0000       0.175581         4.7778

MULLIKEN ATOMIC CHARGES
-----------------------
   0 C :   -0.225897
   1 O :   -0.313270
   2 C :   -0.141383
   3 C :    0.199359
   4 C :   -0.063258
   5 O :   -0.322368
   6 C :   -0.071193
   7 C :    0.037970
   8 O :   -0.268167
   9 H :    0.117791
  10 H :    0.117960
  11 H :    0.145456
  12 H :    0.122663
  13 H :    0.113437
  14 H :    0.103359
  15 H :    0.109033
  16 H :    0.098734
  17 H :    0.127053
  18 H :    0.112721
Sum of atomic charges:    0.0000000

LOEWDIN ATOMIC CHARGES
----------------------
   0 C :   -0.353811
   1 O :    0.140338
   2 C :   -0.290416
   3 C :   -0.268406
   4 C :   -0.219194
   5 O :    0.118521
   6 C :   -0.219268
   7 C :   -0.251194
   8 O :    0.139907
   9 H :    0.104017
  10 H :    0.104431
  11 H :    0.115813
  12 H :    0.132149
  13 H :    0.128275
  14 H :    0.123033
  15 H :    0.123891
  16 H :    0.120292
  17 H :    0.128238
  18 H :    0.123384

  Mayer bond orders larger than 0.1
B(  0-C ,  1-O ) :   0.9084 B(  0-C ,  9-H ) :   0.9368 B(  0-C , 10-H ) :   0.9367
B(  0-C , 11-H ) :   0.9385 B(  1-O ,  2-C ) :   0.9362 B(  2-C ,  3-C ) :   0.9113
B(  2-C , 12-H ) :   0.9190 B(  2-C , 13-H ) :   0.9126 B(  3-C ,  4-C ) :   0.9218
B(  3-C ,  6-C ) :   0.9422 B(  3-C ,  7-C ) :   0.8330 B(  4-C ,  5-O ) :   0.9726
B(  4-C , 14-H ) :   0.9012 B(  4-C , 15-H ) :   0.8995 B(  5-O ,  6-C ) :   0.9608
B(  6-C , 16-H ) :   0.9079 B(  6-C , 17-H ) :   0.8935 B(  7-C ,  8-O ) :   1.9779
B(  7-C , 18-H ) :   0.9384

MP2 TOTAL ENERGY:     -459.388848502 Eh
FINAL SINGLE POINT ENERGY      -459.388848502484

DIPOLE MOMENT
-------------
                                X             Y             Z
Electronic contribution:      1.64182      -7.06185       1.17727
Nuclear contribution   :     -1.85085       8.58614      -1.23030
                        -----------------------------------------
Total Dipole Moment    :     -0.20903       1.52429      -0.05303
                        -----------------------------------------
Magnitude (a.u.)       :      1.53947
Magnitude (Debye)      :      3.91302

                             ****ORCA TERMINATED NORMALLY****
TOTAL RUN TIME: 0 days 0 hours 16 minutes 5 seconds 856 msec
