                         Program Version 3.0.3 - RELEASE   -
|  1> ! RI-MP2 RIJK def2-TZVP def2-TZVP/C def2-TZVP/JK TIGHTSCF
|  2> % maxcore 2000
|  3> % mp2 density relaxed end
|  4> *xyz 0 1
|  5>  N        0.0599656323     1.2116544860     0.0890935218
|  6>  C       -0.0065427529    -0.1402161179     0.0443259568
|  7>  O        0.9717762281    -0.8644428999     0.0945059684
|  8>  C       -1.4109360709    -0.7671523762    -0.1017628899
|  9>  O       -1.2554573254    -2.1431699274    -0.2757084444
| 10>  C       -2.2767485038    -0.4349857626     1.1104616592
| 11>  C       -3.0621365651    -1.4694841865     1.7898636854
| 12>  O       -1.8458925294    -0.9672986865     2.3566952684
| 13>  H        0.9527677486     1.6424419091     0.2675290186
| 14>  H       -0.7647085147     1.7844260272     0.1290450572
| 15>  H       -1.8974759127    -0.3251781844    -0.9874023781
| 16>  H       -0.3066805559    -2.3023210932    -0.1217645059
| 17>  H       -2.6319807982     0.5981892423     1.1558049577
| 18>  H       -3.9722183867    -1.1907634414     2.3188750833
| 19>  H       -3.0060232933    -2.4871709986     1.4155442413
| 20> *
| 21>
| 22>                          ****END OF INPUT****

CARTESIAN COORDINATES (ANGSTROEM)
---------------------------------
  N      0.059966    1.211654    0.089094
  C     -0.006543   -0.140216    0.044326
  O      0.971776   -0.864443    0.094506
  C     -1.410936   -0.767152   -0.101763
  O     -1.255457   -2.143170   -0.275708
  C     -2.276749   -0.434986    1.110462
  C     -3.062137   -1.469484    1.789864
  O     -1.845893   -0.967299    2.356695
  H      0.952768    1.642442    0.267529
  H     -0.764709    1.784426    0.129045
  H     -1.897476   -0.325178   -0.987402
  H     -0.306681   -2.302321   -0.121765
  H     -2.631981    0.598189    1.155805
  H     -3.972218   -1.190763    2.318875
  H     -3.006023   -2.487171    1.415544

 Total Charge           Charge          ....    0
 Multiplicity           Mult            ....    1
 Number of Electrons    NEL             ....   62
 Basis Dimension        Dim             ....  290

ORBITAL ENERGIES
----------------

  NO   OCC          E(Eh)            E(eV)
   0   2.0000     -20.576134      -559.9051
   1   2.0000     -20.557905      -559.4090
   2   2.0000     -20.540346      -558.9312
   3   2.0000     -15.603142      -424.5831
   4   2.0000     -11.369164      -309.3707
   5   2.0000     -11.311025      -307.7886
   6   2.0000     -11.302170      -307.5477
   7   2.0000     -11.288108      -307.1650
   8   2.0000      -1.427059       -38.8322
   9   2.0000      -1.410560       -38.3833
  10   2.0000      -1.362457       -37.0744
  11   2.0000      -1.234264       -33.5860
  12   2.0000      -1.020293       -27.7636
  13   2.0000      -0.926163       -25.2022
  14   2.0000      -0.852246       -23.1908
  15   2.0000      -0.801031       -21.7972
  16   2.0000      -0.767487       -20.8844
  17   2.0000      -0.718077       -19.5399
  18   2.0000      -0.709344       -19.3022
  19   2.0000      -0.676157       -18.3992
  20   2.0000      -0.652539       -17.7565
  21   2.0000      -0.624630       -16.9970
  22   2.0000      -0.579804       -15.7773
  23   2.0000      -0.559483       -15.2243
  24   2.0000      -0.549553       -14.9541
  25   2.0000      -0.534787       -14.5523
  26   2.0000      -0.480886       -13.0856
  27   2.0000      -0.478039       -13.0081
  28   2.0000      -0.444401       -12.0928
  29   2.0000      -0.433999       -11.8097
  30   2.0000      -0.430354       -11.7105
  31   0.0000       0.111531         3.0349
  32   0.0000       0.155365         4.2277
  33   0.0000       0.164022         4.4633
  34   0.0000       0.174460         4.7473
  35   0.0000       0.188307         5.1241

MULLIKEN ATOMIC CHARGES
-----------------------
   0 N :   -0.476291
   1 C :    0.298502
   2 O :   -0.371845
   3 C :    0.029989
   4 O :   -0.489843
   5 C :    0.075968
   6 C :   -0.103687
   7 O :   -0.338146
   8 H :    0.269050
   9 H :    0.262163
  10 H :    0.112485
  11 H :    0.344748
  12 H :    0.120262
  13 H :    0.115806
  14 H :    0.150838
Sum of atomic charges:    0.0000000

LOEWDIN ATOMIC CHARGES
----------------------
   0 N :    0.000962
   1 C :   -0.453474
   2 O :    0.085749
   3 C :   -0.327166
   4 O :    0.008772
   5 C :   -0.293877
   6 C :   -0.251987
   7 O :    0.154150
   8 H :    0.180236
   9 H :    0.173990
  10 H :    0.152072
  11 H :    0.190451
  12 H :    0.132792
  13 H :    0.118541
  14 H :    0.128790

  Mayer bond orders larger than 0.1
B(  0-N ,  1-C ) :   1.1703 B(  0-N ,  8-H ) :   0.8526 B(  0-N ,  9-H ) :   0.8697
B(  1-C ,  2-O ) :   1.8781 B(  1-C ,  3-C ) :   0.9203 B(  3-C ,  4-O ) :   1.1071
B(  3-C ,  5-C ) :   0.8550 B(  3-C , 10-H ) :   0.9295 B(  4-O ,  5-C ) :  -0.1021
B(  4-O , 11-H ) :   0.7907 B(  5-C ,  6-C ) :   1.0021 B(  5-C ,  7-O ) :   0.8559
B(  5-C , 12-H ) :   0.8985 B(  6-C ,  7-O ) :   0.9135 B(  6-C , 13-H ) :   0.9272
B(  6-C , 14-H ) :   0.8958

MP2 TOTAL ENERGY:     -436.267246343 Eh
FINAL SINGLE POINT ENERGY      -436.267246343184

DIPOLE MOMENT
-------------
                                X             Y             Z
Electronic contribution:      3.04298      -0.94531      -0.02113
Nuclear contribution   :     -3.81320       2.48125      -0.25265
                        -----------------------------------------
Total Dipole Moment    :     -0.77022       1.53594      -0.27378
                        -----------------------------------------
Magnitude (a.u.)       :      1.73991
Magnitude (Debye)      :      4.42250

                             ****ORCA TERMINATED NORMALLY****
TOTAL RUN TIME: 0 days 0 hours 9 minutes 48 seconds 419 msec
