                         Program Version 3.0.3 - RELEASE   -
|  1> ! RI-MP2 RIJK def2-TZVP def2-TZVP/C def2-TZVP/JK TIGHTSCF
|  2> % maxcore 2000
|  3> % mp2 density relaxed end
|  4> *xyz 0 1
|  5>  C       -0.0238584855     1.4898558346    -0.0287274474
|  6>  C       -0.0217920825    -0.0096195888     0.0612706600
|  7>  N        1.2103178093    -0.7504773774    -0.2366566420
|  8>  C        0.6035580344    -0.8874370015     1.0933043908
|  9>  C        1.3937000806    -0.5000071243     2.3107211386
| 10>  C       -0.5292720339    -1.9588151470     1.1946709466
| 11>  C       -1.8016104839    -1.0778135380     1.3100274070
| 12>  C       -1.3437424587    -0.8155380144    -0.1493902766
| 13>  O       -0.8810060541    -2.1982770025    -0.2009283157
| 14>  H        0.9174095439     1.9015102595     0.3437532093
| 15>  H       -0.1406894676     1.8191847189    -1.0678170753
| 16>  H       -0.8453126782     1.9241588767     0.5526821715
| 17>  H        0.9872150679    -1.5714315357    -0.7997148414
| 18>  H        1.9912574650     0.3940315545     2.1162786884
| 19>  H        0.7378875358    -0.2984045270     3.1655367454
| 20>  H        2.0827447989    -1.3016415600     2.6012598803
| 21>  H       -0.3561953444    -2.8660488067     1.7742488930
| 22>  H       -2.7227048995    -1.6607828493     1.3723202707
| 23>  H       -1.8000977102    -0.2446299257     2.0178298046
| 24>  H       -2.0147696174    -0.5379084760    -0.9627677079
| 25> *
| 26>
| 27>                          ****END OF INPUT****

CARTESIAN COORDINATES (ANGSTROEM)
---------------------------------
  C     -0.023858    1.489856   -0.028727
  C     -0.021792   -0.009620    0.061271
  N      1.210318   -0.750477   -0.236657
  C      0.603558   -0.887437    1.093304
  C      1.393700   -0.500007    2.310721
  C     -0.529272   -1.958815    1.194671
  C     -1.801610   -1.077814    1.310027
  C     -1.343742   -0.815538   -0.149390
  O     -0.881006   -2.198277   -0.200928
  H      0.917410    1.901510    0.343753
  H     -0.140689    1.819185   -1.067817
  H     -0.845313    1.924159    0.552682
  H      0.987215   -1.571432   -0.799715
  H      1.991257    0.394032    2.116279
  H      0.737888   -0.298405    3.165537
  H      2.082745   -1.301642    2.601260
  H     -0.356195   -2.866049    1.774249
  H     -2.722705   -1.660783    1.372320
  H     -1.800098   -0.244630    2.017830
  H     -2.014770   -0.537908   -0.962768

 Total Charge           Charge          ....    0
 Multiplicity           Mult            ....    1
 Number of Electrons    NEL             ....   68
 Basis Dimension        Dim             ....  345

ORBITAL ENERGIES
----------------

  NO   OCC          E(Eh)            E(eV)
   0   2.0000     -20.559010      -559.4391
   1   2.0000     -15.545834      -423.0236
   2   2.0000     -11.296679      -307.3983
   3   2.0000     -11.296663      -307.3978
   4   2.0000     -11.260314      -306.4087
   5   2.0000     -11.259573      -306.3886
   6   2.0000     -11.240040      -305.8571
   7   2.0000     -11.223136      -305.3971
   8   2.0000     -11.223133      -305.3970
   9   2.0000      -1.407495       -38.2999
  10   2.0000      -1.253931       -34.1212
  11   2.0000      -1.046420       -28.4745
  12   2.0000      -1.010960       -27.5096
  13   2.0000      -0.978530       -26.6271
  14   2.0000      -0.915959       -24.9245
  15   2.0000      -0.864323       -23.5194
  16   2.0000      -0.772589       -21.0232
  17   2.0000      -0.717507       -19.5243
  18   2.0000      -0.705300       -19.1922
  19   2.0000      -0.688265       -18.7286
  20   2.0000      -0.602162       -16.3857
  21   2.0000      -0.600477       -16.3398
  22   2.0000      -0.583896       -15.8886
  23   2.0000      -0.564454       -15.3596
  24   2.0000      -0.556596       -15.1458
  25   2.0000      -0.552403       -15.0316
  26   2.0000      -0.551571       -15.0090
  27   2.0000      -0.508943       -13.8490
  28   2.0000      -0.492446       -13.4001
  29   2.0000      -0.474569       -12.9137
  30   2.0000      -0.444871       -12.1056
  31   2.0000      -0.444013       -12.0822
  32   2.0000      -0.404611       -11.0100
  33   2.0000      -0.375129       -10.2078
  34   0.0000       0.134700         3.6654
  35   0.0000       0.156804         4.2668
  36   0.0000       0.166997         4.5442
  37   0.0000       0.170867         4.6495
  38   0.0000       0.185005         5.0343

MULLIKEN ATOMIC CHARGES
-----------------------
   0 C :   -0.442159
   1 C :    0.082036
   2 N :   -0.386381
   3 C :    0.082080
   4 C :   -0.442154
   5 C :    0.048250
   6 C :   -0.241912
   7 C :    0.048265
   8 O :   -0.325386
   9 H :    0.144753
  10 H :    0.139562
  11 H :    0.128118
  12 H :    0.235062
  13 H :    0.144751
  14 H :    0.128115
  15 H :    0.139563
  16 H :    0.136538
  17 H :    0.122765
  18 H :    0.121598
  19 H :    0.136537
Sum of atomic charges:    0.0000000

LOEWDIN ATOMIC CHARGES
----------------------
   0 C :   -0.269660
   1 C :   -0.274545
   2 N :    0.061954
   3 C :   -0.274552
   4 C :   -0.269658
   5 C :   -0.213949
   6 C :   -0.192295
   7 C :   -0.213948
   8 O :    0.158823
   9 H :    0.133764
  10 H :    0.130765
  11 H :    0.128466
  12 H :    0.171619
  13 H :    0.133763
  14 H :    0.128466
  15 H :    0.130765
  16 H :    0.132525
  17 H :    0.134580
  18 H :    0.130593
  19 H :    0.132524

  Mayer bond orders larger than 0.1
B(  0-C ,  1-C ) :   0.8763 B(  0-C ,  9-H ) :   0.9356 B(  0-C , 10-H ) :   0.9438
B(  0-C , 11-H ) :   0.9355 B(  1-C ,  2-N ) :   0.9285 B(  1-C ,  3-C ) :   0.8724
B(  1-C ,  7-C ) :   0.8961 B(  2-N ,  3-C ) :   0.9285 B(  2-N , 12-H ) :   0.8461
B(  3-C ,  4-C ) :   0.8763 B(  3-C ,  5-C ) :   0.8961 B(  4-C , 13-H ) :   0.9356
B(  4-C , 14-H ) :   0.9355 B(  4-C , 15-H ) :   0.9438 B(  5-C ,  6-C ) :   0.9392
B(  5-C ,  8-O ) :   0.9061 B(  5-C , 16-H ) :   0.9061 B(  6-C ,  7-C ) :   0.9392
B(  6-C , 17-H ) :   0.9200 B(  6-C , 18-H ) :   0.9114 B(  7-C ,  8-O ) :   0.9061
B(  7-C , 19-H ) :   0.9061

MP2 TOTAL ENERGY:     -402.415562958 Eh
FINAL SINGLE POINT ENERGY      -402.415562957577

DIPOLE MOMENT
-------------
                                X             Y             Z
Electronic contribution:     -1.07478      -5.06770      -3.65929
Nuclear contribution   :      0.47269       5.37957       4.28943
                        -----------------------------------------
Total Dipole Moment    :     -0.60209       0.31187       0.63014
                        -----------------------------------------
Magnitude (a.u.)       :      0.92566
Magnitude (Debye)      :      2.35284

                             ****ORCA TERMINATED NORMALLY****
TOTAL RUN TIME: 0 days 0 hours 18 minutes 11 seconds 323 msec
