                         Program Version 3.0.3 - RELEASE   -
|  1> ! RI-MP2 RIJK def2-TZVP def2-TZVP/C def2-TZVP/JK TIGHTSCF
|  2> % maxcore 2000
|  3> % mp2 density relaxed end
|  4> *xyz 0 1
|  5>  C        0.0906988298     1.5339529557     0.1742836277
|  6>  C       -0.1595700102     0.0469550964    -0.1022990440
|  7>  C        0.6758575370    -0.4789258684    -1.2672287906
|  8>  C        2.2303134413    -0.5646807246    -1.1306870199
|  9>  O        3.0977754140     0.2492235388    -1.0082222085
| 10>  C        2.2000015227    -2.0679490094    -1.3799203649
| 11>  O        1.3027095796    -2.5802425382    -0.3635939662
| 12>  C        0.7201801256    -2.0034569245    -1.5335532268
| 13>  C       -0.2031488901    -2.8292350360    -2.3680078527
| 14>  H        1.1479224791     1.7223627436     0.3810389740
| 15>  H       -0.1920928362     2.1502551994    -0.6863892512
| 16>  H       -0.4932214517     1.8742405884     1.0346317141
| 17>  H        0.0721361687    -0.5474854310     0.7873608252
| 18>  H       -1.2229117730    -0.1162001949    -0.3216862668
| 19>  H        0.4617741563     0.0807360426    -2.1886752233
| 20>  H        2.9404071571    -2.7490859411    -1.7833755203
| 21>  H       -1.1992439670    -2.8725145538    -1.9142167560
| 22>  H       -0.3081167131    -2.3987324023    -3.3687377356
| 23>  H        0.1738430202    -3.8510108707    -2.4591176544
| 24> *
| 25>
| 26>                          ****END OF INPUT****

CARTESIAN COORDINATES (ANGSTROEM)
---------------------------------
  C      0.090699    1.533953    0.174284
  C     -0.159570    0.046955   -0.102299
  C      0.675858   -0.478926   -1.267229
  C      2.230313   -0.564681   -1.130687
  O      3.097775    0.249224   -1.008222
  C      2.200002   -2.067949   -1.379920
  O      1.302710   -2.580243   -0.363594
  C      0.720180   -2.003457   -1.533553
  C     -0.203149   -2.829235   -2.368008
  H      1.147922    1.722363    0.381039
  H     -0.192093    2.150255   -0.686389
  H     -0.493221    1.874241    1.034632
  H      0.072136   -0.547485    0.787361
  H     -1.222912   -0.116200   -0.321686
  H      0.461774    0.080736   -2.188675
  H      2.940407   -2.749086   -1.783376
  H     -1.199244   -2.872515   -1.914217
  H     -0.308117   -2.398732   -3.368738
  H      0.173843   -3.851011   -2.459118

 Total Charge           Charge          ....    0
 Multiplicity           Mult            ....    1
 Number of Electrons    NEL             ....   68
 Basis Dimension        Dim             ....  339

ORBITAL ENERGIES
----------------

  NO   OCC          E(Eh)            E(eV)
   0   2.0000     -20.590775      -560.3035
   1   2.0000     -20.561933      -559.5187
   2   2.0000     -11.343660      -308.6767
   3   2.0000     -11.315467      -307.9095
   4   2.0000     -11.302380      -307.5534
   5   2.0000     -11.256364      -306.3012
   6   2.0000     -11.245705      -306.0112
   7   2.0000     -11.233163      -305.6699
   8   2.0000     -11.215746      -305.1960
   9   2.0000      -1.442086       -39.2412
  10   2.0000      -1.400945       -38.1217
  11   2.0000      -1.108926       -30.1754
  12   2.0000      -1.031824       -28.0774
  13   2.0000      -1.010492       -27.4969
  14   2.0000      -0.918934       -25.0055
  15   2.0000      -0.832557       -22.6550
  16   2.0000      -0.802001       -21.8236
  17   2.0000      -0.747449       -20.3391
  18   2.0000      -0.689395       -18.7594
  19   2.0000      -0.671804       -18.2807
  20   2.0000      -0.634615       -17.2688
  21   2.0000      -0.617149       -16.7935
  22   2.0000      -0.606943       -16.5158
  23   2.0000      -0.590245       -16.0614
  24   2.0000      -0.568359       -15.4658
  25   2.0000      -0.563327       -15.3289
  26   2.0000      -0.555452       -15.1146
  27   2.0000      -0.522378       -14.2146
  28   2.0000      -0.509913       -13.8755
  29   2.0000      -0.502475       -13.6730
  30   2.0000      -0.485622       -13.2144
  31   2.0000      -0.478774       -13.0281
  32   2.0000      -0.420709       -11.4481
  33   2.0000      -0.392043       -10.6680
  34   0.0000       0.115902         3.1538
  35   0.0000       0.137537         3.7426
  36   0.0000       0.154716         4.2100
  37   0.0000       0.166395         4.5278
  38   0.0000       0.173097         4.7102

MULLIKEN ATOMIC CHARGES
-----------------------
   0 C :   -0.395752
   1 C :   -0.233873
   2 C :   -0.029245
   3 C :    0.125925
   4 O :   -0.250767
   5 C :   -0.030796
   6 O :   -0.315852
   7 C :    0.187650
   8 C :   -0.415492
   9 H :    0.150977
  10 H :    0.118409
  11 H :    0.133827
  12 H :    0.136532
  13 H :    0.112117
  14 H :    0.116941
  15 H :    0.149137
  16 H :    0.147543
  17 H :    0.141695
  18 H :    0.151024
Sum of atomic charges:   -0.0000000

LOEWDIN ATOMIC CHARGES
----------------------
   0 C :   -0.312018
   1 C :   -0.267983
   2 C :   -0.165480
   3 C :   -0.269567
   4 O :    0.171589
   5 C :   -0.177572
   6 O :    0.202311
   7 C :   -0.279817
   8 C :   -0.265654
   9 H :    0.127747
  10 H :    0.120617
  11 H :    0.121548
  12 H :    0.145141
  13 H :    0.137760
  14 H :    0.165517
  15 H :    0.135713
  16 H :    0.135850
  17 H :    0.135797
  18 H :    0.138500

  Mayer bond orders larger than 0.1
B(  0-C ,  1-C ) :   0.9170 B(  0-C ,  9-H ) :   0.9366 B(  0-C , 10-H ) :   0.9364
B(  0-C , 11-H ) :   0.9396 B(  1-C ,  2-C ) :   0.8781 B(  1-C , 12-H ) :   0.9340
B(  1-C , 13-H ) :   0.9326 B(  2-C ,  3-C ) :   0.8781 B(  2-C ,  7-C ) :   0.9092
B(  2-C , 14-H ) :   0.8897 B(  3-C ,  4-O ) :   2.0133 B(  3-C ,  5-C ) :   0.8640
B(  5-C ,  6-O ) :   0.8697 B(  5-C ,  7-C ) :   0.8809 B(  5-C , 15-H ) :   0.9180
B(  6-O ,  7-C ) :   0.8957 B(  7-C ,  8-C ) :   0.8766 B(  8-C , 16-H ) :   0.9352
B(  8-C , 17-H ) :   0.9351 B(  8-C , 18-H ) :   0.9355

MP2 TOTAL ENERGY:     -422.298516968 Eh
FINAL SINGLE POINT ENERGY      -422.298516968038

DIPOLE MOMENT
-------------
                                X             Y             Z
Electronic contribution:      8.08143      -3.08856      -0.12157
Nuclear contribution   :     -8.97266       2.66113      -0.64424
                        -----------------------------------------
Total Dipole Moment    :     -0.89123      -0.42743      -0.76581
                        -----------------------------------------
Magnitude (a.u.)       :      1.25039
Magnitude (Debye)      :      3.17823

                             ****ORCA TERMINATED NORMALLY****
TOTAL RUN TIME: 0 days 0 hours 18 minutes 31 seconds 714 msec
