                         Program Version 3.0.3 - RELEASE   -
|  1> ! RI-MP2 RIJK def2-TZVP def2-TZVP/C def2-TZVP/JK TIGHTSCF
|  2> % maxcore 2000
|  3> % mp2 density relaxed end
|  4> *xyz 0 1
|  5>  C        0.0164797033     1.5873254186    -0.0529791298
|  6>  C        0.0131621072     0.0551771343    -0.0089433603
|  7>  N        0.6390923932    -0.4718923558    -1.2173114045
|  8>  C        0.7950250462    -1.9196377936    -1.2002200721
|  9>  C        1.6679244475    -2.3476936124    -0.0257817360
| 10>  O        2.3586688395    -3.3456639354    -0.0761612826
| 11>  C        1.5518904621    -1.5278272933     1.2068212935
| 12>  C        2.3188648447    -2.0006258068     2.4093273137
| 13>  C        0.7406150709    -0.4593810124     1.2036946806
| 14>  H        1.0416243216     1.9624797006    -0.1130594774
| 15>  H       -0.5330342311     1.9467196198    -0.9294447462
| 16>  H       -0.4642013118     2.0037890383     0.8373378953
| 17>  H       -1.0450409396    -0.2750810542     0.0876619718
| 18>  H        0.1102625995    -0.1840568893    -2.0335439304
| 19>  H       -0.1626884315    -2.4728180366    -1.1064846919
| 20>  H        1.2749928680    -2.2575252908    -2.1218638262
| 21>  H        3.3944932405    -2.0004361627     2.2039445166
| 22>  H        2.1276102086    -1.3648035376     3.2774094201
| 23>  H        2.0568333613    -3.0339315019     2.6582153157
| 24>  H        0.5800162601     0.0986478213     2.1246023100
| 25> *
| 26>
| 27>                          ****END OF INPUT****

CARTESIAN COORDINATES (ANGSTROEM)
---------------------------------
  C      0.016480    1.587325   -0.052979
  C      0.013162    0.055177   -0.008943
  N      0.639092   -0.471892   -1.217311
  C      0.795025   -1.919638   -1.200220
  C      1.667924   -2.347694   -0.025782
  O      2.358669   -3.345664   -0.076161
  C      1.551890   -1.527827    1.206821
  C      2.318865   -2.000626    2.409327
  C      0.740615   -0.459381    1.203695
  H      1.041624    1.962480   -0.113059
  H     -0.533034    1.946720   -0.929445
  H     -0.464201    2.003789    0.837338
  H     -1.045041   -0.275081    0.087662
  H      0.110263   -0.184057   -2.033544
  H     -0.162688   -2.472818   -1.106485
  H      1.274993   -2.257525   -2.121864
  H      3.394493   -2.000436    2.203945
  H      2.127610   -1.364804    3.277409
  H      2.056833   -3.033932    2.658215
  H      0.580016    0.098648    2.124602

 Total Charge           Charge          ....    0
 Multiplicity           Mult            ....    1
 Number of Electrons    NEL             ....   68
 Basis Dimension        Dim             ....  345

ORBITAL ENERGIES
----------------

  NO   OCC          E(Eh)            E(eV)
   0   2.0000     -20.538099      -558.8701
   1   2.0000     -15.558951      -423.3806
   2   2.0000     -11.323876      -308.1383
   3   2.0000     -11.277517      -306.8769
   4   2.0000     -11.263823      -306.5042
   5   2.0000     -11.253236      -306.2161
   6   2.0000     -11.242647      -305.9280
   7   2.0000     -11.229029      -305.5574
   8   2.0000     -11.220195      -305.3170
   9   2.0000      -1.380774       -37.5728
  10   2.0000      -1.236882       -33.6573
  11   2.0000      -1.095986       -29.8233
  12   2.0000      -1.043895       -28.4058
  13   2.0000      -0.958435       -26.0803
  14   2.0000      -0.931880       -25.3577
  15   2.0000      -0.844290       -22.9743
  16   2.0000      -0.817126       -22.2351
  17   2.0000      -0.694718       -18.9042
  18   2.0000      -0.686794       -18.6886
  19   2.0000      -0.669529       -18.2188
  20   2.0000      -0.624072       -16.9819
  21   2.0000      -0.619714       -16.8633
  22   2.0000      -0.599848       -16.3227
  23   2.0000      -0.582035       -15.8380
  24   2.0000      -0.569363       -15.4932
  25   2.0000      -0.563297       -15.3281
  26   2.0000      -0.539918       -14.6919
  27   2.0000      -0.531815       -14.4714
  28   2.0000      -0.509963       -13.8768
  29   2.0000      -0.499882       -13.6025
  30   2.0000      -0.490157       -13.3379
  31   2.0000      -0.416539       -11.3346
  32   2.0000      -0.383351       -10.4315
  33   2.0000      -0.361917        -9.8483
  34   0.0000       0.095407         2.5962
  35   0.0000       0.124034         3.3751
  36   0.0000       0.151233         4.1153
  37   0.0000       0.156322         4.2537
  38   0.0000       0.174880         4.7587

MULLIKEN ATOMIC CHARGES
-----------------------
   0 C :   -0.399498
   1 C :    0.083615
   2 N :   -0.354535
   3 C :   -0.130967
   4 C :    0.184610
   5 O :   -0.294507
   6 C :   -0.036095
   7 C :   -0.387570
   8 C :   -0.152623
   9 H :    0.139405
  10 H :    0.128599
  11 H :    0.127676
  12 H :    0.085838
  13 H :    0.205109
  14 H :    0.108054
  15 H :    0.139729
  16 H :    0.147057
  17 H :    0.129685
  18 H :    0.145445
  19 H :    0.130969
Sum of atomic charges:   -0.0000000

LOEWDIN ATOMIC CHARGES
----------------------
   0 C :   -0.287277
   1 C :   -0.320899
   2 N :    0.009130
   3 C :   -0.265337
   4 C :   -0.292499
   5 O :    0.148792
   6 C :   -0.166361
   7 C :   -0.262087
   8 C :   -0.084138
   9 H :    0.128988
  10 H :    0.122774
  11 H :    0.124907
  12 H :    0.144722
  13 H :    0.172145
  14 H :    0.131958
  15 H :    0.143279
  16 H :    0.137677
  17 H :    0.127079
  18 H :    0.136185
  19 H :    0.150962

  Mayer bond orders larger than 0.1
B(  0-C ,  1-C ) :   0.8881 B(  0-C ,  9-H ) :   0.9349 B(  0-C , 10-H ) :   0.9377
B(  0-C , 11-H ) :   0.9362 B(  1-C ,  2-N ) :   0.9721 B(  1-C ,  8-C ) :   0.9124
B(  1-C , 12-H ) :   0.9251 B(  2-N ,  3-C ) :   0.9351 B(  2-N , 13-H ) :   0.8783
B(  3-C ,  4-C ) :   0.9488 B(  3-C , 14-H ) :   0.9090 B(  3-C , 15-H ) :   0.9152
B(  4-C ,  5-O ) :   2.0127 B(  4-C ,  6-C ) :   0.9562 B(  6-C ,  7-C ) :   0.9008
B(  6-C ,  8-C ) :   1.6720 B(  7-C , 16-H ) :   0.9237 B(  7-C , 17-H ) :   0.9495
B(  7-C , 18-H ) :   0.9203 B(  8-C , 19-H ) :   0.9151

MP2 TOTAL ENERGY:     -402.482814081 Eh
FINAL SINGLE POINT ENERGY      -402.482814080834

DIPOLE MOMENT
-------------
                                X             Y             Z
Electronic contribution:      2.66882      -5.77942      -2.07430
Nuclear contribution   :     -3.70225       6.70913       2.17299
                        -----------------------------------------
Total Dipole Moment    :     -1.03343       0.92971       0.09869
                        -----------------------------------------
Magnitude (a.u.)       :      1.39359
Magnitude (Debye)      :      3.54222

                             ****ORCA TERMINATED NORMALLY****
TOTAL RUN TIME: 0 days 0 hours 20 minutes 0 seconds 335 msec
