                         Program Version 3.0.3 - RELEASE   -
|  1> ! RI-MP2 RIJK def2-TZVP def2-TZVP/C def2-TZVP/JK TIGHTSCF
|  2> % maxcore 2000
|  3> % mp2 density relaxed end
|  4> *xyz 0 1
|  5>  O       -1.0009384181     1.3925752348     0.0467327704
|  6>  C        0.1124843163     0.9706860206     0.2558373983
|  7>  C        1.3440308026     1.7502540570    -0.0052192080
|  8>  C        1.2415584701     3.2923271446    -0.0827578863
|  9>  C        1.5738752852     2.5497122246    -1.3067044306
| 10>  O        2.9120282373     2.4536198888    -1.7004775821
| 11>  C        3.6834310870     1.8564261043    -0.6645863814
| 12>  C        2.6938664950     1.2071295511     0.3170817679
| 13>  O        2.9658249708     0.3688447077     1.1388446194
| 14>  H        0.2889643077    -0.0477900850     0.6555102057
| 15>  H        0.2181987849     3.6354027797     0.0271211585
| 16>  H        2.0054339168     3.8757883220     0.4185902058
| 17>  H        0.8752124052     2.4724990049    -2.1312792944
| 18>  H        4.3481738259     1.1034295237    -1.0972294079
| 19>  H        4.3021764534     2.5986570312    -0.1404837854
| 20> *
| 21>
| 22>                          ****END OF INPUT****

CARTESIAN COORDINATES (ANGSTROEM)
---------------------------------
  O     -1.000938    1.392575    0.046733
  C      0.112484    0.970686    0.255837
  C      1.344031    1.750254   -0.005219
  C      1.241558    3.292327   -0.082758
  C      1.573875    2.549712   -1.306704
  O      2.912028    2.453620   -1.700478
  C      3.683431    1.856426   -0.664586
  C      2.693866    1.207130    0.317082
  O      2.965825    0.368845    1.138845
  H      0.288964   -0.047790    0.655510
  H      0.218199    3.635403    0.027121
  H      2.005434    3.875788    0.418590
  H      0.875212    2.472499   -2.131279
  H      4.348174    1.103430   -1.097229
  H      4.302176    2.598657   -0.140484

 Total Charge           Charge          ....    0
 Multiplicity           Mult            ....    1
 Number of Electrons    NEL             ....   66
 Basis Dimension        Dim             ....  315

ORBITAL ENERGIES
----------------

  NO   OCC          E(Eh)            E(eV)
   0   2.0000     -20.599307      -560.5356
   1   2.0000     -20.571662      -559.7834
   2   2.0000     -20.566707      -559.6485
   3   2.0000     -11.360442      -309.1333
   4   2.0000     -11.349341      -308.8313
   5   2.0000     -11.334260      -308.4209
   6   2.0000     -11.314063      -307.8713
   7   2.0000     -11.276099      -306.8383
   8   2.0000     -11.274782      -306.8024
   9   2.0000      -1.436945       -39.1013
  10   2.0000      -1.410901       -38.3926
  11   2.0000      -1.406030       -38.2600
  12   2.0000      -1.181369       -32.1467
  13   2.0000      -1.029874       -28.0243
  14   2.0000      -0.950043       -25.8520
  15   2.0000      -0.875109       -23.8129
  16   2.0000      -0.824012       -22.4225
  17   2.0000      -0.767313       -20.8796
  18   2.0000      -0.730872       -19.8880
  19   2.0000      -0.690123       -18.7792
  20   2.0000      -0.683333       -18.5944
  21   2.0000      -0.668115       -18.1803
  22   2.0000      -0.635047       -17.2805
  23   2.0000      -0.627822       -17.0839
  24   2.0000      -0.603422       -16.4199
  25   2.0000      -0.581110       -15.8128
  26   2.0000      -0.572384       -15.5754
  27   2.0000      -0.552599       -15.0370
  28   2.0000      -0.525338       -14.2952
  29   2.0000      -0.474134       -12.9018
  30   2.0000      -0.442687       -12.0461
  31   2.0000      -0.427909       -11.6440
  32   2.0000      -0.408666       -11.1204
  33   0.0000       0.103806         2.8247
  34   0.0000       0.117720         3.2033
  35   0.0000       0.132221         3.5979
  36   0.0000       0.161461         4.3936
  37   0.0000       0.173683         4.7261

MULLIKEN ATOMIC CHARGES
-----------------------
   0 O :   -0.287095
   1 C :    0.072326
   2 C :    0.053546
   3 C :   -0.267390
   4 C :    0.048467
   5 O :   -0.303424
   6 C :   -0.044717
   7 C :    0.113207
   8 O :   -0.269572
   9 H :    0.118261
  10 H :    0.168661
  11 H :    0.158000
  12 H :    0.158842
  13 H :    0.147652
  14 H :    0.133234
Sum of atomic charges:   -0.0000000

LOEWDIN ATOMIC CHARGES
----------------------
   0 O :    0.131471
   1 C :   -0.250718
   2 C :   -0.190066
   3 C :   -0.143119
   4 C :   -0.230171
   5 O :    0.196424
   6 C :   -0.248528
   7 C :   -0.295041
   8 O :    0.163333
   9 H :    0.128177
  10 H :    0.157050
  11 H :    0.146937
  12 H :    0.152017
  13 H :    0.143480
  14 H :    0.138754

  Mayer bond orders larger than 0.1
B(  0-O ,  1-C ) :   1.9433 B(  1-C ,  2-C ) :   0.8821 B(  1-C ,  9-H ) :   0.9515
B(  2-C ,  3-C ) :   0.7857 B(  2-C ,  4-C ) :   0.7876 B(  2-C ,  7-C ) :   0.8871
B(  3-C ,  4-C ) :   0.9385 B(  3-C , 10-H ) :   0.9036 B(  3-C , 11-H ) :   0.9032
B(  4-C ,  5-O ) :   0.9817 B(  4-C , 12-H ) :   0.9188 B(  5-O ,  6-C ) :   0.9198
B(  6-C ,  7-C ) :   0.9437 B(  6-C , 13-H ) :   0.9097 B(  6-C , 14-H ) :   0.9067
B(  7-C ,  8-O ) :   2.0096

MP2 TOTAL ENERGY:     -457.027674965 Eh
FINAL SINGLE POINT ENERGY      -457.027674965255

DIPOLE MOMENT
-------------
                                X             Y             Z
Electronic contribution:     -1.00097      -2.33981       0.60111
Nuclear contribution   :      1.55568       2.92258      -0.85860
                        -----------------------------------------
Total Dipole Moment    :      0.55472       0.58277      -0.25749
                        -----------------------------------------
Magnitude (a.u.)       :      0.84477
Magnitude (Debye)      :      2.14723

                             ****ORCA TERMINATED NORMALLY****
TOTAL RUN TIME: 0 days 0 hours 16 minutes 14 seconds 978 msec
