                         Program Version 3.0.3 - RELEASE   -
|  1> ! RI-MP2 RIJK def2-TZVP def2-TZVP/C def2-TZVP/JK TIGHTSCF
|  2> % maxcore 2000
|  3> % mp2 density relaxed end
|  4> *xyz 0 1
|  5>  C       -0.0768581021     1.5763380468     0.0480896606
|  6>  C        0.0164544608     0.0611739386     0.0052686610
|  7>  C        0.7341020630    -0.5938413276    -1.2204244968
|  8>  C        1.7485775368    -1.1405518889    -0.2049481877
|  9>  O        2.7335960020    -1.8366962865    -0.2153033359
| 10>  N        1.0864511905    -0.5227285041     0.8417871049
| 11>  C        1.2548431937    -0.5265943584     2.2380337695
| 12>  N        2.3670035435    -1.2033996515     2.6231520720
| 13>  O        0.4662155763     0.0371443335     2.9684416673
| 14>  H        0.8850755005     2.0346037356    -0.2041833660
| 15>  H       -0.8265670609     1.9283980456    -0.6674924774
| 16>  H       -0.3656747105     1.9046653616     1.0490633568
| 17>  H       -0.9520262902    -0.3948853944     0.2305453751
| 18>  H        0.1720157321    -1.3640111572    -1.7513395165
| 19>  H        1.1583187611     0.1112836946    -1.9383076563
| 20>  H        2.9253289481    -1.7007032331     1.9432854888
| 21>  H        2.5306224853    -1.3108050448     3.6086440906
| 22> *
| 23>
| 24>                          ****END OF INPUT****

CARTESIAN COORDINATES (ANGSTROEM)
---------------------------------
  C     -0.076858    1.576338    0.048090
  C      0.016454    0.061174    0.005269
  C      0.734102   -0.593841   -1.220424
  C      1.748578   -1.140552   -0.204948
  O      2.733596   -1.836696   -0.215303
  N      1.086451   -0.522729    0.841787
  C      1.254843   -0.526594    2.238034
  N      2.367004   -1.203400    2.623152
  O      0.466216    0.037144    2.968442
  H      0.885076    2.034604   -0.204183
  H     -0.826567    1.928398   -0.667492
  H     -0.365675    1.904665    1.049063
  H     -0.952026   -0.394885    0.230545
  H      0.172016   -1.364011   -1.751340
  H      1.158319    0.111284   -1.938308
  H      2.925329   -1.700703    1.943285
  H      2.530622   -1.310805    3.608644

 Total Charge           Charge          ....    0
 Multiplicity           Mult            ....    1
 Number of Electrons    NEL             ....   68
 Basis Dimension        Dim             ....  327

ORBITAL ENERGIES
----------------

  NO   OCC          E(Eh)            E(eV)
   0   2.0000     -20.556141      -559.3610
   1   2.0000     -20.524726      -558.5062
   2   2.0000     -15.610474      -424.7826
   3   2.0000     -15.584229      -424.0684
   4   2.0000     -11.392941      -310.0177
   5   2.0000     -11.378659      -309.6291
   6   2.0000     -11.298717      -307.4537
   7   2.0000     -11.264506      -306.5228
   8   2.0000     -11.231326      -305.6199
   9   2.0000      -1.424277       -38.7565
  10   2.0000      -1.398532       -38.0560
  11   2.0000      -1.294019       -35.2120
  12   2.0000      -1.219223       -33.1767
  13   2.0000      -1.058647       -28.8073
  14   2.0000      -1.002081       -27.2680
  15   2.0000      -0.870844       -23.6969
  16   2.0000      -0.853440       -23.2233
  17   2.0000      -0.767606       -20.8876
  18   2.0000      -0.726967       -19.7818
  19   2.0000      -0.704204       -19.1624
  20   2.0000      -0.678597       -18.4656
  21   2.0000      -0.663422       -18.0526
  22   2.0000      -0.634002       -17.2521
  23   2.0000      -0.608748       -16.5649
  24   2.0000      -0.597932       -16.2706
  25   2.0000      -0.585336       -15.9278
  26   2.0000      -0.548058       -14.9134
  27   2.0000      -0.540743       -14.7144
  28   2.0000      -0.530704       -14.4412
  29   2.0000      -0.510703       -13.8969
  30   2.0000      -0.463171       -12.6035
  31   2.0000      -0.436086       -11.8665
  32   2.0000      -0.425438       -11.5768
  33   2.0000      -0.415794       -11.3143
  34   0.0000       0.126571         3.4442
  35   0.0000       0.133928         3.6444
  36   0.0000       0.152658         4.1540
  37   0.0000       0.164329         4.4716
  38   0.0000       0.167758         4.5649

MULLIKEN ATOMIC CHARGES
-----------------------
   0 C :   -0.410316
   1 C :    0.008732
   2 C :   -0.225356
   3 C :    0.206460
   4 O :   -0.348309
   5 N :   -0.083942
   6 C :    0.331233
   7 N :   -0.498178
   8 O :   -0.370247
   9 H :    0.124360
  10 H :    0.135051
  11 H :    0.169454
  12 H :    0.119230
  13 H :    0.146066
  14 H :    0.144284
  15 H :    0.287118
  16 H :    0.264358
Sum of atomic charges:   -0.0000000

LOEWDIN ATOMIC CHARGES
----------------------
   0 C :   -0.289635
   1 C :   -0.225470
   2 C :   -0.175076
   3 C :   -0.392231
   4 O :    0.100885
   5 N :    0.256842
   6 C :   -0.531245
   7 N :   -0.006275
   8 O :    0.074533
   9 H :    0.127173
  10 H :    0.129395
  11 H :    0.136216
  12 H :    0.147313
  13 H :    0.144688
  14 H :    0.146880
  15 H :    0.178049
  16 H :    0.177958

  Mayer bond orders larger than 0.1
B(  0-C ,  1-C ) :   0.9197 B(  0-C ,  9-H ) :   0.9287 B(  0-C , 10-H ) :   0.9310
B(  0-C , 11-H ) :   0.9312 B(  1-C ,  2-C ) :   0.9047 B(  1-C ,  5-N ) :   0.8693
B(  1-C , 12-H ) :   0.9252 B(  2-C ,  3-C ) :   0.9452 B(  2-C , 13-H ) :   0.9081
B(  2-C , 14-H ) :   0.9049 B(  3-C ,  4-O ) :   1.9056 B(  3-C ,  5-N ) :   1.0709
B(  5-N ,  6-C ) :   0.9664 B(  6-C ,  7-N ) :   1.2056 B(  6-C ,  8-O ) :   1.9540
B(  7-N , 15-H ) :   0.8329 B(  7-N , 16-H ) :   0.8619

MP2 TOTAL ENERGY:     -454.486498434 Eh
FINAL SINGLE POINT ENERGY      -454.486498434081

DIPOLE MOMENT
-------------
                                X             Y             Z
Electronic contribution:      3.35254      -4.52362       3.39723
Nuclear contribution   :     -3.54118       4.58648      -4.01005
                        -----------------------------------------
Total Dipole Moment    :     -0.18864       0.06286      -0.61282
                        -----------------------------------------
Magnitude (a.u.)       :      0.64428
Magnitude (Debye)      :      1.63762

                             ****ORCA TERMINATED NORMALLY****
TOTAL RUN TIME: 0 days 0 hours 15 minutes 55 seconds 14 msec
