                         Program Version 3.0.3 - RELEASE   -
|  1> ! RI-MP2 RIJK def2-TZVP def2-TZVP/C def2-TZVP/JK TIGHTSCF
|  2> % maxcore 2000
|  3> % mp2 density relaxed end
|  4> *xyz 0 1
|  5>  O        0.1841668708     1.3897580330     0.1947115069
|  6>  C        0.1382494959    -0.0104658295     0.1065503523
|  7>  C       -1.2668254979    -0.6618744095     0.2127785305
|  8>  C       -2.4557789243     0.2899937211     0.2507556042
|  9>  C       -3.7313453038    -0.4009165038     0.1148608732
| 10>  C       -4.7737566030    -0.9884371418     0.0092391288
| 11>  O       -1.0713883086    -1.2616617097    -1.1197255344
| 12>  C        0.1215755828    -0.6030687539    -1.2887456733
| 13>  N        0.8846103659    -0.4807383404    -2.2756492300
| 14>  H        0.7208995753     1.7048243461    -0.5419400081
| 15>  H        0.8764401785    -0.4785740502     0.7701395523
| 16>  H       -1.3628371045    -1.4546139916     0.9575320058
| 17>  H       -2.4171496768     0.8349128392     1.2026838146
| 18>  H       -2.3343972210     1.0436043006    -0.5340205912
| 19>  H       -5.7001340241    -1.4976867552    -0.0900730469
| 20>  H        0.5336603849    -0.9751520643    -3.0974333447
| 21> *
| 22>
| 23>                          ****END OF INPUT****

CARTESIAN COORDINATES (ANGSTROEM)
---------------------------------
  O      0.184167    1.389758    0.194712
  C      0.138249   -0.010466    0.106550
  C     -1.266825   -0.661874    0.212779
  C     -2.455779    0.289994    0.250756
  C     -3.731345   -0.400917    0.114861
  C     -4.773757   -0.988437    0.009239
  O     -1.071388   -1.261662   -1.119726
  C      0.121576   -0.603069   -1.288746
  N      0.884610   -0.480738   -2.275649
  H      0.720900    1.704824   -0.541940
  H      0.876440   -0.478574    0.770140
  H     -1.362837   -1.454614    0.957532
  H     -2.417150    0.834913    1.202684
  H     -2.334397    1.043604   -0.534021
  H     -5.700134   -1.497687   -0.090073
  H      0.533660   -0.975152   -3.097433

 Total Charge           Charge          ....    0
 Multiplicity           Mult            ....    1
 Number of Electrons    NEL             ....   66
 Basis Dimension        Dim             ....  321

ORBITAL ENERGIES
----------------

  NO   OCC          E(Eh)            E(eV)
   0   2.0000     -20.603818      -560.6584
   1   2.0000     -20.586986      -560.2004
   2   2.0000     -15.553981      -423.2454
   3   2.0000     -11.351246      -308.8831
   4   2.0000     -11.320467      -308.0456
   5   2.0000     -11.317583      -307.9671
   6   2.0000     -11.268209      -306.6236
   7   2.0000     -11.240516      -305.8700
   8   2.0000     -11.227909      -305.5269
   9   2.0000      -1.451711       -39.5031
  10   2.0000      -1.391118       -37.8542
  11   2.0000      -1.212415       -32.9915
  12   2.0000      -1.094988       -29.7961
  13   2.0000      -1.028478       -27.9863
  14   2.0000      -0.979663       -26.6580
  15   2.0000      -0.867474       -23.6052
  16   2.0000      -0.782722       -21.2989
  17   2.0000      -0.746632       -20.3169
  18   2.0000      -0.718806       -19.5597
  19   2.0000      -0.710507       -19.3339
  20   2.0000      -0.700090       -19.0504
  21   2.0000      -0.639832       -17.4107
  22   2.0000      -0.634692       -17.2709
  23   2.0000      -0.618729       -16.8365
  24   2.0000      -0.579627       -15.7725
  25   2.0000      -0.560628       -15.2555
  26   2.0000      -0.543692       -14.7946
  27   2.0000      -0.507865       -13.8197
  28   2.0000      -0.475740       -12.9455
  29   2.0000      -0.446924       -12.1614
  30   2.0000      -0.421756       -11.4766
  31   2.0000      -0.393410       -10.7052
  32   2.0000      -0.391908       -10.6644
  33   0.0000       0.126277         3.4362
  34   0.0000       0.152903         4.1607
  35   0.0000       0.158722         4.3190
  36   0.0000       0.162244         4.4149
  37   0.0000       0.166224         4.5232

MULLIKEN ATOMIC CHARGES
-----------------------
   0 O :   -0.483334
   1 C :    0.108538
   2 C :    0.108103
   3 C :   -0.402297
   4 C :   -0.014225
   5 C :   -0.108073
   6 O :   -0.255127
   7 C :    0.083678
   8 N :   -0.377976
   9 H :    0.344244
  10 H :    0.123023
  11 H :    0.124943
  12 H :    0.158001
  13 H :    0.160522
  14 H :    0.193613
  15 H :    0.236366
Sum of atomic charges:    0.0000000

LOEWDIN ATOMIC CHARGES
----------------------
   0 O :    0.000530
   1 C :   -0.274121
   2 C :   -0.204902
   3 C :   -0.227631
   4 C :   -0.108731
   5 C :   -0.095779
   6 O :    0.243884
   7 C :   -0.404282
   8 N :   -0.051570
   9 H :    0.192160
  10 H :    0.144655
  11 H :    0.145267
  12 H :    0.170587
  13 H :    0.166188
  14 H :    0.127449
  15 H :    0.176296

  Mayer bond orders larger than 0.1
B(  0-O ,  1-C ) :   1.0293 B(  0-O ,  9-H ) :   0.8231 B(  1-C ,  2-C ) :   0.8911
B(  1-C ,  7-C ) :   0.9053 B(  1-C , 10-H ) :   0.9357 B(  2-C ,  3-C ) :   0.9243
B(  2-C ,  6-O ) :   0.8792 B(  2-C , 11-H ) :   0.9161 B(  3-C ,  4-C ) :   1.1031
B(  3-C ,  5-C ) :  -0.1149 B(  3-C , 12-H ) :   0.9226 B(  3-C , 13-H ) :   0.9218
B(  4-C ,  5-C ) :   2.6164 B(  5-C , 14-H ) :   0.8936 B(  6-O ,  7-C ) :   1.0857
B(  7-C ,  8-N ) :   2.0616 B(  8-N , 15-H ) :   0.8471

MP2 TOTAL ENERGY:     -437.113465896 Eh
FINAL SINGLE POINT ENERGY      -437.113465895510

DIPOLE MOMENT
-------------
                                X             Y             Z
Electronic contribution:      0.76308      -1.10544      -1.32403
Nuclear contribution   :     -0.89811       1.02338       1.63358
                        -----------------------------------------
Total Dipole Moment    :     -0.13503      -0.08206       0.30955
                        -----------------------------------------
Magnitude (a.u.)       :      0.34754
Magnitude (Debye)      :      0.88338

                             ****ORCA TERMINATED NORMALLY****
TOTAL RUN TIME: 0 days 0 hours 14 minutes 3 seconds 266 msec
