                         Program Version 3.0.3 - RELEASE   -
|  1> ! RI-MP2 RIJK def2-TZVP def2-TZVP/C def2-TZVP/JK TIGHTSCF
|  2> % maxcore 2000
|  3> % mp2 density relaxed end
|  4> *xyz 0 1
|  5>  C       -0.3233320190    -1.2293444543    -0.7080699470
|  6>  C       -0.1876322670    -0.1119162591    -0.2887773518
|  7>  C        0.0108248634     1.2578001702     0.1985812750
|  8>  N       -0.5447165815     1.3900255843     1.5503820323
|  9>  C        0.1189188532     1.9766777683     2.4509896393
| 10>  O        1.3607564276     2.5157235048     2.4193008116
| 11>  C        2.1001530588     2.3701350054     1.2279822074
| 12>  C        2.5572464164     0.9991065380     0.8199712113
| 13>  C        1.4655362708     1.7034393094     0.0451491733
| 14>  H       -0.4567647046    -2.2174383083    -1.0735102780
| 15>  H       -0.5950299281     1.9214831627    -0.4347621628
| 16>  H       -0.3056504925     2.1094778763     3.4440393133
| 17>  H        2.7526400549     3.2249756021     1.0973516970
| 18>  H        3.5353767438     0.8949886969     0.3647858113
| 19>  H        2.2584561556     0.1704484083     1.4536869370
| 20>  H        1.7192618682     2.0857033148    -0.9379523591
| 21> *
| 22>
| 23>                          ****END OF INPUT****

CARTESIAN COORDINATES (ANGSTROEM)
---------------------------------
  C     -0.323332   -1.229344   -0.708070
  C     -0.187632   -0.111916   -0.288777
  C      0.010825    1.257800    0.198581
  N     -0.544717    1.390026    1.550382
  C      0.118919    1.976678    2.450990
  O      1.360756    2.515724    2.419301
  C      2.100153    2.370135    1.227982
  C      2.557246    0.999107    0.819971
  C      1.465536    1.703439    0.045149
  H     -0.456765   -2.217438   -1.073510
  H     -0.595030    1.921483   -0.434762
  H     -0.305650    2.109478    3.444039
  H      2.752640    3.224976    1.097352
  H      3.535377    0.894989    0.364786
  H      2.258456    0.170448    1.453687
  H      1.719262    2.085703   -0.937952

 Total Charge           Charge          ....    0
 Multiplicity           Mult            ....    1
 Number of Electrons    NEL             ....   64
 Basis Dimension        Dim             ....  321

ORBITAL ENERGIES
----------------

  NO   OCC          E(Eh)            E(eV)
   0   2.0000     -20.608205      -560.7778
   1   2.0000     -15.554812      -423.2679
   2   2.0000     -11.341152      -308.6084
   3   2.0000     -11.306348      -307.6614
   4   2.0000     -11.298729      -307.4540
   5   2.0000     -11.253924      -306.2348
   6   2.0000     -11.239911      -305.8535
   7   2.0000     -11.231516      -305.6251
   8   2.0000     -11.221592      -305.3550
   9   2.0000      -1.443424       -39.2776
  10   2.0000      -1.231603       -33.5136
  11   2.0000      -1.164006       -31.6742
  12   2.0000      -1.047954       -28.5163
  13   2.0000      -0.966583       -26.3021
  14   2.0000      -0.909439       -24.7471
  15   2.0000      -0.837738       -22.7960
  16   2.0000      -0.759195       -20.6588
  17   2.0000      -0.722365       -19.6565
  18   2.0000      -0.715712       -19.4755
  19   2.0000      -0.692024       -18.8309
  20   2.0000      -0.664328       -18.0773
  21   2.0000      -0.637042       -17.3348
  22   2.0000      -0.618586       -16.8326
  23   2.0000      -0.597056       -16.2467
  24   2.0000      -0.562100       -15.2955
  25   2.0000      -0.544044       -14.8042
  26   2.0000      -0.451204       -12.2779
  27   2.0000      -0.436869       -11.8878
  28   2.0000      -0.425100       -11.5676
  29   2.0000      -0.393950       -10.7199
  30   2.0000      -0.390493       -10.6259
  31   2.0000      -0.382948       -10.4205
  32   0.0000       0.131634         3.5819
  33   0.0000       0.157840         4.2950
  34   0.0000       0.164929         4.4879
  35   0.0000       0.171370         4.6632
  36   0.0000       0.176981         4.8159

MULLIKEN ATOMIC CHARGES
-----------------------
   0 C :   -0.138642
   1 C :   -0.003996
   2 C :   -0.094910
   3 N :   -0.263283
   4 C :    0.092976
   5 O :   -0.250721
   6 C :    0.048800
   7 C :   -0.293199
   8 C :   -0.126257
   9 H :    0.190918
  10 H :    0.127424
  11 H :    0.139979
  12 H :    0.135869
  13 H :    0.139983
  14 H :    0.158687
  15 H :    0.136373
Sum of atomic charges:    0.0000000

LOEWDIN ATOMIC CHARGES
----------------------
   0 C :   -0.090514
   1 C :   -0.074215
   2 C :   -0.259084
   3 N :    0.106949
   4 C :   -0.347177
   5 O :    0.261508
   6 C :   -0.253616
   7 C :   -0.190778
   8 C :   -0.177479
   9 H :    0.127238
  10 H :    0.176484
  11 H :    0.136845
  12 H :    0.142956
  13 H :    0.137502
  14 H :    0.148975
  15 H :    0.154406

  Mayer bond orders larger than 0.1
B(  0-C ,  1-C ) :   2.5844 B(  0-C ,  9-H ) :   0.8990 B(  1-C ,  2-C ) :   1.1405
B(  2-C ,  3-N ) :   0.9858 B(  2-C ,  8-C ) :   0.9372 B(  2-C , 10-H ) :   0.9055
B(  3-N ,  4-C ) :   1.8268 B(  4-C ,  5-O ) :   1.0619 B(  4-C , 11-H ) :   0.9250
B(  5-O ,  6-C ) :   0.8932 B(  6-C ,  7-C ) :   0.8848 B(  6-C ,  8-C ) :   0.9014
B(  6-C , 12-H ) :   0.9425 B(  7-C ,  8-C ) :   0.8682 B(  7-C , 13-H ) :   0.9223
B(  7-C , 14-H ) :   0.9149 B(  8-C , 15-H ) :   0.9152

MP2 TOTAL ENERGY:     -399.995788332 Eh
FINAL SINGLE POINT ENERGY      -399.995788332186

DIPOLE MOMENT
-------------
                                X             Y             Z
Electronic contribution:     -2.59237       0.77812       1.82226
Nuclear contribution   :      3.36714      -0.51808      -2.23092
                        -----------------------------------------
Total Dipole Moment    :      0.77477       0.26004      -0.40865
                        -----------------------------------------
Magnitude (a.u.)       :      0.91372
Magnitude (Debye)      :      2.32249

                             ****ORCA TERMINATED NORMALLY****
TOTAL RUN TIME: 0 days 0 hours 17 minutes 34 seconds 112 msec
