                         Program Version 3.0.3 - RELEASE   -
|  1> ! RI-MP2 RIJK def2-TZVP def2-TZVP/C def2-TZVP/JK TIGHTSCF
|  2> % maxcore 2000
|  3> % mp2 density relaxed end
|  4> *xyz 0 1
|  5>  C        0.1196844804     1.4812195420     0.0047320487
|  6>  C        0.1930172867    -0.0558803251    -0.1065241078
|  7>  C        0.8113411610    -0.4869320604    -1.4377138513
|  8>  C        0.9583065571    -0.6290874094     1.0797139827
|  9>  N        2.1536002302    -1.0350389843     0.9719616098
| 10>  N        0.1912555492    -0.6170067764     2.2721301917
| 11>  C        0.5940700145    -1.0156939896     3.5320944603
| 12>  C       -0.4836870160    -0.8767649224     4.5953860918
| 13>  O        1.7065179158    -1.4407057835     3.7748173763
| 14>  H        1.1240088222     1.9122583227    -0.0535839817
| 15>  H       -0.4786838514     1.8955643930    -0.8122185037
| 16>  H       -0.3291012528     1.8083026552     0.9485065178
| 17>  H       -0.8345949188    -0.4472797574    -0.0558971718
| 18>  H        1.8450891370    -0.1418464579    -1.5084025896
| 19>  H        0.8240819358    -1.5753586340    -1.5335602762
| 20>  H        0.2394316855    -0.0686554119    -2.2720425941
| 21>  H        2.5074656222    -1.3551441122     1.8739636416
| 22>  H       -0.7575292802    -0.2860712479     2.1873773139
| 23>  H       -1.3587686411    -1.4864790659     4.3465029595
| 24>  H       -0.0751934038    -1.2067925327     5.5496142499
| 25>  H       -0.8147237035     0.1634210182     4.6833591523
| 26> *
| 27>
| 28>                          ****END OF INPUT****

CARTESIAN COORDINATES (ANGSTROEM)
---------------------------------
  C      0.119684    1.481220    0.004732
  C      0.193017   -0.055880   -0.106524
  C      0.811341   -0.486932   -1.437714
  C      0.958307   -0.629087    1.079714
  N      2.153600   -1.035039    0.971962
  N      0.191256   -0.617007    2.272130
  C      0.594070   -1.015694    3.532094
  C     -0.483687   -0.876765    4.595386
  O      1.706518   -1.440706    3.774817
  H      1.124009    1.912258   -0.053584
  H     -0.478684    1.895564   -0.812219
  H     -0.329101    1.808303    0.948507
  H     -0.834595   -0.447280   -0.055897
  H      1.845089   -0.141846   -1.508403
  H      0.824082   -1.575359   -1.533560
  H      0.239432   -0.068655   -2.272043
  H      2.507466   -1.355144    1.873964
  H     -0.757529   -0.286071    2.187377
  H     -1.358769   -1.486479    4.346503
  H     -0.075193   -1.206793    5.549614
  H     -0.814724    0.163421    4.683359

 Total Charge           Charge          ....    0
 Multiplicity           Mult            ....    1
 Number of Electrons    NEL             ....   70
 Basis Dimension        Dim             ....  351

ORBITAL ENERGIES
----------------

  NO   OCC          E(Eh)            E(eV)
   0   2.0000     -20.540076      -558.9239
   1   2.0000     -15.609292      -424.7504
   2   2.0000     -15.523394      -422.4130
   3   2.0000     -11.372164      -309.4523
   4   2.0000     -11.316685      -307.9427
   5   2.0000     -11.252435      -306.1943
   6   2.0000     -11.248079      -306.0758
   7   2.0000     -11.229254      -305.5635
   8   2.0000     -11.211084      -305.0691
   9   2.0000      -1.404750       -38.2252
  10   2.0000      -1.277674       -34.7673
  11   2.0000      -1.174576       -31.9618
  12   2.0000      -1.074524       -29.2393
  13   2.0000      -1.019758       -27.7490
  14   2.0000      -0.936179       -25.4747
  15   2.0000      -0.892652       -24.2903
  16   2.0000      -0.797938       -21.7130
  17   2.0000      -0.765673       -20.8350
  18   2.0000      -0.719730       -19.5848
  19   2.0000      -0.681842       -18.5539
  20   2.0000      -0.640145       -17.4192
  21   2.0000      -0.621609       -16.9148
  22   2.0000      -0.612278       -16.6609
  23   2.0000      -0.607904       -16.5419
  24   2.0000      -0.579430       -15.7671
  25   2.0000      -0.573788       -15.6136
  26   2.0000      -0.547700       -14.9037
  27   2.0000      -0.541531       -14.7358
  28   2.0000      -0.506616       -13.7857
  29   2.0000      -0.497723       -13.5437
  30   2.0000      -0.488310       -13.2876
  31   2.0000      -0.465676       -12.6717
  32   2.0000      -0.464648       -12.6437
  33   2.0000      -0.405358       -11.0304
  34   2.0000      -0.382769       -10.4157
  35   0.0000       0.106055         2.8859
  36   0.0000       0.137876         3.7518
  37   0.0000       0.146951         3.9988
  38   0.0000       0.162177         4.4131
  39   0.0000       0.172428         4.6920

MULLIKEN ATOMIC CHARGES
-----------------------
   0 C :   -0.398294
   1 C :   -0.055088
   2 C :   -0.372680
   3 C :    0.139329
   4 N :   -0.365436
   5 N :   -0.323784
   6 C :    0.349780
   7 C :   -0.450400
   8 O :   -0.370725
   9 H :    0.145566
  10 H :    0.136549
  11 H :    0.115077
  12 H :    0.094252
  13 H :    0.146844
  14 H :    0.132232
  15 H :    0.125153
  16 H :    0.243399
  17 H :    0.242581
  18 H :    0.150559
  19 H :    0.165010
  20 H :    0.150076
Sum of atomic charges:   -0.0000000

LOEWDIN ATOMIC CHARGES
----------------------
   0 C :   -0.286033
   1 C :   -0.278393
   2 C :   -0.284707
   3 C :   -0.326620
   4 N :   -0.021352
   5 N :    0.140705
   6 C :   -0.444632
   7 C :   -0.278093
   8 O :    0.099651
   9 H :    0.131502
  10 H :    0.125221
  11 H :    0.117038
  12 H :    0.151564
  13 H :    0.132323
  14 H :    0.127767
  15 H :    0.121639
  16 H :    0.166583
  17 H :    0.197537
  18 H :    0.134630
  19 H :    0.139395
  20 H :    0.134274

  Mayer bond orders larger than 0.1
B(  0-C ,  1-C ) :   0.8963 B(  0-C ,  9-H ) :   0.9333 B(  0-C , 10-H ) :   0.9362
B(  0-C , 11-H ) :   0.9345 B(  1-C ,  2-C ) :   0.9429 B(  1-C ,  3-C ) :   0.9073
B(  1-C , 12-H ) :   0.9297 B(  2-C , 13-H ) :   0.9309 B(  2-C , 14-H ) :   0.9348
B(  2-C , 15-H ) :   0.9350 B(  3-C ,  4-N ) :   2.0108 B(  3-C ,  5-N ) :   0.9471
B(  4-N , 16-H ) :   0.8473 B(  5-N ,  6-C ) :   1.0840 B(  5-N , 17-H ) :   0.8690
B(  6-C ,  7-C ) :   0.9094 B(  6-C ,  8-O ) :   1.8610 B(  7-C , 18-H ) :   0.9200
B(  7-C , 19-H ) :   0.9395 B(  7-C , 20-H ) :   0.9204

MP2 TOTAL ENERGY:     -419.751285418 Eh
FINAL SINGLE POINT ENERGY      -419.751285418406

DIPOLE MOMENT
-------------
                                X             Y             Z
Electronic contribution:      4.13283      -4.42055       6.21429
Nuclear contribution   :     -5.96879       5.04052      -6.00806
                        -----------------------------------------
Total Dipole Moment    :     -1.83596       0.61997       0.20623
                        -----------------------------------------
Magnitude (a.u.)       :      1.94875
Magnitude (Debye)      :      4.95333

                             ****ORCA TERMINATED NORMALLY****
TOTAL RUN TIME: 0 days 0 hours 18 minutes 32 seconds 460 msec
