                         Program Version 3.0.3 - RELEASE   -
|  1> ! RI-MP2 RIJK def2-TZVP def2-TZVP/C def2-TZVP/JK TIGHTSCF
|  2> % maxcore 2000
|  3> % mp2 density relaxed end
|  4> *xyz 0 1
|  5>  N        0.1777314211     1.4627898234     0.0172452363
|  6>  C        0.0050307233     0.0722221286     0.0073359065
|  7>  C       -1.0536244250    -0.7479134400    -0.0531258577
|  8>  O       -2.3672300011    -0.4875392822    -0.1282202484
|  9>  O       -0.6702357260    -2.0616678362    -0.0311307347
| 10>  C        0.7370418403    -2.1090333806     0.0492955675
| 11>  O        1.3579832133    -3.1348961056     0.0848759921
| 12>  N        1.1244239619    -0.8065987939     0.0713071294
| 13>  H       -0.1643325209     1.9087512716    -0.8260716996
| 14>  H       -0.2592015293     1.9087872208     0.8155170394
| 15>  H       -2.8361443924    -1.3299791615    -0.1545823772
| 16>  H        2.0836954248    -0.5126963944     0.1263054763
| 17> *
| 18>
| 19>                          ****END OF INPUT****

CARTESIAN COORDINATES (ANGSTROEM)
---------------------------------
  N      0.177731    1.462790    0.017245
  C      0.005031    0.072222    0.007336
  C     -1.053624   -0.747913   -0.053126
  O     -2.367230   -0.487539   -0.128220
  O     -0.670236   -2.061668   -0.031131
  C      0.737042   -2.109033    0.049296
  O      1.357983   -3.134896    0.084876
  N      1.124424   -0.806599    0.071307
  H     -0.164333    1.908751   -0.826072
  H     -0.259202    1.908787    0.815517
  H     -2.836144   -1.329979   -0.154582
  H      2.083695   -0.512696    0.126305

 Total Charge           Charge          ....    0
 Multiplicity           Mult            ....    1
 Number of Electrons    NEL             ....   60
 Basis Dimension        Dim             ....  272

ORBITAL ENERGIES
----------------

  NO   OCC          E(Eh)            E(eV)
   0   2.0000     -20.635685      -561.5255
   1   2.0000     -20.623858      -561.2037
   2   2.0000     -20.532769      -558.7250
   3   2.0000     -15.612192      -424.8293
   4   2.0000     -15.582825      -424.0302
   5   2.0000     -11.414474      -310.6036
   6   2.0000     -11.366203      -309.2901
   7   2.0000     -11.304702      -307.6166
   8   2.0000      -1.509277       -41.0695
   9   2.0000      -1.434841       -39.0440
  10   2.0000      -1.374203       -37.3940
  11   2.0000      -1.278697       -34.7951
  12   2.0000      -1.199476       -32.6394
  13   2.0000      -1.010585       -27.4994
  14   2.0000      -0.878860       -23.9150
  15   2.0000      -0.842352       -22.9216
  16   2.0000      -0.793077       -21.5807
  17   2.0000      -0.714451       -19.4412
  18   2.0000      -0.693744       -18.8777
  19   2.0000      -0.681199       -18.5364
  20   2.0000      -0.675632       -18.3849
  21   2.0000      -0.646775       -17.5996
  22   2.0000      -0.617925       -16.8146
  23   2.0000      -0.606563       -16.5054
  24   2.0000      -0.605400       -16.4738
  25   2.0000      -0.525149       -14.2900
  26   2.0000      -0.483260       -13.1502
  27   2.0000      -0.471644       -12.8341
  28   2.0000      -0.446626       -12.1533
  29   2.0000      -0.314497        -8.5579
  30   0.0000       0.115807         3.1513
  31   0.0000       0.138584         3.7711
  32   0.0000       0.154160         4.1949
  33   0.0000       0.173137         4.7113
  34   0.0000       0.203901         5.5484

MULLIKEN ATOMIC CHARGES
-----------------------
   0 N :   -0.544799
   1 C :    0.044954
   2 C :    0.292839
   3 O :   -0.426008
   4 O :   -0.235586
   5 C :    0.322150
   6 O :   -0.326773
   7 N :   -0.270398
   8 H :    0.262386
   9 H :    0.262395
  10 H :    0.355784
  11 H :    0.263056
Sum of atomic charges:   -0.0000000

LOEWDIN ATOMIC CHARGES
----------------------
   0 N :   -0.106693
   1 C :   -0.347893
   2 C :   -0.406651
   3 O :    0.086381
   4 O :    0.290630
   5 C :   -0.530036
   6 O :    0.092434
   7 N :    0.170563
   8 H :    0.171632
   9 H :    0.171640
  10 H :    0.208641
  11 H :    0.199352

  Mayer bond orders larger than 0.1
B(  0-N ,  1-C ) :   1.0864 B(  0-N ,  8-H ) :   0.8824 B(  0-N ,  9-H ) :   0.8825
B(  1-C ,  2-C ) :   1.6547 B(  1-C ,  7-N ) :   0.9707 B(  2-C ,  3-O ) :   1.1373
B(  2-C ,  4-O ) :   1.0292 B(  3-O , 10-H ) :   0.8128 B(  4-O ,  5-C ) :   0.9681
B(  5-C ,  6-O ) :   2.0247 B(  5-C ,  7-N ) :   1.1881 B(  7-N , 11-H ) :   0.8585

MP2 TOTAL ENERGY:     -451.144827675 Eh
FINAL SINGLE POINT ENERGY      -451.144827675383

DIPOLE MOMENT
-------------
                                X             Y             Z
Electronic contribution:     -0.07914      -4.02800      -0.00445
Nuclear contribution   :     -0.67615       5.48623      -0.03874
                        -----------------------------------------
Total Dipole Moment    :     -0.75528       1.45823      -0.04319
                        -----------------------------------------
Magnitude (a.u.)       :      1.64279
Magnitude (Debye)      :      4.17564

                             ****ORCA TERMINATED NORMALLY****
TOTAL RUN TIME: 0 days 0 hours 8 minutes 52 seconds 391 msec
