                         Program Version 3.0.3 - RELEASE   -
|  1> ! RI-MP2 RIJK def2-TZVP def2-TZVP/C def2-TZVP/JK TIGHTSCF
|  2> % maxcore 2000
|  3> % mp2 density relaxed end
|  4> *xyz 0 1
|  5>  C       -0.0373107122     1.4640094737    -0.0403842629
|  6>  C       -0.0104143394    -0.0361194827     0.0171253481
|  7>  N       -0.0356934083    -0.6512060348    -1.1130273732
|  8>  O       -0.0116858486    -2.0320661306    -1.0852305027
|  9>  C        0.0383113358    -2.7559485002     0.1144487820
| 10>  N        0.0581807658    -4.0194904079     0.0795386583
| 11>  N        0.0642979868    -2.0605928201     1.3141229134
| 12>  C        0.0419503169    -0.7754946366     1.2886508371
| 13>  C        0.0702975558    -0.0262170079     2.5882723798
| 14>  H        0.8529334245     1.8939395272     0.4311366107
| 15>  H       -0.0754338303     1.7873287550    -1.0815262965
| 16>  H       -0.9100737688     1.8644497756     0.4865302397
| 17>  H        0.0331985086    -4.3465308133    -0.8867599850
| 18>  H        0.1080896239    -0.7365530104     3.4139419892
| 19>  H        0.9413181840     0.6370082341     2.6390486406
| 20>  H       -0.8174125145     0.6076941891     2.6943133614
| 21> *
| 22>
| 23>                          ****END OF INPUT****

CARTESIAN COORDINATES (ANGSTROEM)
---------------------------------
  C     -0.037311    1.464009   -0.040384
  C     -0.010414   -0.036119    0.017125
  N     -0.035693   -0.651206   -1.113027
  O     -0.011686   -2.032066   -1.085231
  C      0.038311   -2.755949    0.114449
  N      0.058181   -4.019490    0.079539
  N      0.064298   -2.060593    1.314123
  C      0.041950   -0.775495    1.288651
  C      0.070298   -0.026217    2.588272
  H      0.852933    1.893940    0.431137
  H     -0.075434    1.787329   -1.081526
  H     -0.910074    1.864450    0.486530
  H      0.033199   -4.346531   -0.886760
  H      0.108090   -0.736553    3.413942
  H      0.941318    0.637008    2.639049
  H     -0.817413    0.607694    2.694313

 Total Charge           Charge          ....    0
 Multiplicity           Mult            ....    1
 Number of Electrons    NEL             ....   66
 Basis Dimension        Dim             ....  321

ORBITAL ENERGIES
----------------

  NO   OCC          E(Eh)            E(eV)
   0   2.0000     -20.641177      -561.6750
   1   2.0000     -15.667100      -426.3235
   2   2.0000     -15.595538      -424.3762
   3   2.0000     -15.535129      -422.7323
   4   2.0000     -11.372098      -309.4505
   5   2.0000     -11.338388      -308.5332
   6   2.0000     -11.316163      -307.9284
   7   2.0000     -11.260943      -306.4258
   8   2.0000     -11.259098      -306.3756
   9   2.0000      -1.487485       -40.4765
  10   2.0000      -1.287539       -35.0357
  11   2.0000      -1.244360       -33.8608
  12   2.0000      -1.159934       -31.5634
  13   2.0000      -1.049877       -28.5686
  14   2.0000      -1.004903       -27.3448
  15   2.0000      -0.896894       -24.4057
  16   2.0000      -0.869288       -23.6545
  17   2.0000      -0.784259       -21.3408
  18   2.0000      -0.700313       -19.0565
  19   2.0000      -0.677107       -18.4250
  20   2.0000      -0.663237       -18.0476
  21   2.0000      -0.619495       -16.8573
  22   2.0000      -0.609117       -16.5749
  23   2.0000      -0.597689       -16.2639
  24   2.0000      -0.592732       -16.1291
  25   2.0000      -0.587133       -15.9767
  26   2.0000      -0.557281       -15.1644
  27   2.0000      -0.534117       -14.5341
  28   2.0000      -0.507816       -13.8184
  29   2.0000      -0.469143       -12.7660
  30   2.0000      -0.459560       -12.5053
  31   2.0000      -0.423673       -11.5287
  32   2.0000      -0.362567        -9.8660
  33   0.0000       0.049909         1.3581
  34   0.0000       0.109734         2.9860
  35   0.0000       0.154204         4.1961
  36   0.0000       0.162785         4.4296
  37   0.0000       0.175279         4.7696

MULLIKEN ATOMIC CHARGES
-----------------------
   0 C :   -0.396072
   1 C :    0.054966
   2 N :   -0.055775
   3 O :   -0.152931
   4 C :    0.216124
   5 N :   -0.349068
   6 N :   -0.180844
   7 C :    0.096410
   8 C :   -0.397906
   9 H :    0.147797
  10 H :    0.168407
  11 H :    0.147799
  12 H :    0.229741
  13 H :    0.171596
  14 H :    0.149881
  15 H :    0.149874
Sum of atomic charges:    0.0000000

LOEWDIN ATOMIC CHARGES
----------------------
   0 C :   -0.259782
   1 C :   -0.263639
   2 N :    0.095600
   3 O :    0.200130
   4 C :   -0.469656
   5 N :   -0.043433
   6 N :    0.202094
   7 C :   -0.214708
   8 C :   -0.252649
   9 H :    0.136278
  10 H :    0.141666
  11 H :    0.136278
  12 H :    0.171459
  13 H :    0.141852
  14 H :    0.139257
  15 H :    0.139253

  Mayer bond orders larger than 0.1
B(  0-C ,  1-C ) :   0.8914 B(  0-C ,  9-H ) :   0.9261 B(  0-C , 10-H ) :   0.9337
B(  0-C , 11-H ) :   0.9261 B(  1-C ,  2-N ) :   1.7538 B(  1-C ,  7-C ) :   0.9918
B(  2-N ,  3-O ) :   0.8265 B(  3-O ,  4-C ) :   1.0095 B(  4-C ,  5-N ) :   1.9714
B(  4-C ,  6-N ) :   1.0896 B(  5-N , 12-H ) :   0.8485 B(  6-N ,  7-C ) :   1.7223
B(  7-C ,  8-C ) :   0.8903 B(  8-C , 13-H ) :   0.9358 B(  8-C , 14-H ) :   0.9248
B(  8-C , 15-H ) :   0.9248

MP2 TOTAL ENERGY:     -433.314962514 Eh
FINAL SINGLE POINT ENERGY      -433.314962514261

DIPOLE MOMENT
-------------
                                X             Y             Z
Electronic contribution:     -0.01761      -7.63766      -4.62780
Nuclear contribution   :     -0.00170       9.47921       4.99221
                        -----------------------------------------
Total Dipole Moment    :     -0.01931       1.84155       0.36441
                        -----------------------------------------
Magnitude (a.u.)       :      1.87736
Magnitude (Debye)      :      4.77188

                             ****ORCA TERMINATED NORMALLY****
TOTAL RUN TIME: 0 days 0 hours 14 minutes 34 seconds 76 msec
