                         Program Version 3.0.3 - RELEASE   -
|  1> ! RI-MP2 RIJK def2-TZVP def2-TZVP/C def2-TZVP/JK TIGHTSCF
|  2> % maxcore 2000
|  3> % mp2 density relaxed end
|  4> *xyz 0 1
|  5>  C       -0.2767500050     1.5437558635    -0.0832136007
|  6>  C        0.0905694293     0.0656592802     0.0668204421
|  7>  O       -1.0412559948    -0.7201112327     0.3867077997
|  8>  C        0.7631293963    -0.4821827097    -1.2034391678
|  9>  C        0.5849271413    -1.9006817882    -1.5663883941
| 10>  O       -0.1912823660    -0.8837033122    -2.2116295533
| 11>  C        1.9292664898     0.2233752450    -1.6743588488
| 12>  C        2.9120538737     0.8211321515    -2.0236026512
| 13>  H        0.6113192882     2.1594795572    -0.2469333867
| 14>  H       -0.9507191857     1.6839404933    -0.9355506240
| 15>  H       -0.7853318148     1.8856049910     0.8212534368
| 16>  H        0.7904543128    -0.0595352209     0.9009647761
| 17>  H       -1.5891416856    -0.7342434113    -0.4097617246
| 18>  H        1.3303908718    -2.3792147849    -2.1972502738
| 19>  H        0.0326259608    -2.5413149647    -0.8846291991
| 20>  H        3.7782121979     1.3457385931    -2.3446161008
| 21> *
| 22>
| 23>                          ****END OF INPUT****

CARTESIAN COORDINATES (ANGSTROEM)
---------------------------------
  C     -0.276750    1.543756   -0.083214
  C      0.090569    0.065659    0.066820
  O     -1.041256   -0.720111    0.386708
  C      0.763129   -0.482183   -1.203439
  C      0.584927   -1.900682   -1.566388
  O     -0.191282   -0.883703   -2.211630
  C      1.929266    0.223375   -1.674359
  C      2.912054    0.821132   -2.023603
  H      0.611319    2.159480   -0.246933
  H     -0.950719    1.683940   -0.935551
  H     -0.785332    1.885605    0.821253
  H      0.790454   -0.059535    0.900965
  H     -1.589142   -0.734243   -0.409762
  H      1.330391   -2.379215   -2.197250
  H      0.032626   -2.541315   -0.884629
  H      3.778212    1.345739   -2.344616

 Total Charge           Charge          ....    0
 Multiplicity           Mult            ....    1
 Number of Electrons    NEL             ....   60
 Basis Dimension        Dim             ....  296

ORBITAL ENERGIES
----------------

  NO   OCC          E(Eh)            E(eV)
   0   2.0000     -20.587318      -560.2094
   1   2.0000     -20.561067      -559.4951
   2   2.0000     -11.323760      -308.1352
   3   2.0000     -11.298234      -307.4406
   4   2.0000     -11.296986      -307.4066
   5   2.0000     -11.249066      -306.1027
   6   2.0000     -11.243344      -305.9470
   7   2.0000     -11.219933      -305.3099
   8   2.0000      -1.431923       -38.9646
   9   2.0000      -1.367670       -37.2162
  10   2.0000      -1.075813       -29.2744
  11   2.0000      -1.021578       -27.7985
  12   2.0000      -0.953924       -25.9576
  13   2.0000      -0.895257       -24.3612
  14   2.0000      -0.837298       -22.7840
  15   2.0000      -0.753380       -20.5005
  16   2.0000      -0.720358       -19.6019
  17   2.0000      -0.694876       -18.9085
  18   2.0000      -0.646304       -17.5868
  19   2.0000      -0.628747       -17.1091
  20   2.0000      -0.591427       -16.0935
  21   2.0000      -0.570683       -15.5291
  22   2.0000      -0.560819       -15.2606
  23   2.0000      -0.535154       -14.5623
  24   2.0000      -0.503111       -13.6903
  25   2.0000      -0.497732       -13.5440
  26   2.0000      -0.466375       -12.6907
  27   2.0000      -0.455554       -12.3963
  28   2.0000      -0.408061       -11.1039
  29   2.0000      -0.389588       -10.6012
  30   0.0000       0.141838         3.8596
  31   0.0000       0.151151         4.1130
  32   0.0000       0.155306         4.2261
  33   0.0000       0.162851         4.4314
  34   0.0000       0.173316         4.7162

MULLIKEN ATOMIC CHARGES
-----------------------
   0 C :   -0.408605
   1 C :    0.119665
   2 O :   -0.470214
   3 C :   -0.092689
   4 C :   -0.059982
   5 O :   -0.341303
   6 C :    0.009630
   7 C :   -0.086972
   8 H :    0.141074
   9 H :    0.132317
  10 H :    0.146242
  11 H :    0.107686
  12 H :    0.329658
  13 H :    0.130822
  14 H :    0.144321
  15 H :    0.198350
Sum of atomic charges:   -0.0000000

LOEWDIN ATOMIC CHARGES
----------------------
   0 C :   -0.289709
   1 C :   -0.328012
   2 O :   -0.003380
   3 C :   -0.303592
   4 C :   -0.218947
   5 O :    0.164844
   6 C :   -0.062678
   7 C :   -0.066794
   8 H :    0.131017
   9 H :    0.128197
  10 H :    0.127940
  11 H :    0.153274
  12 H :    0.181947
  13 H :    0.127387
  14 H :    0.128351
  15 H :    0.130154

  Mayer bond orders larger than 0.1
B(  0-C ,  1-C ) :   0.9392 B(  0-C ,  8-H ) :   0.9257 B(  0-C ,  9-H ) :   0.9239
B(  0-C , 10-H ) :   0.9383 B(  1-C ,  2-O ) :   0.9162 B(  1-C ,  3-C ) :   0.9526
B(  1-C , 11-H ) :   0.9151 B(  2-O , 12-H ) :   0.8211 B(  3-C ,  4-C ) :   0.9691
B(  3-C ,  5-O ) :   0.8775 B(  3-C ,  6-C ) :   1.1512 B(  3-C ,  7-C ) :  -0.1584
B(  4-C ,  5-O ) :   0.8655 B(  4-C , 13-H ) :   0.9181 B(  4-C , 14-H ) :   0.9022
B(  6-C ,  7-C ) :   2.6157 B(  7-C , 15-H ) :   0.8774

MP2 TOTAL ENERGY:     -383.044186733 Eh
FINAL SINGLE POINT ENERGY      -383.044186732887

DIPOLE MOMENT
-------------
                                X             Y             Z
Electronic contribution:      1.29462      -2.57510      -2.58480
Nuclear contribution   :     -0.73759       2.66600       2.55837
                        -----------------------------------------
Total Dipole Moment    :      0.55703       0.09090      -0.02643
                        -----------------------------------------
Magnitude (a.u.)       :      0.56502
Magnitude (Debye)      :      1.43615

                             ****ORCA TERMINATED NORMALLY****
TOTAL RUN TIME: 0 days 0 hours 11 minutes 54 seconds 22 msec
