                         Program Version 3.0.3 - RELEASE   -
|  1> ! RI-MP2 RIJK def2-TZVP def2-TZVP/C def2-TZVP/JK TIGHTSCF
|  2> % maxcore 2000
|  3> % mp2 density relaxed end
|  4> *xyz 0 1
|  5>  C       -0.4061916263     1.1680461059     1.1433870887
|  6>  C       -0.1458247779     0.1430653441     0.0296338440
|  7>  O       -0.0249536407    -1.1755352152     0.5075746514
|  8>  C       -1.2012477710     0.2911373114    -1.0822010543
|  9>  O       -1.3838628391     1.3384945841    -1.6529489515
| 10>  C       -2.0183580125    -0.9617987604    -1.4455958470
| 11>  C       -3.0623861821    -1.2435420458    -0.3687673302
| 12>  N       -4.3515814367    -1.2233245315    -0.7813784249
| 13>  O       -2.7597403728    -1.4644043501     0.7981168407
| 14>  H        0.4061197140     1.1271491428     1.8729717629
| 15>  H       -0.4705794597     2.1758481651     0.7262122342
| 16>  H       -1.3449305807     0.9385411068     1.6574908856
| 17>  H        0.8110699737     0.3841098764    -0.4526794964
| 18>  H       -0.8852201226    -1.4128528870     0.9001552626
| 19>  H       -2.4690023508    -0.7989180162    -2.4256335474
| 20>  H       -1.3428224351    -1.8213449635    -1.4712723525
| 21>  H       -4.6119528317    -0.9807162938    -1.7205299931
| 22>  H       -5.0753747182    -1.3582446233    -0.0935978827
| 23> *
| 24>
| 25>                          ****END OF INPUT****

CARTESIAN COORDINATES (ANGSTROEM)
---------------------------------
  C     -0.406192    1.168046    1.143387
  C     -0.145825    0.143065    0.029634
  O     -0.024954   -1.175535    0.507575
  C     -1.201248    0.291137   -1.082201
  O     -1.383863    1.338495   -1.652949
  C     -2.018358   -0.961799   -1.445596
  C     -3.062386   -1.243542   -0.368767
  N     -4.351581   -1.223325   -0.781378
  O     -2.759740   -1.464404    0.798117
  H      0.406120    1.127149    1.872972
  H     -0.470579    2.175848    0.726212
  H     -1.344931    0.938541    1.657491
  H      0.811070    0.384110   -0.452679
  H     -0.885220   -1.412853    0.900155
  H     -2.469002   -0.798918   -2.425634
  H     -1.342822   -1.821345   -1.471272
  H     -4.611953   -0.980716   -1.720530
  H     -5.075375   -1.358245   -0.093598

 Total Charge           Charge          ....    0
 Multiplicity           Mult            ....    1
 Number of Electrons    NEL             ....   70
 Basis Dimension        Dim             ....  333

ORBITAL ENERGIES
----------------

  NO   OCC          E(Eh)            E(eV)
   0   2.0000     -20.560123      -559.4694
   1   2.0000     -20.547692      -559.1311
   2   2.0000     -20.545942      -559.0835
   3   2.0000     -15.611137      -424.8006
   4   2.0000     -11.387007      -309.8562
   5   2.0000     -11.344569      -308.7014
   6   2.0000     -11.290780      -307.2377
   7   2.0000     -11.265744      -306.5565
   8   2.0000     -11.217273      -305.2375
   9   2.0000      -1.415417       -38.5155
  10   2.0000      -1.404375       -38.2150
  11   2.0000      -1.358879       -36.9770
  12   2.0000      -1.240829       -33.7647
  13   2.0000      -1.058303       -28.7979
  14   2.0000      -1.018622       -27.7181
  15   2.0000      -0.887239       -24.1430
  16   2.0000      -0.837301       -22.7841
  17   2.0000      -0.766865       -20.8675
  18   2.0000      -0.749283       -20.3890
  19   2.0000      -0.711293       -19.3553
  20   2.0000      -0.686655       -18.6848
  21   2.0000      -0.659323       -17.9411
  22   2.0000      -0.639696       -17.4070
  23   2.0000      -0.617011       -16.7897
  24   2.0000      -0.608639       -16.5619
  25   2.0000      -0.594817       -16.1858
  26   2.0000      -0.569435       -15.4951
  27   2.0000      -0.551312       -15.0020
  28   2.0000      -0.531322       -14.4580
  29   2.0000      -0.528948       -14.3934
  30   2.0000      -0.503479       -13.7004
  31   2.0000      -0.459394       -12.5007
  32   2.0000      -0.454122       -12.3573
  33   2.0000      -0.444698       -12.1009
  34   2.0000      -0.404156       -10.9976
  35   0.0000       0.110466         3.0059
  36   0.0000       0.123132         3.3506
  37   0.0000       0.157480         4.2853
  38   0.0000       0.161319         4.3897
  39   0.0000       0.167336         4.5535

MULLIKEN ATOMIC CHARGES
-----------------------
   0 C :   -0.413865
   1 C :    0.123061
   2 O :   -0.485606
   3 C :    0.160254
   4 O :   -0.279375
   5 C :   -0.273124
   6 C :    0.319048
   7 N :   -0.467029
   8 O :   -0.411199
   9 H :    0.142145
  10 H :    0.142635
  11 H :    0.135814
  12 H :    0.114555
  13 H :    0.343443
  14 H :    0.136193
  15 H :    0.175666
  16 H :    0.269532
  17 H :    0.267853
Sum of atomic charges:   -0.0000000

LOEWDIN ATOMIC CHARGES
----------------------
   0 C :   -0.291709
   1 C :   -0.356359
   2 O :   -0.012828
   3 C :   -0.296419
   4 O :    0.162128
   5 C :   -0.202044
   6 C :   -0.464829
   7 N :    0.009384
   8 O :    0.064691
   9 H :    0.126845
  10 H :    0.130622
  11 H :    0.125950
  12 H :    0.157751
  13 H :    0.172688
  14 H :    0.147350
  15 H :    0.170451
  16 H :    0.176708
  17 H :    0.179621

  Mayer bond orders larger than 0.1
B(  0-C ,  1-C ) :   0.9189 B(  0-C ,  9-H ) :   0.9372 B(  0-C , 10-H ) :   0.9261
B(  0-C , 11-H ) :   0.9251 B(  1-C ,  2-O ) :   0.9536 B(  1-C ,  3-C ) :   0.8758
B(  1-C , 12-H ) :   0.9046 B(  2-O , 13-H ) :   0.7930 B(  3-C ,  4-O ) :   1.9967
B(  3-C ,  5-C ) :   0.8690 B(  5-C ,  6-C ) :   0.9046 B(  5-C , 14-H ) :   0.9174
B(  5-C , 15-H ) :   0.8992 B(  6-C ,  7-N ) :   1.2163 B(  6-C ,  8-O ) :   1.7990
B(  7-N , 16-H ) :   0.8662 B(  7-N , 17-H ) :   0.8540

MP2 TOTAL ENERGY:     -475.532338261 Eh
FINAL SINGLE POINT ENERGY      -475.532338261193

DIPOLE MOMENT
-------------
                                X             Y             Z
Electronic contribution:     -1.74533      -1.64699      -2.21551
Nuclear contribution   :      0.42048       1.37726       1.52127
                        -----------------------------------------
Total Dipole Moment    :     -1.32486      -0.26973      -0.69424
                        -----------------------------------------
Magnitude (a.u.)       :      1.51986
Magnitude (Debye)      :      3.86317

                             ****ORCA TERMINATED NORMALLY****
TOTAL RUN TIME: 0 days 0 hours 17 minutes 50 seconds 420 msec
