                         Program Version 3.0.3 - RELEASE   -
|  1> ! RI-MP2 RIJK def2-TZVP def2-TZVP/C def2-TZVP/JK TIGHTSCF
|  2> % maxcore 2000
|  3> % mp2 density relaxed end
|  4> *xyz 0 1
|  5>  C       -0.2207431942     1.6127171544     0.0684136251
|  6>  C        0.0257546414     0.1164033091     0.0066049017
|  7>  C        0.8245099012    -0.5667625898    -1.1348171117
|  8>  C        2.0910296313     0.2068382546    -1.5389522624
|  9>  C        2.8747521605     0.5622051796    -0.2919548598
| 10>  C        2.3955290293     0.1797537441     0.8919832790
| 11>  C        1.1051958698    -0.6114521571     0.8639216191
| 12>  O        1.2100345863    -1.6118606883    -0.1978430375
| 13>  H        0.7067927331     2.1868126249     0.0040014506
| 14>  H       -0.8762176896     1.9281783386    -0.7511897060
| 15>  H       -0.7184517892     1.8851878712     1.0057400610
| 16>  H       -0.9140194070    -0.4316546617     0.1204812883
| 17>  H        0.2779607474    -0.9610717646    -1.9966053117
| 18>  H        2.7001428951    -0.4103513098    -2.2121926838
| 19>  H        1.8271856365     1.1111248012    -2.1050341036
| 20>  H        3.8052291082     1.1130703956    -0.3955654506
| 21>  H        2.8839970472     0.4092670578     1.8330099838
| 22>  H        0.8246506425    -1.0524403797     1.8228666585
| 23> *
| 24>
| 25>                          ****END OF INPUT****

CARTESIAN COORDINATES (ANGSTROEM)
---------------------------------
  C     -0.220743    1.612717    0.068414
  C      0.025755    0.116403    0.006605
  C      0.824510   -0.566763   -1.134817
  C      2.091030    0.206838   -1.538952
  C      2.874752    0.562205   -0.291955
  C      2.395529    0.179754    0.891983
  C      1.105196   -0.611452    0.863922
  O      1.210035   -1.611861   -0.197843
  H      0.706793    2.186813    0.004001
  H     -0.876218    1.928178   -0.751190
  H     -0.718452    1.885188    1.005740
  H     -0.914019   -0.431655    0.120481
  H      0.277961   -0.961072   -1.996605
  H      2.700143   -0.410351   -2.212193
  H      1.827186    1.111125   -2.105034
  H      3.805229    1.113070   -0.395565
  H      2.883997    0.409267    1.833010
  H      0.824651   -1.052440    1.822867

 Total Charge           Charge          ....    0
 Multiplicity           Mult            ....    1
 Number of Electrons    NEL             ....   60
 Basis Dimension        Dim             ....  308

ORBITAL ENERGIES
----------------

  NO   OCC          E(Eh)            E(eV)
   0   2.0000     -20.540569      -558.9373
   1   2.0000     -11.283184      -307.0310
   2   2.0000     -11.281476      -306.9846
   3   2.0000     -11.233546      -305.6803
   4   2.0000     -11.231568      -305.6265
   5   2.0000     -11.230332      -305.5929
   6   2.0000     -11.222988      -305.3930
   7   2.0000     -11.217239      -305.2366
   8   2.0000      -1.376276       -37.4504
   9   2.0000      -1.095351       -29.8060
  10   2.0000      -1.031592       -28.0710
  11   2.0000      -1.001374       -27.2488
  12   2.0000      -0.910264       -24.7695
  13   2.0000      -0.843587       -22.9552
  14   2.0000      -0.797872       -21.7112
  15   2.0000      -0.714682       -19.4475
  16   2.0000      -0.672314       -18.2946
  17   2.0000      -0.627227       -17.0677
  18   2.0000      -0.613870       -16.7043
  19   2.0000      -0.594333       -16.1726
  20   2.0000      -0.580537       -15.7972
  21   2.0000      -0.559521       -15.2253
  22   2.0000      -0.547557       -14.8998
  23   2.0000      -0.543390       -14.7864
  24   2.0000      -0.513436       -13.9713
  25   2.0000      -0.490003       -13.3337
  26   2.0000      -0.456689       -12.4271
  27   2.0000      -0.434321       -11.8185
  28   2.0000      -0.399761       -10.8780
  29   2.0000      -0.349045        -9.4980
  30   0.0000       0.128398         3.4939
  31   0.0000       0.139456         3.7948
  32   0.0000       0.166733         4.5370
  33   0.0000       0.172421         4.6918
  34   0.0000       0.175191         4.7672

MULLIKEN ATOMIC CHARGES
-----------------------
   0 C :   -0.421841
   1 C :   -0.082489
   2 C :    0.060144
   3 C :   -0.192121
   4 C :   -0.176155
   5 C :   -0.267083
   6 C :    0.154493
   7 O :   -0.328421
   8 H :    0.146780
   9 H :    0.131862
  10 H :    0.132769
  11 H :    0.105248
  12 H :    0.115251
  13 H :    0.128064
  14 H :    0.118848
  15 H :    0.125572
  16 H :    0.121336
  17 H :    0.127744
Sum of atomic charges:    0.0000000

LOEWDIN ATOMIC CHARGES
----------------------
   0 C :   -0.297380
   1 C :   -0.222109
   2 C :   -0.244602
   3 C :   -0.229877
   4 C :   -0.152572
   5 C :   -0.151016
   6 C :   -0.233116
   7 O :    0.155961
   8 H :    0.128387
   9 H :    0.126948
  10 H :    0.127106
  11 H :    0.155233
  12 H :    0.132070
  13 H :    0.147649
  14 H :    0.145640
  15 H :    0.139019
  16 H :    0.138820
  17 H :    0.133837

  Mayer bond orders larger than 0.1
B(  0-C ,  1-C ) :   0.9143 B(  0-C ,  8-H ) :   0.9316 B(  0-C ,  9-H ) :   0.9332
B(  0-C , 10-H ) :   0.9351 B(  1-C ,  2-C ) :   0.9381 B(  1-C ,  6-C ) :   0.9241
B(  1-C , 11-H ) :   0.9272 B(  2-C ,  3-C ) :   0.9565 B(  2-C ,  7-O ) :   0.9401
B(  2-C , 12-H ) :   0.9155 B(  3-C ,  4-C ) :   0.9582 B(  3-C , 13-H ) :   0.9075
B(  3-C , 14-H ) :   0.9024 B(  4-C ,  5-C ) :   1.8074 B(  4-C , 15-H ) :   0.9354
B(  5-C ,  6-C ) :   0.9259 B(  5-C , 16-H ) :   0.9278 B(  6-C ,  7-O ) :   0.9310
B(  6-C , 17-H ) :   0.9121

MP2 TOTAL ENERGY:     -347.182903745 Eh
FINAL SINGLE POINT ENERGY      -347.182903745219

DIPOLE MOMENT
-------------
                                X             Y             Z
Electronic contribution:      1.80103      -4.82645       0.79189
Nuclear contribution   :     -1.99024       5.56347      -0.84942
                        -----------------------------------------
Total Dipole Moment    :     -0.18921       0.73703      -0.05753
                        -----------------------------------------
Magnitude (a.u.)       :      0.76310
Magnitude (Debye)      :      1.93964

                             ****ORCA TERMINATED NORMALLY****
TOTAL RUN TIME: 0 days 0 hours 14 minutes 57 seconds 38 msec
