                         Program Version 3.0.3 - RELEASE   -
|  1> ! RI-MP2 RIJK def2-TZVP def2-TZVP/C def2-TZVP/JK TIGHTSCF
|  2> % maxcore 2000
|  3> % mp2 density relaxed end
|  4> *xyz 0 1
|  5>  N       -0.0217841212     1.4565980133     0.1714141600
|  6>  C       -0.0076464380     0.0856461740     0.0527357339
|  7>  C       -1.0710843841    -0.8046691586     0.0261463605
|  8>  N       -0.5212123306    -2.0538046618    -0.0283083858
|  9>  N        0.8004007232    -2.0713708700    -0.0382906500
| 10>  C        1.1245012712    -0.7766620586     0.0073918265
| 11>  N        2.4997428778    -0.3749696094    -0.0132394107
| 12>  O        3.3695524462    -1.2285649425    -0.0372865371
| 13>  O        2.7094813218     0.8466639402    -0.0110706249
| 14>  H        0.8672579592     1.8804936329    -0.0548995460
| 15>  H       -0.8241374118     1.9261599080    -0.2185161812
| 16>  H       -2.1366863081    -0.6473583060     0.0467875464
| 17>  H       -1.0139322055    -2.9317063414    -0.0593501114
| 18> *
| 19>
| 20>                          ****END OF INPUT****

CARTESIAN COORDINATES (ANGSTROEM)
---------------------------------
  N     -0.021784    1.456598    0.171414
  C     -0.007646    0.085646    0.052736
  C     -1.071084   -0.804669    0.026146
  N     -0.521212   -2.053805   -0.028308
  N      0.800401   -2.071371   -0.038291
  C      1.124501   -0.776662    0.007392
  N      2.499743   -0.374970   -0.013239
  O      3.369552   -1.228565   -0.037287
  O      2.709481    0.846664   -0.011071
  H      0.867258    1.880494   -0.054900
  H     -0.824137    1.926160   -0.218516
  H     -2.136686   -0.647358    0.046788
  H     -1.013932   -2.931706   -0.059350

 Total Charge           Charge          ....    0
 Multiplicity           Mult            ....    1
 Number of Electrons    NEL             ....   66
 Basis Dimension        Dim             ....  303

ORBITAL ENERGIES
----------------

  NO   OCC          E(Eh)            E(eV)
   0   2.0000     -20.601601      -560.5981
   1   2.0000     -20.594073      -560.3932
   2   2.0000     -15.853744      -431.4023
   3   2.0000     -15.682942      -426.7546
   4   2.0000     -15.639592      -425.5749
   5   2.0000     -15.577319      -423.8804
   6   2.0000     -11.322266      -308.0945
   7   2.0000     -11.308849      -307.7294
   8   2.0000     -11.292740      -307.2911
   9   2.0000      -1.602206       -43.5983
  10   2.0000      -1.425817       -38.7985
  11   2.0000      -1.394111       -37.9357
  12   2.0000      -1.236792       -33.6548
  13   2.0000      -1.155292       -31.4371
  14   2.0000      -1.072835       -29.1933
  15   2.0000      -1.003433       -27.3048
  16   2.0000      -0.850881       -23.1537
  17   2.0000      -0.819884       -22.3102
  18   2.0000      -0.780055       -21.2264
  19   2.0000      -0.732680       -19.9372
  20   2.0000      -0.724428       -19.7127
  21   2.0000      -0.717044       -19.5118
  22   2.0000      -0.700141       -19.0518
  23   2.0000      -0.663874       -18.0649
  24   2.0000      -0.645046       -17.5526
  25   2.0000      -0.603093       -16.4110
  26   2.0000      -0.518295       -14.1035
  27   2.0000      -0.508094       -13.8260
  28   2.0000      -0.497428       -13.5357
  29   2.0000      -0.492981       -13.4147
  30   2.0000      -0.452431       -12.3113
  31   2.0000      -0.397670       -10.8211
  32   2.0000      -0.331550        -9.0219
  33   0.0000       0.055507         1.5104
  34   0.0000       0.115299         3.1374
  35   0.0000       0.127571         3.4714
  36   0.0000       0.143574         3.9069
  37   0.0000       0.172135         4.6840

MULLIKEN ATOMIC CHARGES
-----------------------
   0 N :   -0.518695
   1 C :    0.084186
   2 C :   -0.129624
   3 N :   -0.060848
   4 N :   -0.196912
   5 C :    0.058531
   6 N :    0.435235
   7 O :   -0.280378
   8 O :   -0.354951
   9 H :    0.282954
  10 H :    0.249240
  11 H :    0.162824
  12 H :    0.268439
Sum of atomic charges:    0.0000000

LOEWDIN ATOMIC CHARGES
----------------------
   0 N :   -0.055288
   1 C :   -0.260300
   2 C :   -0.210436
   3 N :    0.144403
   4 N :    0.052713
   5 C :   -0.288508
   6 N :   -0.050584
   7 O :    0.022783
   8 O :   -0.036720
   9 H :    0.175409
  10 H :    0.170406
  11 H :    0.139816
  12 H :    0.196305

  Mayer bond orders larger than 0.1
B(  0-N ,  1-C ) :   1.0934 B(  0-N ,  9-H ) :   0.8499 B(  0-N , 10-H ) :   0.8732
B(  1-C ,  2-C ) :   1.3933 B(  1-C ,  5-C ) :   1.2332 B(  2-C ,  3-N ) :   1.1636
B(  2-C ,  4-N ) :   0.1334 B(  2-C , 11-H ) :   0.9036 B(  3-N ,  4-N ) :   1.1006
B(  3-N , 12-H ) :   0.8674 B(  4-N ,  5-C ) :   1.4879 B(  5-C ,  6-N ) :   0.9519
B(  6-N ,  7-O ) :   1.4565 B(  6-N ,  8-O ) :   1.3616 B(  7-O ,  8-O ) :   0.1755

MP2 TOTAL ENERGY:     -485.234573180 Eh
FINAL SINGLE POINT ENERGY      -485.234573180272

DIPOLE MOMENT
-------------
                                X             Y             Z
Electronic contribution:      4.26709      -2.09794      -0.01624
Nuclear contribution   :     -6.76917       2.16546      -0.30584
                        -----------------------------------------
Total Dipole Moment    :     -2.50208       0.06752      -0.32208
                        -----------------------------------------
Magnitude (a.u.)       :      2.52363
Magnitude (Debye)      :      6.41456

                             ****ORCA TERMINATED NORMALLY****
TOTAL RUN TIME: 0 days 0 hours 14 minutes 15 seconds 441 msec
