                         Program Version 3.0.3 - RELEASE   -
|  1> ! RI-MP2 RIJK def2-TZVP def2-TZVP/C def2-TZVP/JK TIGHTSCF
|  2> % maxcore 2000
|  3> % mp2 density relaxed end
|  4> *xyz 0 1
|  5>  C       -0.0087451820     1.5566161281    -0.0060731738
|  6>  C       -0.0141545940     0.0260899640    -0.0229641556
|  7>  O        0.7694145957    -0.4861659977     1.0901706966
|  8>  C        2.0912505023    -0.6055580953     0.8985320551
|  9>  N        2.7068463941    -0.2786587279    -0.1594045387
| 10>  C        2.7475241217    -1.1981262174     2.1298415597
| 11>  O        3.9318864661    -1.4002261071     2.1798098999
| 12>  C       -1.3538447250    -0.5342183311     0.1043822912
| 13>  C       -2.4707977873    -0.9677923920     0.1832757601
| 14>  H        1.0121709247     1.9214757935    -0.1332139963
| 15>  H       -0.6236234406     1.9338049804    -0.8272852519
| 16>  H       -0.4196670874     1.9260520237     0.9364990651
| 17>  H        0.4593722431    -0.3292869072    -0.9440750295
| 18>  H        3.6982784855    -0.4937864186    -0.0348116319
| 19>  H        2.0583637541    -1.4270252599     2.9658543513
| 20>  H       -3.4554129912    -1.3605160056     0.2514138286
| 21> *
| 22>
| 23>                          ****END OF INPUT****

CARTESIAN COORDINATES (ANGSTROEM)
---------------------------------
  C     -0.008745    1.556616   -0.006073
  C     -0.014155    0.026090   -0.022964
  O      0.769415   -0.486166    1.090171
  C      2.091251   -0.605558    0.898532
  N      2.706846   -0.278659   -0.159405
  C      2.747524   -1.198126    2.129842
  O      3.931886   -1.400226    2.179810
  C     -1.353845   -0.534218    0.104382
  C     -2.470798   -0.967792    0.183276
  H      1.012171    1.921476   -0.133214
  H     -0.623623    1.933805   -0.827285
  H     -0.419667    1.926052    0.936499
  H      0.459372   -0.329287   -0.944075
  H      3.698278   -0.493786   -0.034812
  H      2.058364   -1.427025    2.965854
  H     -3.455413   -1.360516    0.251414

 Total Charge           Charge          ....    0
 Multiplicity           Mult            ....    1
 Number of Electrons    NEL             ....   66
 Basis Dimension        Dim             ....  321

ORBITAL ENERGIES
----------------

  NO   OCC          E(Eh)            E(eV)
   0   2.0000     -20.616779      -561.0111
   1   2.0000     -20.592894      -560.3611
   2   2.0000     -15.564339      -423.5272
   3   2.0000     -11.361593      -309.1647
   4   2.0000     -11.360682      -309.1399
   5   2.0000     -11.331433      -308.3440
   6   2.0000     -11.245870      -306.0157
   7   2.0000     -11.239787      -305.8502
   8   2.0000     -11.234725      -305.7124
   9   2.0000      -1.455873       -39.6163
  10   2.0000      -1.427175       -38.8354
  11   2.0000      -1.219876       -33.1945
  12   2.0000      -1.095706       -29.8157
  13   2.0000      -1.014392       -27.6030
  14   2.0000      -0.951254       -25.8849
  15   2.0000      -0.882616       -24.0172
  16   2.0000      -0.794393       -21.6165
  17   2.0000      -0.754897       -20.5418
  18   2.0000      -0.729737       -19.8571
  19   2.0000      -0.708132       -19.2693
  20   2.0000      -0.676039       -18.3960
  21   2.0000      -0.664965       -18.0946
  22   2.0000      -0.650921       -17.7125
  23   2.0000      -0.587511       -15.9870
  24   2.0000      -0.572659       -15.5828
  25   2.0000      -0.558498       -15.1975
  26   2.0000      -0.532602       -14.4928
  27   2.0000      -0.522968       -14.2307
  28   2.0000      -0.499604       -13.5949
  29   2.0000      -0.445835       -12.1318
  30   2.0000      -0.425143       -11.5687
  31   2.0000      -0.409534       -11.1440
  32   2.0000      -0.400536       -10.8991
  33   0.0000       0.065041         1.7699
  34   0.0000       0.142921         3.8891
  35   0.0000       0.157106         4.2751
  36   0.0000       0.159717         4.3461
  37   0.0000       0.173353         4.7172

MULLIKEN ATOMIC CHARGES
-----------------------
   0 C :   -0.399505
   1 C :   -0.054008
   2 O :   -0.251764
   3 C :    0.203080
   4 N :   -0.388934
   5 C :    0.107565
   6 O :   -0.254319
   7 C :   -0.012439
   8 C :   -0.087806
   9 H :    0.162754
  10 H :    0.141354
  11 H :    0.136289
  12 H :    0.141927
  13 H :    0.243038
  14 H :    0.114218
  15 H :    0.198551
Sum of atomic charges:   -0.0000000

LOEWDIN ATOMIC CHARGES
----------------------
   0 C :   -0.268763
   1 C :   -0.287165
   2 O :    0.286012
   3 C :   -0.439141
   4 N :   -0.035968
   5 C :   -0.251678
   6 O :    0.157199
   7 C :   -0.084246
   8 C :   -0.074969
   9 H :    0.132292
  10 H :    0.134981
  11 H :    0.130502
  12 H :    0.167057
  13 H :    0.180535
  14 H :    0.123631
  15 H :    0.129721

  Mayer bond orders larger than 0.1
B(  0-C ,  1-C ) :   0.9354 B(  0-C ,  9-H ) :   0.9302 B(  0-C , 10-H ) :   0.9272
B(  0-C , 11-H ) :   0.9274 B(  1-C ,  2-O ) :   0.8366 B(  1-C ,  7-C ) :   1.0974
B(  1-C ,  8-C ) :  -0.1038 B(  1-C , 12-H ) :   0.9380 B(  2-O ,  3-C ) :   1.1040
B(  3-C ,  4-N ) :   1.8673 B(  3-C ,  5-C ) :   0.8630 B(  4-N , 13-H ) :   0.8412
B(  5-C ,  6-O ) :   1.9532 B(  5-C , 14-H ) :   0.9238 B(  7-C ,  8-C ) :   2.6022
B(  8-C , 15-H ) :   0.8911

MP2 TOTAL ENERGY:     -437.124078715 Eh
FINAL SINGLE POINT ENERGY      -437.124078714684

DIPOLE MOMENT
-------------
                                X             Y             Z
Electronic contribution:      3.32907      -4.59484       2.77329
Nuclear contribution   :     -4.09755       4.78201      -2.71864
                        -----------------------------------------
Total Dipole Moment    :     -0.76849       0.18717       0.05465
                        -----------------------------------------
Magnitude (a.u.)       :      0.79284
Magnitude (Debye)      :      2.01524

                             ****ORCA TERMINATED NORMALLY****
TOTAL RUN TIME: 0 days 0 hours 14 minutes 41 seconds 391 msec
