                         Program Version 3.0.3 - RELEASE   -
|  1> ! RI-MP2 RIJK def2-TZVP def2-TZVP/C def2-TZVP/JK TIGHTSCF
|  2> % maxcore 2000
|  3> % mp2 density relaxed end
|  4> *xyz 0 1
|  5>  C        0.1001816143     1.4826039643    -0.0277827643
|  6>  C        0.8028011772     0.2561570903    -0.5789691194
|  7>  O       -0.1339870612    -0.8173020608    -0.5975994693
|  8>  C        0.3390272114    -1.9918659654    -1.0659099434
|  9>  C        1.5689343268    -2.3950906157    -1.5454554915
| 10>  C        1.4195264886    -3.7779385988    -1.8857638691
| 11>  O        2.3781761452    -4.6044254937    -2.4021166241
| 12>  C        0.1357884897    -4.1659690130    -1.6104475128
| 13>  N       -0.5187464303    -3.0447228953    -1.1029453619
| 14>  H       -0.7535064847     1.7532832736    -0.6552445100
| 15>  H       -0.2624394416     1.2966293072     0.9869465161
| 16>  H        0.7919139816     2.3295386281     0.0008788210
| 17>  H        1.1728224404     0.4341060588    -1.5984959501
| 18>  H        1.6638756921    -0.0229383070     0.0444693457
| 19>  H        2.4578841137    -1.7932562400    -1.6433893423
| 20>  H        3.1888090927    -4.0985943836    -2.5032831523
| 21>  H       -0.3617301438    -5.1122619608    -1.7253175985
| 22>  H       -1.4761369820    -2.9993288082    -0.8043134338
| 23> *
| 24>
| 25>                          ****END OF INPUT****

CARTESIAN COORDINATES (ANGSTROEM)
---------------------------------
  C      0.100182    1.482604   -0.027783
  C      0.802801    0.256157   -0.578969
  O     -0.133987   -0.817302   -0.597599
  C      0.339027   -1.991866   -1.065910
  C      1.568934   -2.395091   -1.545455
  C      1.419526   -3.777939   -1.885764
  O      2.378176   -4.604425   -2.402117
  C      0.135788   -4.165969   -1.610448
  N     -0.518746   -3.044723   -1.102945
  H     -0.753506    1.753283   -0.655245
  H     -0.262439    1.296629    0.986947
  H      0.791914    2.329539    0.000879
  H      1.172822    0.434106   -1.598496
  H      1.663876   -0.022938    0.044469
  H      2.457884   -1.793256   -1.643389
  H      3.188809   -4.098594   -2.503283
  H     -0.361730   -5.112262   -1.725318
  H     -1.476137   -2.999329   -0.804313

 Total Charge           Charge          ....    0
 Multiplicity           Mult            ....    1
 Number of Electrons    NEL             ....   68
 Basis Dimension        Dim             ....  333

ORBITAL ENERGIES
----------------

  NO   OCC          E(Eh)            E(eV)
   0   2.0000     -20.593044      -560.3652
   1   2.0000     -20.571700      -559.7844
   2   2.0000     -15.592805      -424.3018
   3   2.0000     -11.322799      -308.1090
   4   2.0000     -11.293164      -307.3026
   5   2.0000     -11.272757      -306.7473
   6   2.0000     -11.227280      -305.5098
   7   2.0000     -11.226927      -305.5002
   8   2.0000     -11.204082      -304.8786
   9   2.0000      -1.426619       -38.8203
  10   2.0000      -1.384744       -37.6808
  11   2.0000      -1.276014       -34.7221
  12   2.0000      -1.042675       -28.3726
  13   2.0000      -1.036622       -28.2079
  14   2.0000      -0.956733       -26.0340
  15   2.0000      -0.866300       -23.5732
  16   2.0000      -0.789858       -21.4931
  17   2.0000      -0.780446       -21.2370
  18   2.0000      -0.753546       -20.5050
  19   2.0000      -0.682858       -18.5815
  20   2.0000      -0.680477       -18.5167
  21   2.0000      -0.625917       -17.0321
  22   2.0000      -0.617923       -16.8145
  23   2.0000      -0.599347       -16.3090
  24   2.0000      -0.595644       -16.2083
  25   2.0000      -0.564397       -15.3580
  26   2.0000      -0.561784       -15.2869
  27   2.0000      -0.545313       -14.8387
  28   2.0000      -0.522970       -14.2307
  29   2.0000      -0.514044       -13.9879
  30   2.0000      -0.499025       -13.5792
  31   2.0000      -0.470296       -12.7974
  32   2.0000      -0.335467        -9.1285
  33   2.0000      -0.272365        -7.4114
  34   0.0000       0.132886         3.6160
  35   0.0000       0.147116         4.0032
  36   0.0000       0.151742         4.1291
  37   0.0000       0.173515         4.7216
  38   0.0000       0.190959         5.1963

MULLIKEN ATOMIC CHARGES
-----------------------
   0 C :   -0.373191
   1 C :   -0.055119
   2 O :   -0.285114
   3 C :    0.257705
   4 C :   -0.318458
   5 C :    0.165717
   6 O :   -0.443645
   7 C :   -0.163961
   8 N :   -0.260748
   9 H :    0.134577
  10 H :    0.134577
  11 H :    0.129878
  12 H :    0.112066
  13 H :    0.112061
  14 H :    0.133024
  15 H :    0.329185
  16 H :    0.144110
  17 H :    0.247336
Sum of atomic charges:   -0.0000000

LOEWDIN ATOMIC CHARGES
----------------------
   0 C :   -0.313560
   1 C :   -0.319139
   2 O :    0.238776
   3 C :   -0.353588
   4 C :   -0.210977
   5 C :   -0.326266
   6 O :    0.048621
   7 C :   -0.233553
   8 N :    0.188989
   9 H :    0.125702
  10 H :    0.125700
  11 H :    0.127539
  12 H :    0.124668
  13 H :    0.124666
  14 H :    0.137297
  15 H :    0.189484
  16 H :    0.133024
  17 H :    0.192617

  Mayer bond orders larger than 0.1
B(  0-C ,  1-C ) :   0.9491 B(  0-C ,  9-H ) :   0.9368 B(  0-C , 10-H ) :   0.9368
B(  0-C , 11-H ) :   0.9347 B(  1-C ,  2-O ) :   0.8609 B(  1-C , 12-H ) :   0.9231
B(  1-C , 13-H ) :   0.9231 B(  2-O ,  3-C ) :   1.0917 B(  3-C ,  4-C ) :   1.4131
B(  3-C ,  8-N ) :   1.1797 B(  4-C ,  5-C ) :   1.1690 B(  4-C , 14-H ) :   0.9114
B(  5-C ,  6-O ) :   1.0785 B(  5-C ,  7-C ) :   1.5640 B(  6-O , 15-H ) :   0.8398
B(  7-C ,  8-N ) :   1.0326 B(  7-C , 16-H ) :   0.9119 B(  8-N , 17-H ) :   0.8689

MP2 TOTAL ENERGY:     -438.380446725 Eh
FINAL SINGLE POINT ENERGY      -438.380446725059

DIPOLE MOMENT
-------------
                                X             Y             Z
Electronic contribution:     -0.23506      -8.90254      -2.40682
Nuclear contribution   :      0.21614       9.86245       2.67958
                        -----------------------------------------
Total Dipole Moment    :     -0.01892       0.95991       0.27276
                        -----------------------------------------
Magnitude (a.u.)       :      0.99809
Magnitude (Debye)      :      2.53695

                             ****ORCA TERMINATED NORMALLY****
TOTAL RUN TIME: 0 days 0 hours 14 minutes 53 seconds 376 msec
