                         Program Version 3.0.3 - RELEASE   -
|  1> ! RI-MP2 RIJK def2-TZVP def2-TZVP/C def2-TZVP/JK TIGHTSCF
|  2> % maxcore 2000
|  3> % mp2 density relaxed end
|  4> *xyz 0 1
|  5>  C       -0.0335107024     1.6073393751     0.0159283356
|  6>  C        0.0846810949     0.0946419944    -0.0441024403
|  7>  C        0.8049934900    -0.6235098923    -1.1757262710
|  8>  C        2.2787467113    -0.7100445432    -0.7629087038
|  9>  C        2.3752673416    -0.0497847365     0.5994839772
| 10>  N        1.0103164704    -0.6076171319     0.9495347219
| 11>  C        1.2573964191    -1.6638902497    -0.1756300544
| 12>  C        1.1421745161    -3.0629574135    -0.0813159658
| 13>  C        1.0448188420    -4.2605303154     0.0011267138
| 14>  H        0.8832151901     2.1193795977    -0.2859375946
| 15>  H       -0.8325518227     1.9423499134    -0.6537898458
| 16>  H       -0.2915064341     1.9257122939     1.0317842962
| 17>  H       -0.9011698754    -0.3557966604     0.1091833995
| 18>  H        0.4950180756    -0.8014400703    -2.1982469376
| 19>  H        3.0525739460    -0.9511543514    -1.4808901585
| 20>  H        3.1193001072    -0.5306401421     1.2388969776
| 21>  H        2.4716059287     1.0363835049     0.6810087271
| 22>  H        0.9573744116    -5.3157080428     0.0782311128
| 23> *
| 24>
| 25>                          ****END OF INPUT****

CARTESIAN COORDINATES (ANGSTROEM)
---------------------------------
  C     -0.033511    1.607339    0.015928
  C      0.084681    0.094642   -0.044102
  C      0.804993   -0.623510   -1.175726
  C      2.278747   -0.710045   -0.762909
  C      2.375267   -0.049785    0.599484
  N      1.010316   -0.607617    0.949535
  C      1.257396   -1.663890   -0.175630
  C      1.142175   -3.062957   -0.081316
  C      1.044819   -4.260530    0.001127
  H      0.883215    2.119380   -0.285938
  H     -0.832552    1.942350   -0.653790
  H     -0.291506    1.925712    1.031784
  H     -0.901170   -0.355797    0.109183
  H      0.495018   -0.801440   -2.198247
  H      3.052574   -0.951154   -1.480890
  H      3.119300   -0.530640    1.238897
  H      2.471606    1.036384    0.681009
  H      0.957374   -5.315708    0.078231

 Total Charge           Charge          ....    0
 Multiplicity           Mult            ....    1
 Number of Electrons    NEL             ....   64
 Basis Dimension        Dim             ....  333

ORBITAL ENERGIES
----------------

  NO   OCC          E(Eh)            E(eV)
   0   2.0000     -15.565726      -423.5649
   1   2.0000     -11.285760      -307.1011
   2   2.0000     -11.266240      -306.5700
   3   2.0000     -11.258804      -306.3676
   4   2.0000     -11.252969      -306.2089
   5   2.0000     -11.251206      -306.1609
   6   2.0000     -11.239504      -305.8425
   7   2.0000     -11.227955      -305.5282
   8   2.0000     -11.219870      -305.3082
   9   2.0000      -1.308293       -35.6005
  10   2.0000      -1.063134       -28.9293
  11   2.0000      -1.028602       -27.9897
  12   2.0000      -1.023493       -27.8507
  13   2.0000      -0.952567       -25.9207
  14   2.0000      -0.879255       -23.9257
  15   2.0000      -0.790874       -21.5208
  16   2.0000      -0.753076       -20.4923
  17   2.0000      -0.707445       -19.2506
  18   2.0000      -0.697161       -18.9707
  19   2.0000      -0.654902       -17.8208
  20   2.0000      -0.619285       -16.8516
  21   2.0000      -0.604517       -16.4497
  22   2.0000      -0.560314       -15.2469
  23   2.0000      -0.553074       -15.0499
  24   2.0000      -0.515611       -14.0305
  25   2.0000      -0.488679       -13.2976
  26   2.0000      -0.475347       -12.9348
  27   2.0000      -0.454554       -12.3690
  28   2.0000      -0.451379       -12.2827
  29   2.0000      -0.397144       -10.8068
  30   2.0000      -0.365896        -9.9565
  31   2.0000      -0.342768        -9.3272
  32   0.0000       0.140690         3.8284
  33   0.0000       0.149939         4.0801
  34   0.0000       0.157003         4.2723
  35   0.0000       0.158578         4.3151
  36   0.0000       0.168163         4.5759

MULLIKEN ATOMIC CHARGES
-----------------------
   0 C :   -0.422858
   1 C :    0.019869
   2 C :   -0.180514
   3 C :   -0.186682
   4 C :   -0.136079
   5 N :   -0.199469
   6 C :   -0.052490
   7 C :    0.028178
   8 C :   -0.108832
   9 H :    0.131732
  10 H :    0.134929
  11 H :    0.145773
  12 H :    0.112436
  13 H :    0.139047
  14 H :    0.137100
  15 H :    0.129575
  16 H :    0.113929
  17 H :    0.194354
Sum of atomic charges:    0.0000000

LOEWDIN ATOMIC CHARGES
----------------------
   0 C :   -0.295919
   1 C :   -0.257340
   2 C :   -0.121591
   3 C :   -0.140198
   4 C :   -0.228218
   5 N :    0.150042
   6 C :   -0.168263
   7 C :   -0.076191
   8 C :   -0.074423
   9 H :    0.122931
  10 H :    0.129817
  11 H :    0.132335
  12 H :    0.155139
  13 H :    0.143832
  14 H :    0.142466
  15 H :    0.137861
  16 H :    0.119812
  17 H :    0.127906

  Mayer bond orders larger than 0.1
B(  0-C ,  1-C ) :   0.8982 B(  0-C ,  9-H ) :   0.9392 B(  0-C , 10-H ) :   0.9309
B(  0-C , 11-H ) :   0.9327 B(  1-C ,  2-C ) :   0.9759 B(  1-C ,  5-N ) :   0.9515
B(  1-C , 12-H ) :   0.9218 B(  2-C ,  3-C ) :   0.8614 B(  2-C ,  6-C ) :   0.7886
B(  2-C , 13-H ) :   0.9142 B(  3-C ,  4-C ) :   0.9950 B(  3-C ,  6-C ) :   0.7783
B(  3-C , 14-H ) :   0.9175 B(  4-C ,  5-N ) :   0.9231 B(  4-C , 15-H ) :   0.9244
B(  4-C , 16-H ) :   0.9226 B(  5-N ,  6-C ) :   0.8731 B(  6-C ,  7-C ) :   1.2170
B(  6-C ,  8-C ) :  -0.1504 B(  7-C ,  8-C ) :   2.6071 B(  8-C , 17-H ) :   0.8603

MP2 TOTAL ENERGY:     -364.034796971 Eh
FINAL SINGLE POINT ENERGY      -364.034796970825

DIPOLE MOMENT
-------------
                                X             Y             Z
Electronic contribution:      1.01441      -6.85457       0.15155
Nuclear contribution   :     -0.86308       7.17551      -0.83803
                        -----------------------------------------
Total Dipole Moment    :      0.15132       0.32094      -0.68647
                        -----------------------------------------
Magnitude (a.u.)       :      0.77275
Magnitude (Debye)      :      1.96418

                             ****ORCA TERMINATED NORMALLY****
TOTAL RUN TIME: 0 days 0 hours 19 minutes 16 seconds 996 msec
