                         Program Version 3.0.3 - RELEASE   -
|  1> ! RI-MP2 RIJK def2-TZVP def2-TZVP/C def2-TZVP/JK TIGHTSCF
|  2> % maxcore 2000
|  3> % mp2 density relaxed end
|  4> *xyz 0 1
|  5>  O       -0.1454137452     1.5069822687    -0.1373151638
|  6>  C       -0.0052099282     0.1187197076     0.1243492832
|  7>  C       -1.3671008350    -0.5339209693    -0.0712855191
|  8>  C       -1.3474422266    -2.0423267982     0.1902733173
|  9>  C       -2.7053800512    -2.6928952522    -0.0470359981
| 10>  N       -3.1501017868    -2.7733958144    -1.4709670823
| 11>  C       -3.4662115658    -4.2239599756    -1.3778727755
| 12>  C       -2.7869147488    -4.2299935079     0.0011491778
| 13>  O       -2.4289290401    -5.0687426027     0.7716818117
| 14>  H        0.7147961217     1.9221885978    -0.0272017587
| 15>  H        0.7283621501    -0.3442546915    -0.5559142145
| 16>  H        0.3490228657    -0.0594661340     1.1533281695
| 17>  H       -2.0868695162    -0.0427457845     0.5959516612
| 18>  H       -1.7016967653    -0.3428819348    -1.0973306433
| 19>  H       -0.6115995088    -2.5255337055    -0.4639669047
| 20>  H       -1.0450360506    -2.2515211111     1.2244101046
| 21>  H       -3.4572820157    -2.2516498611     0.6272998079
| 22>  H       -3.9523606037    -2.1937649925    -1.6852127053
| 23>  H       -4.5329049488    -4.4807772541    -1.3123959123
| 24>  H       -3.0044574406    -4.8454786046    -2.1528588254
| 25> *
| 26>
| 27>                          ****END OF INPUT****

CARTESIAN COORDINATES (ANGSTROEM)
---------------------------------
  O     -0.145414    1.506982   -0.137315
  C     -0.005210    0.118720    0.124349
  C     -1.367101   -0.533921   -0.071286
  C     -1.347442   -2.042327    0.190273
  C     -2.705380   -2.692895   -0.047036
  N     -3.150102   -2.773396   -1.470967
  C     -3.466212   -4.223960   -1.377873
  C     -2.786915   -4.229994    0.001149
  O     -2.428929   -5.068743    0.771682
  H      0.714796    1.922189   -0.027202
  H      0.728362   -0.344255   -0.555914
  H      0.349023   -0.059466    1.153328
  H     -2.086870   -0.042746    0.595952
  H     -1.701697   -0.342882   -1.097331
  H     -0.611600   -2.525534   -0.463967
  H     -1.045036   -2.251521    1.224410
  H     -3.457282   -2.251650    0.627300
  H     -3.952361   -2.193765   -1.685213
  H     -4.532905   -4.480777   -1.312396
  H     -3.004457   -4.845479   -2.152859

 Total Charge           Charge          ....    0
 Multiplicity           Mult            ....    1
 Number of Electrons    NEL             ....   70
 Basis Dimension        Dim             ....  345

ORBITAL ENERGIES
----------------

  NO   OCC          E(Eh)            E(eV)
   0   2.0000     -20.561494      -559.5067
   1   2.0000     -20.556638      -559.3746
   2   2.0000     -15.561623      -423.4533
   3   2.0000     -11.337187      -308.5005
   4   2.0000     -11.277429      -306.8745
   5   2.0000     -11.274707      -306.8004
   6   2.0000     -11.271882      -306.7235
   7   2.0000     -11.231920      -305.6361
   8   2.0000     -11.223037      -305.3944
   9   2.0000      -1.405108       -38.2349
  10   2.0000      -1.360636       -37.0248
  11   2.0000      -1.248875       -33.9836
  12   2.0000      -1.071935       -29.1688
  13   2.0000      -0.976209       -26.5640
  14   2.0000      -0.946883       -25.7660
  15   2.0000      -0.877486       -23.8776
  16   2.0000      -0.807255       -21.9665
  17   2.0000      -0.732418       -19.9301
  18   2.0000      -0.700708       -19.0672
  19   2.0000      -0.694314       -18.8932
  20   2.0000      -0.662959       -18.0400
  21   2.0000      -0.649598       -17.6765
  22   2.0000      -0.639535       -17.4026
  23   2.0000      -0.598305       -16.2807
  24   2.0000      -0.580105       -15.7854
  25   2.0000      -0.561590       -15.2816
  26   2.0000      -0.545259       -14.8372
  27   2.0000      -0.522797       -14.2260
  28   2.0000      -0.517228       -14.0745
  29   2.0000      -0.508479       -13.8364
  30   2.0000      -0.487353       -13.2616
  31   2.0000      -0.479336       -13.0434
  32   2.0000      -0.445312       -12.1175
  33   2.0000      -0.400438       -10.8965
  34   2.0000      -0.398057       -10.8317
  35   0.0000       0.113194         3.0802
  36   0.0000       0.135199         3.6790
  37   0.0000       0.147693         4.0189
  38   0.0000       0.158324         4.3082
  39   0.0000       0.163966         4.4617

MULLIKEN ATOMIC CHARGES
-----------------------
   0 O :   -0.465283
   1 C :   -0.066934
   2 C :   -0.182168
   3 C :   -0.234446
   4 C :    0.007400
   5 N :   -0.360585
   6 C :   -0.131006
   7 C :    0.119742
   8 O :   -0.247297
   9 H :    0.315459
  10 H :    0.095544
  11 H :    0.091816
  12 H :    0.107072
  13 H :    0.125735
  14 H :    0.108239
  15 H :    0.121914
  16 H :    0.120028
  17 H :    0.215150
  18 H :    0.128744
  19 H :    0.130878
Sum of atomic charges:   -0.0000000

LOEWDIN ATOMIC CHARGES
----------------------
   0 O :   -0.052545
   1 C :   -0.352932
   2 C :   -0.269820
   3 C :   -0.243735
   4 C :   -0.248141
   5 N :   -0.006132
   6 C :   -0.245488
   7 C :   -0.298563
   8 O :    0.171096
   9 H :    0.171814
  10 H :    0.115167
  11 H :    0.114060
  12 H :    0.139069
  13 H :    0.143001
  14 H :    0.144127
  15 H :    0.145948
  16 H :    0.149733
  17 H :    0.159030
  18 H :    0.132265
  19 H :    0.132046

  Mayer bond orders larger than 0.1
B(  0-O ,  1-C ) :   1.0229 B(  0-O ,  9-H ) :   0.8494 B(  1-C ,  2-C ) :   0.9407
B(  1-C , 10-H ) :   0.9331 B(  1-C , 11-H ) :   0.9316 B(  2-C ,  3-C ) :   0.9096
B(  2-C , 12-H ) :   0.9218 B(  2-C , 13-H ) :   0.9240 B(  3-C ,  4-C ) :   0.9095
B(  3-C , 14-H ) :   0.9175 B(  3-C , 15-H ) :   0.9245 B(  4-C ,  5-N ) :   1.0162
B(  4-C ,  6-C ) :  -0.1086 B(  4-C ,  7-C ) :   0.8208 B(  4-C , 16-H ) :   0.8976
B(  5-N ,  6-C ) :   0.9660 B(  5-N , 17-H ) :   0.8774 B(  6-C ,  7-C ) :   0.9234
B(  6-C , 18-H ) :   0.9024 B(  6-C , 19-H ) :   0.9050 B(  7-C ,  8-O ) :   2.0593

MP2 TOTAL ENERGY:     -439.549891758 Eh
FINAL SINGLE POINT ENERGY      -439.549891758250

DIPOLE MOMENT
-------------
                                X             Y             Z
Electronic contribution:     -2.19192      -5.35841       1.01609
Nuclear contribution   :      2.08281       5.78380      -1.19085
                        -----------------------------------------
Total Dipole Moment    :     -0.10911       0.42539      -0.17476
                        -----------------------------------------
Magnitude (a.u.)       :      0.47266
Magnitude (Debye)      :      1.20139

                             ****ORCA TERMINATED NORMALLY****
TOTAL RUN TIME: 0 days 0 hours 15 minutes 26 seconds 254 msec
