                         Program Version 3.0.3 - RELEASE   -
|  1> ! RI-MP2 RIJK def2-TZVP def2-TZVP/C def2-TZVP/JK TIGHTSCF
|  2> % maxcore 2000
|  3> % mp2 density relaxed end
|  4> *xyz 0 1
|  5>  C        0.0478253445     1.6399696947    -0.0857459388
|  6>  C        0.1144684493     0.1267772706     0.1131308029
|  7>  O        0.8009257225    -0.2238005054     1.3014652928
|  8>  C       -1.2921741281    -0.5455869853     0.0731990812
|  9>  C       -1.1649541990    -2.0864593164     0.0221190933
| 10>  C       -0.6895790006    -2.5800731492    -1.3283406353
| 11>  O        0.1268610082    -3.4458000988    -1.4999908311
| 12>  C       -2.0803800131    -0.1252515067     1.2295180195
| 13>  C       -2.6794684442     0.2133475278     2.2165098075
| 14>  H        1.0529748621     2.0640161987    -0.0222510897
| 15>  H       -0.3756211674     1.8932893711    -1.0634838760
| 16>  H       -0.5755737338     2.1056373596     0.6848921952
| 17>  H        0.7097014411    -0.3161793999    -0.6946928542
| 18>  H        0.2690819164     0.0948523824     2.0421711299
| 19>  H       -1.8020659600    -0.2060817156    -0.8400477060
| 20>  H       -0.4885613663    -2.4414522704     0.8021205128
| 21>  H       -2.1532934827    -2.5340342932     0.1924230002
| 22>  H       -1.1859697175    -2.0818901451    -2.1971412315
| 23>  H       -3.2378086313     0.5127570911     3.0692774774
| 24> *
| 25>
| 26>                          ****END OF INPUT****

CARTESIAN COORDINATES (ANGSTROEM)
---------------------------------
  C      0.047825    1.639970   -0.085746
  C      0.114468    0.126777    0.113131
  O      0.800926   -0.223801    1.301465
  C     -1.292174   -0.545587    0.073199
  C     -1.164954   -2.086459    0.022119
  C     -0.689579   -2.580073   -1.328341
  O      0.126861   -3.445800   -1.499991
  C     -2.080380   -0.125252    1.229518
  C     -2.679468    0.213348    2.216510
  H      1.052975    2.064016   -0.022251
  H     -0.375621    1.893289   -1.063484
  H     -0.575574    2.105637    0.684892
  H      0.709701   -0.316179   -0.694693
  H      0.269082    0.094852    2.042171
  H     -1.802066   -0.206082   -0.840048
  H     -0.488561   -2.441452    0.802121
  H     -2.153293   -2.534034    0.192423
  H     -1.185970   -2.081890   -2.197141
  H     -3.237809    0.512757    3.069277

 Total Charge           Charge          ....    0
 Multiplicity           Mult            ....    1
 Number of Electrons    NEL             ....   68
 Basis Dimension        Dim             ....  339

ORBITAL ENERGIES
----------------

  NO   OCC          E(Eh)            E(eV)
   0   2.0000     -20.562989      -559.5474
   1   2.0000     -20.562684      -559.5391
   2   2.0000     -11.338350      -308.5322
   3   2.0000     -11.300865      -307.5122
   4   2.0000     -11.280205      -306.9500
   5   2.0000     -11.252872      -306.2062
   6   2.0000     -11.250915      -306.1530
   7   2.0000     -11.242323      -305.9192
   8   2.0000     -11.226706      -305.4942
   9   2.0000      -1.401876       -38.1470
  10   2.0000      -1.373993       -37.3883
  11   2.0000      -1.125528       -30.6272
  12   2.0000      -1.032796       -28.1038
  13   2.0000      -1.019898       -27.7528
  14   2.0000      -0.928385       -25.2626
  15   2.0000      -0.846083       -23.0231
  16   2.0000      -0.802332       -21.8326
  17   2.0000      -0.737118       -20.0580
  18   2.0000      -0.694406       -18.8958
  19   2.0000      -0.680804       -18.5256
  20   2.0000      -0.660198       -17.9649
  21   2.0000      -0.650188       -17.6925
  22   2.0000      -0.628106       -17.0916
  23   2.0000      -0.596054       -16.2194
  24   2.0000      -0.592149       -16.1132
  25   2.0000      -0.561697       -15.2845
  26   2.0000      -0.535880       -14.5820
  27   2.0000      -0.533223       -14.5097
  28   2.0000      -0.511480       -13.9181
  29   2.0000      -0.487123       -13.2553
  30   2.0000      -0.459309       -12.4984
  31   2.0000      -0.431356       -11.7378
  32   2.0000      -0.406193       -11.0531
  33   2.0000      -0.400992       -10.9115
  34   0.0000       0.119982         3.2649
  35   0.0000       0.129592         3.5264
  36   0.0000       0.143210         3.8969
  37   0.0000       0.158310         4.3078
  38   0.0000       0.160768         4.3747

MULLIKEN ATOMIC CHARGES
-----------------------
   0 C :   -0.395050
   1 C :    0.092901
   2 O :   -0.469308
   3 C :   -0.204420
   4 C :   -0.110680
   5 C :    0.060974
   6 O :   -0.248517
   7 C :   -0.118469
   8 C :   -0.131709
   9 H :    0.150254
  10 H :    0.123732
  11 H :    0.137473
  12 H :    0.106235
  13 H :    0.322630
  14 H :    0.126542
  15 H :    0.141624
  16 H :    0.149094
  17 H :    0.070448
  18 H :    0.196245
Sum of atomic charges:    0.0000000

LOEWDIN ATOMIC CHARGES
----------------------
   0 C :   -0.294996
   1 C :   -0.341054
   2 O :   -0.003227
   3 C :   -0.232329
   4 C :   -0.221243
   5 C :   -0.299691
   6 O :    0.140958
   7 C :   -0.098961
   8 C :   -0.096153
   9 H :    0.129325
  10 H :    0.126722
  11 H :    0.128607
  12 H :    0.150832
  13 H :    0.181388
  14 H :    0.173613
  15 H :    0.156875
  16 H :    0.161078
  17 H :    0.108864
  18 H :    0.129392

  Mayer bond orders larger than 0.1
B(  0-C ,  1-C ) :   0.9259 B(  0-C ,  9-H ) :   0.9417 B(  0-C , 10-H ) :   0.9294
B(  0-C , 11-H ) :   0.9196 B(  1-C ,  2-O ) :   0.9265 B(  1-C ,  3-C ) :   0.8721
B(  1-C , 12-H ) :   0.9238 B(  2-O , 13-H ) :   0.8323 B(  3-C ,  4-C ) :   0.8697
B(  3-C ,  7-C ) :   1.1181 B(  3-C , 14-H ) :   0.9283 B(  4-C ,  5-C ) :   0.8458
B(  4-C , 15-H ) :   0.8849 B(  4-C , 16-H ) :   0.9148 B(  5-C ,  6-O ) :   2.0188
B(  5-C , 17-H ) :   0.9383 B(  7-C ,  8-C ) :   2.5967 B(  8-C , 18-H ) :   0.8929

MP2 TOTAL ENERGY:     -422.290610890 Eh
FINAL SINGLE POINT ENERGY      -422.290610890437

DIPOLE MOMENT
-------------
                                X             Y             Z
Electronic contribution:     -0.19744      -5.53456       0.28174
Nuclear contribution   :     -0.87461       6.54930      -0.07057
                        -----------------------------------------
Total Dipole Moment    :     -1.07205       1.01474       0.21116
                        -----------------------------------------
Magnitude (a.u.)       :      1.49117
Magnitude (Debye)      :      3.79025

                             ****ORCA TERMINATED NORMALLY****
TOTAL RUN TIME: 0 days 0 hours 18 minutes 38 seconds 520 msec
