                         Program Version 3.0.3 - RELEASE   -
|  1> ! RI-MP2 RIJK def2-TZVP def2-TZVP/C def2-TZVP/JK TIGHTSCF
|  2> % maxcore 2000
|  3> % mp2 density relaxed end
|  4> *xyz 0 1
|  5>  C       -0.1003136918     1.6021371787     0.0903689742
|  6>  C        0.0531047781     0.0906607207     0.0116913741
|  7>  C        1.1895798801    -0.5933645093    -0.7922836229
|  8>  C        2.1875213795    -0.1783354958     0.3601395416
|  9>  C        0.9099482325    -0.7270849715     1.0657211242
| 10>  C        0.3196007873    -1.3103894162     2.3102219764
| 11>  C       -0.3739013340    -2.4037587003     1.9534159590
| 12>  C       -0.2863640028    -2.7322228199     0.4521861719
| 13>  C        0.9451225678    -1.8917806768     0.0575180137
| 14>  H        0.8357010837     2.1337868547     0.2785272835
| 15>  H       -0.5157430545     1.9916276691    -0.8463913201
| 16>  H       -0.7994383016     1.8716525202     0.8901279654
| 17>  H       -0.9309608932    -0.3515312276    -0.1679157827
| 18>  H        1.3807913854    -0.5145710727    -1.8649297363
| 19>  H        3.0892354518    -0.7890377324     0.4578545995
| 20>  H        2.4262041449     0.8812249755     0.4548270535
| 21>  H        0.3460351297    -0.8835468261     3.3059388054
| 22>  H       -0.9898326316    -2.9889987886     2.6293250843
| 23>  H       -0.1413337242    -3.8014243632     0.2668345416
| 24>  H       -1.2216694887    -2.4568841719    -0.0501118152
| 25>  H        1.8458067717    -2.5079643766     0.1505639291
| 26> *
| 27>
| 28>                          ****END OF INPUT****

CARTESIAN COORDINATES (ANGSTROEM)
---------------------------------
  C     -0.100314    1.602137    0.090369
  C      0.053105    0.090661    0.011691
  C      1.189580   -0.593365   -0.792284
  C      2.187521   -0.178335    0.360140
  C      0.909948   -0.727085    1.065721
  C      0.319601   -1.310389    2.310222
  C     -0.373901   -2.403759    1.953416
  C     -0.286364   -2.732223    0.452186
  C      0.945123   -1.891781    0.057518
  H      0.835701    2.133787    0.278527
  H     -0.515743    1.991628   -0.846391
  H     -0.799438    1.871653    0.890128
  H     -0.930961   -0.351531   -0.167916
  H      1.380791   -0.514571   -1.864930
  H      3.089235   -0.789038    0.457855
  H      2.426204    0.881225    0.454827
  H      0.346035   -0.883547    3.305939
  H     -0.989833   -2.988999    2.629325
  H     -0.141334   -3.801424    0.266835
  H     -1.221669   -2.456884   -0.050112
  H      1.845807   -2.507964    0.150564

 Total Charge           Charge          ....    0
 Multiplicity           Mult            ....    1
 Number of Electrons    NEL             ....   66
 Basis Dimension        Dim             ....  351

ORBITAL ENERGIES
----------------

  NO   OCC          E(Eh)            E(eV)
   0   2.0000     -11.243291      -305.9455
   1   2.0000     -11.237270      -305.7817
   2   2.0000     -11.230158      -305.5881
   3   2.0000     -11.228024      -305.5301
   4   2.0000     -11.226751      -305.4954
   5   2.0000     -11.226572      -305.4906
   6   2.0000     -11.224553      -305.4356
   7   2.0000     -11.221083      -305.3412
   8   2.0000     -11.209602      -305.0288
   9   2.0000      -1.216524       -33.1033
  10   2.0000      -1.080910       -29.4131
  11   2.0000      -0.989617       -26.9289
  12   2.0000      -0.954705       -25.9789
  13   2.0000      -0.877977       -23.8910
  14   2.0000      -0.849906       -23.1271
  15   2.0000      -0.814013       -22.1504
  16   2.0000      -0.735168       -20.0049
  17   2.0000      -0.694749       -18.9051
  18   2.0000      -0.665544       -18.1104
  19   2.0000      -0.626801       -17.0561
  20   2.0000      -0.617486       -16.8027
  21   2.0000      -0.575928       -15.6718
  22   2.0000      -0.559992       -15.2382
  23   2.0000      -0.538220       -14.6457
  24   2.0000      -0.522135       -14.2080
  25   2.0000      -0.514792       -14.0082
  26   2.0000      -0.482160       -13.1202
  27   2.0000      -0.464763       -12.6469
  28   2.0000      -0.443219       -12.0606
  29   2.0000      -0.434529       -11.8241
  30   2.0000      -0.429164       -11.6782
  31   2.0000      -0.386075       -10.5056
  32   2.0000      -0.333402        -9.0723
  33   0.0000       0.140662         3.8276
  34   0.0000       0.152111         4.1391
  35   0.0000       0.157173         4.2769
  36   0.0000       0.173704         4.7267
  37   0.0000       0.174943         4.7604

MULLIKEN ATOMIC CHARGES
-----------------------
   0 C :   -0.422441
   1 C :   -0.059993
   2 C :   -0.106338
   3 C :   -0.190660
   4 C :    0.093341
   5 C :   -0.277635
   6 C :   -0.143474
   7 C :   -0.208218
   8 C :   -0.107309
   9 H :    0.120462
  10 H :    0.133355
  11 H :    0.133333
  12 H :    0.089359
  13 H :    0.128458
  14 H :    0.110792
  15 H :    0.115191
  16 H :    0.129782
  17 H :    0.122881
  18 H :    0.129431
  19 H :    0.122284
  20 H :    0.087399
Sum of atomic charges:   -0.0000000

LOEWDIN ATOMIC CHARGES
----------------------
   0 C :   -0.297595
   1 C :   -0.177673
   2 C :   -0.144868
   3 C :   -0.169394
   4 C :   -0.163872
   5 C :   -0.130537
   6 C :   -0.136691
   7 C :   -0.225466
   8 C :   -0.145626
   9 H :    0.120864
  10 H :    0.126070
  11 H :    0.126377
  12 H :    0.148152
  13 H :    0.122060
  14 H :    0.129060
  15 H :    0.122949
  16 H :    0.137340
  17 H :    0.133240
  18 H :    0.136367
  19 H :    0.140686
  20 H :    0.148554

  Mayer bond orders larger than 0.1
B(  0-C ,  1-C ) :   0.9106 B(  0-C ,  9-H ) :   0.9359 B(  0-C , 10-H ) :   0.9390
B(  0-C , 11-H ) :   0.9383 B(  1-C ,  2-C ) :   0.8867 B(  1-C ,  4-C ) :   0.8442
B(  1-C , 12-H ) :   0.9246 B(  2-C ,  3-C ) :   0.9115 B(  2-C ,  8-C ) :   0.8935
B(  2-C , 13-H ) :   0.8897 B(  3-C ,  4-C ) :   0.8729 B(  3-C , 14-H ) :   0.9212
B(  3-C , 15-H ) :   0.9274 B(  4-C ,  5-C ) :   0.8932 B(  4-C ,  8-C ) :   0.8461
B(  5-C ,  6-C ) :   1.7723 B(  5-C , 16-H ) :   0.9258 B(  6-C ,  7-C ) :   0.9380
B(  6-C , 17-H ) :   0.9275 B(  7-C ,  8-C ) :   0.9627 B(  7-C , 18-H ) :   0.9262
B(  7-C , 19-H ) :   0.8973 B(  8-C , 20-H ) :   0.9221

MP2 TOTAL ENERGY:     -349.239681098 Eh
FINAL SINGLE POINT ENERGY      -349.239681097884

DIPOLE MOMENT
-------------
                                X             Y             Z
Electronic contribution:      0.84071      -2.89324       1.52658
Nuclear contribution   :     -0.95705       2.90523      -1.55307
                        -----------------------------------------
Total Dipole Moment    :     -0.11634       0.01199      -0.02649
                        -----------------------------------------
Magnitude (a.u.)       :      0.11992
Magnitude (Debye)      :      0.30481

                             ****ORCA TERMINATED NORMALLY****
TOTAL RUN TIME: 0 days 0 hours 20 minutes 48 seconds 879 msec
