                         Program Version 3.0.3 - RELEASE   -
|  1> ! RI-MP2 RIJK def2-TZVP def2-TZVP/C def2-TZVP/JK TIGHTSCF
|  2> % maxcore 2000
|  3> % mp2 density relaxed end
|  4> *xyz 0 1
|  5>  C       -0.0167416934     1.5658425726    -0.0444392857
|  6>  C        0.0166513264     0.0337362637     0.0238578530
|  7>  N        0.6652917682    -0.4723037553    -1.1795195137
|  8>  C        0.7677816061    -1.9272257638    -1.2245907681
|  9>  C        1.5521382955    -2.4583802034    -0.0249308073
| 10>  O        2.1496042813    -3.5196703800    -0.0911993137
| 11>  C        1.4806308126    -1.6475554357     1.1756690010
| 12>  C        0.7479252362    -0.5075584073     1.2446873935
| 13>  N        0.5345509985     0.1589070487     2.4233727578
| 14>  H        0.9955191161     1.9792127732    -0.0295509941
| 15>  H       -0.4940943091     1.8788220600    -0.9783744642
| 16>  H       -0.6061546550     2.0037330005     0.7669727885
| 17>  H       -1.0309116280    -0.3232298561     0.1184483709
| 18>  H        0.1607769549    -0.1355028404    -1.9924661382
| 19>  H       -0.2161315666    -2.4379983730    -1.2215702510
| 20>  H        1.2903202437    -2.2324702782    -2.1341968203
| 21>  H        2.0016158931    -2.0264354436     2.0508248143
| 22>  H        1.0843638384    -0.1337331989     3.2165739137
| 23>  H        0.3515773510     1.1479062769     2.3889357035
| 24> *
| 25>
| 26>                          ****END OF INPUT****

CARTESIAN COORDINATES (ANGSTROEM)
---------------------------------
  C     -0.016742    1.565843   -0.044439
  C      0.016651    0.033736    0.023858
  N      0.665292   -0.472304   -1.179520
  C      0.767782   -1.927226   -1.224591
  C      1.552138   -2.458380   -0.024931
  O      2.149604   -3.519670   -0.091199
  C      1.480631   -1.647555    1.175669
  C      0.747925   -0.507558    1.244687
  N      0.534551    0.158907    2.423373
  H      0.995519    1.979213   -0.029551
  H     -0.494094    1.878822   -0.978374
  H     -0.606155    2.003733    0.766973
  H     -1.030912   -0.323230    0.118448
  H      0.160777   -0.135503   -1.992466
  H     -0.216132   -2.437998   -1.221570
  H      1.290320   -2.232470   -2.134197
  H      2.001616   -2.026435    2.050825
  H      1.084364   -0.133733    3.216574
  H      0.351577    1.147906    2.388936

 Total Charge           Charge          ....    0
 Multiplicity           Mult            ....    1
 Number of Electrons    NEL             ....   68
 Basis Dimension        Dim             ....  339

ORBITAL ENERGIES
----------------

  NO   OCC          E(Eh)            E(eV)
   0   2.0000     -20.510919      -558.1305
   1   2.0000     -15.590324      -424.2343
   2   2.0000     -15.559886      -423.4060
   3   2.0000     -11.309192      -307.7387
   4   2.0000     -11.308893      -307.7306
   5   2.0000     -11.288019      -307.1626
   6   2.0000     -11.255901      -306.2886
   7   2.0000     -11.242192      -305.9156
   8   2.0000     -11.207456      -304.9704
   9   2.0000      -1.354663       -36.8622
  10   2.0000      -1.262147       -34.3448
  11   2.0000      -1.222910       -33.2771
  12   2.0000      -1.044636       -28.4260
  13   2.0000      -1.041003       -28.3271
  14   2.0000      -0.938096       -25.5269
  15   2.0000      -0.876145       -23.8411
  16   2.0000      -0.813424       -22.1344
  17   2.0000      -0.733977       -19.9725
  18   2.0000      -0.705540       -19.1987
  19   2.0000      -0.694245       -18.8914
  20   2.0000      -0.647557       -17.6209
  21   2.0000      -0.633150       -17.2289
  22   2.0000      -0.624364       -16.9898
  23   2.0000      -0.601861       -16.3775
  24   2.0000      -0.590318       -16.0634
  25   2.0000      -0.567653       -15.4466
  26   2.0000      -0.545961       -14.8564
  27   2.0000      -0.524355       -14.2684
  28   2.0000      -0.512067       -13.9340
  29   2.0000      -0.499519       -13.5926
  30   2.0000      -0.480578       -13.0772
  31   2.0000      -0.406402       -11.0588
  32   2.0000      -0.378826       -10.3084
  33   2.0000      -0.327988        -8.9250
  34   0.0000       0.111435         3.0323
  35   0.0000       0.120588         3.2814
  36   0.0000       0.137867         3.7515
  37   0.0000       0.152954         4.1621
  38   0.0000       0.173834         4.7303

MULLIKEN ATOMIC CHARGES
-----------------------
   0 C :   -0.442570
   1 C :    0.048343
   2 N :   -0.349566
   3 C :   -0.134755
   4 C :    0.210426
   5 O :   -0.324685
   6 C :   -0.375761
   7 C :    0.288315
   8 N :   -0.500125
   9 H :    0.153564
  10 H :    0.138657
  11 H :    0.121429
  12 H :    0.097808
  13 H :    0.203048
  14 H :    0.106578
  15 H :    0.135251
  16 H :    0.110382
  17 H :    0.256334
  18 H :    0.257328
Sum of atomic charges:    0.0000000

LOEWDIN ATOMIC CHARGES
----------------------
   0 C :   -0.291941
   1 C :   -0.287130
   2 N :    0.008588
   3 C :   -0.264522
   4 C :   -0.351596
   5 O :    0.113715
   6 C :   -0.156615
   7 C :   -0.216810
   8 N :   -0.018778
   9 H :    0.130585
  10 H :    0.128131
  11 H :    0.119636
  12 H :    0.148515
  13 H :    0.171888
  14 H :    0.130620
  15 H :    0.142420
  16 H :    0.149244
  17 H :    0.174715
  18 H :    0.169335

  Mayer bond orders larger than 0.1
B(  0-C ,  1-C ) :   0.8596 B(  0-C ,  9-H ) :   0.9391 B(  0-C , 10-H ) :   0.9359
B(  0-C , 11-H ) :   0.9366 B(  1-C ,  2-N ) :   0.9925 B(  1-C ,  7-C ) :   0.9039
B(  1-C , 12-H ) :   0.9338 B(  2-N ,  3-C ) :   0.9095 B(  2-N , 13-H ) :   0.8778
B(  3-C ,  4-C ) :   0.9116 B(  3-C , 14-H ) :   0.9114 B(  3-C , 15-H ) :   0.9114
B(  4-C ,  5-O ) :   1.9662 B(  4-C ,  6-C ) :   1.0941 B(  6-C ,  7-C ) :   1.4575
B(  6-C , 16-H ) :   0.9361 B(  7-C ,  8-N ) :   1.0979 B(  8-N , 17-H ) :   0.8736
B(  8-N , 18-H ) :   0.8704

MP2 TOTAL ENERGY:     -418.529995739 Eh
FINAL SINGLE POINT ENERGY      -418.529995739366

DIPOLE MOMENT
-------------
                                X             Y             Z
Electronic contribution:      3.72676      -6.78316       0.81237
Nuclear contribution   :     -4.80077       8.65679      -0.32892
                        -----------------------------------------
Total Dipole Moment    :     -1.07401       1.87363       0.48346
                        -----------------------------------------
Magnitude (a.u.)       :      2.21308
Magnitude (Debye)      :      5.62519

                             ****ORCA TERMINATED NORMALLY****
TOTAL RUN TIME: 0 days 0 hours 18 minutes 31 seconds 678 msec
