                         Program Version 3.0.3 - RELEASE   -
|  1> ! RI-MP2 RIJK def2-TZVP def2-TZVP/C def2-TZVP/JK TIGHTSCF
|  2> % maxcore 2000
|  3> % mp2 density relaxed end
|  4> *xyz 0 1
|  5>  C        0.0722066896     1.4182926868    -0.1168124254
|  6>  N       -0.0475440701    -0.0128084178     0.0702880029
|  7>  C       -1.4081670141    -0.5218987486     0.0220531615
|  8>  C       -1.3557694890    -2.0444884272     0.0394467230
|  9>  O       -0.8023850516    -2.5463710659     1.2462390097
| 10>  C        0.3019407148    -1.8565119026     1.7715842433
| 11>  C        0.3621326055    -2.0904554601     3.2615749548
| 12>  C        1.5984032565    -1.7205088715     1.0040253744
| 13>  C        0.6861005935    -0.5115779169     1.2105257842
| 14>  H        1.1290170487     1.6957460734    -0.1820521300
| 15>  H       -0.4117575344     1.7084990975    -1.0553672644
| 16>  H       -0.3855491622     2.0120601768     0.6978127066
| 17>  H       -2.0375827419    -0.1642155138     0.8600575313
| 18>  H       -1.8774023931    -0.1895056237    -0.9112072687
| 19>  H       -2.3607066706    -2.4719591730    -0.0266485923
| 20>  H       -0.7751629771    -2.3900787079    -0.8294778698
| 21>  H        0.4590711584    -3.1610244799     3.4708990512
| 22>  H        1.2191602822    -1.5761102098     3.7045189697
| 23>  H       -0.5514747940    -1.7304739803     3.7452008489
| 24>  H        2.5297356840    -1.7957283547     1.5561933525
| 25>  H        1.6346664480    -2.0925486297    -0.0136010424
| 26>  H        0.9934540570     0.2480376989     1.9295477389
| 27> *
| 28>
| 29>                          ****END OF INPUT****

CARTESIAN COORDINATES (ANGSTROEM)
---------------------------------
  C      0.072207    1.418293   -0.116812
  N     -0.047544   -0.012808    0.070288
  C     -1.408167   -0.521899    0.022053
  C     -1.355769   -2.044488    0.039447
  O     -0.802385   -2.546371    1.246239
  C      0.301941   -1.856512    1.771584
  C      0.362133   -2.090455    3.261575
  C      1.598403   -1.720509    1.004025
  C      0.686101   -0.511578    1.210526
  H      1.129017    1.695746   -0.182052
  H     -0.411758    1.708499   -1.055367
  H     -0.385549    2.012060    0.697813
  H     -2.037583   -0.164216    0.860058
  H     -1.877402   -0.189506   -0.911207
  H     -2.360707   -2.471959   -0.026649
  H     -0.775163   -2.390079   -0.829478
  H      0.459071   -3.161024    3.470899
  H      1.219160   -1.576110    3.704519
  H     -0.551475   -1.730474    3.745201
  H      2.529736   -1.795728    1.556193
  H      1.634666   -2.092549   -0.013601
  H      0.993454    0.248038    1.929548

 Total Charge           Charge          ....    0
 Multiplicity           Mult            ....    1
 Number of Electrons    NEL             ....   70
 Basis Dimension        Dim             ....  357

ORBITAL ENERGIES
----------------

  NO   OCC          E(Eh)            E(eV)
   0   2.0000     -20.553104      -559.2784
   1   2.0000     -15.547794      -423.0770
   2   2.0000     -11.284284      -307.0610
   3   2.0000     -11.271506      -306.7133
   4   2.0000     -11.253748      -306.2301
   5   2.0000     -11.250167      -306.1326
   6   2.0000     -11.246772      -306.0402
   7   2.0000     -11.213878      -305.1451
   8   2.0000     -11.213810      -305.1433
   9   2.0000      -1.379876       -37.5483
  10   2.0000      -1.234348       -33.5883
  11   2.0000      -1.121049       -30.5053
  12   2.0000      -1.002735       -27.2858
  13   2.0000      -0.964380       -26.2421
  14   2.0000      -0.901105       -24.5203
  15   2.0000      -0.857005       -23.3203
  16   2.0000      -0.796125       -21.6637
  17   2.0000      -0.733545       -19.9608
  18   2.0000      -0.675646       -18.3853
  19   2.0000      -0.672578       -18.3018
  20   2.0000      -0.635209       -17.2849
  21   2.0000      -0.621142       -16.9021
  22   2.0000      -0.610023       -16.5996
  23   2.0000      -0.588259       -16.0073
  24   2.0000      -0.577539       -15.7156
  25   2.0000      -0.549275       -14.9465
  26   2.0000      -0.535808       -14.5801
  27   2.0000      -0.535023       -14.5587
  28   2.0000      -0.517382       -14.0787
  29   2.0000      -0.499247       -13.5852
  30   2.0000      -0.484789       -13.1918
  31   2.0000      -0.469918       -12.7871
  32   2.0000      -0.427970       -11.6457
  33   2.0000      -0.368306       -10.0221
  34   2.0000      -0.336556        -9.1581
  35   0.0000       0.137602         3.7443
  36   0.0000       0.157642         4.2897
  37   0.0000       0.160831         4.3764
  38   0.0000       0.173759         4.7282
  39   0.0000       0.192737         5.2446

MULLIKEN ATOMIC CHARGES
-----------------------
   0 C :   -0.334124
   1 N :   -0.155359
   2 C :   -0.158812
   3 C :   -0.036467
   4 O :   -0.298242
   5 C :    0.265356
   6 C :   -0.421276
   7 C :   -0.283000
   8 C :   -0.127696
   9 H :    0.143510
  10 H :    0.131634
  11 H :    0.109844
  12 H :    0.087281
  13 H :    0.119041
  14 H :    0.120857
  15 H :    0.088247
  16 H :    0.137430
  17 H :    0.122215
  18 H :    0.129788
  19 H :    0.124998
  20 H :    0.129294
  21 H :    0.105482
Sum of atomic charges:    0.0000000

LOEWDIN ATOMIC CHARGES
----------------------
   0 C :   -0.327334
   1 N :    0.082400
   2 C :   -0.289010
   3 C :   -0.306726
   4 O :    0.211443
   5 C :   -0.343970
   6 C :   -0.263833
   7 C :   -0.191955
   8 C :   -0.222490
   9 H :    0.120780
  10 H :    0.118076
  11 H :    0.102029
  12 H :    0.122433
  13 H :    0.137527
  14 H :    0.130091
  15 H :    0.122336
  16 H :    0.130533
  17 H :    0.128125
  18 H :    0.127308
  19 H :    0.131399
  20 H :    0.138610
  21 H :    0.142227

  Mayer bond orders larger than 0.1
B(  0-C ,  1-N ) :   0.9203 B(  0-C ,  9-H ) :   0.9372 B(  0-C , 10-H ) :   0.9370
B(  0-C , 11-H ) :   0.9290 B(  1-N ,  2-C ) :   0.9423 B(  1-N ,  8-C ) :   0.9553
B(  2-C ,  3-C ) :   0.9437 B(  2-C , 12-H ) :   0.9101 B(  2-C , 13-H ) :   0.9164
B(  3-C ,  4-O ) :   0.9390 B(  3-C , 14-H ) :   0.9218 B(  3-C , 15-H ) :   0.9344
B(  4-O ,  5-C ) :   0.9836 B(  5-C ,  6-C ) :   0.9042 B(  5-C ,  7-C ) :   0.8895
B(  5-C ,  8-C ) :   0.8647 B(  6-C , 16-H ) :   0.9376 B(  6-C , 17-H ) :   0.9339
B(  6-C , 18-H ) :   0.9398 B(  7-C ,  8-C ) :   0.8386 B(  7-C , 19-H ) :   0.9211
B(  7-C , 20-H ) :   0.9091 B(  8-C , 21-H ) :   0.9213

MP2 TOTAL ENERGY:     -403.627915612 Eh
FINAL SINGLE POINT ENERGY      -403.627915612227

DIPOLE MOMENT
-------------
                                X             Y             Z
Electronic contribution:     -0.65497      -3.45701      -0.68010
Nuclear contribution   :      0.62298       4.01025       0.60345
                        -----------------------------------------
Total Dipole Moment    :     -0.03199       0.55324      -0.07665
                        -----------------------------------------
Magnitude (a.u.)       :      0.55944
Magnitude (Debye)      :      1.42199

                             ****ORCA TERMINATED NORMALLY****
TOTAL RUN TIME: 0 days 0 hours 19 minutes 33 seconds 152 msec
