                         Program Version 3.0.3 - RELEASE   -
|  1> ! RI-MP2 RIJK def2-TZVP def2-TZVP/C def2-TZVP/JK TIGHTSCF
|  2> % maxcore 2000
|  3> % mp2 density relaxed end
|  4> *xyz 0 1
|  5>  O        0.1144135123     1.3547497019     0.0883943778
|  6>  C        0.0635593781    -0.0575382866     0.1714694998
|  7>  C       -1.3560970447    -0.5811693123    -0.0959804142
|  8>  N       -1.4382612643    -2.0221259933    -0.0128995930
|  9>  C       -1.9591946624    -2.7822310151     0.9779458837
| 10>  C       -1.7396249469    -4.1046675714     0.6503902568
| 11>  C       -1.0586420799    -4.0306991589    -0.5820604306
| 12>  O       -0.6325098039    -5.0845878802    -1.3089224173
| 13>  N       -0.8691086223    -2.7826632619    -0.9887814466
| 14>  H        0.0590524380     1.6017613740    -0.8400862628
| 15>  H        0.7647012604    -0.5451535893    -0.5182644787
| 16>  H        0.3636170740    -0.3205650016     1.1909540160
| 17>  H       -2.0498604131    -0.1546641146     0.6331338003
| 18>  H       -1.6819003881    -0.2718168430    -1.0955973381
| 19>  H       -2.4469097781    -2.3319936614     1.8288439260
| 20>  H       -2.0290637872    -4.9845351711     1.1988061272
| 21>  H       -0.2102644019    -4.7289763852    -2.1007962164
| 22> *
| 23>
| 24>                          ****END OF INPUT****

CARTESIAN COORDINATES (ANGSTROEM)
---------------------------------
  O      0.114414    1.354750    0.088394
  C      0.063559   -0.057538    0.171469
  C     -1.356097   -0.581169   -0.095980
  N     -1.438261   -2.022126   -0.012900
  C     -1.959195   -2.782231    0.977946
  C     -1.739625   -4.104668    0.650390
  C     -1.058642   -4.030699   -0.582060
  O     -0.632510   -5.084588   -1.308922
  N     -0.869109   -2.782663   -0.988781
  H      0.059052    1.601761   -0.840086
  H      0.764701   -0.545154   -0.518264
  H      0.363617   -0.320565    1.190954
  H     -2.049860   -0.154664    0.633134
  H     -1.681900   -0.271817   -1.095597
  H     -2.446910   -2.331994    1.828844
  H     -2.029064   -4.984535    1.198806
  H     -0.210264   -4.728976   -2.100796

 Total Charge           Charge          ....    0
 Multiplicity           Mult            ....    1
 Number of Electrons    NEL             ....   68
 Basis Dimension        Dim             ....  327

ORBITAL ENERGIES
----------------

  NO   OCC          E(Eh)            E(eV)
   0   2.0000     -20.590204      -560.2879
   1   2.0000     -20.566890      -559.6535
   2   2.0000     -15.637781      -425.5256
   3   2.0000     -15.573976      -423.7894
   4   2.0000     -11.318480      -307.9915
   5   2.0000     -11.284410      -307.0644
   6   2.0000     -11.284252      -307.0601
   7   2.0000     -11.279022      -306.9178
   8   2.0000     -11.218711      -305.2767
   9   2.0000      -1.422121       -38.6979
  10   2.0000      -1.373437       -37.3731
  11   2.0000      -1.364414       -37.1276
  12   2.0000      -1.126039       -30.6411
  13   2.0000      -1.066561       -29.0226
  14   2.0000      -0.986651       -26.8481
  15   2.0000      -0.877357       -23.8741
  16   2.0000      -0.813958       -22.1489
  17   2.0000      -0.802725       -21.8433
  18   2.0000      -0.731740       -19.9117
  19   2.0000      -0.706138       -19.2150
  20   2.0000      -0.685231       -18.6461
  21   2.0000      -0.654702       -17.8153
  22   2.0000      -0.618631       -16.8338
  23   2.0000      -0.609241       -16.5783
  24   2.0000      -0.603117       -16.4117
  25   2.0000      -0.587909       -15.9978
  26   2.0000      -0.559263       -15.2183
  27   2.0000      -0.551025       -14.9942
  28   2.0000      -0.542527       -14.7629
  29   2.0000      -0.495100       -13.4724
  30   2.0000      -0.471018       -12.8171
  31   2.0000      -0.456499       -12.4220
  32   2.0000      -0.354011        -9.6331
  33   2.0000      -0.333522        -9.0756
  34   0.0000       0.129474         3.5232
  35   0.0000       0.143414         3.9025
  36   0.0000       0.149105         4.0574
  37   0.0000       0.155577         4.2335
  38   0.0000       0.185341         5.0434

MULLIKEN ATOMIC CHARGES
-----------------------
   0 O :   -0.470322
   1 C :   -0.052611
   2 C :   -0.178833
   3 N :    0.112118
   4 C :   -0.109813
   5 C :   -0.256165
   6 C :    0.214111
   7 O :   -0.431257
   8 N :   -0.297216
   9 H :    0.320291
  10 H :    0.130872
  11 H :    0.118475
  12 H :    0.138290
  13 H :    0.127703
  14 H :    0.150207
  15 H :    0.147978
  16 H :    0.336173
Sum of atomic charges:    0.0000000

LOEWDIN ATOMIC CHARGES
----------------------
   0 O :   -0.042798
   1 C :   -0.346038
   2 C :   -0.264766
   3 N :    0.193130
   4 C :   -0.223951
   5 C :   -0.186810
   6 C :   -0.422523
   7 O :    0.069700
   8 N :    0.032731
   9 H :    0.176519
  10 H :    0.121742
  11 H :    0.130076
  12 H :    0.143399
  13 H :    0.137984
  14 H :    0.139574
  15 H :    0.144759
  16 H :    0.197273

  Mayer bond orders larger than 0.1
B(  0-O ,  1-C ) :   0.9478 B(  0-O ,  9-H ) :   0.8455 B(  1-C ,  2-C ) :   0.9101
B(  1-C , 10-H ) :   0.9436 B(  1-C , 11-H ) :   0.9204 B(  2-C ,  3-N ) :   0.8583
B(  2-C , 12-H ) :   0.9215 B(  2-C , 13-H ) :   0.9179 B(  3-N ,  4-C ) :   1.2228
B(  3-N ,  8-N ) :   0.9946 B(  4-C ,  5-C ) :   1.4317 B(  4-C , 14-H ) :   0.9092
B(  5-C ,  6-C ) :   1.3143 B(  5-C , 15-H ) :   0.9165 B(  6-C ,  7-O ) :   1.0984
B(  6-C ,  8-N ) :   1.4823 B(  7-O , 16-H ) :   0.8209

MP2 TOTAL ENERGY:     -454.428089255 Eh
FINAL SINGLE POINT ENERGY      -454.428089255338

DIPOLE MOMENT
-------------
                                X             Y             Z
Electronic contribution:     -0.50699      -4.73125      -1.59204
Nuclear contribution   :      0.29635       5.25707       1.42025
                        -----------------------------------------
Total Dipole Moment    :     -0.21064       0.52582      -0.17178
                        -----------------------------------------
Magnitude (a.u.)       :      0.59191
Magnitude (Debye)      :      1.50452

                             ****ORCA TERMINATED NORMALLY****
TOTAL RUN TIME: 0 days 0 hours 15 minutes 56 seconds 430 msec
