                         Program Version 3.0.3 - RELEASE   -
|  1> ! RI-MP2 RIJK def2-TZVP def2-TZVP/C def2-TZVP/JK TIGHTSCF
|  2> % maxcore 2000
|  3> % mp2 density relaxed end
|  4> *xyz 0 1
|  5>  C        0.0798535514     1.4603728463    -0.1252079404
|  6>  N       -0.0440685643     0.0087593358     0.0538094058
|  7>  C        0.6466220119    -0.5062940169     1.2315832351
|  8>  C        0.8183235292    -2.0652244751     1.1861898952
|  9>  N        2.2563663221    -1.8439934304     1.0317408449
| 10>  C        2.2124094117    -0.4798460190     1.0206255294
| 11>  O        3.0400125103     0.3765540253     0.8759943744
| 12>  C        0.1876381601     0.0232879514     2.5106918555
| 13>  C       -0.2187717632     0.4811838683     3.5464191330
| 14>  H        1.1345909804     1.7163045540    -0.2444033682
| 15>  H       -0.4524019857     1.7431123933    -1.0373429076
| 16>  H       -0.3225596385     2.0456665725     0.7153334012
| 17>  H       -1.0280583207    -0.2339222531     0.1312817361
| 18>  H        0.5397111210    -2.5900743310     2.1031565889
| 19>  H        0.3355518563    -2.5140234264     0.3136335715
| 20>  H        3.0142357501    -2.4781925445     0.8274889297
| 21>  H       -0.5643283521     0.8882793295     4.4646481954
| 22> *
| 23>
| 24>                          ****END OF INPUT****

CARTESIAN COORDINATES (ANGSTROEM)
---------------------------------
  C      0.079854    1.460373   -0.125208
  N     -0.044069    0.008759    0.053809
  C      0.646622   -0.506294    1.231583
  C      0.818324   -2.065224    1.186190
  N      2.256366   -1.843993    1.031741
  C      2.212409   -0.479846    1.020626
  O      3.040013    0.376554    0.875994
  C      0.187638    0.023288    2.510692
  C     -0.218772    0.481184    3.546419
  H      1.134591    1.716305   -0.244403
  H     -0.452402    1.743112   -1.037343
  H     -0.322560    2.045667    0.715333
  H     -1.028058   -0.233922    0.131282
  H      0.539711   -2.590074    2.103157
  H      0.335552   -2.514023    0.313634
  H      3.014236   -2.478193    0.827489
  H     -0.564328    0.888279    4.464648

 Total Charge           Charge          ....    0
 Multiplicity           Mult            ....    1
 Number of Electrons    NEL             ....   66
 Basis Dimension        Dim             ....  327

ORBITAL ENERGIES
----------------

  NO   OCC          E(Eh)            E(eV)
   0   2.0000     -20.531812      -558.6990
   1   2.0000     -15.593152      -424.3112
   2   2.0000     -15.565493      -423.5586
   3   2.0000     -11.358941      -309.0925
   4   2.0000     -11.310996      -307.7879
   5   2.0000     -11.287973      -307.1614
   6   2.0000     -11.244908      -305.9895
   7   2.0000     -11.242126      -305.9138
   8   2.0000     -11.238593      -305.8177
   9   2.0000      -1.395918       -37.9849
  10   2.0000      -1.285235       -34.9730
  11   2.0000      -1.215077       -33.0639
  12   2.0000      -1.056412       -28.7464
  13   2.0000      -0.990883       -26.9633
  14   2.0000      -0.911464       -24.8022
  15   2.0000      -0.894677       -24.3454
  16   2.0000      -0.815729       -22.1971
  17   2.0000      -0.732272       -19.9261
  18   2.0000      -0.701400       -19.0861
  19   2.0000      -0.682846       -18.5812
  20   2.0000      -0.665493       -18.1090
  21   2.0000      -0.630553       -17.1582
  22   2.0000      -0.606206       -16.4957
  23   2.0000      -0.593523       -16.1506
  24   2.0000      -0.564770       -15.3682
  25   2.0000      -0.548660       -14.9298
  26   2.0000      -0.534960       -14.5570
  27   2.0000      -0.514554       -14.0017
  28   2.0000      -0.452222       -12.3056
  29   2.0000      -0.408198       -11.1076
  30   2.0000      -0.405756       -11.0412
  31   2.0000      -0.390968       -10.6388
  32   2.0000      -0.385137       -10.4801
  33   0.0000       0.132122         3.5952
  34   0.0000       0.136792         3.7223
  35   0.0000       0.152434         4.1479
  36   0.0000       0.162055         4.4097
  37   0.0000       0.164360         4.4725

MULLIKEN ATOMIC CHARGES
-----------------------
   0 C :   -0.314542
   1 N :   -0.372880
   2 C :    0.170550
   3 C :   -0.116171
   4 N :   -0.320502
   5 C :    0.198316
   6 O :   -0.307586
   7 C :   -0.084611
   8 C :   -0.176050
   9 H :    0.162599
  10 H :    0.133521
  11 H :    0.124949
  12 H :    0.209223
  13 H :    0.133474
  14 H :    0.125995
  15 H :    0.239838
  16 H :    0.193878
Sum of atomic charges:    0.0000000

LOEWDIN ATOMIC CHARGES
----------------------
   0 C :   -0.331298
   1 N :    0.009859
   2 C :   -0.273981
   3 C :   -0.187620
   4 N :    0.135217
   5 C :   -0.396371
   6 O :    0.117084
   7 C :   -0.073578
   8 C :   -0.080789
   9 H :    0.126177
  10 H :    0.115431
  11 H :    0.106684
  12 H :    0.175034
  13 H :    0.127874
  14 H :    0.128616
  15 H :    0.172850
  16 H :    0.128811

  Mayer bond orders larger than 0.1
B(  0-C ,  1-N ) :   0.9165 B(  0-C ,  9-H ) :   0.9311 B(  0-C , 10-H ) :   0.9334
B(  0-C , 11-H ) :   0.9308 B(  1-N ,  2-C ) :   0.8831 B(  1-N , 12-H ) :   0.8782
B(  2-C ,  3-C ) :   0.8570 B(  2-C ,  4-N ) :  -0.1186 B(  2-C ,  5-C ) :   0.7730
B(  2-C ,  7-C ) :   1.1031 B(  3-C ,  4-N ) :   0.9304 B(  3-C , 13-H ) :   0.9281
B(  3-C , 14-H ) :   0.9207 B(  4-N ,  5-C ) :   1.2158 B(  4-N , 15-H ) :   0.8597
B(  5-C ,  6-O ) :   2.0111 B(  7-C ,  8-C ) :   2.6170 B(  8-C , 16-H ) :   0.8898

MP2 TOTAL ENERGY:     -417.261018382 Eh
FINAL SINGLE POINT ENERGY      -417.261018381850

DIPOLE MOMENT
-------------
                                X             Y             Z
Electronic contribution:      4.20025      -1.72243       2.40293
Nuclear contribution   :     -5.15834       0.73328      -2.20215
                        -----------------------------------------
Total Dipole Moment    :     -0.95809      -0.98914       0.20078
                        -----------------------------------------
Magnitude (a.u.)       :      1.39163
Magnitude (Debye)      :      3.53725

                             ****ORCA TERMINATED NORMALLY****
TOTAL RUN TIME: 0 days 0 hours 17 minutes 50 seconds 951 msec
