                         Program Version 3.0.3 - RELEASE   -
|  1> ! RI-MP2 RIJK def2-TZVP def2-TZVP/C def2-TZVP/JK TIGHTSCF
|  2> % maxcore 2000
|  3> % mp2 density relaxed end
|  4> *xyz 0 1
|  5>  O       -0.1150174559     1.4375369859    -0.4914266081
|  6>  C       -0.2775192087     0.0693600622    -0.7027156158
|  7>  C       -1.1716199454    -0.5413605286     0.3622436401
|  8>  O       -1.5324235639     0.1033783842     1.3177392199
|  9>  C       -1.5718972006    -1.9932141982     0.2028809224
| 10>  C       -2.2916822353    -2.4142713759    -1.0306357963
| 11>  O       -0.9215757594    -2.7198442994    -0.8430043472
| 12>  C       -1.8197775664    -2.7213094409     1.4319105380
| 13>  N       -2.0124517421    -3.3077484167     2.4076787403
| 14>  H       -0.4923245002     1.6229392274     0.3821399932
| 15>  H       -0.6904631152    -0.1219674620    -1.7033855472
| 16>  H        0.6802245174    -0.4790616386    -0.6665756781
| 17>  H       -2.9806137566    -3.2524401362    -0.9566253981
| 18>  H       -2.5163515677    -1.6661163132    -1.7879190730
| 19> *
| 20>
| 21>                          ****END OF INPUT****

CARTESIAN COORDINATES (ANGSTROEM)
---------------------------------
  O     -0.115017    1.437537   -0.491427
  C     -0.277519    0.069360   -0.702716
  C     -1.171620   -0.541361    0.362244
  O     -1.532424    0.103378    1.317739
  C     -1.571897   -1.993214    0.202881
  C     -2.291682   -2.414271   -1.030636
  O     -0.921576   -2.719844   -0.843004
  C     -1.819778   -2.721309    1.431911
  N     -2.012452   -3.307748    2.407679
  H     -0.492325    1.622939    0.382140
  H     -0.690463   -0.121967   -1.703386
  H      0.680225   -0.479062   -0.666576
  H     -2.980614   -3.252440   -0.956625
  H     -2.516352   -1.666116   -1.787919

 Total Charge           Charge          ....    0
 Multiplicity           Mult            ....    1
 Number of Electrons    NEL             ....   66
 Basis Dimension        Dim             ....  309

ORBITAL ENERGIES
----------------

  NO   OCC          E(Eh)            E(eV)
   0   2.0000     -20.645459      -561.7915
   1   2.0000     -20.600802      -560.5763
   2   2.0000     -20.577518      -559.9427
   3   2.0000     -15.602260      -424.5591
   4   2.0000     -11.385200      -309.8070
   5   2.0000     -11.384164      -309.7788
   6   2.0000     -11.356936      -309.0379
   7   2.0000     -11.319194      -308.0109
   8   2.0000     -11.300636      -307.5059
   9   2.0000      -1.494604       -40.6702
  10   2.0000      -1.450469       -39.4693
  11   2.0000      -1.385495       -37.7012
  12   2.0000      -1.244037       -33.8520
  13   2.0000      -1.065871       -29.0038
  14   2.0000      -1.002627       -27.2829
  15   2.0000      -0.957458       -26.0538
  16   2.0000      -0.845878       -23.0175
  17   2.0000      -0.771623       -20.9969
  18   2.0000      -0.761987       -20.7347
  19   2.0000      -0.716940       -19.5089
  20   2.0000      -0.679891       -18.5008
  21   2.0000      -0.665547       -18.1104
  22   2.0000      -0.647171       -17.6104
  23   2.0000      -0.627364       -17.0714
  24   2.0000      -0.590852       -16.0779
  25   2.0000      -0.584332       -15.9005
  26   2.0000      -0.564915       -15.3721
  27   2.0000      -0.545751       -14.8506
  28   2.0000      -0.525938       -14.3115
  29   2.0000      -0.497142       -13.5279
  30   2.0000      -0.481097       -13.0913
  31   2.0000      -0.472811       -12.8658
  32   2.0000      -0.456809       -12.4304
  33   0.0000       0.085688         2.3317
  34   0.0000       0.123608         3.3635
  35   0.0000       0.133108         3.6221
  36   0.0000       0.139349         3.7919
  37   0.0000       0.149996         4.0816

MULLIKEN ATOMIC CHARGES
-----------------------
   0 O :   -0.472822
   1 C :   -0.014801
   2 C :    0.136904
   3 O :   -0.279150
   4 C :    0.265155
   5 C :   -0.065422
   6 O :   -0.290706
   7 C :   -0.164384
   8 N :   -0.028073
   9 H :    0.339505
  10 H :    0.127170
  11 H :    0.140128
  12 H :    0.160531
  13 H :    0.145965
Sum of atomic charges:   -0.0000000

LOEWDIN ATOMIC CHARGES
----------------------
   0 O :   -0.021394
   1 C :   -0.326958
   2 C :   -0.289390
   3 O :    0.182259
   4 C :   -0.280435
   5 C :   -0.196822
   6 O :    0.220728
   7 C :   -0.132922
   8 N :    0.103510
   9 H :    0.184850
  10 H :    0.140537
  11 H :    0.147131
  12 H :    0.138063
  13 H :    0.130842

  Mayer bond orders larger than 0.1
B(  0-O ,  1-C ) :   1.0056 B(  0-O ,  9-H ) :   0.8076 B(  1-C ,  2-C ) :   0.9689
B(  1-C , 10-H ) :   0.9051 B(  1-C , 11-H ) :   0.8928 B(  2-C ,  3-O ) :   1.9425
B(  2-C ,  4-C ) :   0.8715 B(  4-C ,  5-C ) :   0.9219 B(  4-C ,  6-O ) :   0.8947
B(  4-C ,  7-C ) :   0.9298 B(  5-C ,  6-O ) :   0.8926 B(  5-C , 12-H ) :   0.9152
B(  5-C , 13-H ) :   0.9007 B(  7-C ,  8-N ) :   2.8215

MP2 TOTAL ENERGY:     -473.056568095 Eh
FINAL SINGLE POINT ENERGY      -473.056568095215

DIPOLE MOMENT
-------------
                                X             Y             Z
Electronic contribution:     -0.75395      -2.34834       4.22570
Nuclear contribution   :      0.32779       2.29202      -5.61493
                        -----------------------------------------
Total Dipole Moment    :     -0.42616      -0.05633      -1.38923
                        -----------------------------------------
Magnitude (a.u.)       :      1.45422
Magnitude (Debye)      :      3.69633

                             ****ORCA TERMINATED NORMALLY****
TOTAL RUN TIME: 0 days 0 hours 13 minutes 55 seconds 557 msec
