                         Program Version 3.0.3 - RELEASE   -
|  1> ! RI-MP2 RIJK def2-TZVP def2-TZVP/C def2-TZVP/JK TIGHTSCF
|  2> % maxcore 2000
|  3> % mp2 density relaxed end
|  4> *xyz 0 1
|  5>  O        0.0001473091     0.1312696468    -0.6977206430
|  6>  C       -0.0910648974     1.1687438527    -0.1302094535
|  7>  C       -1.1811633734     2.1540413853     0.2900986268
|  8>  C       -0.0059728718     2.9500616676     0.8730033917
|  9>  C        0.3226372223     4.4086528261     0.5297307342
| 10>  O        0.2880310512     4.7746155699     1.9247630388
| 11>  C        0.1094076105     3.4028164276     2.3341599253
| 12>  O        0.9250120338     1.9252665987     0.4117867107
| 13>  H       -1.7151296647     2.6196870189    -0.5403455277
| 14>  H       -1.8982931098     1.7552722382     1.0100305761
| 15>  H        1.3162673780     4.5381565742     0.0839912871
| 16>  H       -0.4226384009     4.9527336460    -0.0619665878
| 17>  H       -0.7797798645     3.2677707614     2.9608159648
| 18>  H        0.9897066176     2.9976089664     2.8476052167
| 19> *
| 20>
| 21>                          ****END OF INPUT****

CARTESIAN COORDINATES (ANGSTROEM)
---------------------------------
  O      0.000147    0.131270   -0.697721
  C     -0.091065    1.168744   -0.130209
  C     -1.181163    2.154041    0.290099
  C     -0.005973    2.950062    0.873003
  C      0.322637    4.408653    0.529731
  O      0.288031    4.774616    1.924763
  C      0.109408    3.402816    2.334160
  O      0.925012    1.925267    0.411787
  H     -1.715130    2.619687   -0.540346
  H     -1.898293    1.755272    1.010031
  H      1.316267    4.538157    0.083991
  H     -0.422638    4.952734   -0.061967
  H     -0.779780    3.267771    2.960816
  H      0.989707    2.997609    2.847605

 Total Charge           Charge          ....    0
 Multiplicity           Mult            ....    1
 Number of Electrons    NEL             ....   60
 Basis Dimension        Dim             ....  284

ORBITAL ENERGIES
----------------

  NO   OCC          E(Eh)            E(eV)
   0   2.0000     -20.614355      -560.9451
   1   2.0000     -20.572709      -559.8119
   2   2.0000     -20.564292      -559.5828
   3   2.0000     -11.396572      -310.1165
   4   2.0000     -11.330887      -308.3291
   5   2.0000     -11.303194      -307.5755
   6   2.0000     -11.303175      -307.5750
   7   2.0000     -11.277032      -306.8637
   8   2.0000      -1.478487       -40.2317
   9   2.0000      -1.407403       -38.2974
  10   2.0000      -1.387869       -37.7658
  11   2.0000      -1.072902       -29.1951
  12   2.0000      -0.994675       -27.0665
  13   2.0000      -0.965316       -26.2676
  14   2.0000      -0.804311       -21.8864
  15   2.0000      -0.763685       -20.7809
  16   2.0000      -0.726913       -19.7803
  17   2.0000      -0.711912       -19.3721
  18   2.0000      -0.700916       -19.0729
  19   2.0000      -0.667684       -18.1686
  20   2.0000      -0.630302       -17.1514
  21   2.0000      -0.612112       -16.6564
  22   2.0000      -0.600150       -16.3309
  23   2.0000      -0.568749       -15.4764
  24   2.0000      -0.537091       -14.6150
  25   2.0000      -0.530430       -14.4337
  26   2.0000      -0.494622       -13.4594
  27   2.0000      -0.461440       -12.5564
  28   2.0000      -0.455605       -12.3976
  29   2.0000      -0.437757       -11.9120
  30   0.0000       0.120692         3.2842
  31   0.0000       0.142230         3.8703
  32   0.0000       0.145239         3.9522
  33   0.0000       0.171011         4.6535
  34   0.0000       0.183479         4.9927

MULLIKEN ATOMIC CHARGES
-----------------------
   0 O :   -0.249246
   1 C :    0.262879
   2 C :   -0.297030
   3 C :    0.147203
   4 C :   -0.032055
   5 O :   -0.321233
   6 C :   -0.032043
   7 O :   -0.233764
   8 H :    0.153756
   9 H :    0.153725
  10 H :    0.116631
  11 H :    0.107261
  12 H :    0.107274
  13 H :    0.116641
Sum of atomic charges:   -0.0000000

LOEWDIN ATOMIC CHARGES
----------------------
   0 O :    0.163140
   1 C :   -0.447412
   2 C :   -0.174010
   3 C :   -0.279371
   4 C :   -0.229611
   5 O :    0.118781
   6 C :   -0.229584
   7 O :    0.268561
   8 H :    0.151894
   9 H :    0.151906
  10 H :    0.129448
  11 H :    0.123399
  12 H :    0.123403
  13 H :    0.129455

  Mayer bond orders larger than 0.1
B(  0-O ,  1-C ) :   2.0690 B(  1-C ,  2-C ) :   0.9336 B(  1-C ,  7-O ) :   1.0682
B(  2-C ,  3-C ) :   0.8975 B(  2-C ,  8-H ) :   0.9018 B(  2-C ,  9-H ) :   0.9018
B(  3-C ,  4-C ) :   0.9600 B(  3-C ,  6-C ) :   0.9600 B(  3-C ,  7-O ) :   0.9446
B(  4-C ,  5-O ) :   0.9645 B(  4-C , 10-H ) :   0.8989 B(  4-C , 11-H ) :   0.9088
B(  5-O ,  6-C ) :   0.9645 B(  6-C , 12-H ) :   0.9088 B(  6-C , 13-H ) :   0.8989

MP2 TOTAL ENERGY:     -419.007140229 Eh
FINAL SINGLE POINT ENERGY      -419.007140228618

DIPOLE MOMENT
-------------
                                X             Y             Z
Electronic contribution:      1.84909      -3.49612      -1.73030
Nuclear contribution   :     -2.67073       4.13281       1.98811
                        -----------------------------------------
Total Dipole Moment    :     -0.82164       0.63669       0.25782
                        -----------------------------------------
Magnitude (a.u.)       :      1.07095
Magnitude (Debye)      :      2.72214

                             ****ORCA TERMINATED NORMALLY****
TOTAL RUN TIME: 0 days 0 hours 9 minutes 32 seconds 997 msec
