                         Program Version 3.0.3 - RELEASE   -
|  1> ! RI-MP2 RIJK def2-TZVP def2-TZVP/C def2-TZVP/JK TIGHTSCF
|  2> % maxcore 2000
|  3> % mp2 density relaxed end
|  4> *xyz 0 1
|  5>  C       -0.0251261024     1.5070520107     0.0002681810
|  6>  C       -0.0071438623     0.0140762575    -0.0250984793
|  7>  C       -0.0221142078    -0.7776162909    -1.1030195878
|  8>  N        0.0026752086    -2.1398261834    -0.7490785529
|  9>  C        0.0364292308    -2.2984275883     0.6179116429
| 10>  O        0.0626187389    -3.3480233692     1.2225895348
| 11>  C        0.0320633046    -0.8697529398     1.2153279562
| 12>  C        1.3144105267    -0.6819525727     2.0481955493
| 13>  C       -1.2155035708    -0.7135674727     2.1055983657
| 14>  H        0.8609683837     1.9172125893     0.5014506938
| 15>  H       -0.0526574139     1.9174250001    -1.0135943453
| 16>  H       -0.8980941156     1.8953952963     0.5403727404
| 17>  H       -0.0495604566    -0.5023096565    -2.1483934850
| 18>  H       -0.0025742408    -2.9154784779    -1.3900225868
| 19>  H        2.2094777570    -0.7589469526     1.4235081194
| 20>  H        1.3202083567     0.2982773398     2.5351979760
| 21>  H        1.3673839010    -1.4558785628     2.8193195371
| 22>  H       -1.2140621071    -1.4880491452     2.8779836998
| 23>  H       -1.2237718226     0.2665398497     2.5928147882
| 24>  H       -2.1357715482    -0.8133740615     1.5221128826
| 25> *
| 26>
| 27>                          ****END OF INPUT****

CARTESIAN COORDINATES (ANGSTROEM)
---------------------------------
  C     -0.025126    1.507052    0.000268
  C     -0.007144    0.014076   -0.025098
  C     -0.022114   -0.777616   -1.103020
  N      0.002675   -2.139826   -0.749079
  C      0.036429   -2.298428    0.617912
  O      0.062619   -3.348023    1.222590
  C      0.032063   -0.869753    1.215328
  C      1.314411   -0.681953    2.048196
  C     -1.215504   -0.713567    2.105598
  H      0.860968    1.917213    0.501451
  H     -0.052657    1.917425   -1.013594
  H     -0.898094    1.895395    0.540373
  H     -0.049560   -0.502310   -2.148393
  H     -0.002574   -2.915478   -1.390023
  H      2.209478   -0.758947    1.423508
  H      1.320208    0.298277    2.535198
  H      1.367384   -1.455879    2.819320
  H     -1.214062   -1.488049    2.877984
  H     -1.223772    0.266540    2.592815
  H     -2.135772   -0.813374    1.522113

 Total Charge           Charge          ....    0
 Multiplicity           Mult            ....    1
 Number of Electrons    NEL             ....   68
 Basis Dimension        Dim             ....  345

ORBITAL ENERGIES
----------------

  NO   OCC          E(Eh)            E(eV)
   0   2.0000     -20.519488      -558.3637
   1   2.0000     -15.591376      -424.2629
   2   2.0000     -11.344353      -308.6955
   3   2.0000     -11.273252      -306.7608
   4   2.0000     -11.252435      -306.1943
   5   2.0000     -11.233003      -305.6656
   6   2.0000     -11.232202      -305.6437
   7   2.0000     -11.222606      -305.3826
   8   2.0000     -11.222590      -305.3822
   9   2.0000      -1.382728       -37.6259
  10   2.0000      -1.265164       -34.4269
  11   2.0000      -1.107724       -30.1427
  12   2.0000      -1.030567       -28.0432
  13   2.0000      -0.940754       -25.5992
  14   2.0000      -0.938785       -25.5457
  15   2.0000      -0.892983       -24.2993
  16   2.0000      -0.764398       -20.8003
  17   2.0000      -0.750723       -20.4282
  18   2.0000      -0.699739       -19.0409
  19   2.0000      -0.636513       -17.3204
  20   2.0000      -0.618631       -16.8338
  21   2.0000      -0.616121       -16.7655
  22   2.0000      -0.597830       -16.2678
  23   2.0000      -0.578913       -15.7530
  24   2.0000      -0.570717       -15.5300
  25   2.0000      -0.548911       -14.9366
  26   2.0000      -0.545175       -14.8350
  27   2.0000      -0.534283       -14.5386
  28   2.0000      -0.526761       -14.3339
  29   2.0000      -0.486510       -13.2386
  30   2.0000      -0.471193       -12.8218
  31   2.0000      -0.466526       -12.6948
  32   2.0000      -0.407866       -11.0986
  33   2.0000      -0.315043        -8.5728
  34   0.0000       0.128305         3.4914
  35   0.0000       0.142840         3.8869
  36   0.0000       0.143906         3.9159
  37   0.0000       0.163391         4.4461
  38   0.0000       0.176141         4.7930

MULLIKEN ATOMIC CHARGES
-----------------------
   0 C :   -0.456212
   1 C :   -0.110886
   2 C :   -0.022194
   3 N :   -0.276314
   4 C :    0.154187
   5 O :   -0.330704
   6 C :    0.247181
   7 C :   -0.438788
   8 C :   -0.438700
   9 H :    0.146027
  10 H :    0.136692
  11 H :    0.146033
  12 H :    0.143973
  13 H :    0.240959
  14 H :    0.140332
  15 H :    0.133605
  16 H :    0.155429
  17 H :    0.155428
  18 H :    0.133613
  19 H :    0.140339
Sum of atomic charges:   -0.0000000

LOEWDIN ATOMIC CHARGES
----------------------
   0 C :   -0.273033
   1 C :   -0.172040
   2 C :   -0.181359
   3 N :    0.153088
   4 C :   -0.382163
   5 O :    0.095518
   6 C :   -0.243623
   7 C :   -0.250046
   8 C :   -0.250013
   9 H :    0.130942
  10 H :    0.132505
  11 H :    0.130943
  12 H :    0.138033
  13 H :    0.186607
  14 H :    0.130975
  15 H :    0.125877
  16 H :    0.135461
  17 H :    0.135462
  18 H :    0.125884
  19 H :    0.130980

  Mayer bond orders larger than 0.1
B(  0-C ,  1-C ) :   0.8831 B(  0-C ,  9-H ) :   0.9343 B(  0-C , 10-H ) :   0.9482
B(  0-C , 11-H ) :   0.9343 B(  1-C ,  2-C ) :   1.7594 B(  1-C ,  6-C ) :   0.8742
B(  2-C ,  3-N ) :   0.9692 B(  2-C , 12-H ) :   0.9025 B(  3-N ,  4-C ) :   1.1411
B(  3-N , 13-H ) :   0.8641 B(  4-C ,  5-O ) :   2.0352 B(  4-C ,  6-C ) :   0.8455
B(  6-C ,  7-C ) :   0.8779 B(  6-C ,  8-C ) :   0.8780 B(  7-C , 14-H ) :   0.9323
B(  7-C , 15-H ) :   0.9348 B(  7-C , 16-H ) :   0.9287 B(  8-C , 17-H ) :   0.9286
B(  8-C , 18-H ) :   0.9348 B(  8-C , 19-H ) :   0.9323

MP2 TOTAL ENERGY:     -402.514713800 Eh
FINAL SINGLE POINT ENERGY      -402.514713799986

DIPOLE MOMENT
-------------
                                X             Y             Z
Electronic contribution:      0.00982      -8.21899      -4.06925
Nuclear contribution   :     -0.04185       9.22875       3.21550
                        -----------------------------------------
Total Dipole Moment    :     -0.03203       1.00976      -0.85375
                        -----------------------------------------
Magnitude (a.u.)       :      1.32270
Magnitude (Debye)      :      3.36202

                             ****ORCA TERMINATED NORMALLY****
TOTAL RUN TIME: 0 days 0 hours 20 minutes 52 seconds 568 msec
