                         Program Version 3.0.3 - RELEASE   -
|  1> ! RI-MP2 RIJK def2-TZVP def2-TZVP/C def2-TZVP/JK TIGHTSCF
|  2> % maxcore 2000
|  3> % mp2 density relaxed end
|  4> *xyz 0 1
|  5>  O       -0.1187538207     1.3267915337     0.0862429469
|  6>  N        0.0237217226    -0.0676890945    -0.0221528761
|  7>  C       -1.0998975588    -0.6486341310    -0.0392105889
|  8>  C       -2.5597067482    -0.2696668485     0.0654759197
|  9>  O       -3.2255569051    -0.9033047115    -1.0484131733
| 10>  C       -2.9165037965    -1.7077065075     0.0901799979
| 11>  C       -1.4492580075    -2.1140900462    -0.0280377195
| 12>  C       -0.8280549010    -3.2557063188    -0.7768072598
| 13>  C       -0.7215635075    -3.1952341897     0.7261348012
| 14>  H        0.7971430702     1.6248439635     0.0863871383
| 15>  H       -3.0262008082     0.5976596399     0.5110968821
| 16>  H       -3.7280871027    -2.2129198465     0.5995171371
| 17>  H       -1.4914599884    -3.9910704853    -1.2191685847
| 18>  H        0.0586335003    -3.0327891370    -1.3598913204
| 19>  H        0.2328949986    -2.9294497221     1.1666259486
| 20>  H       -1.3168670170    -3.8881782383     1.3119980809
| 21> *
| 22>
| 23>                          ****END OF INPUT****

CARTESIAN COORDINATES (ANGSTROEM)
---------------------------------
  O     -0.118754    1.326792    0.086243
  N      0.023722   -0.067689   -0.022153
  C     -1.099898   -0.648634   -0.039211
  C     -2.559707   -0.269667    0.065476
  O     -3.225557   -0.903305   -1.048413
  C     -2.916504   -1.707707    0.090180
  C     -1.449258   -2.114090   -0.028038
  C     -0.828055   -3.255706   -0.776807
  C     -0.721564   -3.195234    0.726135
  H      0.797143    1.624844    0.086387
  H     -3.026201    0.597660    0.511097
  H     -3.728087   -2.212920    0.599517
  H     -1.491460   -3.991070   -1.219169
  H      0.058634   -3.032789   -1.359891
  H      0.232895   -2.929450    1.166626
  H     -1.316867   -3.888178    1.311998

 Total Charge           Charge          ....    0
 Multiplicity           Mult            ....    1
 Number of Electrons    NEL             ....   66
 Basis Dimension        Dim             ....  321

ORBITAL ENERGIES
----------------

  NO   OCC          E(Eh)            E(eV)
   0   2.0000     -20.596140      -560.4495
   1   2.0000     -20.586424      -560.1851
   2   2.0000     -15.620993      -425.0688
   3   2.0000     -11.306867      -307.6755
   4   2.0000     -11.305408      -307.6358
   5   2.0000     -11.290328      -307.2254
   6   2.0000     -11.263395      -306.4926
   7   2.0000     -11.245415      -306.0033
   8   2.0000     -11.241073      -305.8851
   9   2.0000      -1.436093       -39.0781
  10   2.0000      -1.419974       -38.6394
  11   2.0000      -1.190333       -32.3906
  12   2.0000      -1.135574       -30.9005
  13   2.0000      -1.024881       -27.8884
  14   2.0000      -0.880029       -23.9468
  15   2.0000      -0.843873       -22.9629
  16   2.0000      -0.834768       -22.7152
  17   2.0000      -0.722391       -19.6572
  18   2.0000      -0.717394       -19.5213
  19   2.0000      -0.701246       -19.0819
  20   2.0000      -0.666127       -18.1262
  21   2.0000      -0.646199       -17.5840
  22   2.0000      -0.601968       -16.3804
  23   2.0000      -0.590913       -16.0796
  24   2.0000      -0.569259       -15.4903
  25   2.0000      -0.555553       -15.1174
  26   2.0000      -0.530543       -14.4368
  27   2.0000      -0.508287       -13.8312
  28   2.0000      -0.481001       -13.0887
  29   2.0000      -0.444945       -12.1076
  30   2.0000      -0.420801       -11.4506
  31   2.0000      -0.405576       -11.0363
  32   2.0000      -0.378609       -10.3025
  33   0.0000       0.135570         3.6891
  34   0.0000       0.148387         4.0378
  35   0.0000       0.151390         4.1195
  36   0.0000       0.167584         4.5602
  37   0.0000       0.177539         4.8311

MULLIKEN ATOMIC CHARGES
-----------------------
   0 O :   -0.363969
   1 N :   -0.085297
   2 C :    0.075863
   3 C :   -0.039023
   4 O :   -0.301495
   5 C :    0.033901
   6 C :    0.041380
   7 C :   -0.267800
   8 C :   -0.294424
   9 H :    0.338325
  10 H :    0.150512
  11 H :    0.150900
  12 H :    0.137207
  13 H :    0.144613
  14 H :    0.144471
  15 H :    0.134833
Sum of atomic charges:    0.0000000

LOEWDIN ATOMIC CHARGES
----------------------
   0 O :   -0.072751
   1 N :    0.031750
   2 C :   -0.221419
   3 C :   -0.184927
   4 O :    0.187973
   5 C :   -0.190839
   6 C :   -0.179444
   7 C :   -0.187831
   8 C :   -0.186115
   9 H :    0.170840
  10 H :    0.138738
  11 H :    0.136455
  12 H :    0.138325
  13 H :    0.142170
  14 H :    0.140646
  15 H :    0.136430

  Mayer bond orders larger than 0.1
B(  0-O ,  1-N ) :   0.8085 B(  0-O ,  9-H ) :   0.8430 B(  1-N ,  2-C ) :   1.8753
B(  2-C ,  3-C ) :   0.8694 B(  2-C ,  6-C ) :   0.9526 B(  3-C ,  4-O ) :   0.9024
B(  3-C ,  5-C ) :   0.9024 B(  3-C , 10-H ) :   0.9331 B(  4-O ,  5-C ) :   0.9288
B(  5-C ,  6-C ) :   0.8988 B(  5-C , 11-H ) :   0.9064 B(  6-C ,  7-C ) :   0.8269
B(  6-C ,  8-C ) :   0.8359 B(  7-C ,  8-C ) :   0.9415 B(  7-C , 12-H ) :   0.9228
B(  7-C , 13-H ) :   0.9221 B(  8-C , 14-H ) :   0.9148 B(  8-C , 15-H ) :   0.9225

MP2 TOTAL ENERGY:     -437.041778236 Eh
FINAL SINGLE POINT ENERGY      -437.041778236440

DIPOLE MOMENT
-------------
                                X             Y             Z
Electronic contribution:     -1.19124       5.09261      -1.08720
Nuclear contribution   :      1.32525      -5.45024       1.76081
                        -----------------------------------------
Total Dipole Moment    :      0.13401      -0.35763       0.67360
                        -----------------------------------------
Magnitude (a.u.)       :      0.77434
Magnitude (Debye)      :      1.96821

                             ****ORCA TERMINATED NORMALLY****
TOTAL RUN TIME: 0 days 0 hours 15 minutes 31 seconds 971 msec
