                         Program Version 3.0.3 - RELEASE   -
|  1> ! RI-MP2 RIJK def2-TZVP def2-TZVP/C def2-TZVP/JK TIGHTSCF
|  2> % maxcore 2000
|  3> % mp2 density relaxed end
|  4> *xyz 0 1
|  5>  C       -0.0826041318     1.3866501801     0.0359826531
|  6>  O       -0.1091031704    -0.0163269131    -0.0446311209
|  7>  C        0.6810714142    -0.5211619493    -1.0998033776
|  8>  C        0.5913115526    -2.0408060408    -1.0975347785
|  9>  C        1.4189713471    -2.6875560403    -2.2139309470
| 10>  C        1.3303676623    -4.2078873878    -2.2238847819
| 11>  C       -0.0085484141    -4.8932469032    -2.6290096378
| 12>  C        0.8153648446    -5.9701137695    -3.3849145321
| 13>  C        2.0254180333    -4.9977080727    -3.3692187922
| 14>  H        0.9364157121     1.7688808609     0.2104334770
| 15>  H       -0.4692004636     1.8584808332    -0.8821308272
| 16>  H       -0.7169629089     1.6806017308     0.8761037878
| 17>  H        0.3321759832    -0.1163303462    -2.0667544243
| 18>  H        1.7307145596    -0.1978552014    -0.9802835298
| 19>  H        0.9263340077    -2.4082406779    -0.1197674516
| 20>  H       -0.4626312491    -2.3277163545    -1.1941419653
| 21>  H        1.0855777308    -2.3044379627    -3.1891396815
| 22>  H        2.4717422599    -2.3875750506    -2.1123385748
| 23>  H        1.6617866417    -4.6002305307    -1.2541904524
| 24>  H       -0.6791124101    -5.2255309275    -1.8327448696
| 25>  H       -0.5788075573    -4.2641636529    -3.3215980240
| 26>  H        0.9963671548    -6.8516092775    -2.7629329264
| 27>  H        0.4443371772    -6.3046862823    -4.3565467834
| 28>  H        2.0736724667    -4.4008372912    -4.2864914402
| 29>  H        3.0177616976    -5.4131013930    -3.1752380996
| 30> *
| 31>
| 32>                          ****END OF INPUT****

CARTESIAN COORDINATES (ANGSTROEM)
---------------------------------
  C     -0.082604    1.386650    0.035983
  O     -0.109103   -0.016327   -0.044631
  C      0.681071   -0.521162   -1.099803
  C      0.591312   -2.040806   -1.097535
  C      1.418971   -2.687556   -2.213931
  C      1.330368   -4.207887   -2.223885
  C     -0.008548   -4.893247   -2.629010
  C      0.815365   -5.970114   -3.384915
  C      2.025418   -4.997708   -3.369219
  H      0.936416    1.768881    0.210433
  H     -0.469200    1.858481   -0.882131
  H     -0.716963    1.680602    0.876104
  H      0.332176   -0.116330   -2.066754
  H      1.730715   -0.197855   -0.980284
  H      0.926334   -2.408241   -0.119767
  H     -0.462631   -2.327716   -1.194142
  H      1.085578   -2.304438   -3.189140
  H      2.471742   -2.387575   -2.112339
  H      1.661787   -4.600231   -1.254190
  H     -0.679112   -5.225531   -1.832745
  H     -0.578808   -4.264164   -3.321598
  H      0.996367   -6.851609   -2.762933
  H      0.444337   -6.304686   -4.356547
  H      2.073672   -4.400837   -4.286491
  H      3.017762   -5.413101   -3.175238

 Total Charge           Charge          ....    0
 Multiplicity           Mult            ....    1
 Number of Electrons    NEL             ....   72
 Basis Dimension        Dim             ....  375

ORBITAL ENERGIES
----------------

  NO   OCC          E(Eh)            E(eV)
   0   2.0000     -20.550509      -559.2078
   1   2.0000     -11.269370      -306.6552
   2   2.0000     -11.267293      -306.5986
   3   2.0000     -11.221559      -305.3541
   4   2.0000     -11.216821      -305.2252
   5   2.0000     -11.216010      -305.2032
   6   2.0000     -11.214582      -305.1643
   7   2.0000     -11.214350      -305.1580
   8   2.0000     -11.214018      -305.1489
   9   2.0000      -1.371863       -37.3303
  10   2.0000      -1.129002       -30.7217
  11   2.0000      -1.053781       -28.6748
  12   2.0000      -0.964954       -26.2577
  13   2.0000      -0.899697       -24.4820
  14   2.0000      -0.891035       -24.2463
  15   2.0000      -0.839534       -22.8449
  16   2.0000      -0.799216       -21.7478
  17   2.0000      -0.742260       -20.1979
  18   2.0000      -0.671106       -18.2617
  19   2.0000      -0.651449       -17.7268
  20   2.0000      -0.646974       -17.6051
  21   2.0000      -0.628540       -17.1035
  22   2.0000      -0.610704       -16.6181
  23   2.0000      -0.604294       -16.4437
  24   2.0000      -0.549114       -14.9421
  25   2.0000      -0.534811       -14.5529
  26   2.0000      -0.528403       -14.3786
  27   2.0000      -0.519090       -14.1252
  28   2.0000      -0.495647       -13.4872
  29   2.0000      -0.476796       -12.9743
  30   2.0000      -0.471039       -12.8176
  31   2.0000      -0.461954       -12.5704
  32   2.0000      -0.445453       -12.1214
  33   2.0000      -0.425566       -11.5803
  34   2.0000      -0.420254       -11.4357
  35   2.0000      -0.417108       -11.3501
  36   0.0000       0.137400         3.7389
  37   0.0000       0.148293         4.0352
  38   0.0000       0.158607         4.3159
  39   0.0000       0.162726         4.4280
  40   0.0000       0.166474         4.5300

MULLIKEN ATOMIC CHARGES
-----------------------
   0 C :   -0.213975
   1 O :   -0.300785
   2 C :   -0.054656
   3 C :   -0.158214
   4 C :   -0.307621
   5 C :   -0.008815
   6 C :   -0.268268
   7 C :   -0.192032
   8 C :   -0.231879
   9 H :    0.108917
  10 H :    0.108950
  11 H :    0.137619
  12 H :    0.086766
  13 H :    0.086860
  14 H :    0.111057
  15 H :    0.117184
  16 H :    0.106684
  17 H :    0.112672
  18 H :    0.092584
  19 H :    0.119371
  20 H :    0.106065
  21 H :    0.109804
  22 H :    0.112562
  23 H :    0.105228
  24 H :    0.113920
Sum of atomic charges:    0.0000000

LOEWDIN ATOMIC CHARGES
----------------------
   0 C :   -0.365434
   1 O :    0.132641
   2 C :   -0.332338
   3 C :   -0.263706
   4 C :   -0.256670
   5 C :   -0.238459
   6 C :   -0.226504
   7 C :   -0.246227
   8 C :   -0.224616
   9 H :    0.100140
  10 H :    0.100142
  11 H :    0.112733
  12 H :    0.117308
  13 H :    0.117297
  14 H :    0.140216
  15 H :    0.141543
  16 H :    0.137781
  17 H :    0.139835
  18 H :    0.150230
  19 H :    0.122137
  20 H :    0.134074
  21 H :    0.132136
  22 H :    0.120585
  23 H :    0.133726
  24 H :    0.121429

  Mayer bond orders larger than 0.1
B(  0-C ,  1-O ) :   0.9247 B(  0-C ,  9-H ) :   0.9375 B(  0-C , 10-H ) :   0.9373
B(  0-C , 11-H ) :   0.9397 B(  1-O ,  2-C ) :   0.9657 B(  2-C ,  3-C ) :   0.9544
B(  2-C , 12-H ) :   0.9245 B(  2-C , 13-H ) :   0.9248 B(  3-C ,  4-C ) :   0.9184
B(  3-C , 14-H ) :   0.9243 B(  3-C , 15-H ) :   0.9269 B(  4-C ,  5-C ) :   0.9198
B(  4-C , 16-H ) :   0.9212 B(  4-C , 17-H ) :   0.9296 B(  5-C ,  6-C ) :   0.9273
B(  5-C ,  8-C ) :   0.9326 B(  5-C , 18-H ) :   0.9252 B(  6-C ,  7-C ) :   0.9407
B(  6-C , 19-H ) :   0.9298 B(  6-C , 20-H ) :   0.9227 B(  7-C ,  8-C ) :   0.9377
B(  7-C , 21-H ) :   0.9281 B(  7-C , 22-H ) :   0.9273 B(  8-C , 23-H ) :   0.9217
B(  8-C , 24-H ) :   0.9309

MP2 TOTAL ENERGY:     -388.791387302 Eh
FINAL SINGLE POINT ENERGY      -388.791387302212

DIPOLE MOMENT
-------------
                                X             Y             Z
Electronic contribution:     -0.89246       0.53378       2.12674
Nuclear contribution   :      1.14390      -0.31108      -2.38925
                        -----------------------------------------
Total Dipole Moment    :      0.25144       0.22271      -0.26252
                        -----------------------------------------
Magnitude (a.u.)       :      0.42631
Magnitude (Debye)      :      1.08358

                             ****ORCA TERMINATED NORMALLY****
TOTAL RUN TIME: 0 days 0 hours 17 minutes 18 seconds 168 msec
