                         Program Version 3.0.3 - RELEASE   -
|  1> ! RI-MP2 RIJK def2-TZVP def2-TZVP/C def2-TZVP/JK TIGHTSCF
|  2> % maxcore 2000
|  3> % mp2 density relaxed end
|  4> *xyz 0 1
|  5>  C        0.2677180973    -1.3040847595     0.1611470180
|  6>  C        0.1834179373    -0.1041023600     0.1211815718
|  7>  C        0.0468133264     1.3190412342     0.0490039289
|  8>  C        0.4156557448     2.2282088452     1.2198681817
|  9>  C        0.9652781902     1.6527638979     2.5129621059
| 10>  C        2.3371651457     1.0492617057     2.3961537634
| 11>  C        3.0818914380     1.0649104143     1.2945313804
| 12>  C        2.6709563512     1.6886485619    -0.0100728138
| 13>  C        1.2586940484     2.2459018511    -0.0271770564
| 14>  H        0.3516579682    -2.3613876988     0.2027851997
| 15>  H       -0.8138315734     1.6464756207    -0.5282080259
| 16>  H       -0.2639106646     3.0639167814     1.3557658056
| 17>  H        0.9949698810     2.4533935961     3.2653532569
| 18>  H        0.2700289050     0.9022839825     2.9153875977
| 19>  H        2.7219100560     0.5743971946     3.2954684103
| 20>  H        4.0659797454     0.6026325633     1.3072676935
| 21>  H        3.3695123757     2.5034189475    -0.2470453818
| 22>  H        2.7951589432     0.9554789683    -0.8197437647
| 23>  H        1.1204270241     3.0929689238    -0.6920440412
| 24> *
| 25>
| 26>                          ****END OF INPUT****

CARTESIAN COORDINATES (ANGSTROEM)
---------------------------------
  C      0.267718   -1.304085    0.161147
  C      0.183418   -0.104102    0.121182
  C      0.046813    1.319041    0.049004
  C      0.415656    2.228209    1.219868
  C      0.965278    1.652764    2.512962
  C      2.337165    1.049262    2.396154
  C      3.081891    1.064910    1.294531
  C      2.670956    1.688649   -0.010073
  C      1.258694    2.245902   -0.027177
  H      0.351658   -2.361388    0.202785
  H     -0.813832    1.646476   -0.528208
  H     -0.263911    3.063917    1.355766
  H      0.994970    2.453394    3.265353
  H      0.270029    0.902284    2.915388
  H      2.721910    0.574397    3.295468
  H      4.065980    0.602633    1.307268
  H      3.369512    2.503419   -0.247045
  H      2.795159    0.955479   -0.819744
  H      1.120427    3.092969   -0.692044

 Total Charge           Charge          ....    0
 Multiplicity           Mult            ....    1
 Number of Electrons    NEL             ....   64
 Basis Dimension        Dim             ....  339

ORBITAL ENERGIES
----------------

  NO   OCC          E(Eh)            E(eV)
   0   2.0000     -11.249389      -306.1114
   1   2.0000     -11.241794      -305.9048
   2   2.0000     -11.241130      -305.8867
   3   2.0000     -11.228669      -305.5476
   4   2.0000     -11.228664      -305.5475
   5   2.0000     -11.227939      -305.5278
   6   2.0000     -11.220558      -305.3269
   7   2.0000     -11.218806      -305.2792
   8   2.0000     -11.213174      -305.1260
   9   2.0000      -1.176760       -32.0213
  10   2.0000      -1.068324       -29.0706
  11   2.0000      -1.016521       -27.6609
  12   2.0000      -1.009245       -27.4630
  13   2.0000      -0.907534       -24.6952
  14   2.0000      -0.839741       -22.8505
  15   2.0000      -0.808213       -21.9926
  16   2.0000      -0.709799       -19.3146
  17   2.0000      -0.694515       -18.8987
  18   2.0000      -0.670210       -18.2373
  19   2.0000      -0.646942       -17.6042
  20   2.0000      -0.621996       -16.9254
  21   2.0000      -0.582402       -15.8480
  22   2.0000      -0.582100       -15.8397
  23   2.0000      -0.539258       -14.6740
  24   2.0000      -0.534859       -14.5542
  25   2.0000      -0.517131       -14.0718
  26   2.0000      -0.456746       -12.4287
  27   2.0000      -0.454110       -12.3570
  28   2.0000      -0.426852       -11.6152
  29   2.0000      -0.379935       -10.3385
  30   2.0000      -0.350879        -9.5479
  31   2.0000      -0.337420        -9.1817
  32   0.0000       0.133509         3.6330
  33   0.0000       0.154872         4.2143
  34   0.0000       0.162512         4.4222
  35   0.0000       0.173345         4.7170
  36   0.0000       0.175199         4.7674

MULLIKEN ATOMIC CHARGES
-----------------------
   0 C :   -0.140409
   1 C :    0.026987
   2 C :   -0.347356
   3 C :   -0.082911
   4 C :   -0.131345
   5 C :   -0.203166
   6 C :   -0.203143
   7 C :   -0.131362
   8 C :   -0.082879
   9 H :    0.184741
  10 H :    0.135577
  11 H :    0.123891
  12 H :    0.124416
  13 H :    0.125129
  14 H :    0.114199
  15 H :    0.114198
  16 H :    0.124412
  17 H :    0.125129
  18 H :    0.123889
Sum of atomic charges:    0.0000000

LOEWDIN ATOMIC CHARGES
----------------------
   0 C :   -0.099782
   1 C :   -0.089470
   2 C :   -0.174559
   3 C :   -0.159995
   4 C :   -0.228828
   5 C :   -0.170187
   6 C :   -0.170190
   7 C :   -0.228829
   8 C :   -0.159998
   9 H :    0.125401
  10 H :    0.165343
  11 H :    0.149774
  12 H :    0.150728
  13 H :    0.152363
  14 H :    0.142680
  15 H :    0.142680
  16 H :    0.150733
  17 H :    0.152359
  18 H :    0.149777

  Mayer bond orders larger than 0.1
B(  0-C ,  1-C ) :   2.5554 B(  0-C ,  2-C ) :  -0.1303 B(  0-C ,  9-H ) :   0.9015
B(  1-C ,  2-C ) :   1.2077 B(  2-C ,  3-C ) :   0.8395 B(  2-C ,  8-C ) :   0.8395
B(  2-C , 10-H ) :   0.9411 B(  3-C ,  4-C ) :   0.9706 B(  3-C ,  8-C ) :   0.8576
B(  3-C , 11-H ) :   0.9264 B(  4-C ,  5-C ) :   0.9668 B(  4-C , 12-H ) :   0.9114
B(  4-C , 13-H ) :   0.9068 B(  5-C ,  6-C ) :   1.8030 B(  5-C , 14-H ) :   0.9313
B(  6-C ,  7-C ) :   0.9668 B(  6-C , 15-H ) :   0.9313 B(  7-C ,  8-C ) :   0.9706
B(  7-C , 16-H ) :   0.9114 B(  7-C , 17-H ) :   0.9068 B(  8-C , 18-H ) :   0.9264

MP2 TOTAL ENERGY:     -348.061672241 Eh
FINAL SINGLE POINT ENERGY      -348.061672241157

DIPOLE MOMENT
-------------
                                X             Y             Z
Electronic contribution:     -1.78331      -1.81049      -1.23120
Nuclear contribution   :      1.83371       2.14508       1.26996
                        -----------------------------------------
Total Dipole Moment    :      0.05040       0.33458       0.03876
                        -----------------------------------------
Magnitude (a.u.)       :      0.34057
Magnitude (Debye)      :      0.86565

                             ****ORCA TERMINATED NORMALLY****
TOTAL RUN TIME: 0 days 0 hours 20 minutes 58 seconds 72 msec
