                         Program Version 3.0.3 - RELEASE   -
|  1> ! RI-MP2 RIJK def2-TZVP def2-TZVP/C def2-TZVP/JK TIGHTSCF
|  2> % maxcore 2000
|  3> % mp2 density relaxed end
|  4> *xyz 0 1
|  5>  C       -0.0048406349     1.5396792049     0.0024993301
|  6>  C        0.0096502254     0.0392290648    -0.0273044527
|  7>  C       -0.0486276549    -0.7081758337    -1.1756213699
|  8>  O       -0.1245909944    -0.1041819368    -2.3768129514
|  9>  N       -0.0372965926    -2.0780901209    -1.2362147939
| 10>  C        0.0350481736    -2.7004021144    -0.1016260399
| 11>  N        0.0970294214    -2.0732110784     1.0881772770
| 12>  C        0.0900703410    -0.6578083854     1.2331947329
| 13>  O        0.1491911246    -0.1685446802     2.3475626963
| 14>  H        0.8970914984     1.9242299280     0.4907972926
| 15>  H       -0.0669760773     1.9534676593    -1.0041405263
| 16>  H       -0.8531893919     1.9054038785     0.5910223992
| 17>  H       -0.1549354409    -0.8131499128    -3.0332290842
| 18>  H        0.0478226022    -3.7868393518    -0.0838914053
| 19>  H        0.1526410704    -2.5958474611     1.9519063157
| 20> *
| 21>
| 22>                          ****END OF INPUT****

CARTESIAN COORDINATES (ANGSTROEM)
---------------------------------
  C     -0.004841    1.539679    0.002499
  C      0.009650    0.039229   -0.027304
  C     -0.048628   -0.708176   -1.175621
  O     -0.124591   -0.104182   -2.376813
  N     -0.037297   -2.078090   -1.236215
  C      0.035048   -2.700402   -0.101626
  N      0.097029   -2.073211    1.088177
  C      0.090070   -0.657808    1.233195
  O      0.149191   -0.168545    2.347563
  H      0.897091    1.924230    0.490797
  H     -0.066976    1.953468   -1.004141
  H     -0.853189    1.905404    0.591022
  H     -0.154935   -0.813150   -3.033229
  H      0.047823   -3.786839   -0.083891
  H      0.152641   -2.595847    1.951906

 Total Charge           Charge          ....    0
 Multiplicity           Mult            ....    1
 Number of Electrons    NEL             ....   66
 Basis Dimension        Dim             ....  315

ORBITAL ENERGIES
----------------

  NO   OCC          E(Eh)            E(eV)
   0   2.0000     -20.607339      -560.7542
   1   2.0000     -20.520082      -558.3798
   2   2.0000     -15.638568      -425.5471
   3   2.0000     -15.580510      -423.9672
   4   2.0000     -11.364877      -309.2540
   5   2.0000     -11.361346      -309.1579
   6   2.0000     -11.359645      -309.1116
   7   2.0000     -11.233720      -305.6851
   8   2.0000     -11.215403      -305.1866
   9   2.0000      -1.441650       -39.2293
  10   2.0000      -1.393187       -37.9106
  11   2.0000      -1.323546       -36.0155
  12   2.0000      -1.214866       -33.0582
  13   2.0000      -1.087162       -29.5832
  14   2.0000      -0.963094       -26.2071
  15   2.0000      -0.887770       -24.1575
  16   2.0000      -0.884105       -24.0577
  17   2.0000      -0.787500       -21.4290
  18   2.0000      -0.757107       -20.6019
  19   2.0000      -0.722581       -19.6624
  20   2.0000      -0.665424       -18.1071
  21   2.0000      -0.651453       -17.7269
  22   2.0000      -0.621660       -16.9162
  23   2.0000      -0.596909       -16.2427
  24   2.0000      -0.592667       -16.1273
  25   2.0000      -0.560738       -15.2585
  26   2.0000      -0.558308       -15.1923
  27   2.0000      -0.531192       -14.4545
  28   2.0000      -0.512487       -13.9455
  29   2.0000      -0.470993       -12.8164
  30   2.0000      -0.437014       -11.8918
  31   2.0000      -0.428044       -11.6477
  32   2.0000      -0.329640        -8.9700
  33   0.0000       0.097854         2.6627
  34   0.0000       0.122459         3.3323
  35   0.0000       0.147691         4.0189
  36   0.0000       0.149700         4.0735
  37   0.0000       0.167251         4.5511

MULLIKEN ATOMIC CHARGES
-----------------------
   0 C :   -0.397533
   1 C :   -0.104582
   2 C :    0.308113
   3 O :   -0.411203
   4 N :   -0.336037
   5 C :    0.101293
   6 N :   -0.223745
   7 C :    0.207156
   8 O :   -0.353720
   9 H :    0.147175
  10 H :    0.159542
  11 H :    0.147151
  12 H :    0.342851
  13 H :    0.156055
  14 H :    0.257483
Sum of atomic charges:   -0.0000000

LOEWDIN ATOMIC CHARGES
----------------------
   0 C :   -0.256337
   1 C :   -0.156732
   2 C :   -0.334059
   3 O :    0.097342
   4 N :    0.099915
   5 C :   -0.273750
   6 N :    0.191288
   7 C :   -0.403977
   8 O :    0.077251
   9 H :    0.138309
  10 H :    0.134092
  11 H :    0.138304
  12 H :    0.200783
  13 H :    0.141644
  14 H :    0.205925

  Mayer bond orders larger than 0.1
B(  0-C ,  1-C ) :   0.9077 B(  0-C ,  9-H ) :   0.9259 B(  0-C , 10-H ) :   0.9394
B(  0-C , 11-H ) :   0.9259 B(  1-C ,  2-C ) :   1.4517 B(  1-C ,  7-C ) :   1.0864
B(  2-C ,  3-O ) :   1.1535 B(  2-C ,  4-N ) :   1.1477 B(  3-O , 12-H ) :   0.8114
B(  4-N ,  5-C ) :   1.6141 B(  5-C ,  6-N ) :   1.2051 B(  5-C , 13-H ) :   0.9185
B(  6-N ,  7-C ) :   1.0067 B(  6-N , 14-H ) :   0.8490 B(  7-C ,  8-O ) :   2.0097

MP2 TOTAL ENERGY:     -453.293279838 Eh
FINAL SINGLE POINT ENERGY      -453.293279837605

DIPOLE MOMENT
-------------
                                X             Y             Z
Electronic contribution:      0.06001      -4.08769       0.27304
Nuclear contribution   :     -0.07847       2.86513      -0.82083
                        -----------------------------------------
Total Dipole Moment    :     -0.01845      -1.22256      -0.54779
                        -----------------------------------------
Magnitude (a.u.)       :      1.33980
Magnitude (Debye)      :      3.40549

                             ****ORCA TERMINATED NORMALLY****
TOTAL RUN TIME: 0 days 0 hours 14 minutes 49 seconds 120 msec
