                         Program Version 3.0.3 - RELEASE   -
|  1> ! RI-MP2 RIJK def2-TZVP def2-TZVP/C def2-TZVP/JK TIGHTSCF
|  2> % maxcore 2000
|  3> % mp2 density relaxed end
|  4> *xyz 0 1
|  5>  C        0.1589803355     1.6333986187    -0.0389262910
|  6>  C        0.2433249252     0.1066480916    -0.0844351335
|  7>  C        0.4032556151    -0.5135662845     1.3188028362
|  8>  C        0.4821322693    -1.9700990489     1.3004309980
|  9>  C        0.5343372068    -3.1720329984     1.2541982742
| 10>  C        0.6263663587    -4.6364566488     1.2198539612
| 11>  C        1.6958979373    -5.1591346372     2.2121723849
| 12>  C       -0.6756769969    -5.2656511572     1.4726800250
| 13>  C       -1.7265786512    -5.8051949210     1.6903789854
| 14>  H        1.0615341373     2.0687083976     0.4046734535
| 15>  H        0.0463195937     2.0531200724    -1.0430010820
| 16>  H       -0.6967184280     1.9664021878     0.5590796490
| 17>  H       -0.6559089140    -0.3079380033    -0.5533533994
| 18>  H        1.0882763269    -0.2065147841    -0.7079084647
| 19>  H        1.3032812263    -0.1022009461     1.7958657006
| 20>  H       -0.4394883004    -0.2018436446     1.9507380088
| 21>  H        0.9441424671    -4.9319982574     0.2090110914
| 22>  H        1.7736905572    -6.2470182811     2.1413459191
| 23>  H        2.6663619707    -4.7135173091     1.9801847087
| 24>  H        1.4237951105    -4.8927989735     3.2358449405
| 25>  H       -2.6621907771    -6.2711636628     1.8770654940
| 26> *
| 27>
| 28>                          ****END OF INPUT****

CARTESIAN COORDINATES (ANGSTROEM)
---------------------------------
  C      0.158980    1.633399   -0.038926
  C      0.243325    0.106648   -0.084435
  C      0.403256   -0.513566    1.318803
  C      0.482132   -1.970099    1.300431
  C      0.534337   -3.172033    1.254198
  C      0.626366   -4.636457    1.219854
  C      1.695898   -5.159135    2.212172
  C     -0.675677   -5.265651    1.472680
  C     -1.726579   -5.805195    1.690379
  H      1.061534    2.068708    0.404673
  H      0.046320    2.053120   -1.043001
  H     -0.696718    1.966402    0.559080
  H     -0.655909   -0.307938   -0.553353
  H      1.088276   -0.206515   -0.707908
  H      1.303281   -0.102201    1.795866
  H     -0.439488   -0.201844    1.950738
  H      0.944142   -4.931998    0.209011
  H      1.773691   -6.247018    2.141346
  H      2.666362   -4.713517    1.980185
  H      1.423795   -4.892799    3.235845
  H     -2.662191   -6.271164    1.877065

 Total Charge           Charge          ....    0
 Multiplicity           Mult            ....    1
 Number of Electrons    NEL             ....   66
 Basis Dimension        Dim             ....  351

ORBITAL ENERGIES
----------------

  NO   OCC          E(Eh)            E(eV)
   0   2.0000     -11.283518      -307.0401
   1   2.0000     -11.246525      -306.0335
   2   2.0000     -11.234355      -305.7024
   3   2.0000     -11.229762      -305.5774
   4   2.0000     -11.228000      -305.5294
   5   2.0000     -11.222533      -305.3807
   6   2.0000     -11.221105      -305.3418
   7   2.0000     -11.218337      -305.2665
   8   2.0000     -11.217879      -305.2540
   9   2.0000      -1.114298       -30.3216
  10   2.0000      -1.081687       -29.4342
  11   2.0000      -1.014951       -27.6182
  12   2.0000      -0.993622       -27.0378
  13   2.0000      -0.937083       -25.4993
  14   2.0000      -0.882359       -24.0102
  15   2.0000      -0.818090       -22.2614
  16   2.0000      -0.730897       -19.8887
  17   2.0000      -0.682063       -18.5599
  18   2.0000      -0.654770       -17.8172
  19   2.0000      -0.640298       -17.4234
  20   2.0000      -0.636659       -17.3244
  21   2.0000      -0.575590       -15.6626
  22   2.0000      -0.569350       -15.4928
  23   2.0000      -0.553564       -15.0632
  24   2.0000      -0.542607       -14.7651
  25   2.0000      -0.528029       -14.3684
  26   2.0000      -0.510103       -13.8806
  27   2.0000      -0.492569       -13.4035
  28   2.0000      -0.481804       -13.1106
  29   2.0000      -0.396574       -10.7913
  30   2.0000      -0.391896       -10.6640
  31   2.0000      -0.367183        -9.9916
  32   2.0000      -0.363975        -9.9043
  33   0.0000       0.127290         3.4637
  34   0.0000       0.141918         3.8618
  35   0.0000       0.165280         4.4975
  36   0.0000       0.168016         4.5720
  37   0.0000       0.175735         4.7820

MULLIKEN ATOMIC CHARGES
-----------------------
   0 C :   -0.396968
   1 C :   -0.151365
   2 C :   -0.424130
   3 C :    0.064196
   4 C :    0.052393
   5 C :   -0.251349
   6 C :   -0.364398
   7 C :   -0.010397
   8 C :   -0.153438
   9 H :    0.123106
  10 H :    0.136976
  11 H :    0.124151
  12 H :    0.117028
  13 H :    0.112555
  14 H :    0.140900
  15 H :    0.142250
  16 H :    0.134616
  17 H :    0.139999
  18 H :    0.137651
  19 H :    0.135757
  20 H :    0.190466
Sum of atomic charges:    0.0000000

LOEWDIN ATOMIC CHARGES
----------------------
   0 C :   -0.320562
   1 C :   -0.279553
   2 C :   -0.254299
   3 C :   -0.068267
   4 C :   -0.045369
   5 C :   -0.255718
   6 C :   -0.253283
   7 C :   -0.072661
   8 C :   -0.095997
   9 H :    0.120625
  10 H :    0.122497
  11 H :    0.120960
  12 H :    0.138598
  13 H :    0.137547
  14 H :    0.154187
  15 H :    0.155303
  16 H :    0.184708
  17 H :    0.127167
  18 H :    0.127145
  19 H :    0.130196
  20 H :    0.126777

  Mayer bond orders larger than 0.1
B(  0-C ,  1-C ) :   0.9175 B(  0-C ,  9-H ) :   0.9381 B(  0-C , 10-H ) :   0.9425
B(  0-C , 11-H ) :   0.9382 B(  1-C ,  2-C ) :   0.9553 B(  1-C , 12-H ) :   0.9307
B(  1-C , 13-H ) :   0.9313 B(  2-C ,  3-C ) :   1.0322 B(  2-C ,  4-C ) :  -0.1328
B(  2-C , 14-H ) :   0.9302 B(  2-C , 15-H ) :   0.9247 B(  3-C ,  4-C ) :   2.5819
B(  3-C ,  5-C ) :  -0.1010 B(  4-C ,  5-C ) :   1.0684 B(  5-C ,  6-C ) :   0.9207
B(  5-C ,  7-C ) :   1.1335 B(  5-C , 16-H ) :   0.9114 B(  6-C , 17-H ) :   0.9355
B(  6-C , 18-H ) :   0.9339 B(  6-C , 19-H ) :   0.9299 B(  7-C ,  8-C ) :   2.5855
B(  8-C , 20-H ) :   0.8996

MP2 TOTAL ENERGY:     -349.233997657 Eh
FINAL SINGLE POINT ENERGY      -349.233997656926

DIPOLE MOMENT
-------------
                                X             Y             Z
Electronic contribution:     -2.78604      -9.28143       1.57341
Nuclear contribution   :      2.97880       9.49740      -1.64027
                        -----------------------------------------
Total Dipole Moment    :      0.19275       0.21597      -0.06686
                        -----------------------------------------
Magnitude (a.u.)       :      0.29710
Magnitude (Debye)      :      0.75516

                             ****ORCA TERMINATED NORMALLY****
TOTAL RUN TIME: 0 days 0 hours 15 minutes 18 seconds 406 msec
