                         Program Version 3.0.3 - RELEASE   -
|  1> ! RI-MP2 RIJK def2-TZVP def2-TZVP/C def2-TZVP/JK TIGHTSCF
|  2> % maxcore 2000
|  3> % mp2 density relaxed end
|  4> *xyz 0 1
|  5>  C       -0.0196547195     1.5190310273     0.1576736959
|  6>  C       -0.0393963937     0.0050625833     0.0387119543
|  7>  C       -1.3304646572    -0.5448993301    -0.5388594862
|  8>  C        1.2605218885    -0.6890498986    -0.2864359405
|  9>  C        0.7141608868    -0.7741487709     1.1222958288
| 10>  O        1.3067925680     0.0088312011     2.1339301766
| 11>  C        0.1938434127    -2.1122382893     1.5968337894
| 12>  N        0.1529663788    -2.2317404661     2.9531247081
| 13>  O       -0.1381547382    -3.0076841459     0.8375038867
| 14>  H        0.9077007810     1.8840665150     0.6002482623
| 15>  H       -0.1353829429     1.9691194968    -0.8347197435
| 16>  H       -0.8495775356     1.8717488185     0.7802050524
| 17>  H       -1.4770644044    -0.1496619043    -1.5506834551
| 18>  H       -1.3217695130    -1.6334825955    -0.5860672878
| 19>  H       -2.1907844192    -0.2312919457     0.0640325978
| 20>  H        1.2229766210    -1.6080977906    -0.8605575303
| 21>  H        2.1454788791    -0.0757734837    -0.4251883697
| 22>  H        2.2134503201    -0.2974840050     2.2488859507
| 23>  H        0.3212271704    -1.4235796031     3.5276131056
| 24>  H       -0.2806041427    -3.0519372731     3.3425193143
| 25> *
| 26>
| 27>                          ****END OF INPUT****

CARTESIAN COORDINATES (ANGSTROEM)
---------------------------------
  C     -0.019655    1.519031    0.157674
  C     -0.039396    0.005063    0.038712
  C     -1.330465   -0.544899   -0.538859
  C      1.260522   -0.689050   -0.286436
  C      0.714161   -0.774149    1.122296
  O      1.306793    0.008831    2.133930
  C      0.193843   -2.112238    1.596834
  N      0.152966   -2.231740    2.953125
  O     -0.138155   -3.007684    0.837504
  H      0.907701    1.884067    0.600248
  H     -0.135383    1.969119   -0.834720
  H     -0.849578    1.871749    0.780205
  H     -1.477064   -0.149662   -1.550683
  H     -1.321770   -1.633483   -0.586067
  H     -2.190784   -0.231292    0.064033
  H      1.222977   -1.608098   -0.860558
  H      2.145479   -0.075773   -0.425188
  H      2.213450   -0.297484    2.248886
  H      0.321227   -1.423580    3.527613
  H     -0.280604   -3.051937    3.342519

 Total Charge           Charge          ....    0
 Multiplicity           Mult            ....    1
 Number of Electrons    NEL             ....   70
 Basis Dimension        Dim             ....  345

ORBITAL ENERGIES
----------------

  NO   OCC          E(Eh)            E(eV)
   0   2.0000     -20.581832      -560.0601
   1   2.0000     -20.513827      -558.2096
   2   2.0000     -15.578875      -423.9227
   3   2.0000     -11.350470      -308.8620
   4   2.0000     -11.299008      -307.4616
   5   2.0000     -11.251538      -306.1699
   6   2.0000     -11.230800      -305.6056
   7   2.0000     -11.216095      -305.2055
   8   2.0000     -11.208292      -304.9931
   9   2.0000      -1.398470       -38.0543
  10   2.0000      -1.372658       -37.3519
  11   2.0000      -1.207592       -32.8602
  12   2.0000      -1.153357       -31.3844
  13   2.0000      -0.987087       -26.8600
  14   2.0000      -0.934800       -25.4372
  15   2.0000      -0.891999       -24.2725
  16   2.0000      -0.793672       -21.5969
  17   2.0000      -0.753146       -20.4941
  18   2.0000      -0.728563       -19.8252
  19   2.0000      -0.699545       -19.0356
  20   2.0000      -0.651191       -17.7198
  21   2.0000      -0.634274       -17.2595
  22   2.0000      -0.622150       -16.9295
  23   2.0000      -0.593287       -16.1441
  24   2.0000      -0.579673       -15.7737
  25   2.0000      -0.563544       -15.3348
  26   2.0000      -0.545223       -14.8363
  27   2.0000      -0.535222       -14.5641
  28   2.0000      -0.526718       -14.3327
  29   2.0000      -0.520593       -14.1660
  30   2.0000      -0.486008       -13.2249
  31   2.0000      -0.437134       -11.8950
  32   2.0000      -0.413830       -11.2609
  33   2.0000      -0.406350       -11.0573
  34   2.0000      -0.391628       -10.6567
  35   0.0000       0.124474         3.3871
  36   0.0000       0.152257         4.1431
  37   0.0000       0.156514         4.2590
  38   0.0000       0.172472         4.6932
  39   0.0000       0.189816         5.1652

MULLIKEN ATOMIC CHARGES
-----------------------
   0 C :   -0.395145
   1 C :    0.122569
   2 C :   -0.410836
   3 C :   -0.347027
   4 C :    0.139332
   5 O :   -0.494357
   6 C :    0.238876
   7 N :   -0.472116
   8 O :   -0.376439
   9 H :    0.141797
  10 H :    0.132706
  11 H :    0.128938
  12 H :    0.128183
  13 H :    0.175498
  14 H :    0.123815
  15 H :    0.151126
  16 H :    0.146665
  17 H :    0.334394
  18 H :    0.276439
  19 H :    0.255582
Sum of atomic charges:    0.0000000

LOEWDIN ATOMIC CHARGES
----------------------
   0 C :   -0.262341
   1 C :   -0.249078
   2 C :   -0.263186
   3 C :   -0.163807
   4 C :   -0.288767
   5 O :    0.020579
   6 C :   -0.453024
   7 N :   -0.011115
   8 O :    0.074541
   9 H :    0.128834
  10 H :    0.128707
  11 H :    0.128538
  12 H :    0.128282
  13 H :    0.137337
  14 H :    0.127264
  15 H :    0.147995
  16 H :    0.138713
  17 H :    0.184075
  18 H :    0.173708
  19 H :    0.172746

  Mayer bond orders larger than 0.1
B(  0-C ,  1-C ) :   0.9158 B(  0-C ,  9-H ) :   0.9266 B(  0-C , 10-H ) :   0.9366
B(  0-C , 11-H ) :   0.9374 B(  1-C ,  2-C ) :   0.9173 B(  1-C ,  3-C ) :   0.8869
B(  1-C ,  4-C ) :   0.7916 B(  2-C , 12-H ) :   0.9352 B(  2-C , 13-H ) :   0.9216
B(  2-C , 14-H ) :   0.9365 B(  3-C ,  4-C ) :   0.8978 B(  3-C , 15-H ) :   0.9057
B(  3-C , 16-H ) :   0.9275 B(  4-C ,  5-O ) :   0.9683 B(  4-C ,  6-C ) :   0.9207
B(  5-O , 17-H ) :   0.8332 B(  6-C ,  7-N ) :   1.1911 B(  6-C ,  8-O ) :   1.9205
B(  7-N , 18-H ) :   0.8521 B(  7-N , 19-H ) :   0.8606

MP2 TOTAL ENERGY:     -439.600284228 Eh
FINAL SINGLE POINT ENERGY      -439.600284227571

DIPOLE MOMENT
-------------
                                X             Y             Z
Electronic contribution:      2.40558      -5.87113       4.39906
Nuclear contribution   :     -1.92640       6.44156      -3.67351
                        -----------------------------------------
Total Dipole Moment    :      0.47918       0.57044       0.72555
                        -----------------------------------------
Magnitude (a.u.)       :      1.03992
Magnitude (Debye)      :      2.64326

                             ****ORCA TERMINATED NORMALLY****
TOTAL RUN TIME: 0 days 0 hours 19 minutes 49 seconds 76 msec
