                         Program Version 3.0.3 - RELEASE   -
|  1> ! RI-MP2 RIJK def2-TZVP def2-TZVP/C def2-TZVP/JK TIGHTSCF
|  2> % maxcore 2000
|  3> % mp2 density relaxed end
|  4> *xyz 0 1
|  5>  C        0.0016292565     1.4926431272     0.3310936226
|  6>  O        1.3375277987     1.6494174187    -0.1991738870
|  7>  C        1.4332121289     0.2309918989    -0.4952138208
|  8>  C       -0.0278887063    -0.0045328910    -0.0440825295
|  9>  C       -0.6423137434    -0.3952284228    -1.3823467726
| 10>  C        0.0011212141     0.4556607133    -2.5288328767
| 11>  C       -0.1122136742    -0.7636777292    -3.4746840149
| 12>  C        0.3672203490    -1.3426801305    -2.1241724037
| 13>  C        1.3425422831    -0.1188812518    -1.9716630270
| 14>  H       -0.0263247301     1.6951245851     1.4091321194
| 15>  H       -0.7250793069     2.1411342650    -0.1739658995
| 16>  H        2.2609441050    -0.2403665879     0.0447686117
| 17>  H       -0.2296694640    -0.7083178338     0.7647938043
| 18>  H       -1.7094441495    -0.6197420492    -1.4351092811
| 19>  H       -0.2018798363     1.5022270596    -2.7575780126
| 20>  H       -1.1183191053    -1.0440113685    -3.8000748907
| 21>  H        0.5948385960    -0.8066710859    -4.3078046911
| 22>  H        0.5830218223    -2.3847186294    -1.8786829892
| 23>  H        2.2383528824    -0.0701394580    -2.5927022717
| 24> *
| 25>
| 26>                          ****END OF INPUT****

CARTESIAN COORDINATES (ANGSTROEM)
---------------------------------
  C      0.001629    1.492643    0.331094
  O      1.337528    1.649417   -0.199174
  C      1.433212    0.230992   -0.495214
  C     -0.027889   -0.004533   -0.044083
  C     -0.642314   -0.395228   -1.382347
  C      0.001121    0.455661   -2.528833
  C     -0.112214   -0.763678   -3.474684
  C      0.367220   -1.342680   -2.124172
  C      1.342542   -0.118881   -1.971663
  H     -0.026325    1.695125    1.409132
  H     -0.725079    2.141134   -0.173966
  H      2.260944   -0.240367    0.044769
  H     -0.229669   -0.708318    0.764794
  H     -1.709444   -0.619742   -1.435109
  H     -0.201880    1.502227   -2.757578
  H     -1.118319   -1.044011   -3.800075
  H      0.594839   -0.806671   -4.307805
  H      0.583022   -2.384719   -1.878683
  H      2.238353   -0.070139   -2.592702

 Total Charge           Charge          ....    0
 Multiplicity           Mult            ....    1
 Number of Electrons    NEL             ....   66
 Basis Dimension        Dim             ....  339

ORBITAL ENERGIES
----------------

  NO   OCC          E(Eh)            E(eV)
   0   2.0000     -20.540582      -558.9377
   1   2.0000     -11.274349      -306.7906
   2   2.0000     -11.273490      -306.7673
   3   2.0000     -11.245903      -306.0166
   4   2.0000     -11.241216      -305.8890
   5   2.0000     -11.238564      -305.8169
   6   2.0000     -11.233303      -305.6737
   7   2.0000     -11.228065      -305.5312
   8   2.0000     -11.227909      -305.5269
   9   2.0000      -1.371074       -37.3088
  10   2.0000      -1.223261       -33.2866
  11   2.0000      -1.031175       -28.0597
  12   2.0000      -0.969014       -26.3682
  13   2.0000      -0.890119       -24.2214
  14   2.0000      -0.864991       -23.5376
  15   2.0000      -0.853239       -23.2178
  16   2.0000      -0.735753       -20.0209
  17   2.0000      -0.724261       -19.7082
  18   2.0000      -0.690144       -18.7798
  19   2.0000      -0.676781       -18.4162
  20   2.0000      -0.638776       -17.3820
  21   2.0000      -0.604183       -16.4407
  22   2.0000      -0.584520       -15.9056
  23   2.0000      -0.575053       -15.6480
  24   2.0000      -0.523226       -14.2377
  25   2.0000      -0.486032       -13.2256
  26   2.0000      -0.462594       -12.5878
  27   2.0000      -0.459567       -12.5055
  28   2.0000      -0.445485       -12.1223
  29   2.0000      -0.436944       -11.8899
  30   2.0000      -0.428281       -11.6541
  31   2.0000      -0.418965       -11.4006
  32   2.0000      -0.404350       -11.0029
  33   0.0000       0.147198         4.0055
  34   0.0000       0.156558         4.2602
  35   0.0000       0.159177         4.3314
  36   0.0000       0.169485         4.6119
  37   0.0000       0.188916         5.1407

MULLIKEN ATOMIC CHARGES
-----------------------
   0 C :   -0.020911
   1 O :   -0.347418
   2 C :    0.084540
   3 C :   -0.158340
   4 C :   -0.088133
   5 C :   -0.147128
   6 C :   -0.199738
   7 C :   -0.171731
   8 C :   -0.086708
   9 H :    0.100312
  10 H :    0.094980
  11 H :    0.094158
  12 H :    0.114839
  13 H :    0.118454
  14 H :    0.134326
  15 H :    0.112925
  16 H :    0.114732
  17 H :    0.127724
  18 H :    0.123118
Sum of atomic charges:   -0.0000000

LOEWDIN ATOMIC CHARGES
----------------------
   0 C :   -0.249660
   1 O :    0.128662
   2 C :   -0.225607
   3 C :   -0.190245
   4 C :   -0.147758
   5 C :   -0.138019
   6 C :   -0.198743
   7 C :   -0.134350
   8 C :   -0.145598
   9 H :    0.117278
  10 H :    0.117526
  11 H :    0.132610
  12 H :    0.142878
  13 H :    0.140255
  14 H :    0.129228
  15 H :    0.127268
  16 H :    0.128119
  17 H :    0.124863
  18 H :    0.141292

  Mayer bond orders larger than 0.1
B(  0-C ,  1-O ) :   0.9381 B(  0-C ,  3-C ) :   0.9704 B(  0-C ,  9-H ) :   0.9198
B(  0-C , 10-H ) :   0.9058 B(  1-O ,  2-C ) :   0.9657 B(  2-C ,  3-C ) :   0.9845
B(  2-C ,  8-C ) :   0.9003 B(  2-C , 11-H ) :   0.9376 B(  3-C ,  4-C ) :   0.9135
B(  3-C , 12-H ) :   0.9188 B(  4-C ,  5-C ) :   0.8949 B(  4-C ,  7-C ) :   0.8695
B(  4-C , 13-H ) :   0.9229 B(  5-C ,  6-C ) :   0.8991 B(  5-C ,  8-C ) :   0.8764
B(  5-C , 14-H ) :   0.8974 B(  6-C ,  7-C ) :   0.9111 B(  6-C , 15-H ) :   0.9305
B(  6-C , 16-H ) :   0.9299 B(  7-C ,  8-C ) :   0.8609 B(  7-C , 17-H ) :   0.8947
B(  8-C , 18-H ) :   0.9165

MP2 TOTAL ENERGY:     -385.158057862 Eh
FINAL SINGLE POINT ENERGY      -385.158057861959

DIPOLE MOMENT
-------------
                                X             Y             Z
Electronic contribution:      1.92230       1.45202       1.63035
Nuclear contribution   :     -2.37524      -2.05444      -1.63324
                        -----------------------------------------
Total Dipole Moment    :     -0.45293      -0.60242      -0.00288
                        -----------------------------------------
Magnitude (a.u.)       :      0.75370
Magnitude (Debye)      :      1.91575

                             ****ORCA TERMINATED NORMALLY****
TOTAL RUN TIME: 0 days 0 hours 19 minutes 22 seconds 673 msec
