                         Program Version 3.0.3 - RELEASE   -
|  1> ! RI-MP2 RIJK def2-TZVP def2-TZVP/C def2-TZVP/JK TIGHTSCF
|  2> % maxcore 2000
|  3> % mp2 density relaxed end
|  4> *xyz 0 1
|  5>  N       -0.0956796677    -1.1498582000     0.3007474908
|  6>  C       -0.0806368734    -0.0104614195     0.1100297741
|  7>  C       -0.0356661345     1.4343798074    -0.1398711133
|  8>  C        1.3691106886     1.9809801676    -0.1025207480
|  9>  C        2.0855430673     2.4100298992     1.1627776653
| 10>  C        1.9012680422     3.3889024576     0.0434021452
| 11>  O        2.8952369797     3.2033497765    -0.9633004729
| 12>  C        2.3995653931     1.8617422945    -1.2250372891
| 13>  H       -0.5023501112     1.6296493168    -1.1133554287
| 14>  H       -0.6571206214     1.9338919158     0.6120169648
| 15>  H        1.4361163902     2.5537886152     2.0215722714
| 16>  H        3.0800943396     2.0384705864     1.3927529933
| 17>  H        1.4215831422     4.3583735923     0.1178284222
| 18>  H        3.1777252792     1.0973801457    -1.1251924636
| 19>  H        1.9506143363     1.8086555044    -2.2240707113
| 20> *
| 21>
| 22>                          ****END OF INPUT****

CARTESIAN COORDINATES (ANGSTROEM)
---------------------------------
  N     -0.095680   -1.149858    0.300747
  C     -0.080637   -0.010461    0.110030
  C     -0.035666    1.434380   -0.139871
  C      1.369111    1.980980   -0.102521
  C      2.085543    2.410030    1.162778
  C      1.901268    3.388902    0.043402
  O      2.895237    3.203350   -0.963300
  C      2.399565    1.861742   -1.225037
  H     -0.502350    1.629649   -1.113355
  H     -0.657121    1.933892    0.612017
  H      1.436116    2.553789    2.021572
  H      3.080094    2.038471    1.392753
  H      1.421583    4.358374    0.117828
  H      3.177725    1.097380   -1.125192
  H      1.950614    1.808656   -2.224071

 Total Charge           Charge          ....    0
 Multiplicity           Mult            ....    1
 Number of Electrons    NEL             ....   58
 Basis Dimension        Dim             ....  290

ORBITAL ENERGIES
----------------

  NO   OCC          E(Eh)            E(eV)
   0   2.0000     -20.570205      -559.7437
   1   2.0000     -15.575134      -423.8209
   2   2.0000     -11.308553      -307.7214
   3   2.0000     -11.300908      -307.5133
   4   2.0000     -11.299440      -307.4734
   5   2.0000     -11.279509      -306.9310
   6   2.0000     -11.273049      -306.7553
   7   2.0000     -11.252294      -306.1905
   8   2.0000      -1.410043       -38.3692
   9   2.0000      -1.225180       -33.3388
  10   2.0000      -1.153208       -31.3804
  11   2.0000      -1.047999       -28.5175
  12   2.0000      -0.960040       -26.1240
  13   2.0000      -0.845912       -23.0184
  14   2.0000      -0.766066       -20.8457
  15   2.0000      -0.730951       -19.8902
  16   2.0000      -0.689529       -18.7630
  17   2.0000      -0.675271       -18.3751
  18   2.0000      -0.656753       -17.8712
  19   2.0000      -0.624994       -17.0069
  20   2.0000      -0.580222       -15.7886
  21   2.0000      -0.561568       -15.2810
  22   2.0000      -0.559721       -15.2308
  23   2.0000      -0.530582       -14.4379
  24   2.0000      -0.497632       -13.5413
  25   2.0000      -0.466978       -12.7071
  26   2.0000      -0.462541       -12.5864
  27   2.0000      -0.423254       -11.5173
  28   2.0000      -0.397983       -10.8297
  29   0.0000       0.113738         3.0950
  30   0.0000       0.150670         4.0999
  31   0.0000       0.157483         4.2853
  32   0.0000       0.164033         4.4636
  33   0.0000       0.171804         4.6750

MULLIKEN ATOMIC CHARGES
-----------------------
   0 N :   -0.057963
   1 C :   -0.172933
   2 C :   -0.147525
   3 C :   -0.051271
   4 C :   -0.261305
   5 C :    0.046497
   6 O :   -0.324350
   7 C :   -0.004480
   8 H :    0.165472
   9 H :    0.160182
  10 H :    0.135709
  11 H :    0.146359
  12 H :    0.138035
  13 H :    0.120043
  14 H :    0.107529
Sum of atomic charges:   -0.0000000

LOEWDIN ATOMIC CHARGES
----------------------
   0 N :    0.060536
   1 C :   -0.182055
   2 C :   -0.211797
   3 C :   -0.215054
   4 C :   -0.178998
   5 C :   -0.228612
   6 O :    0.148688
   7 C :   -0.208333
   8 H :    0.170027
   9 H :    0.171770
  10 H :    0.146056
  11 H :    0.140709
  12 H :    0.133461
  13 H :    0.125324
  14 H :    0.128278

  Mayer bond orders larger than 0.1
B(  0-N ,  1-C ) :   2.8648 B(  1-C ,  2-C ) :   0.9344 B(  2-C ,  3-C ) :   0.9094
B(  2-C ,  8-H ) :   0.9097 B(  2-C ,  9-H ) :   0.9059 B(  3-C ,  4-C ) :   0.8766
B(  3-C ,  5-C ) :   0.9090 B(  3-C ,  7-C ) :   0.9632 B(  4-C ,  5-C ) :   0.8730
B(  4-C , 10-H ) :   0.9207 B(  4-C , 11-H ) :   0.9089 B(  5-C ,  6-O ) :   0.9657
B(  5-C , 12-H ) :   0.9183 B(  6-O ,  7-C ) :   0.9297 B(  7-C , 13-H ) :   0.9092
B(  7-C , 14-H ) :   0.9148

MP2 TOTAL ENERGY:     -362.003010339 Eh
FINAL SINGLE POINT ENERGY      -362.003010339082

DIPOLE MOMENT
-------------
                                X             Y             Z
Electronic contribution:     -0.87652      -2.28990      -0.47635
Nuclear contribution   :      0.47966       3.42509       0.49371
                        -----------------------------------------
Total Dipole Moment    :     -0.39687       1.13519       0.01736
                        -----------------------------------------
Magnitude (a.u.)       :      1.20269
Magnitude (Debye)      :      3.05699

                             ****ORCA TERMINATED NORMALLY****
TOTAL RUN TIME: 0 days 0 hours 10 minutes 46 seconds 560 msec
