                         Program Version 3.0.3 - RELEASE   -
|  1> ! RI-MP2 RIJK def2-TZVP def2-TZVP/C def2-TZVP/JK TIGHTSCF
|  2> % maxcore 2000
|  3> % mp2 density relaxed end
|  4> *xyz 0 1
|  5>  N       -0.0902893977     1.3202665341    -0.0249457035
|  6>  C        0.0721437315    -0.0175512978    -0.0179623652
|  7>  O        1.1102806790    -0.6363075381    -0.0446736248
|  8>  N       -1.1779434471    -0.7096455224     0.0258434199
|  9>  C       -1.3657077805    -2.0483762215     0.0420791895
| 10>  N       -2.6505195947    -2.3293991710     0.0841760929
| 11>  C       -3.2231774059    -1.0872057733     0.0919013892
| 12>  O       -4.5448551902    -0.9116403900     0.1314330812
| 13>  N       -2.3920525170    -0.0667973471     0.0580881029
| 14>  H        0.7299723145     1.8990866259    -0.0528948730
| 15>  H       -1.0163411365     1.7160173529     0.0019122026
| 16>  H       -0.5416347507    -2.7430389526     0.0221709769
| 17>  H       -4.9425997650    -1.7909831891     0.1511281713
| 18> *
| 19>
| 20>                          ****END OF INPUT****

CARTESIAN COORDINATES (ANGSTROEM)
---------------------------------
  N     -0.090289    1.320267   -0.024946
  C      0.072144   -0.017551   -0.017962
  O      1.110281   -0.636308   -0.044674
  N     -1.177943   -0.709646    0.025843
  C     -1.365708   -2.048376    0.042079
  N     -2.650520   -2.329399    0.084176
  C     -3.223177   -1.087206    0.091901
  O     -4.544855   -0.911640    0.131433
  N     -2.392053   -0.066797    0.058088
  H      0.729972    1.899087   -0.052895
  H     -1.016341    1.716017    0.001912
  H     -0.541635   -2.743039    0.022171
  H     -4.942600   -1.790983    0.151128

 Total Charge           Charge          ....    0
 Multiplicity           Mult            ....    1
 Number of Electrons    NEL             ....   66
 Basis Dimension        Dim             ....  303

ORBITAL ENERGIES
----------------

  NO   OCC          E(Eh)            E(eV)
   0   2.0000     -20.618769      -561.0652
   1   2.0000     -20.543655      -559.0213
   2   2.0000     -15.670330      -426.4114
   3   2.0000     -15.603574      -424.5948
   4   2.0000     -15.601388      -424.5354
   5   2.0000     -15.582336      -424.0169
   6   2.0000     -11.414898      -310.6152
   7   2.0000     -11.375691      -309.5483
   8   2.0000     -11.348014      -308.7951
   9   2.0000      -1.472075       -40.0572
  10   2.0000      -1.437028       -39.1035
  11   2.0000      -1.393818       -37.9277
  12   2.0000      -1.255360       -34.1601
  13   2.0000      -1.211360       -32.9628
  14   2.0000      -1.137396       -30.9501
  15   2.0000      -0.929146       -25.2833
  16   2.0000      -0.861918       -23.4540
  17   2.0000      -0.828875       -22.5548
  18   2.0000      -0.786065       -21.3899
  19   2.0000      -0.718576       -19.5535
  20   2.0000      -0.711186       -19.3523
  21   2.0000      -0.699005       -19.0209
  22   2.0000      -0.693317       -18.8661
  23   2.0000      -0.640779       -17.4365
  24   2.0000      -0.622888       -16.9496
  25   2.0000      -0.591695       -16.1008
  26   2.0000      -0.562823       -15.3152
  27   2.0000      -0.535598       -14.5744
  28   2.0000      -0.479421       -13.0457
  29   2.0000      -0.471550       -12.8315
  30   2.0000      -0.445690       -12.1278
  31   2.0000      -0.435667       -11.8551
  32   2.0000      -0.378691       -10.3047
  33   0.0000       0.100544         2.7359
  34   0.0000       0.134936         3.6718
  35   0.0000       0.141266         3.8440
  36   0.0000       0.172034         4.6813
  37   0.0000       0.189417         5.1543

MULLIKEN ATOMIC CHARGES
-----------------------
   0 N :   -0.477789
   1 C :    0.335652
   2 O :   -0.349290
   3 N :    0.104495
   4 C :    0.022511
   5 N :   -0.328901
   6 C :    0.310549
   7 O :   -0.407768
   8 N :   -0.318956
   9 H :    0.274032
  10 H :    0.298845
  11 H :    0.182189
  12 H :    0.354430
Sum of atomic charges:    0.0000000

LOEWDIN ATOMIC CHARGES
----------------------
   0 N :    0.010555
   1 C :   -0.512594
   2 O :    0.097590
   3 N :    0.208935
   4 C :   -0.252963
   5 N :    0.084578
   6 C :   -0.502536
   7 O :    0.099765
   8 N :    0.043274
   9 H :    0.183419
  10 H :    0.182987
  11 H :    0.148348
  12 H :    0.208645

  Mayer bond orders larger than 0.1
B(  0-N ,  1-C ) :   1.2367 B(  0-N ,  9-H ) :   0.8590 B(  0-N , 10-H ) :   0.8386
B(  1-C ,  2-O ) :   1.9613 B(  1-C ,  3-N ) :   0.9163 B(  3-N ,  4-C ) :   1.2104
B(  3-N ,  8-N ) :   0.9191 B(  4-C ,  5-N ) :   1.5197 B(  4-C , 11-H ) :   0.9140
B(  5-N ,  6-C ) :   1.2569 B(  6-C ,  7-O ) :   1.1426 B(  6-C ,  8-N ) :   1.5410
B(  7-O , 12-H ) :   0.8120

MP2 TOTAL ENERGY:     -485.372527595 Eh
FINAL SINGLE POINT ENERGY      -485.372527595438

DIPOLE MOMENT
-------------
                                X             Y             Z
Electronic contribution:     -0.68998      -1.19660       0.03104
Nuclear contribution   :      0.54198       1.73584      -0.02901
                        -----------------------------------------
Total Dipole Moment    :     -0.14801       0.53925       0.00203
                        -----------------------------------------
Magnitude (a.u.)       :      0.55919
Magnitude (Debye)      :      1.42136

                             ****ORCA TERMINATED NORMALLY****
TOTAL RUN TIME: 0 days 0 hours 13 minutes 17 seconds 110 msec
