                         Program Version 3.0.3 - RELEASE   -
|  1> ! RI-MP2 RIJK def2-TZVP def2-TZVP/C def2-TZVP/JK TIGHTSCF
|  2> % maxcore 2000
|  3> % mp2 density relaxed end
|  4> *xyz 0 1
|  5>  O       -0.0156056400     1.4147384346     0.0577079517
|  6>  C        0.0096018879     0.0033071274     0.0159902665
|  7>  C        0.9838956253    -0.5713151894    -1.0453696395
|  8>  O        1.7769256529    -1.1963776455     0.0215991316
|  9>  C        0.9927542467    -0.6297733003     0.9941210186
| 10>  N        1.0944299774    -0.5859660297     2.2422198516
| 11>  C       -1.3851222982    -0.5894665706     0.0046421899
| 12>  C       -2.4734478121     0.0443980249     0.7813544137
| 13>  N       -2.4617577036     0.1265945869    -0.6913696226
| 14>  H        0.1249969634     1.6767546209     0.9753151110
| 15>  H        0.5855894748    -1.3230524611    -1.7287177216
| 16>  H        1.5655087124     0.1864450196    -1.5725426869
| 17>  H        1.9260297778    -1.0721638114     2.5811070529
| 18>  H       -1.4021880918    -1.6687822566    -0.1332418434
| 19>  H       -3.2600456798    -0.5720360488     1.2052868946
| 20>  H       -2.2392489288     0.9424593731     1.3447765938
| 21>  H       -2.1107238242     1.0478362660    -0.9496752918
| 22> *
| 23>
| 24>                          ****END OF INPUT****

CARTESIAN COORDINATES (ANGSTROEM)
---------------------------------
  O     -0.015606    1.414738    0.057708
  C      0.009602    0.003307    0.015990
  C      0.983896   -0.571315   -1.045370
  O      1.776926   -1.196378    0.021599
  C      0.992754   -0.629773    0.994121
  N      1.094430   -0.585966    2.242220
  C     -1.385122   -0.589467    0.004642
  C     -2.473448    0.044398    0.781354
  N     -2.461758    0.126595   -0.691370
  H      0.124997    1.676755    0.975315
  H      0.585589   -1.323052   -1.728718
  H      1.565509    0.186445   -1.572543
  H      1.926030   -1.072164    2.581107
  H     -1.402188   -1.668782   -0.133242
  H     -3.260046   -0.572036    1.205287
  H     -2.239249    0.942459    1.344777
  H     -2.110724    1.047836   -0.949675

 Total Charge           Charge          ....    0
 Multiplicity           Mult            ....    1
 Number of Electrons    NEL             ....   68
 Basis Dimension        Dim             ....  327

ORBITAL ENERGIES
----------------

  NO   OCC          E(Eh)            E(eV)
   0   2.0000     -20.607252      -560.7518
   1   2.0000     -20.591537      -560.3242
   2   2.0000     -15.564263      -423.5251
   3   2.0000     -15.556500      -423.3139
   4   2.0000     -11.353114      -308.9340
   5   2.0000     -11.326219      -308.2021
   6   2.0000     -11.309492      -307.7469
   7   2.0000     -11.274420      -306.7926
   8   2.0000     -11.261810      -306.4494
   9   2.0000      -1.454245       -39.5720
  10   2.0000      -1.397161       -38.0187
  11   2.0000      -1.268404       -34.5150
  12   2.0000      -1.214299       -33.0427
  13   2.0000      -1.045912       -28.4607
  14   2.0000      -0.926538       -25.2124
  15   2.0000      -0.890817       -24.2404
  16   2.0000      -0.851350       -23.1664
  17   2.0000      -0.781471       -21.2649
  18   2.0000      -0.733589       -19.9620
  19   2.0000      -0.719050       -19.5663
  20   2.0000      -0.696868       -18.9628
  21   2.0000      -0.664777       -18.0895
  22   2.0000      -0.647157       -17.6100
  23   2.0000      -0.625435       -17.0189
  24   2.0000      -0.569943       -15.5089
  25   2.0000      -0.558876       -15.2078
  26   2.0000      -0.553423       -15.0594
  27   2.0000      -0.524641       -14.2762
  28   2.0000      -0.503540       -13.7020
  29   2.0000      -0.488435       -13.2910
  30   2.0000      -0.463994       -12.6259
  31   2.0000      -0.445724       -12.1288
  32   2.0000      -0.421296       -11.4640
  33   2.0000      -0.397568       -10.8184
  34   0.0000       0.133582         3.6350
  35   0.0000       0.150227         4.0879
  36   0.0000       0.153224         4.1694
  37   0.0000       0.170239         4.6324
  38   0.0000       0.173465         4.7202

MULLIKEN ATOMIC CHARGES
-----------------------
   0 O :   -0.492205
   1 C :    0.237707
   2 C :   -0.035173
   3 O :   -0.255298
   4 C :    0.044717
   5 N :   -0.375133
   6 C :   -0.027384
   7 C :   -0.197949
   8 N :   -0.367555
   9 H :    0.346039
  10 H :    0.132966
  11 H :    0.123944
  12 H :    0.236203
  13 H :    0.142010
  14 H :    0.128945
  15 H :    0.121336
  16 H :    0.236829
Sum of atomic charges:   -0.0000000

LOEWDIN ATOMIC CHARGES
----------------------
   0 O :    0.028247
   1 C :   -0.327624
   2 C :   -0.176430
   3 O :    0.220567
   4 C :   -0.384348
   5 N :   -0.045151
   6 C :   -0.249230
   7 C :   -0.255381
   8 N :   -0.009124
   9 H :    0.192689
  10 H :    0.127959
  11 H :    0.129831
  12 H :    0.176663
  13 H :    0.151607
  14 H :    0.126672
  15 H :    0.122318
  16 H :    0.170735

  Mayer bond orders larger than 0.1
B(  0-O ,  1-C ) :   0.9747 B(  0-O ,  9-H ) :   0.8264 B(  1-C ,  2-C ) :   0.9334
B(  1-C ,  4-C ) :   0.8945 B(  1-C ,  6-C ) :   0.9068 B(  2-C ,  3-O ) :   0.8859
B(  2-C , 10-H ) :   0.9158 B(  2-C , 11-H ) :   0.9095 B(  3-O ,  4-C ) :   1.0958
B(  4-C ,  5-N ) :   2.0697 B(  5-N , 12-H ) :   0.8469 B(  6-C ,  7-C ) :   0.9206
B(  6-C ,  8-N ) :   0.9369 B(  6-C , 13-H ) :   0.8990 B(  7-C ,  8-N ) :   0.9165
B(  7-C , 14-H ) :   0.9200 B(  7-C , 15-H ) :   0.9226 B(  8-N , 16-H ) :   0.8688

MP2 TOTAL ENERGY:     -454.370479313 Eh
FINAL SINGLE POINT ENERGY      -454.370479312765

DIPOLE MOMENT
-------------
                                X             Y             Z
Electronic contribution:      3.81434      -0.61478       0.38038
Nuclear contribution   :     -3.41587       0.71902      -0.36179
                        -----------------------------------------
Total Dipole Moment    :      0.39847       0.10423       0.01859
                        -----------------------------------------
Magnitude (a.u.)       :      0.41230
Magnitude (Debye)      :      1.04798

                             ****ORCA TERMINATED NORMALLY****
TOTAL RUN TIME: 0 days 0 hours 15 minutes 13 seconds 433 msec
