                         Program Version 3.0.3 - RELEASE   -
|  1> ! RI-MP2 RIJK def2-TZVP def2-TZVP/C def2-TZVP/JK TIGHTSCF
|  2> % maxcore 2000
|  3> % mp2 density relaxed end
|  4> *xyz 0 1
|  5>  N       -0.0695421976    -3.7310862096    -0.0519875926
|  6>  C       -0.0310615452    -2.5709083633    -0.0015410524
|  7>  C        0.0156455094    -1.2081226826     0.0582340868
|  8>  C        0.0540461893    -0.0014598686     0.1136196043
|  9>  C        0.1289161236     1.4467770870     0.1695327049
| 10>  C        1.5173282941     1.9883362698    -0.2286011181
| 11>  N        1.4980522040     3.4412794065    -0.1752697599
| 12>  C        1.8995055704     4.0502257298     1.0925894722
| 13>  C        2.7982611041     4.0982026645    -0.0929940809
| 14>  H       -0.6247426813     1.8859705187    -0.4945505485
| 15>  H       -0.1153377746     1.7847838362     1.1845754035
| 16>  H        2.2862074482     1.5444709555     0.4272952912
| 17>  H        1.7454923848     1.6810244517    -1.2544388892
| 18>  H        1.3355369329     4.9273440223     1.3948325342
| 19>  H        2.1900107043     3.3887133968     1.9076652389
| 20>  H        3.6866144465     3.4693088629    -0.0676128008
| 21>  H        2.9012851872     5.0101200424    -0.6733307138
| 22> *
| 23>
| 24>                          ****END OF INPUT****

CARTESIAN COORDINATES (ANGSTROEM)
---------------------------------
  N     -0.069542   -3.731086   -0.051988
  C     -0.031062   -2.570908   -0.001541
  C      0.015646   -1.208123    0.058234
  C      0.054046   -0.001460    0.113620
  C      0.128916    1.446777    0.169533
  C      1.517328    1.988336   -0.228601
  N      1.498052    3.441279   -0.175270
  C      1.899506    4.050226    1.092589
  C      2.798261    4.098203   -0.092994
  H     -0.624743    1.885971   -0.494551
  H     -0.115338    1.784784    1.184575
  H      2.286207    1.544471    0.427295
  H      1.745492    1.681024   -1.254439
  H      1.335537    4.927344    1.394833
  H      2.190011    3.388713    1.907665
  H      3.686614    3.469309   -0.067613
  H      2.901285    5.010120   -0.673331

 Total Charge           Charge          ....    0
 Multiplicity           Mult            ....    1
 Number of Electrons    NEL             ....   64
 Basis Dimension        Dim             ....  327

ORBITAL ENERGIES
----------------

  NO   OCC          E(Eh)            E(eV)
   0   2.0000     -15.589871      -424.2220
   1   2.0000     -15.579634      -423.9434
   2   2.0000     -11.298347      -307.4437
   3   2.0000     -11.292580      -307.2867
   4   2.0000     -11.283462      -307.0386
   5   2.0000     -11.277837      -306.8855
   6   2.0000     -11.273637      -306.7713
   7   2.0000     -11.271879      -306.7234
   8   2.0000     -11.271036      -306.7005
   9   2.0000      -1.294214       -35.2173
  10   2.0000      -1.230592       -33.4861
  11   2.0000      -1.120376       -30.4870
  12   2.0000      -1.054481       -28.6939
  13   2.0000      -0.959604       -26.1122
  14   2.0000      -0.871517       -23.7152
  15   2.0000      -0.859755       -23.3951
  16   2.0000      -0.827732       -22.5237
  17   2.0000      -0.700401       -19.0589
  18   2.0000      -0.695685       -18.9305
  19   2.0000      -0.658993       -17.9321
  20   2.0000      -0.631721       -17.1900
  21   2.0000      -0.588070       -16.0022
  22   2.0000      -0.575142       -15.6504
  23   2.0000      -0.555201       -15.1078
  24   2.0000      -0.544164       -14.8075
  25   2.0000      -0.529193       -14.4001
  26   2.0000      -0.523754       -14.2521
  27   2.0000      -0.487017       -13.2524
  28   2.0000      -0.474802       -12.9200
  29   2.0000      -0.403434       -10.9780
  30   2.0000      -0.400211       -10.8903
  31   2.0000      -0.394361       -10.7311
  32   0.0000       0.098911         2.6915
  33   0.0000       0.101697         2.7673
  34   0.0000       0.126197         3.4340
  35   0.0000       0.143585         3.9071
  36   0.0000       0.154258         4.1976

MULLIKEN ATOMIC CHARGES
-----------------------
   0 N :   -0.040884
   1 C :   -0.220345
   2 C :    0.280957
   3 C :   -0.087685
   4 C :   -0.307240
   5 C :   -0.148201
   6 N :   -0.220561
   7 C :   -0.188602
   8 C :   -0.172680
   9 H :    0.164145
  10 H :    0.160022
  11 H :    0.112324
  12 H :    0.138352
  13 H :    0.136832
  14 H :    0.128364
  15 H :    0.128258
  16 H :    0.136945
Sum of atomic charges:    0.0000000

LOEWDIN ATOMIC CHARGES
----------------------
   0 N :    0.095057
   1 C :   -0.178929
   2 C :   -0.061581
   3 C :    0.002330
   4 C :   -0.235788
   5 C :   -0.278682
   6 N :    0.089090
   7 C :   -0.267286
   8 C :   -0.263656
   9 H :    0.166926
  10 H :    0.163773
  11 H :    0.127602
  12 H :    0.140472
  13 H :    0.125969
  14 H :    0.123442
  15 H :    0.124533
  16 H :    0.126729

  Mayer bond orders larger than 0.1
B(  0-N ,  1-C ) :   2.7657 B(  0-N ,  3-C ) :   0.1121 B(  1-C ,  2-C ) :   0.9710
B(  2-C ,  3-C ) :   2.5506 B(  2-C ,  4-C ) :  -0.1173 B(  3-C ,  4-C ) :   1.0095
B(  4-C ,  5-C ) :   0.9349 B(  4-C ,  9-H ) :   0.9149 B(  4-C , 10-H ) :   0.9280
B(  5-C ,  6-N ) :   0.9249 B(  5-C , 11-H ) :   0.9329 B(  5-C , 12-H ) :   0.9172
B(  6-N ,  7-C ) :   0.8767 B(  6-N ,  8-C ) :   0.8830 B(  7-C ,  8-C ) :   0.9390
B(  7-C , 13-H ) :   0.9274 B(  7-C , 14-H ) :   0.9214 B(  8-C , 15-H ) :   0.9269
B(  8-C , 16-H ) :   0.9275

MP2 TOTAL ENERGY:     -380.133494631 Eh
FINAL SINGLE POINT ENERGY      -380.133494631238

DIPOLE MOMENT
-------------
                                X             Y             Z
Electronic contribution:     -5.12942     -13.22229      -1.14912
Nuclear contribution   :      5.69155      15.12254       1.48491
                        -----------------------------------------
Total Dipole Moment    :      0.56213       1.90025       0.33579
                        -----------------------------------------
Magnitude (a.u.)       :      2.00990
Magnitude (Debye)      :      5.10877

                             ****ORCA TERMINATED NORMALLY****
TOTAL RUN TIME: 0 days 0 hours 13 minutes 46 seconds 171 msec
