                         Program Version 3.0.3 - RELEASE   -
|  1> ! RI-MP2 RIJK def2-TZVP def2-TZVP/C def2-TZVP/JK TIGHTSCF
|  2> % maxcore 2000
|  3> % mp2 density relaxed end
|  4> *xyz 0 1
|  5>  O        0.1012304684     1.3546492319     0.1090948081
|  6>  C        0.0676550966     0.0033699725     0.0393896891
|  7>  C        0.0702728991    -0.6974784138    -1.1641271198
|  8>  C        0.0336699054    -2.0965383875    -1.1283418739
|  9>  N       -0.0041608783    -2.8040619944     0.0138859801
| 10>  C       -0.0057319303    -2.1063973758     1.1513304295
| 11>  C        0.0285707153    -0.7203774115     1.2315646647
| 12>  C        0.0358789813    -2.8292145576    -2.3584341610
| 13>  C        0.0388238959    -3.4147152773    -3.4096712299
| 14>  H        0.1259591585     1.7214122039    -0.7817202057
| 15>  H        0.0999331438    -0.1804643240    -2.1178122698
| 16>  H       -0.0365519441    -2.6943129045     2.0656385031
| 17>  H        0.0255484428    -0.2033244041     2.1832209718
| 18>  H        0.0408227756    -3.9494054079    -4.3273448264
| 19> *
| 20>
| 21>                          ****END OF INPUT****

CARTESIAN COORDINATES (ANGSTROEM)
---------------------------------
  O      0.101230    1.354649    0.109095
  C      0.067655    0.003370    0.039390
  C      0.070273   -0.697478   -1.164127
  C      0.033670   -2.096538   -1.128342
  N     -0.004161   -2.804062    0.013886
  C     -0.005732   -2.106397    1.151330
  C      0.028571   -0.720377    1.231565
  C      0.035879   -2.829215   -2.358434
  C      0.038824   -3.414715   -3.409671
  H      0.125959    1.721412   -0.781720
  H      0.099933   -0.180464   -2.117812
  H     -0.036552   -2.694313    2.065639
  H      0.025548   -0.203324    2.183221
  H      0.040823   -3.949405   -4.327345

 Total Charge           Charge          ....    0
 Multiplicity           Mult            ....    1
 Number of Electrons    NEL             ....   62
 Basis Dimension        Dim             ....  309

ORBITAL ENERGIES
----------------

  NO   OCC          E(Eh)            E(eV)
   0   2.0000     -20.614296      -560.9435
   1   2.0000     -15.566117      -423.5756
   2   2.0000     -11.334206      -308.4194
   3   2.0000     -11.311724      -307.8076
   4   2.0000     -11.284352      -307.0628
   5   2.0000     -11.250697      -306.1470
   6   2.0000     -11.244057      -305.9663
   7   2.0000     -11.241493      -305.8966
   8   2.0000     -11.239079      -305.8309
   9   2.0000      -1.434608       -39.0377
  10   2.0000      -1.269412       -34.5425
  11   2.0000      -1.087350       -29.5883
  12   2.0000      -1.080785       -29.4096
  13   2.0000      -1.014362       -27.6022
  14   2.0000      -0.892284       -24.2803
  15   2.0000      -0.877688       -23.8831
  16   2.0000      -0.780626       -21.2419
  17   2.0000      -0.733717       -19.9655
  18   2.0000      -0.708966       -19.2919
  19   2.0000      -0.676037       -18.3959
  20   2.0000      -0.657723       -17.8975
  21   2.0000      -0.618963       -16.8428
  22   2.0000      -0.614160       -16.7121
  23   2.0000      -0.601097       -16.3567
  24   2.0000      -0.546874       -14.8812
  25   2.0000      -0.533647       -14.5213
  26   2.0000      -0.433748       -11.8029
  27   2.0000      -0.432446       -11.7674
  28   2.0000      -0.407691       -11.0938
  29   2.0000      -0.367551       -10.0016
  30   2.0000      -0.338621        -9.2144
  31   0.0000       0.080088         2.1793
  32   0.0000       0.115583         3.1452
  33   0.0000       0.124102         3.3770
  34   0.0000       0.160186         4.3589
  35   0.0000       0.167569         4.5598

MULLIKEN ATOMIC CHARGES
-----------------------
   0 O :   -0.406440
   1 C :    0.250623
   2 C :   -0.255714
   3 C :    0.003581
   4 N :   -0.256931
   5 C :   -0.049822
   6 C :   -0.159946
   7 C :    0.038504
   8 C :   -0.100318
   9 H :    0.335323
  10 H :    0.133544
  11 H :    0.129194
  12 H :    0.142503
  13 H :    0.195899
Sum of atomic charges:   -0.0000000

LOEWDIN ATOMIC CHARGES
----------------------
   0 O :    0.093828
   1 C :   -0.271663
   2 C :   -0.094322
   3 C :   -0.222237
   4 N :    0.166014
   5 C :   -0.207607
   6 C :   -0.116874
   7 C :   -0.057337
   8 C :   -0.068978
   9 H :    0.196155
  10 H :    0.155632
  11 H :    0.142300
  12 H :    0.156226
  13 H :    0.128862

  Mayer bond orders larger than 0.1
B(  0-O ,  1-C ) :   1.1240 B(  0-O ,  9-H ) :   0.8289 B(  1-C ,  2-C ) :   1.2823
B(  1-C ,  6-C ) :   1.3168 B(  2-C ,  3-C ) :   1.3337 B(  2-C , 10-H ) :   0.9069
B(  3-C ,  4-N ) :   1.3487 B(  3-C ,  7-C ) :   1.1336 B(  3-C ,  8-C ) :  -0.1738
B(  4-N ,  5-C ) :   1.4150 B(  5-C ,  6-C ) :   1.3357 B(  5-C , 11-H ) :   0.9464
B(  6-C , 12-H ) :   0.9170 B(  7-C ,  8-C ) :   2.5721 B(  8-C , 13-H ) :   0.8807

MP2 TOTAL ENERGY:     -398.866642712 Eh
FINAL SINGLE POINT ENERGY      -398.866642711671

DIPOLE MOMENT
-------------
                                X             Y             Z
Electronic contribution:     -0.00840      -0.55659      -0.34341
Nuclear contribution   :      0.04159       1.56866      -0.07191
                        -----------------------------------------
Total Dipole Moment    :      0.03319       1.01208      -0.41532
                        -----------------------------------------
Magnitude (a.u.)       :      1.09448
Magnitude (Debye)      :      2.78195

                             ****ORCA TERMINATED NORMALLY****
TOTAL RUN TIME: 0 days 0 hours 15 minutes 54 seconds 660 msec
