                         Program Version 3.0.3 - RELEASE   -
|  1> ! RI-MP2 RIJK def2-TZVP def2-TZVP/C def2-TZVP/JK TIGHTSCF
|  2> % maxcore 2000
|  3> % mp2 density relaxed end
|  4> *xyz 0 1
|  5>  O       -0.0217360620     1.4787146474     0.2569512356
|  6>  C        0.0026476477     0.0902734264     0.0828718253
|  7>  C       -0.5440592202    -0.8038667622     1.1671894582
|  8>  C       -1.3221720950    -0.5897411119    -0.1207782794
|  9>  C       -2.6038738311     0.1969818952    -0.1180184281
| 10>  C       -3.1989732197     0.6617142834    -1.4796113669
| 11>  C       -4.6076003004     0.3690943154    -0.9009027290
| 12>  O       -5.6293195720    -0.1254951888    -1.7292404958
| 13>  C       -3.9425465084    -0.5488109038     0.1586413412
| 14>  H        0.6352101804     1.7050464505     0.9231879079
| 15>  H        0.8496392355    -0.2775630794    -0.4965386489
| 16>  H       -0.0720174400    -1.7632122343     1.3498650075
| 17>  H       -0.9273314351    -0.3086673941     2.0539829075
| 18>  H       -1.3122180917    -1.4223531540    -0.8212399056
| 19>  H       -2.5011865641     1.0554669473     0.5498546653
| 20>  H       -2.9729781630     1.6695940854    -1.8338323835
| 21>  H       -2.9564569322    -0.0544990550    -2.2752227283
| 22>  H       -5.0249679256     1.2639106743    -0.4288254473
| 23>  H       -5.2936548698    -0.9105642913    -2.1747163422
| 24>  H       -3.8953294536    -1.5822550352    -0.2071377154
| 25>  H       -4.3449247196    -0.5551628454     1.1744768218
| 26> *
| 27>
| 28>                          ****END OF INPUT****

CARTESIAN COORDINATES (ANGSTROEM)
---------------------------------
  O     -0.021736    1.478715    0.256951
  C      0.002648    0.090273    0.082872
  C     -0.544059   -0.803867    1.167189
  C     -1.322172   -0.589741   -0.120778
  C     -2.603874    0.196982   -0.118018
  C     -3.198973    0.661714   -1.479611
  C     -4.607600    0.369094   -0.900903
  O     -5.629320   -0.125495   -1.729240
  C     -3.942547   -0.548811    0.158641
  H      0.635210    1.705046    0.923188
  H      0.849639   -0.277563   -0.496539
  H     -0.072017   -1.763212    1.349865
  H     -0.927331   -0.308667    2.053983
  H     -1.312218   -1.422353   -0.821240
  H     -2.501187    1.055467    0.549855
  H     -2.972978    1.669594   -1.833832
  H     -2.956457   -0.054499   -2.275223
  H     -5.024968    1.263911   -0.428825
  H     -5.293655   -0.910564   -2.174716
  H     -3.895329   -1.582255   -0.207138
  H     -4.344925   -0.555163    1.174477

 Total Charge           Charge          ....    0
 Multiplicity           Mult            ....    1
 Number of Electrons    NEL             ....   70
 Basis Dimension        Dim             ....  351

ORBITAL ENERGIES
----------------

  NO   OCC          E(Eh)            E(eV)
   0   2.0000     -20.564735      -559.5949
   1   2.0000     -20.550610      -559.2105
   2   2.0000     -11.284046      -307.0545
   3   2.0000     -11.273379      -306.7642
   4   2.0000     -11.232120      -305.6415
   5   2.0000     -11.227949      -305.5280
   6   2.0000     -11.226914      -305.4999
   7   2.0000     -11.217350      -305.2396
   8   2.0000     -11.215558      -305.1908
   9   2.0000      -1.373871       -37.3849
  10   2.0000      -1.358174       -36.9578
  11   2.0000      -1.147636       -31.2288
  12   2.0000      -1.103435       -30.0260
  13   2.0000      -0.907199       -24.6861
  14   2.0000      -0.899547       -24.4779
  15   2.0000      -0.828695       -22.5499
  16   2.0000      -0.800951       -21.7950
  17   2.0000      -0.761651       -20.7256
  18   2.0000      -0.700363       -19.0579
  19   2.0000      -0.674011       -18.3408
  20   2.0000      -0.667970       -18.1764
  21   2.0000      -0.642150       -17.4738
  22   2.0000      -0.600345       -16.3362
  23   2.0000      -0.588702       -16.0194
  24   2.0000      -0.570562       -15.5258
  25   2.0000      -0.550762       -14.9870
  26   2.0000      -0.538764       -14.6605
  27   2.0000      -0.517911       -14.0931
  28   2.0000      -0.515759       -14.0345
  29   2.0000      -0.479707       -13.0535
  30   2.0000      -0.465953       -12.6792
  31   2.0000      -0.445364       -12.1190
  32   2.0000      -0.413380       -11.2486
  33   2.0000      -0.396690       -10.7945
  34   2.0000      -0.390340       -10.6217
  35   0.0000       0.136511         3.7147
  36   0.0000       0.139849         3.8055
  37   0.0000       0.151405         4.1200
  38   0.0000       0.165654         4.5077
  39   0.0000       0.173189         4.7127

MULLIKEN ATOMIC CHARGES
-----------------------
   0 O :   -0.472075
   1 C :    0.020984
   2 C :   -0.295462
   3 C :   -0.084462
   4 C :   -0.097123
   5 C :   -0.226432
   6 C :    0.052525
   7 O :   -0.456081
   8 C :   -0.212360
   9 H :    0.323835
  10 H :    0.107536
  11 H :    0.130655
  12 H :    0.134018
  13 H :    0.115535
  14 H :    0.108994
  15 H :    0.125828
  16 H :    0.099351
  17 H :    0.098273
  18 H :    0.309182
  19 H :    0.099207
  20 H :    0.118070
Sum of atomic charges:    0.0000000

LOEWDIN ATOMIC CHARGES
----------------------
   0 O :   -0.004770
   1 C :   -0.319805
   2 C :   -0.218946
   3 C :   -0.199707
   4 C :   -0.214014
   5 C :   -0.203112
   6 C :   -0.336361
   7 O :   -0.020274
   8 C :   -0.206164
   9 H :    0.180624
  10 H :    0.129220
  11 H :    0.130278
  12 H :    0.137805
  13 H :    0.149209
  14 H :    0.159119
  15 H :    0.127305
  16 H :    0.134858
  17 H :    0.143375
  18 H :    0.171972
  19 H :    0.135310
  20 H :    0.124078

  Mayer bond orders larger than 0.1
B(  0-O ,  1-C ) :   1.0306 B(  0-O ,  9-H ) :   0.8407 B(  1-C ,  2-C ) :   0.8980
B(  1-C ,  3-C ) :   0.8728 B(  1-C , 10-H ) :   0.9525 B(  2-C ,  3-C ) :   0.8627
B(  2-C , 11-H ) :   0.9207 B(  2-C , 12-H ) :   0.9272 B(  3-C ,  4-C ) :   0.9027
B(  3-C , 13-H ) :   0.9112 B(  4-C ,  5-C ) :   0.9384 B(  4-C ,  8-C ) :   0.9269
B(  4-C , 14-H ) :   0.9017 B(  5-C ,  6-C ) :   0.9259 B(  5-C , 15-H ) :   0.9269
B(  5-C , 16-H ) :   0.9199 B(  6-C ,  7-O ) :   0.9779 B(  6-C ,  8-C ) :   0.9208
B(  6-C , 17-H ) :   0.9304 B(  7-O , 18-H ) :   0.8415 B(  8-C , 19-H ) :   0.9170
B(  8-C , 20-H ) :   0.9268

MP2 TOTAL ENERGY:     -423.490112503 Eh
FINAL SINGLE POINT ENERGY      -423.490112502748

DIPOLE MOMENT
-------------
                                X             Y             Z
Electronic contribution:     -0.39620       1.70370      -1.05140
Nuclear contribution   :      1.40504      -2.22875       1.47630
                        -----------------------------------------
Total Dipole Moment    :      1.00884      -0.52505       0.42491
                        -----------------------------------------
Magnitude (a.u.)       :      1.21408
Magnitude (Debye)      :      3.08594

                             ****ORCA TERMINATED NORMALLY****
TOTAL RUN TIME: 0 days 0 hours 15 minutes 49 seconds 992 msec
