                         Program Version 3.0.3 - RELEASE   -
|  1> ! RI-MP2 RIJK def2-TZVP def2-TZVP/C def2-TZVP/JK TIGHTSCF
|  2> % maxcore 2000
|  3> % mp2 density relaxed end
|  4> *xyz 0 1
|  5>  C        0.0782932664     1.6065396211     0.0473138371
|  6>  C       -0.0176088285     0.0783512079    -0.0698808192
|  7>  C        0.4558795671    -0.3961160609    -1.4736637051
|  8>  C        0.4345309724    -1.8920330178    -1.6807015731
|  9>  C        1.3693736442    -2.7709573970    -1.3145060647
| 10>  C        2.6436152235    -2.4544715267    -0.5802699720
| 11>  O        2.6111770892    -1.1683594765     0.0415481009
| 12>  C        1.7302020014    -1.0817096190     1.0975061148
| 13>  N        0.6098031391    -0.5168857829     1.1049064067
| 14>  H        1.1175665590     1.9348394060    -0.0585702571
| 15>  H       -0.5168715823     2.0902525936    -0.7332923406
| 16>  H       -0.2873374426     1.9382870536     1.0221819023
| 17>  H       -1.0782266372    -0.1923332904     0.0226702345
| 18>  H       -0.2263665031     0.0643083766    -2.1982704887
| 19>  H        1.4502986525     0.0077911222    -1.6693942982
| 20>  H       -0.4500082369    -2.2880373217    -2.1755553812
| 21>  H        1.2242927979    -3.8253776948    -1.5408346895
| 22>  H        2.8490768387    -3.2359166787     0.1693038508
| 23>  H        3.5053586868    -2.4287944982    -1.2577894312
| 24>  H        2.1097630023    -1.5435843964     2.0142152837
| 25> *
| 26>
| 27>                          ****END OF INPUT****

CARTESIAN COORDINATES (ANGSTROEM)
---------------------------------
  C      0.078293    1.606540    0.047314
  C     -0.017609    0.078351   -0.069881
  C      0.455880   -0.396116   -1.473664
  C      0.434531   -1.892033   -1.680702
  C      1.369374   -2.770957   -1.314506
  C      2.643615   -2.454472   -0.580270
  O      2.611177   -1.168359    0.041548
  C      1.730202   -1.081710    1.097506
  N      0.609803   -0.516886    1.104906
  H      1.117567    1.934839   -0.058570
  H     -0.516872    2.090253   -0.733292
  H     -0.287337    1.938287    1.022182
  H     -1.078227   -0.192333    0.022670
  H     -0.226367    0.064308   -2.198270
  H      1.450299    0.007791   -1.669394
  H     -0.450008   -2.288037   -2.175555
  H      1.224293   -3.825378   -1.540835
  H      2.849077   -3.235917    0.169304
  H      3.505359   -2.428794   -1.257789
  H      2.109763   -1.543584    2.014215

 Total Charge           Charge          ....    0
 Multiplicity           Mult            ....    1
 Number of Electrons    NEL             ....   68
 Basis Dimension        Dim             ....  345

ORBITAL ENERGIES
----------------

  NO   OCC          E(Eh)            E(eV)
   0   2.0000     -20.577846      -559.9517
   1   2.0000     -15.547189      -423.0605
   2   2.0000     -11.322235      -308.0937
   3   2.0000     -11.298042      -307.4354
   4   2.0000     -11.260127      -306.4036
   5   2.0000     -11.234792      -305.7142
   6   2.0000     -11.232030      -305.6391
   7   2.0000     -11.223723      -305.4130
   8   2.0000     -11.211981      -305.0935
   9   2.0000      -1.410897       -38.3925
  10   2.0000      -1.218408       -33.1546
  11   2.0000      -1.092517       -29.7289
  12   2.0000      -1.028662       -27.9913
  13   2.0000      -0.975727       -26.5509
  14   2.0000      -0.905942       -24.6519
  15   2.0000      -0.846232       -23.0271
  16   2.0000      -0.786658       -21.4061
  17   2.0000      -0.745668       -20.2907
  18   2.0000      -0.675684       -18.3863
  19   2.0000      -0.671491       -18.2722
  20   2.0000      -0.642310       -17.4781
  21   2.0000      -0.629427       -17.1276
  22   2.0000      -0.615237       -16.7415
  23   2.0000      -0.571174       -15.5424
  24   2.0000      -0.559799       -15.2329
  25   2.0000      -0.542490       -14.7619
  26   2.0000      -0.534925       -14.5561
  27   2.0000      -0.524451       -14.2710
  28   2.0000      -0.498451       -13.5636
  29   2.0000      -0.476142       -12.9565
  30   2.0000      -0.444635       -12.0991
  31   2.0000      -0.406130       -11.0514
  32   2.0000      -0.402163       -10.9434
  33   2.0000      -0.354708        -9.6521
  34   0.0000       0.134027         3.6470
  35   0.0000       0.144027         3.9192
  36   0.0000       0.155175         4.2225
  37   0.0000       0.163767         4.4563
  38   0.0000       0.176866         4.8128

MULLIKEN ATOMIC CHARGES
-----------------------
   0 C :   -0.396353
   1 C :    0.050751
   2 C :   -0.186044
   3 C :   -0.175298
   4 C :   -0.201074
   5 C :   -0.011594
   6 O :   -0.301937
   7 C :    0.083614
   8 N :   -0.235970
   9 H :    0.129658
  10 H :    0.124214
  11 H :    0.144851
  12 H :    0.096561
  13 H :    0.122043
  14 H :    0.134116
  15 H :    0.123470
  16 H :    0.124808
  17 H :    0.115888
  18 H :    0.137609
  19 H :    0.120688
Sum of atomic charges:   -0.0000000

LOEWDIN ATOMIC CHARGES
----------------------
   0 C :   -0.287547
   1 C :   -0.304780
   2 C :   -0.240745
   3 C :   -0.165491
   4 C :   -0.188451
   5 C :   -0.292102
   6 O :    0.190887
   7 C :   -0.345884
   8 N :    0.124863
   9 H :    0.125373
  10 H :    0.123739
  11 H :    0.127304
  12 H :    0.151419
  13 H :    0.145168
  14 H :    0.148185
  15 H :    0.145489
  16 H :    0.146336
  17 H :    0.130476
  18 H :    0.139976
  19 H :    0.125783

  Mayer bond orders larger than 0.1
B(  0-C ,  1-C ) :   0.9022 B(  0-C ,  9-H ) :   0.9314 B(  0-C , 10-H ) :   0.9356
B(  0-C , 11-H ) :   0.9375 B(  1-C ,  2-C ) :   0.8889 B(  1-C ,  8-N ) :   0.8925
B(  1-C , 12-H ) :   0.9319 B(  2-C ,  3-C ) :   0.9244 B(  2-C , 13-H ) :   0.9206
B(  2-C , 14-H ) :   0.9218 B(  3-C ,  4-C ) :   1.8251 B(  3-C , 15-H ) :   0.9248
B(  4-C ,  5-C ) :   0.9325 B(  4-C , 16-H ) :   0.9155 B(  5-C ,  6-O ) :   0.8845
B(  5-C , 17-H ) :   0.9452 B(  5-C , 18-H ) :   0.9174 B(  6-O ,  7-C ) :   0.9696
B(  7-C ,  8-N ) :   1.9198 B(  7-C , 19-H ) :   0.9245

MP2 TOTAL ENERGY:     -402.444847884 Eh
FINAL SINGLE POINT ENERGY      -402.444847883879

DIPOLE MOMENT
-------------
                                X             Y             Z
Electronic contribution:      2.59110      -3.01023       2.36193
Nuclear contribution   :     -2.46639       2.58526      -2.85940
                        -----------------------------------------
Total Dipole Moment    :      0.12471      -0.42497      -0.49748
                        -----------------------------------------
Magnitude (a.u.)       :      0.66606
Magnitude (Debye)      :      1.69298

                             ****ORCA TERMINATED NORMALLY****
TOTAL RUN TIME: 0 days 0 hours 19 minutes 11 seconds 809 msec
