                         Program Version 3.0.3 - RELEASE   -
|  1> ! RI-MP2 RIJK def2-TZVP def2-TZVP/C def2-TZVP/JK TIGHTSCF
|  2> % maxcore 2000
|  3> % mp2 density relaxed end
|  4> *xyz 0 1
|  5>  C       -0.0547954135    -1.1824003722    -0.0133487508
|  6>  C        0.0127183031     0.0102509382     0.1225445887
|  7>  C        0.1302518220     1.4552881426     0.2708891339
|  8>  C        1.4599032655     2.0140999577    -0.2833048386
|  9>  C        1.5425422059     3.5186770353    -0.1315750250
| 10>  C        1.9092180289     4.2498530471     1.1360167872
| 11>  C        3.0264323482     3.5324535852     1.9075712537
| 12>  C        3.9408539366     3.6236338058     0.6430889258
| 13>  C        2.8071093362     4.3345830625    -0.1089267007
| 14>  H       -0.1273873368    -2.2352567839    -0.1279694924
| 15>  H       -0.7110825973     1.9444195255    -0.2378421605
| 16>  H        0.0398566878     1.7268896956     1.3304304102
| 17>  H        2.2880584481     1.5163672006     0.2284140993
| 18>  H        1.5464450501     1.7423845788    -1.3418873250
| 19>  H        0.7487749585     4.0377386194    -0.6689977846
| 20>  H        1.2599855484     5.0093769408     1.5561557968
| 21>  H        3.4136832455     4.1304301568     2.7351494301
| 22>  H        2.7959298644     2.5321533991     2.2889658346
| 23>  H        4.8010985491     4.2752640574     0.8102749595
| 24>  H        4.3024565224     2.6839073439     0.2135490241
| 25>  H        2.9461973165     5.1668268836    -0.7894477163
| 26> *
| 27>
| 28>                          ****END OF INPUT****

CARTESIAN COORDINATES (ANGSTROEM)
---------------------------------
  C     -0.054795   -1.182400   -0.013349
  C      0.012718    0.010251    0.122545
  C      0.130252    1.455288    0.270889
  C      1.459903    2.014100   -0.283305
  C      1.542542    3.518677   -0.131575
  C      1.909218    4.249853    1.136017
  C      3.026432    3.532454    1.907571
  C      3.940854    3.623634    0.643089
  C      2.807109    4.334583   -0.108927
  H     -0.127387   -2.235257   -0.127969
  H     -0.711083    1.944420   -0.237842
  H      0.039857    1.726890    1.330430
  H      2.288058    1.516367    0.228414
  H      1.546445    1.742385   -1.341887
  H      0.748775    4.037739   -0.668998
  H      1.259986    5.009377    1.556156
  H      3.413683    4.130430    2.735149
  H      2.795930    2.532153    2.288966
  H      4.801099    4.275264    0.810275
  H      4.302457    2.683907    0.213549
  H      2.946197    5.166827   -0.789448

 Total Charge           Charge          ....    0
 Multiplicity           Mult            ....    1
 Number of Electrons    NEL             ....   66
 Basis Dimension        Dim             ....  351

ORBITAL ENERGIES
----------------

  NO   OCC          E(Eh)            E(eV)
   0   2.0000     -11.248287      -306.0815
   1   2.0000     -11.233350      -305.6750
   2   2.0000     -11.230550      -305.5988
   3   2.0000     -11.229908      -305.5813
   4   2.0000     -11.229228      -305.5628
   5   2.0000     -11.228373      -305.5396
   6   2.0000     -11.225290      -305.4557
   7   2.0000     -11.224599      -305.4369
   8   2.0000     -11.215078      -305.1778
   9   2.0000      -1.189174       -32.3591
  10   2.0000      -1.080680       -29.4068
  11   2.0000      -1.010316       -27.4921
  12   2.0000      -0.970694       -26.4139
  13   2.0000      -0.891764       -24.2661
  14   2.0000      -0.884958       -24.0809
  15   2.0000      -0.753673       -20.5085
  16   2.0000      -0.731967       -19.9178
  17   2.0000      -0.714829       -19.4515
  18   2.0000      -0.693508       -18.8713
  19   2.0000      -0.641091       -17.4450
  20   2.0000      -0.633942       -17.2504
  21   2.0000      -0.601192       -16.3593
  22   2.0000      -0.569358       -15.4930
  23   2.0000      -0.550935       -14.9917
  24   2.0000      -0.534089       -14.5333
  25   2.0000      -0.511016       -13.9055
  26   2.0000      -0.499031       -13.5793
  27   2.0000      -0.463102       -12.6017
  28   2.0000      -0.460963       -12.5434
  29   2.0000      -0.403311       -10.9747
  30   2.0000      -0.383939       -10.4475
  31   2.0000      -0.380645       -10.3579
  32   2.0000      -0.367760       -10.0073
  33   0.0000       0.135270         3.6809
  34   0.0000       0.154345         4.1999
  35   0.0000       0.158036         4.3004
  36   0.0000       0.164760         4.4833
  37   0.0000       0.171944         4.6788

MULLIKEN ATOMIC CHARGES
-----------------------
   0 C :   -0.127423
   1 C :    0.002057
   2 C :   -0.409584
   3 C :   -0.190578
   4 C :   -0.115151
   5 C :   -0.137695
   6 C :   -0.245528
   7 C :   -0.252821
   8 C :   -0.108162
   9 H :    0.187870
  10 H :    0.139714
  11 H :    0.150352
  12 H :    0.128732
  13 H :    0.125627
  14 H :    0.115513
  15 H :    0.128828
  16 H :    0.122152
  17 H :    0.117841
  18 H :    0.120716
  19 H :    0.118865
  20 H :    0.128674
Sum of atomic charges:   -0.0000000

LOEWDIN ATOMIC CHARGES
----------------------
   0 C :   -0.112359
   1 C :   -0.112722
   2 C :   -0.244245
   3 C :   -0.226121
   4 C :   -0.201198
   5 C :   -0.170063
   6 C :   -0.220161
   7 C :   -0.219864
   8 C :   -0.167017
   9 H :    0.125148
  10 H :    0.156086
  11 H :    0.158140
  12 H :    0.146412
  13 H :    0.145408
  14 H :    0.159487
  15 H :    0.132400
  16 H :    0.134104
  17 H :    0.124684
  18 H :    0.134131
  19 H :    0.124752
  20 H :    0.132998

  Mayer bond orders larger than 0.1
B(  0-C ,  1-C ) :   2.6115 B(  0-C ,  2-C ) :  -0.1224 B(  0-C ,  9-H ) :   0.8967
B(  1-C ,  2-C ) :   1.1136 B(  2-C ,  3-C ) :   0.9232 B(  2-C , 10-H ) :   0.9223
B(  2-C , 11-H ) :   0.9297 B(  3-C ,  4-C ) :   0.8960 B(  3-C , 12-H ) :   0.9318
B(  3-C , 13-H ) :   0.9285 B(  4-C ,  5-C ) :   0.8879 B(  4-C ,  8-C ) :   0.8785
B(  4-C , 14-H ) :   0.9264 B(  5-C ,  6-C ) :   0.9227 B(  5-C ,  8-C ) :   0.8296
B(  5-C , 15-H ) :   0.9240 B(  6-C ,  7-C ) :   0.9619 B(  6-C , 16-H ) :   0.9270
B(  6-C , 17-H ) :   0.9318 B(  7-C ,  8-C ) :   0.9319 B(  7-C , 18-H ) :   0.9277
B(  7-C , 19-H ) :   0.9310 B(  8-C , 20-H ) :   0.9228

MP2 TOTAL ENERGY:     -349.232047756 Eh
FINAL SINGLE POINT ENERGY      -349.232047756450

DIPOLE MOMENT
-------------
                                X             Y             Z
Electronic contribution:     -2.91164      -2.80632      -1.04308
Nuclear contribution   :      3.04179       3.19666       1.07399
                        -----------------------------------------
Total Dipole Moment    :      0.13015       0.39034       0.03091
                        -----------------------------------------
Magnitude (a.u.)       :      0.41263
Magnitude (Debye)      :      1.04882

                             ****ORCA TERMINATED NORMALLY****
TOTAL RUN TIME: 0 days 0 hours 16 minutes 27 seconds 389 msec
