                         Program Version 3.0.3 - RELEASE   -
|  1> ! RI-MP2 RIJK def2-TZVP def2-TZVP/C def2-TZVP/JK TIGHTSCF
|  2> % maxcore 2000
|  3> % mp2 density relaxed end
|  4> *xyz 0 1
|  5>  C       -0.1925419040     1.5393841645    -0.0203268499
|  6>  C        0.0182545277     0.0359077621     0.0270942944
|  7>  O        0.8075509704    -0.4045824221    -1.1067005723
|  8>  C        1.9119457492    -1.1593763849    -0.5682859979
|  9>  C        1.2928468511    -1.8646949082     0.6466414982
| 10>  C        0.8418088945    -0.5062388587     1.2090646567
| 11>  O        2.0861058377     0.2404233095     1.2503427209
| 12>  C        2.8071003489    -0.1600295400     0.1403514360
| 13>  N        3.9496867220     0.2481802472    -0.1924148719
| 14>  H        0.7554667539     2.0712305042     0.0804824329
| 15>  H       -0.6502790059     1.8176363585    -0.9731986999
| 16>  H       -0.8619457616     1.8561751466     0.7866257785
| 17>  H       -0.9537133448    -0.4776643967    -0.0024832655
| 18>  H        2.3850316469    -1.7340962138    -1.3590250978
| 19>  H        0.4723993866    -2.5334444870     0.3821510787
| 20>  H        2.0167509789    -2.3699952531     1.2886513397
| 21>  H        0.3744280247    -0.4629144074     2.1907797566
| 22>  H        4.2962111035     0.9427329094     0.4729894528
| 23> *
| 24>
| 25>                          ****END OF INPUT****

CARTESIAN COORDINATES (ANGSTROEM)
---------------------------------
  C     -0.192542    1.539384   -0.020327
  C      0.018255    0.035908    0.027094
  O      0.807551   -0.404582   -1.106701
  C      1.911946   -1.159376   -0.568286
  C      1.292847   -1.864695    0.646641
  C      0.841809   -0.506239    1.209065
  O      2.086106    0.240423    1.250343
  C      2.807100   -0.160030    0.140351
  N      3.949687    0.248180   -0.192415
  H      0.755467    2.071231    0.080482
  H     -0.650279    1.817636   -0.973199
  H     -0.861946    1.856175    0.786626
  H     -0.953713   -0.477664   -0.002483
  H      2.385032   -1.734096   -1.359025
  H      0.472399   -2.533444    0.382151
  H      2.016751   -2.369995    1.288651
  H      0.374428   -0.462914    2.190780
  H      4.296211    0.942733    0.472989

 Total Charge           Charge          ....    0
 Multiplicity           Mult            ....    1
 Number of Electrons    NEL             ....   68
 Basis Dimension        Dim             ....  333

ORBITAL ENERGIES
----------------

  NO   OCC          E(Eh)            E(eV)
   0   2.0000     -20.596660      -560.4636
   1   2.0000     -20.568669      -559.7019
   2   2.0000     -15.539185      -422.8427
   3   2.0000     -11.335844      -308.4640
   4   2.0000     -11.310092      -307.7633
   5   2.0000     -11.303908      -307.5950
   6   2.0000     -11.295766      -307.3734
   7   2.0000     -11.250018      -306.1286
   8   2.0000     -11.222215      -305.3720
   9   2.0000      -1.446870       -39.3713
  10   2.0000      -1.374527       -37.4028
  11   2.0000      -1.200478       -32.6667
  12   2.0000      -1.074825       -29.2475
  13   2.0000      -1.053837       -28.6764
  14   2.0000      -0.948401       -25.8073
  15   2.0000      -0.854333       -23.2476
  16   2.0000      -0.834243       -22.7009
  17   2.0000      -0.754634       -20.5346
  18   2.0000      -0.729566       -19.8525
  19   2.0000      -0.699656       -19.0386
  20   2.0000      -0.675158       -18.3720
  21   2.0000      -0.645921       -17.5764
  22   2.0000      -0.600512       -16.3408
  23   2.0000      -0.578154       -15.7324
  24   2.0000      -0.574385       -15.6298
  25   2.0000      -0.554801       -15.0969
  26   2.0000      -0.543623       -14.7927
  27   2.0000      -0.531799       -14.4710
  28   2.0000      -0.519442       -14.1347
  29   2.0000      -0.510868       -13.9014
  30   2.0000      -0.481432       -13.1004
  31   2.0000      -0.453024       -12.3274
  32   2.0000      -0.416406       -11.3310
  33   2.0000      -0.398723       -10.8498
  34   0.0000       0.131494         3.5781
  35   0.0000       0.154635         4.2078
  36   0.0000       0.160277         4.3614
  37   0.0000       0.170136         4.6296
  38   0.0000       0.177253         4.8233

MULLIKEN ATOMIC CHARGES
-----------------------
   0 C :   -0.414139
   1 C :    0.042756
   2 O :   -0.324015
   3 C :    0.176988
   4 C :   -0.304506
   5 C :    0.099838
   6 O :   -0.280182
   7 C :    0.036930
   8 N :   -0.354968
   9 H :    0.152087
  10 H :    0.146336
  11 H :    0.123332
  12 H :    0.096041
  13 H :    0.145920
  14 H :    0.140854
  15 H :    0.144150
  16 H :    0.148289
  17 H :    0.224288
Sum of atomic charges:   -0.0000000

LOEWDIN ATOMIC CHARGES
----------------------
   0 C :   -0.289190
   1 C :   -0.300749
   2 O :    0.186680
   3 C :   -0.254071
   4 C :   -0.203433
   5 C :   -0.249469
   6 O :    0.243480
   7 C :   -0.380255
   8 N :   -0.045032
   9 H :    0.130999
  10 H :    0.130928
  11 H :    0.127558
  12 H :    0.142856
  13 H :    0.151024
  14 H :    0.145918
  15 H :    0.147569
  16 H :    0.144723
  17 H :    0.170464

  Mayer bond orders larger than 0.1
B(  0-C ,  1-C ) :   0.9250 B(  0-C ,  9-H ) :   0.9331 B(  0-C , 10-H ) :   0.9365
B(  0-C , 11-H ) :   0.9296 B(  1-C ,  2-O ) :   0.9042 B(  1-C ,  5-C ) :   0.9340
B(  1-C , 12-H ) :   0.9099 B(  2-O ,  3-C ) :   0.8998 B(  3-C ,  4-C ) :   0.9573
B(  3-C ,  7-C ) :   0.9004 B(  3-C , 13-H ) :   0.9112 B(  4-C ,  5-C ) :   0.9411
B(  4-C , 14-H ) :   0.9281 B(  4-C , 15-H ) :   0.9143 B(  5-C ,  6-O ) :   0.8572
B(  5-C , 16-H ) :   0.9096 B(  6-O ,  7-C ) :   1.0667 B(  7-C ,  8-N ) :   2.0990
B(  8-N , 17-H ) :   0.8523

MP2 TOTAL ENERGY:     -438.386072977 Eh
FINAL SINGLE POINT ENERGY      -438.386072977269

DIPOLE MOMENT
-------------
                                X             Y             Z
Electronic contribution:      4.26154      -1.30182      -0.49563
Nuclear contribution   :     -5.23863       0.86090       1.37553
                        -----------------------------------------
Total Dipole Moment    :     -0.97709      -0.44092       0.87990
                        -----------------------------------------
Magnitude (a.u.)       :      1.38685
Magnitude (Debye)      :      3.52509

                             ****ORCA TERMINATED NORMALLY****
TOTAL RUN TIME: 0 days 0 hours 18 minutes 28 seconds 715 msec
