                         Program Version 3.0.3 - RELEASE   -
|  1> ! RI-MP2 RIJK def2-TZVP def2-TZVP/C def2-TZVP/JK TIGHTSCF
|  2> % maxcore 2000
|  3> % mp2 density relaxed end
|  4> *xyz 0 1
|  5>  N        0.0150663900     0.9468085023     0.9694353062
|  6>  C       -0.1843098471    -0.1586686884     0.1581100696
|  7>  C       -0.9332530213    -0.3910961580    -0.9428516320
|  8>  N       -0.7675100816    -1.7019587928    -1.3759639555
|  9>  C        0.0715332220    -2.1941865502    -0.5161703691
| 10>  N        0.5373328007    -3.4951599756    -0.5497518605
| 11>  C        1.4221165332    -4.1217132518     0.3034646275
| 12>  O        1.9609170674    -3.6257520986     1.2593485920
| 13>  O        0.4864725723    -1.3622409958     0.4429864219
| 14>  H       -0.2735728362     0.7872864014     1.9295031845
| 15>  H        0.9804245860     1.2607188355     0.9759853706
| 16>  H       -1.5828687826     0.3007924557    -1.4539022088
| 17>  H        0.1567023644    -4.0300813213    -1.3169635593
| 18>  H        1.5763985328    -5.1708086624    -0.0148096872
| 19> *
| 20>
| 21>                          ****END OF INPUT****

CARTESIAN COORDINATES (ANGSTROEM)
---------------------------------
  N      0.015066    0.946809    0.969435
  C     -0.184310   -0.158669    0.158110
  C     -0.933253   -0.391096   -0.942852
  N     -0.767510   -1.701959   -1.375964
  C      0.071533   -2.194187   -0.516170
  N      0.537333   -3.495160   -0.549752
  C      1.422117   -4.121713    0.303465
  O      1.960917   -3.625752    1.259349
  O      0.486473   -1.362241    0.442986
  H     -0.273573    0.787286    1.929503
  H      0.980425    1.260719    0.975985
  H     -1.582869    0.300792   -1.453902
  H      0.156702   -4.030081   -1.316964
  H      1.576399   -5.170809   -0.014810

 Total Charge           Charge          ....    0
 Multiplicity           Mult            ....    1
 Number of Electrons    NEL             ....   66
 Basis Dimension        Dim             ....  309

ORBITAL ENERGIES
----------------

  NO   OCC          E(Eh)            E(eV)
   0   2.0000     -20.637104      -561.5642
   1   2.0000     -20.551457      -559.2336
   2   2.0000     -15.631444      -425.3532
   3   2.0000     -15.574698      -423.8091
   4   2.0000     -15.558404      -423.3657
   5   2.0000     -11.385355      -309.8113
   6   2.0000     -11.378532      -309.6256
   7   2.0000     -11.318992      -308.0054
   8   2.0000     -11.260842      -306.4231
   9   2.0000      -1.495989       -40.7079
  10   2.0000      -1.410973       -38.3945
  11   2.0000      -1.286617       -35.0106
  12   2.0000      -1.227611       -33.4050
  13   2.0000      -1.213952       -33.0333
  14   2.0000      -1.010306       -27.4918
  15   2.0000      -0.898462       -24.4484
  16   2.0000      -0.851312       -23.1654
  17   2.0000      -0.792289       -21.5593
  18   2.0000      -0.754283       -20.5251
  19   2.0000      -0.727858       -19.8060
  20   2.0000      -0.704861       -19.1802
  21   2.0000      -0.681564       -18.5463
  22   2.0000      -0.660161       -17.9639
  23   2.0000      -0.632436       -17.2095
  24   2.0000      -0.613148       -16.6846
  25   2.0000      -0.589538       -16.0421
  26   2.0000      -0.583673       -15.8825
  27   2.0000      -0.487036       -13.2529
  28   2.0000      -0.476916       -12.9775
  29   2.0000      -0.458590       -12.4789
  30   2.0000      -0.444027       -12.0826
  31   2.0000      -0.438844       -11.9416
  32   2.0000      -0.321370        -8.7449
  33   0.0000       0.123316         3.3556
  34   0.0000       0.127023         3.4565
  35   0.0000       0.133446         3.6313
  36   0.0000       0.174277         4.7423
  37   0.0000       0.178180         4.8485

MULLIKEN ATOMIC CHARGES
-----------------------
   0 N :   -0.529904
   1 C :    0.171064
   2 C :   -0.115698
   3 N :   -0.308511
   4 C :    0.376006
   5 N :   -0.308188
   6 C :    0.181288
   7 O :   -0.303897
   8 O :   -0.179890
   9 H :    0.259512
  10 H :    0.259508
  11 H :    0.141670
  12 H :    0.266618
  13 H :    0.090422
Sum of atomic charges:   -0.0000000

LOEWDIN ATOMIC CHARGES
----------------------
   0 N :   -0.092534
   1 C :   -0.354589
   2 C :   -0.226133
   3 N :    0.096439
   4 C :   -0.423468
   5 N :    0.137212
   6 C :   -0.407391
   7 O :    0.102077
   8 O :    0.355582
   9 H :    0.173521
  10 H :    0.173528
  11 H :    0.141581
  12 H :    0.209944
  13 H :    0.114230

  Mayer bond orders larger than 0.1
B(  0-N ,  1-C ) :   1.1381 B(  0-N ,  9-H ) :   0.8761 B(  0-N , 10-H ) :   0.8761
B(  1-C ,  2-C ) :   1.6225 B(  1-C ,  8-O ) :   0.9549 B(  2-C ,  3-N ) :   1.1724
B(  2-C , 11-H ) :   0.9311 B(  3-N ,  4-C ) :   1.6408 B(  4-C ,  5-N ) :   0.9952
B(  4-C ,  8-O ) :   1.1445 B(  5-N ,  6-C ) :   1.0506 B(  5-N , 12-H ) :   0.8562
B(  6-C ,  7-O ) :   1.9554 B(  6-C , 13-H ) :   0.9297

MP2 TOTAL ENERGY:     -469.298604976 Eh
FINAL SINGLE POINT ENERGY      -469.298604975869

DIPOLE MOMENT
-------------
                                X             Y             Z
Electronic contribution:      0.61914      -2.13482      -0.24478
Nuclear contribution   :     -0.70844       1.99801       0.05847
                        -----------------------------------------
Total Dipole Moment    :     -0.08930      -0.13681      -0.18631
                        -----------------------------------------
Magnitude (a.u.)       :      0.24780
Magnitude (Debye)      :      0.62985

                             ****ORCA TERMINATED NORMALLY****
TOTAL RUN TIME: 0 days 0 hours 12 minutes 25 seconds 582 msec
