                         Program Version 3.0.3 - RELEASE   -
|  1> ! RI-MP2 RIJK def2-TZVP def2-TZVP/C def2-TZVP/JK TIGHTSCF
|  2> % maxcore 2000
|  3> % mp2 density relaxed end
|  4> *xyz 0 1
|  5>  C        0.1878642013     1.4743935226     0.3762695819
|  6>  C        0.0265831747     0.0135438361    -0.0781413932
|  7>  C       -1.3985290752    -0.4584131947    -0.0677046372
|  8>  C       -2.2048242603    -0.7259787579    -1.1366136458
|  9>  C       -2.0119951587    -0.6812703881    -2.6107170294
| 10>  O       -3.4432154600    -1.1171438679    -0.7061749765
| 11>  C       -3.4227360228    -1.0964635968     0.6530121051
| 12>  C       -2.2062870680    -0.7029907112     1.1005123718
| 13>  H        1.2412038524     1.7727524956     0.3721785406
| 14>  H       -0.3625279176     2.1514709656    -0.2843702533
| 15>  H       -0.1988261245     1.6166089483     1.3904234354
| 16>  H        0.4466659046    -0.1008249724    -1.0835255076
| 17>  H        0.6284728663    -0.6314660419     0.5749527217
| 18>  H       -0.9861911146    -0.3932378984    -2.8499371421
| 19>  H       -2.2077771712    -1.6569226630    -3.0702315983
| 20>  H       -2.6857009293     0.0427358870    -3.0838885464
| 21>  H       -4.3388430855    -1.3879214101     1.1398060046
| 22>  H       -1.9030912115    -0.6002210930     2.1314996588
| 23> *
| 24>
| 25>                          ****END OF INPUT****

CARTESIAN COORDINATES (ANGSTROEM)
---------------------------------
  C      0.187864    1.474394    0.376270
  C      0.026583    0.013544   -0.078141
  C     -1.398529   -0.458413   -0.067705
  C     -2.204824   -0.725979   -1.136614
  C     -2.011995   -0.681270   -2.610717
  O     -3.443215   -1.117144   -0.706175
  C     -3.422736   -1.096464    0.653012
  C     -2.206287   -0.702991    1.100512
  H      1.241204    1.772752    0.372179
  H     -0.362528    2.151471   -0.284370
  H     -0.198826    1.616609    1.390423
  H      0.446666   -0.100825   -1.083526
  H      0.628473   -0.631466    0.574953
  H     -0.986191   -0.393238   -2.849937
  H     -2.207777   -1.656923   -3.070232
  H     -2.685701    0.042736   -3.083889
  H     -4.338843   -1.387921    1.139806
  H     -1.903091   -0.600221    2.131500

 Total Charge           Charge          ....    0
 Multiplicity           Mult            ....    1
 Number of Electrons    NEL             ....   60
 Basis Dimension        Dim             ....  308

ORBITAL ENERGIES
----------------

  NO   OCC          E(Eh)            E(eV)
   0   2.0000     -20.607735      -560.7650
   1   2.0000     -11.279435      -306.9290
   2   2.0000     -11.277125      -306.8662
   3   2.0000     -11.229930      -305.5819
   4   2.0000     -11.229846      -305.5796
   5   2.0000     -11.221235      -305.3453
   6   2.0000     -11.218717      -305.2768
   7   2.0000     -11.215525      -305.1899
   8   2.0000      -1.446002       -39.3477
   9   2.0000      -1.099090       -29.9078
  10   2.0000      -1.041343       -28.3364
  11   2.0000      -1.012139       -27.5417
  12   2.0000      -0.925416       -25.1818
  13   2.0000      -0.858326       -23.3562
  14   2.0000      -0.788608       -21.4591
  15   2.0000      -0.731673       -19.9098
  16   2.0000      -0.694263       -18.8918
  17   2.0000      -0.637794       -17.3553
  18   2.0000      -0.619048       -16.8451
  19   2.0000      -0.597130       -16.2487
  20   2.0000      -0.575059       -15.6482
  21   2.0000      -0.556891       -15.1538
  22   2.0000      -0.554651       -15.0928
  23   2.0000      -0.549382       -14.9495
  24   2.0000      -0.526002       -14.3132
  25   2.0000      -0.517586       -14.0842
  26   2.0000      -0.494441       -13.4544
  27   2.0000      -0.478766       -13.0279
  28   2.0000      -0.378290       -10.2938
  29   2.0000      -0.299787        -8.1576
  30   0.0000       0.135676         3.6919
  31   0.0000       0.151291         4.1168
  32   0.0000       0.157938         4.2977
  33   0.0000       0.182660         4.9704
  34   0.0000       0.183719         4.9992

MULLIKEN ATOMIC CHARGES
-----------------------
   0 C :   -0.367800
   1 C :   -0.249011
   2 C :    0.039776
   3 C :    0.159588
   4 C :   -0.441369
   5 O :   -0.223161
   6 C :    0.005581
   7 C :   -0.251985
   8 H :    0.127934
   9 H :    0.124737
  10 H :    0.124848
  11 H :    0.112080
  12 H :    0.124382
  13 H :    0.139084
  14 H :    0.148953
  15 H :    0.149174
  16 H :    0.142828
  17 H :    0.134358
Sum of atomic charges:   -0.0000000

LOEWDIN ATOMIC CHARGES
----------------------
   0 C :   -0.308659
   1 C :   -0.252412
   2 C :   -0.169130
   3 C :   -0.249139
   4 C :   -0.274917
   5 O :    0.348584
   6 C :   -0.249600
   7 C :   -0.168273
   8 H :    0.119006
   9 H :    0.121787
  10 H :    0.121189
  11 H :    0.140344
  12 H :    0.144113
  13 H :    0.134315
  14 H :    0.134419
  15 H :    0.134062
  16 H :    0.130720
  17 H :    0.143589

  Mayer bond orders larger than 0.1
B(  0-C ,  1-C ) :   0.9200 B(  0-C ,  8-H ) :   0.9367 B(  0-C ,  9-H ) :   0.9368
B(  0-C , 10-H ) :   0.9392 B(  1-C ,  2-C ) :   0.8632 B(  1-C , 11-H ) :   0.9511
B(  1-C , 12-H ) :   0.9388 B(  2-C ,  3-C ) :   1.5171 B(  2-C ,  7-C ) :   1.1583
B(  3-C ,  4-C ) :   0.8533 B(  3-C ,  5-O ) :   1.0481 B(  4-C , 13-H ) :   0.9584
B(  4-C , 14-H ) :   0.9350 B(  4-C , 15-H ) :   0.9352 B(  5-O ,  6-C ) :   1.0326
B(  6-C ,  7-C ) :   1.5539 B(  6-C , 16-H ) :   0.9417 B(  7-C , 17-H ) :   0.9205

MP2 TOTAL ENERGY:     -347.230736769 Eh
FINAL SINGLE POINT ENERGY      -347.230736768647

DIPOLE MOMENT
-------------
                                X             Y             Z
Electronic contribution:     -6.81721      -4.33135       1.27049
Nuclear contribution   :      7.11474       4.43157      -1.29906
                        -----------------------------------------
Total Dipole Moment    :      0.29753       0.10022      -0.02856
                        -----------------------------------------
Magnitude (a.u.)       :      0.31526
Magnitude (Debye)      :      0.80132

                             ****ORCA TERMINATED NORMALLY****
TOTAL RUN TIME: 0 days 0 hours 12 minutes 17 seconds 387 msec
