                         Program Version 3.0.3 - RELEASE   -
|  1> ! RI-MP2 RIJK def2-TZVP def2-TZVP/C def2-TZVP/JK TIGHTSCF
|  2> % maxcore 2000
|  3> % mp2 density relaxed end
|  4> *xyz 0 1
|  5>  C        0.0140586192     1.4985401452    -0.0872710075
|  6>  C        0.0206592745    -0.0257198505    -0.0006411146
|  7>  O        0.6736156191    -0.4989940733    -1.1779098221
|  8>  C        0.9867959647    -1.8657551417    -1.1283543055
|  9>  C       -0.1160078170    -2.8352747954    -1.4831528660
| 10>  C        1.0144505777    -2.5470659008    -2.4559420825
| 11>  C        1.9910279617    -2.1956612049    -0.0420774553
| 12>  C        1.6052745303    -1.4960538023     1.2356388509
| 13>  C        0.6936217572    -0.5274876866     1.2519867709
| 14>  H        1.0374181621     1.8839256755    -0.0702002312
| 15>  H       -0.4636124675     1.8189972148    -1.0169936574
| 16>  H       -0.5372825266     1.9281652240     0.7545290204
| 17>  H       -1.0264808091    -0.3811196155    -0.0056941847
| 18>  H       -0.1456641333    -3.8007743316    -0.9894937168
| 19>  H       -1.0867584661    -2.4132989623    -1.7182388793
| 20>  H        0.7831001659    -1.9358827442    -3.3207211440
| 21>  H        1.7633843079    -3.3137785342    -2.6245350455
| 22>  H        2.0378454706    -3.2800643838     0.1149245808
| 23>  H        3.0000735365    -1.8870258713    -0.3526428105
| 24>  H        2.0938255933    -1.8111390425     2.1539060283
| 25>  H        0.3984697988    -0.0487747187     2.1823077015
| 26> *
| 27>
| 28>                          ****END OF INPUT****

CARTESIAN COORDINATES (ANGSTROEM)
---------------------------------
  C      0.014059    1.498540   -0.087271
  C      0.020659   -0.025720   -0.000641
  O      0.673616   -0.498994   -1.177910
  C      0.986796   -1.865755   -1.128354
  C     -0.116008   -2.835275   -1.483153
  C      1.014451   -2.547066   -2.455942
  C      1.991028   -2.195661   -0.042077
  C      1.605275   -1.496054    1.235639
  C      0.693622   -0.527488    1.251987
  H      1.037418    1.883926   -0.070200
  H     -0.463612    1.818997   -1.016994
  H     -0.537283    1.928165    0.754529
  H     -1.026481   -0.381120   -0.005694
  H     -0.145664   -3.800774   -0.989494
  H     -1.086758   -2.413299   -1.718239
  H      0.783100   -1.935883   -3.320721
  H      1.763384   -3.313779   -2.624535
  H      2.037845   -3.280064    0.114925
  H      3.000074   -1.887026   -0.352643
  H      2.093826   -1.811139    2.153906
  H      0.398470   -0.048775    2.182308

 Total Charge           Charge          ....    0
 Multiplicity           Mult            ....    1
 Number of Electrons    NEL             ....   68
 Basis Dimension        Dim             ....  351

ORBITAL ENERGIES
----------------

  NO   OCC          E(Eh)            E(eV)
   0   2.0000     -20.552856      -559.2716
   1   2.0000     -11.281946      -306.9974
   2   2.0000     -11.281435      -306.9834
   3   2.0000     -11.229531      -305.5711
   4   2.0000     -11.228820      -305.5517
   5   2.0000     -11.223842      -305.4163
   6   2.0000     -11.221055      -305.3404
   7   2.0000     -11.220135      -305.3154
   8   2.0000     -11.213226      -305.1274
   9   2.0000      -1.381177       -37.5837
  10   2.0000      -1.135086       -30.8872
  11   2.0000      -1.083627       -29.4870
  12   2.0000      -1.018026       -27.7019
  13   2.0000      -0.938595       -25.5405
  14   2.0000      -0.841880       -22.9087
  15   2.0000      -0.823980       -22.4216
  16   2.0000      -0.799698       -21.7609
  17   2.0000      -0.706546       -19.2261
  18   2.0000      -0.682818       -18.5804
  19   2.0000      -0.671605       -18.2753
  20   2.0000      -0.626404       -17.0453
  21   2.0000      -0.608537       -16.5591
  22   2.0000      -0.589238       -16.0340
  23   2.0000      -0.566741       -15.4218
  24   2.0000      -0.559297       -15.2192
  25   2.0000      -0.531963       -14.4754
  26   2.0000      -0.526420       -14.3246
  27   2.0000      -0.515675       -14.0322
  28   2.0000      -0.509748       -13.8709
  29   2.0000      -0.485575       -13.2132
  30   2.0000      -0.450051       -12.2465
  31   2.0000      -0.401071       -10.9137
  32   2.0000      -0.385044       -10.4776
  33   2.0000      -0.351809        -9.5732
  34   0.0000       0.136659         3.7187
  35   0.0000       0.152056         4.1377
  36   0.0000       0.163838         4.4583
  37   0.0000       0.167949         4.5701
  38   0.0000       0.178158         4.8479

MULLIKEN ATOMIC CHARGES
-----------------------
   0 C :   -0.376653
   1 C :    0.139132
   2 O :   -0.295950
   3 C :    0.207150
   4 C :   -0.322207
   5 C :   -0.266099
   6 C :   -0.131229
   7 C :   -0.226612
   8 C :   -0.184167
   9 H :    0.131134
  10 H :    0.137661
  11 H :    0.120823
  12 H :    0.074272
  13 H :    0.125818
  14 H :    0.128848
  15 H :    0.133645
  16 H :    0.126596
  17 H :    0.115993
  18 H :    0.117323
  19 H :    0.122143
  20 H :    0.122378
Sum of atomic charges:   -0.0000000

LOEWDIN ATOMIC CHARGES
----------------------
   0 C :   -0.285718
   1 C :   -0.323842
   2 O :    0.238714
   3 C :   -0.337374
   4 C :   -0.210795
   5 C :   -0.203642
   6 C :   -0.210280
   7 C :   -0.160122
   8 C :   -0.155241
   9 H :    0.127507
  10 H :    0.126475
  11 H :    0.125204
  12 H :    0.141566
  13 H :    0.131097
  14 H :    0.135702
  15 H :    0.139174
  16 H :    0.133860
  17 H :    0.149610
  18 H :    0.150437
  19 H :    0.141312
  20 H :    0.146356

  Mayer bond orders larger than 0.1
B(  0-C ,  1-C ) :   0.9101 B(  0-C ,  9-H ) :   0.9343 B(  0-C , 10-H ) :   0.9370
B(  0-C , 11-H ) :   0.9319 B(  1-C ,  2-O ) :   0.9379 B(  1-C ,  8-C ) :   0.9162
B(  1-C , 12-H ) :   0.9292 B(  2-O ,  3-C ) :   0.9947 B(  3-C ,  4-C ) :   0.8789
B(  3-C ,  5-C ) :   0.8627 B(  3-C ,  6-C ) :   0.9338 B(  4-C ,  5-C ) :   0.9304
B(  4-C , 13-H ) :   0.9131 B(  4-C , 14-H ) :   0.9218 B(  5-C , 15-H ) :   0.9161
B(  5-C , 16-H ) :   0.9257 B(  6-C ,  7-C ) :   0.9489 B(  6-C , 17-H ) :   0.9106
B(  6-C , 18-H ) :   0.8907 B(  7-C ,  8-C ) :   1.8097 B(  7-C , 19-H ) :   0.9279
B(  8-C , 20-H ) :   0.9203

MP2 TOTAL ENERGY:     -386.403644466 Eh
FINAL SINGLE POINT ENERGY      -386.403644465701

DIPOLE MOMENT
-------------
                                X             Y             Z
Electronic contribution:      1.02313      -0.65121      -0.14889
Nuclear contribution   :     -1.08905       0.40387       0.50521
                        -----------------------------------------
Total Dipole Moment    :     -0.06592      -0.24734       0.35632
                        -----------------------------------------
Magnitude (a.u.)       :      0.43873
Magnitude (Debye)      :      1.11517

                             ****ORCA TERMINATED NORMALLY****
TOTAL RUN TIME: 0 days 0 hours 18 minutes 41 seconds 548 msec
