                         Program Version 3.0.3 - RELEASE   -
|  1> ! RI-MP2 RIJK def2-TZVP def2-TZVP/C def2-TZVP/JK TIGHTSCF
|  2> % maxcore 2000
|  3> % mp2 density relaxed end
|  4> *xyz 0 1
|  5>  C       -0.4854960136     1.5779734949     0.1365342205
|  6>  C        0.0072837733     0.1285451787     0.0554883899
|  7>  C       -1.1718650182    -0.8108192584    -0.2519444057
|  8>  C        1.1484134292    -0.0637825781    -0.9735135490
|  9>  C        1.9282048974    -1.2835384799    -0.4462645103
| 10>  O        1.5047465770    -1.4900850023     0.9088566581
| 11>  C        0.7360383549    -0.3906021847     1.3353943898
| 12>  C        1.5985410614     0.6851829535     1.9869349456
| 13>  O        2.7796922769     0.8124964494     1.7926404679
| 14>  H        0.3334287583     2.2843246651     0.3044141045
| 15>  H       -0.9769757847     1.8619924876    -0.7998724842
| 16>  H       -1.2182847316     1.7081284222     0.9408233360
| 17>  H       -1.6055041748    -0.5750427973    -1.2297057625
| 18>  H       -0.8547386286    -1.8570363771    -0.2609201881
| 19>  H       -1.9629610276    -0.7051209999     0.4982758749
| 20>  H        0.7646590279    -0.2168019943    -1.9856090469
| 21>  H        1.7913373196     0.8207027675    -0.9903997269
| 22>  H        1.7051799208    -2.1987116863    -1.0063088137
| 23>  H        3.0098097418    -1.1172289956    -0.4698648282
| 24>  H        0.0175433853    -0.7444327356     2.0872973927
| 25>  H        1.0468169755     1.3729427306     2.6698879657
| 26> *
| 27>
| 28>                          ****END OF INPUT****

CARTESIAN COORDINATES (ANGSTROEM)
---------------------------------
  C     -0.485496    1.577973    0.136534
  C      0.007284    0.128545    0.055488
  C     -1.171865   -0.810819   -0.251944
  C      1.148413   -0.063783   -0.973514
  C      1.928205   -1.283538   -0.446265
  O      1.504747   -1.490085    0.908857
  C      0.736038   -0.390602    1.335394
  C      1.598541    0.685183    1.986935
  O      2.779692    0.812496    1.792640
  H      0.333429    2.284325    0.304414
  H     -0.976976    1.861992   -0.799872
  H     -1.218285    1.708128    0.940823
  H     -1.605504   -0.575043   -1.229706
  H     -0.854739   -1.857036   -0.260920
  H     -1.962961   -0.705121    0.498276
  H      0.764659   -0.216802   -1.985609
  H      1.791337    0.820703   -0.990400
  H      1.705180   -2.198712   -1.006309
  H      3.009810   -1.117229   -0.469865
  H      0.017543   -0.744433    2.087297
  H      1.046817    1.372943    2.669888

 Total Charge           Charge          ....    0
 Multiplicity           Mult            ....    1
 Number of Electrons    NEL             ....   70
 Basis Dimension        Dim             ....  351

ORBITAL ENERGIES
----------------

  NO   OCC          E(Eh)            E(eV)
   0   2.0000     -20.558983      -559.4384
   1   2.0000     -20.555810      -559.3520
   2   2.0000     -11.329893      -308.3021
   3   2.0000     -11.292375      -307.2811
   4   2.0000     -11.272878      -306.7506
   5   2.0000     -11.256652      -306.3091
   6   2.0000     -11.231233      -305.6174
   7   2.0000     -11.228810      -305.5515
   8   2.0000     -11.224722      -305.4402
   9   2.0000      -1.405222       -38.2380
  10   2.0000      -1.375406       -37.4267
  11   2.0000      -1.113927       -30.3115
  12   2.0000      -1.021200       -27.7883
  13   2.0000      -0.960094       -26.1255
  14   2.0000      -0.947518       -25.7833
  15   2.0000      -0.857864       -23.3437
  16   2.0000      -0.790106       -21.4999
  17   2.0000      -0.751815       -20.4579
  18   2.0000      -0.706023       -19.2119
  19   2.0000      -0.670732       -18.2515
  20   2.0000      -0.653519       -17.7832
  21   2.0000      -0.628933       -17.1141
  22   2.0000      -0.615575       -16.7507
  23   2.0000      -0.595729       -16.2106
  24   2.0000      -0.569278       -15.4908
  25   2.0000      -0.565463       -15.3870
  26   2.0000      -0.543306       -14.7841
  27   2.0000      -0.532889       -14.5006
  28   2.0000      -0.526006       -14.3133
  29   2.0000      -0.500759       -13.6263
  30   2.0000      -0.482434       -13.1277
  31   2.0000      -0.477279       -12.9874
  32   2.0000      -0.452935       -12.3250
  33   2.0000      -0.446154       -12.1405
  34   2.0000      -0.397310       -10.8114
  35   0.0000       0.122057         3.3213
  36   0.0000       0.131658         3.5826
  37   0.0000       0.155924         4.2429
  38   0.0000       0.168682         4.5901
  39   0.0000       0.176560         4.8044

MULLIKEN ATOMIC CHARGES
-----------------------
   0 C :   -0.427317
   1 C :    0.057361
   2 C :   -0.453473
   3 C :   -0.285676
   4 C :   -0.026959
   5 O :   -0.329202
   6 C :    0.159229
   7 C :    0.049410
   8 O :   -0.257380
   9 H :    0.147635
  10 H :    0.139720
  11 H :    0.138077
  12 H :    0.133973
  13 H :    0.158312
  14 H :    0.131734
  15 H :    0.128745
  16 H :    0.129824
  17 H :    0.106823
  18 H :    0.107620
  19 H :    0.114467
  20 H :    0.077074
Sum of atomic charges:   -0.0000000

LOEWDIN ATOMIC CHARGES
----------------------
   0 C :   -0.268623
   1 C :   -0.296250
   2 C :   -0.263828
   3 C :   -0.216597
   4 C :   -0.284727
   5 O :    0.183214
   6 C :   -0.295409
   7 C :   -0.275440
   8 O :    0.146144
   9 H :    0.128620
  10 H :    0.130877
  11 H :    0.127644
  12 H :    0.126435
  13 H :    0.133682
  14 H :    0.126015
  15 H :    0.141014
  16 H :    0.144065
  17 H :    0.120888
  18 H :    0.125724
  19 H :    0.155124
  20 H :    0.111427

  Mayer bond orders larger than 0.1
B(  0-C ,  1-C ) :   0.9035 B(  0-C ,  9-H ) :   0.9265 B(  0-C , 10-H ) :   0.9350
B(  0-C , 11-H ) :   0.9371 B(  1-C ,  2-C ) :   0.9012 B(  1-C ,  3-C ) :   0.9110
B(  1-C ,  6-C ) :   0.8823 B(  2-C , 12-H ) :   0.9352 B(  2-C , 13-H ) :   0.9331
B(  2-C , 14-H ) :   0.9342 B(  3-C ,  4-C ) :   0.9759 B(  3-C , 15-H ) :   0.9278
B(  3-C , 16-H ) :   0.9080 B(  4-C ,  5-O ) :   0.9145 B(  4-C , 17-H ) :   0.9282
B(  4-C , 18-H ) :   0.9175 B(  5-O ,  6-C ) :   0.9532 B(  6-C ,  7-C ) :   0.8299
B(  6-C , 19-H ) :   0.8933 B(  7-C ,  8-O ) :   2.0134 B(  7-C , 20-H ) :   0.9381

MP2 TOTAL ENERGY:     -423.539639416 Eh
FINAL SINGLE POINT ENERGY      -423.539639415875

DIPOLE MOMENT
-------------
                                X             Y             Z
Electronic contribution:      7.10134      -1.36738       5.42758
Nuclear contribution   :     -8.21026       1.64909      -5.92107
                        -----------------------------------------
Total Dipole Moment    :     -1.10892       0.28171      -0.49348
                        -----------------------------------------
Magnitude (a.u.)       :      1.24603
Magnitude (Debye)      :      3.16716

                             ****ORCA TERMINATED NORMALLY****
TOTAL RUN TIME: 0 days 0 hours 20 minutes 58 seconds 733 msec
