                         Program Version 3.0.3 - RELEASE   -
|  1> ! RI-MP2 RIJK def2-TZVP def2-TZVP/C def2-TZVP/JK TIGHTSCF
|  2> % maxcore 2000
|  3> % mp2 density relaxed end
|  4> *xyz 0 1
|  5>  C        0.3325719188     1.3986336353     0.6658960482
|  6>  C        0.1808438662     0.0137989276     0.2410820583
|  7>  C        0.0574250397    -1.1240604135    -0.1341153324
|  8>  C       -0.0763347290    -2.5244686640    -0.5340299633
|  9>  C       -1.4436102560    -3.1293816227    -0.1942583985
| 10>  C       -2.5500834551    -2.8662387516    -1.1952954514
| 11>  O       -2.7299598152    -1.4891552242    -1.4660742208
| 12>  C       -1.4981144559    -4.3669459082     0.6243913080
| 13>  N       -1.8905569901    -3.0716922224     1.2103880044
| 14>  H        1.3634748934     1.6120483112     0.9696872595
| 15>  H        0.0744263292     2.0927644967    -0.1414581176
| 16>  H       -0.3159837748     1.6276340977     1.5187984462
| 17>  H        0.1010147428    -2.6232601542    -1.6122627096
| 18>  H        0.7094805138    -3.1107230604    -0.0404347223
| 19>  H       -2.3036977317    -3.3323372876    -2.1568889443
| 20>  H       -3.4741472520    -3.3319787243    -0.8210799318
| 21>  H       -2.8206072254    -1.0436920903    -0.6161271013
| 22>  H       -2.3125445875    -5.0752006923     0.4942449814
| 23>  H       -0.5567005840    -4.8164440150     0.9297530063
| 24>  H       -1.1399526871    -2.7058910577     1.7924010207
| 25> *
| 26>
| 27>                          ****END OF INPUT****

CARTESIAN COORDINATES (ANGSTROEM)
---------------------------------
  C      0.332572    1.398634    0.665896
  C      0.180844    0.013799    0.241082
  C      0.057425   -1.124060   -0.134115
  C     -0.076335   -2.524469   -0.534030
  C     -1.443610   -3.129382   -0.194258
  C     -2.550083   -2.866239   -1.195295
  O     -2.729960   -1.489155   -1.466074
  C     -1.498114   -4.366946    0.624391
  N     -1.890557   -3.071692    1.210388
  H      1.363475    1.612048    0.969687
  H      0.074426    2.092764   -0.141458
  H     -0.315984    1.627634    1.518798
  H      0.101015   -2.623260   -1.612263
  H      0.709481   -3.110723   -0.040435
  H     -2.303698   -3.332337   -2.156889
  H     -3.474147   -3.331979   -0.821080
  H     -2.820607   -1.043692   -0.616127
  H     -2.312545   -5.075201    0.494245
  H     -0.556701   -4.816444    0.929753
  H     -1.139953   -2.705891    1.792401

 Total Charge           Charge          ....    0
 Multiplicity           Mult            ....    1
 Number of Electrons    NEL             ....   68
 Basis Dimension        Dim             ....  345

ORBITAL ENERGIES
----------------

  NO   OCC          E(Eh)            E(eV)
   0   2.0000     -20.548451      -559.1518
   1   2.0000     -15.561880      -423.4603
   2   2.0000     -11.274172      -306.7858
   3   2.0000     -11.273117      -306.7571
   4   2.0000     -11.262778      -306.4758
   5   2.0000     -11.258876      -306.3696
   6   2.0000     -11.246349      -306.0287
   7   2.0000     -11.223354      -305.4030
   8   2.0000     -11.218867      -305.2809
   9   2.0000      -1.356495       -36.9121
  10   2.0000      -1.269778       -34.5524
  11   2.0000      -1.073400       -29.2087
  12   2.0000      -1.023655       -27.8551
  13   2.0000      -0.964716       -26.2512
  14   2.0000      -0.920169       -25.0391
  15   2.0000      -0.885181       -24.0870
  16   2.0000      -0.784513       -21.3477
  17   2.0000      -0.706761       -19.2319
  18   2.0000      -0.672272       -18.2934
  19   2.0000      -0.658171       -17.9097
  20   2.0000      -0.647309       -17.6142
  21   2.0000      -0.617007       -16.7896
  22   2.0000      -0.595401       -16.2017
  23   2.0000      -0.588014       -16.0007
  24   2.0000      -0.585403       -15.9296
  25   2.0000      -0.570680       -15.5290
  26   2.0000      -0.554365       -15.0850
  27   2.0000      -0.513049       -13.9608
  28   2.0000      -0.481688       -13.1074
  29   2.0000      -0.463361       -12.6087
  30   2.0000      -0.452552       -12.3146
  31   2.0000      -0.394787       -10.7427
  32   2.0000      -0.369888       -10.0652
  33   2.0000      -0.364508        -9.9188
  34   0.0000       0.126621         3.4455
  35   0.0000       0.143490         3.9045
  36   0.0000       0.167257         4.5513
  37   0.0000       0.170072         4.6279
  38   0.0000       0.174646         4.7524

MULLIKEN ATOMIC CHARGES
-----------------------
   0 C :   -0.488710
   1 C :   -0.002381
   2 C :   -0.037904
   3 C :   -0.232606
   4 C :    0.064488
   5 C :   -0.038882
   6 O :   -0.466999
   7 C :   -0.209471
   8 N :   -0.378274
   9 H :    0.161438
  10 H :    0.166274
  11 H :    0.160643
  12 H :    0.141205
  13 H :    0.146299
  14 H :    0.104874
  15 H :    0.105124
  16 H :    0.327148
  17 H :    0.123079
  18 H :    0.128694
  19 H :    0.225960
Sum of atomic charges:   -0.0000000

LOEWDIN ATOMIC CHARGES
----------------------
   0 C :   -0.296444
   1 C :   -0.111499
   2 C :   -0.091594
   3 C :   -0.212789
   4 C :   -0.315773
   5 C :   -0.310089
   6 O :   -0.031653
   7 C :   -0.242228
   8 N :    0.004392
   9 H :    0.140508
  10 H :    0.141696
  11 H :    0.140088
  12 H :    0.165306
  13 H :    0.160202
  14 H :    0.132277
  15 H :    0.127055
  16 H :    0.180502
  17 H :    0.127026
  18 H :    0.123007
  19 H :    0.170008

  Mayer bond orders larger than 0.1
B(  0-C ,  1-C ) :   0.8589 B(  0-C ,  9-H ) :   0.9515 B(  0-C , 10-H ) :   0.9462
B(  0-C , 11-H ) :   0.9465 B(  1-C ,  2-C ) :   2.7001 B(  2-C ,  3-C ) :   0.9868
B(  3-C ,  4-C ) :   0.8988 B(  3-C , 12-H ) :   0.9270 B(  3-C , 13-H ) :   0.9378
B(  4-C ,  5-C ) :   0.9707 B(  4-C ,  7-C ) :   0.9403 B(  4-C ,  8-N ) :   0.8518
B(  5-C ,  6-O ) :   0.9506 B(  5-C , 14-H ) :   0.9288 B(  5-C , 15-H ) :   0.9167
B(  6-O , 16-H ) :   0.8360 B(  7-C ,  8-N ) :   0.9513 B(  7-C , 17-H ) :   0.9100
B(  7-C , 18-H ) :   0.9100 B(  8-N , 19-H ) :   0.8713

MP2 TOTAL ENERGY:     -402.398007729 Eh
FINAL SINGLE POINT ENERGY      -402.398007729041

DIPOLE MOMENT
-------------
                                X             Y             Z
Electronic contribution:     -0.89551      -0.54581      -0.90531
Nuclear contribution   :      1.57693       0.28145       1.31502
                        -----------------------------------------
Total Dipole Moment    :      0.68141      -0.26437       0.40970
                        -----------------------------------------
Magnitude (a.u.)       :      0.83790
Magnitude (Debye)      :      2.12977

                             ****ORCA TERMINATED NORMALLY****
TOTAL RUN TIME: 0 days 0 hours 17 minutes 19 seconds 860 msec
