                         Program Version 3.0.3 - RELEASE   -
|  1> ! RI-MP2 RIJK def2-TZVP def2-TZVP/C def2-TZVP/JK TIGHTSCF
|  2> % maxcore 2000
|  3> % mp2 density relaxed end
|  4> *xyz 0 1
|  5>  O        0.0789953780     1.2800887500    -0.2588858425
|  6>  C       -0.0052380407    -0.0836672198     0.1260661944
|  7>  C       -1.4605430409    -0.4943488056     0.0388717400
|  8>  C       -2.1405901432    -0.6484046948    -1.3787735826
|  9>  C       -2.8827702679    -1.9203080938    -0.8258260875
| 10>  O       -2.8695734021    -3.1822101836    -1.4637983964
| 11>  C       -2.0833755626    -4.0707285124    -0.6460813992
| 12>  C       -1.2777831952    -3.1691110214     0.2808921191
| 13>  C       -1.8142208167    -1.9562653459     0.2167876555
| 14>  H        1.0035383205     1.5433827783    -0.2376555405
| 15>  H        0.5949175606    -0.7292673082    -0.5343611086
| 16>  H        0.3584772589    -0.2340196746     1.1558703240
| 17>  H       -2.0616872170     0.1696220456     0.6695498568
| 18>  H       -2.7542031787     0.1839487331    -1.7280170490
| 19>  H       -1.4047697077    -0.9259178645    -2.1367290818
| 20>  H       -3.8977987346    -1.6684584309    -0.4872570692
| 21>  H       -2.7444956008    -4.7747381346    -0.1149009999
| 22>  H       -1.4292178440    -4.6646388293    -1.2980762117
| 23>  H       -0.3595991660    -3.4865288578     0.7585672691
| 24> *
| 25>
| 26>                          ****END OF INPUT****

CARTESIAN COORDINATES (ANGSTROEM)
---------------------------------
  O      0.078995    1.280089   -0.258886
  C     -0.005238   -0.083667    0.126066
  C     -1.460543   -0.494349    0.038872
  C     -2.140590   -0.648405   -1.378774
  C     -2.882770   -1.920308   -0.825826
  O     -2.869573   -3.182210   -1.463798
  C     -2.083376   -4.070729   -0.646081
  C     -1.277783   -3.169111    0.280892
  C     -1.814221   -1.956265    0.216788
  H      1.003538    1.543383   -0.237656
  H      0.594918   -0.729267   -0.534361
  H      0.358477   -0.234020    1.155870
  H     -2.061687    0.169622    0.669550
  H     -2.754203    0.183949   -1.728017
  H     -1.404770   -0.925918   -2.136729
  H     -3.897799   -1.668458   -0.487257
  H     -2.744496   -4.774738   -0.114901
  H     -1.429218   -4.664639   -1.298076
  H     -0.359599   -3.486529    0.758567

 Total Charge           Charge          ....    0
 Multiplicity           Mult            ....    1
 Number of Electrons    NEL             ....   68
 Basis Dimension        Dim             ....  339

ORBITAL ENERGIES
----------------

  NO   OCC          E(Eh)            E(eV)
   0   2.0000     -20.561819      -559.5155
   1   2.0000     -20.549977      -559.1933
   2   2.0000     -11.282714      -307.0183
   3   2.0000     -11.279898      -306.9416
   4   2.0000     -11.274714      -306.8006
   5   2.0000     -11.247371      -306.0565
   6   2.0000     -11.234521      -305.7069
   7   2.0000     -11.230606      -305.6003
   8   2.0000     -11.230159      -305.5882
   9   2.0000      -1.373956       -37.3872
  10   2.0000      -1.366007       -37.1709
  11   2.0000      -1.146778       -31.2054
  12   2.0000      -1.035187       -28.1689
  13   2.0000      -0.977884       -26.6096
  14   2.0000      -0.902368       -24.5547
  15   2.0000      -0.829797       -22.5799
  16   2.0000      -0.798558       -21.7299
  17   2.0000      -0.737423       -20.0663
  18   2.0000      -0.705969       -19.2104
  19   2.0000      -0.663299       -18.0493
  20   2.0000      -0.650960       -17.7135
  21   2.0000      -0.645213       -17.5571
  22   2.0000      -0.611212       -16.6319
  23   2.0000      -0.593861       -16.1598
  24   2.0000      -0.571970       -15.5641
  25   2.0000      -0.532720       -14.4960
  26   2.0000      -0.513248       -13.9662
  27   2.0000      -0.506681       -13.7875
  28   2.0000      -0.494723       -13.4621
  29   2.0000      -0.478748       -13.0274
  30   2.0000      -0.453429       -12.3384
  31   2.0000      -0.444213       -12.0877
  32   2.0000      -0.413118       -11.2415
  33   2.0000      -0.340751        -9.2723
  34   0.0000       0.129438         3.5222
  35   0.0000       0.138583         3.7710
  36   0.0000       0.151575         4.1246
  37   0.0000       0.165697         4.5088
  38   0.0000       0.171369         4.6632

MULLIKEN ATOMIC CHARGES
-----------------------
   0 O :   -0.462531
   1 C :   -0.111199
   2 C :    0.044181
   3 C :   -0.228271
   4 C :    0.104573
   5 O :   -0.330303
   6 C :    0.016025
   7 C :   -0.276402
   8 C :   -0.068190
   9 H :    0.316877
  10 H :    0.099627
  11 H :    0.102899
  12 H :    0.113366
  13 H :    0.127241
  14 H :    0.111488
  15 H :    0.089313
  16 H :    0.102861
  17 H :    0.113072
  18 H :    0.135372
Sum of atomic charges:   -0.0000000

LOEWDIN ATOMIC CHARGES
----------------------
   0 O :   -0.044982
   1 C :   -0.330066
   2 C :   -0.189583
   3 C :   -0.167195
   4 C :   -0.248887
   5 O :    0.160482
   6 C :   -0.266961
   7 C :   -0.144865
   8 C :   -0.137252
   9 H :    0.173318
  10 H :    0.119244
  11 H :    0.120077
  12 H :    0.161350
  13 H :    0.127247
  14 H :    0.142144
  15 H :    0.139826
  16 H :    0.122395
  17 H :    0.125987
  18 H :    0.137721

  Mayer bond orders larger than 0.1
B(  0-O ,  1-C ) :   1.0332 B(  0-O ,  2-C ) :  -0.1040 B(  0-O ,  9-H ) :   0.8476
B(  1-C ,  2-C ) :   0.8834 B(  1-C , 10-H ) :   0.9222 B(  1-C , 11-H ) :   0.9360
B(  2-C ,  3-C ) :   0.9103 B(  2-C ,  8-C ) :   0.9089 B(  2-C , 12-H ) :   0.9107
B(  3-C ,  4-C ) :   0.8691 B(  3-C , 13-H ) :   0.9188 B(  3-C , 14-H ) :   0.8986
B(  4-C ,  5-O ) :   0.9918 B(  4-C ,  8-C ) :   0.9465 B(  4-C , 15-H ) :   0.9341
B(  5-O ,  6-C ) :   0.9277 B(  6-C ,  7-C ) :   0.9577 B(  6-C , 16-H ) :   0.9083
B(  6-C , 17-H ) :   0.9244 B(  7-C ,  8-C ) :   1.7862 B(  7-C , 18-H ) :   0.9171

MP2 TOTAL ENERGY:     -422.277855611 Eh
FINAL SINGLE POINT ENERGY      -422.277855610836

DIPOLE MOMENT
-------------
                                X             Y             Z
Electronic contribution:     -1.87547      -0.72240      -0.08992
Nuclear contribution   :      2.78590       0.71386       0.57986
                        -----------------------------------------
Total Dipole Moment    :      0.91043      -0.00855       0.48993
                        -----------------------------------------
Magnitude (a.u.)       :      1.03392
Magnitude (Debye)      :      2.62802

                             ****ORCA TERMINATED NORMALLY****
TOTAL RUN TIME: 0 days 0 hours 27 minutes 20 seconds 771 msec
