                         Program Version 3.0.3 - RELEASE   -
|  1> ! RI-MP2 RIJK def2-TZVP def2-TZVP/C def2-TZVP/JK TIGHTSCF
|  2> % maxcore 2000
|  3> % mp2 density relaxed end
|  4> *xyz 0 1
|  5>  C       -0.1856905064     1.5777146966    -0.0155725501
|  6>  C        0.0000119561     0.0667320835     0.0031113668
|  7>  C        1.2306217614    -0.5946353971    -0.6674164264
|  8>  C        2.1537317002    -0.1800264553     0.5366786507
|  9>  C        3.1295646315    -1.3217570912     0.7638253765
| 10>  C        2.3951133198    -2.4180830408     0.5580535775
| 11>  C        1.0196728591    -1.8732372319     0.2194728041
| 12>  C        0.7658180389    -0.6285337674     1.1662549828
| 13>  C        0.4088250518    -0.6655304698     2.6266267283
| 14>  H        0.7338842696     2.1196897747     0.2232214261
| 15>  H       -0.5203197864     1.9156600548    -1.0028449118
| 16>  H       -0.9487153678     1.8862488696     0.7081733383
| 17>  H       -0.9481048676    -0.4288284414    -0.2440865506
| 18>  H        1.5090444048    -0.5844875371    -1.7253848089
| 19>  H        2.4988812325     0.8478394105     0.6423973567
| 20>  H        4.1722463226    -1.2299943839     1.0345819210
| 21>  H        2.6766300107    -3.4602419332     0.6161080544
| 22>  H        0.1933061380    -2.5511427234    -0.0025134751
| 23>  H        1.1514445656    -1.2431508187     3.1882430325
| 24>  H        0.3714645224     0.3436856305     3.0517706720
| 25>  H       -0.5717658569    -1.1295860290     2.7814584750
| 26> *
| 27>
| 28>                          ****END OF INPUT****

CARTESIAN COORDINATES (ANGSTROEM)
---------------------------------
  C     -0.185691    1.577715   -0.015573
  C      0.000012    0.066732    0.003111
  C      1.230622   -0.594635   -0.667416
  C      2.153732   -0.180026    0.536679
  C      3.129565   -1.321757    0.763825
  C      2.395113   -2.418083    0.558054
  C      1.019673   -1.873237    0.219473
  C      0.765818   -0.628534    1.166255
  C      0.408825   -0.665530    2.626627
  H      0.733884    2.119690    0.223221
  H     -0.520320    1.915660   -1.002845
  H     -0.948715    1.886249    0.708173
  H     -0.948105   -0.428828   -0.244087
  H      1.509044   -0.584488   -1.725385
  H      2.498881    0.847839    0.642397
  H      4.172246   -1.229994    1.034582
  H      2.676630   -3.460242    0.616108
  H      0.193306   -2.551143   -0.002513
  H      1.151445   -1.243151    3.188243
  H      0.371465    0.343686    3.051771
  H     -0.571766   -1.129586    2.781458

 Total Charge           Charge          ....    0
 Multiplicity           Mult            ....    1
 Number of Electrons    NEL             ....   66
 Basis Dimension        Dim             ....  351

ORBITAL ENERGIES
----------------

  NO   OCC          E(Eh)            E(eV)
   0   2.0000     -11.243465      -305.9502
   1   2.0000     -11.236205      -305.7527
   2   2.0000     -11.231182      -305.6160
   3   2.0000     -11.230927      -305.6091
   4   2.0000     -11.225947      -305.4736
   5   2.0000     -11.217768      -305.2510
   6   2.0000     -11.215979      -305.2023
   7   2.0000     -11.211597      -305.0831
   8   2.0000     -11.210357      -305.0493
   9   2.0000      -1.225084       -33.3362
  10   2.0000      -1.057883       -28.7865
  11   2.0000      -0.983483       -26.7619
  12   2.0000      -0.963068       -26.2064
  13   2.0000      -0.916120       -24.9289
  14   2.0000      -0.819183       -22.2911
  15   2.0000      -0.806295       -21.9404
  16   2.0000      -0.730496       -19.8778
  17   2.0000      -0.701035       -19.0761
  18   2.0000      -0.665550       -18.1105
  19   2.0000      -0.625623       -17.0241
  20   2.0000      -0.588183       -16.0053
  21   2.0000      -0.577292       -15.7089
  22   2.0000      -0.564996       -15.3743
  23   2.0000      -0.545704       -14.8494
  24   2.0000      -0.539380       -14.6773
  25   2.0000      -0.510993       -13.9048
  26   2.0000      -0.483051       -13.1445
  27   2.0000      -0.478780       -13.0283
  28   2.0000      -0.441059       -12.0018
  29   2.0000      -0.430882       -11.7249
  30   2.0000      -0.417009       -11.3474
  31   2.0000      -0.413321       -11.2470
  32   2.0000      -0.318287        -8.6610
  33   0.0000       0.138504         3.7689
  34   0.0000       0.139950         3.8082
  35   0.0000       0.165806         4.5118
  36   0.0000       0.169952         4.6246
  37   0.0000       0.178050         4.8450

MULLIKEN ATOMIC CHARGES
-----------------------
   0 C :   -0.427185
   1 C :   -0.041823
   2 C :   -0.107527
   3 C :   -0.063195
   4 C :   -0.230538
   5 C :   -0.229217
   6 C :   -0.030598
   7 C :    0.060719
   8 C :   -0.438803
   9 H :    0.126500
  10 H :    0.134212
  11 H :    0.130985
  12 H :    0.091129
  13 H :    0.120860
  14 H :    0.116052
  15 H :    0.128335
  16 H :    0.128654
  17 H :    0.114875
  18 H :    0.147831
  19 H :    0.135522
  20 H :    0.133211
Sum of atomic charges:    0.0000000

LOEWDIN ATOMIC CHARGES
----------------------
   0 C :   -0.296975
   1 C :   -0.196982
   2 C :   -0.106801
   3 C :   -0.128953
   4 C :   -0.139137
   5 C :   -0.137607
   6 C :   -0.129366
   7 C :   -0.161927
   8 C :   -0.276956
   9 H :    0.123088
  10 H :    0.125491
  11 H :    0.124619
  12 H :    0.144261
  13 H :    0.125338
  14 H :    0.135376
  15 H :    0.132722
  16 H :    0.133041
  17 H :    0.138181
  18 H :    0.133675
  19 H :    0.129379
  20 H :    0.129534

  Mayer bond orders larger than 0.1
B(  0-C ,  1-C ) :   0.9086 B(  0-C ,  9-H ) :   0.9380 B(  0-C , 10-H ) :   0.9394
B(  0-C , 11-H ) :   0.9384 B(  1-C ,  2-C ) :   0.8991 B(  1-C ,  7-C ) :   0.8614
B(  1-C , 12-H ) :   0.9317 B(  2-C ,  3-C ) :   0.8792 B(  2-C ,  6-C ) :   0.8885
B(  2-C , 13-H ) :   0.8835 B(  3-C ,  4-C ) :   0.9343 B(  3-C ,  7-C ) :   0.8496
B(  3-C , 14-H ) :   0.9188 B(  4-C ,  5-C ) :   1.7678 B(  4-C , 15-H ) :   0.9346
B(  5-C ,  6-C ) :   0.9326 B(  5-C , 16-H ) :   0.9352 B(  6-C ,  7-C ) :   0.8524
B(  6-C , 17-H ) :   0.9188 B(  7-C ,  8-C ) :   0.8291 B(  8-C , 18-H ) :   0.9396
B(  8-C , 19-H ) :   0.9385 B(  8-C , 20-H ) :   0.9394

MP2 TOTAL ENERGY:     -349.261720851 Eh
FINAL SINGLE POINT ENERGY      -349.261720851007

DIPOLE MOMENT
-------------
                                X             Y             Z
Electronic contribution:      3.43045      -3.73784      -1.90823
Nuclear contribution   :     -3.57662       3.82688       1.98262
                        -----------------------------------------
Total Dipole Moment    :     -0.14617       0.08904       0.07440
                        -----------------------------------------
Magnitude (a.u.)       :      0.18662
Magnitude (Debye)      :      0.47435

                             ****ORCA TERMINATED NORMALLY****
TOTAL RUN TIME: 0 days 0 hours 19 minutes 54 seconds 496 msec
