                         Program Version 3.0.3 - RELEASE   -
|  1> ! RI-MP2 RIJK def2-TZVP def2-TZVP/C def2-TZVP/JK TIGHTSCF
|  2> % maxcore 2000
|  3> % mp2 density relaxed end
|  4> *xyz 0 1
|  5>  C        0.0709521622     1.2072523032    -0.2055347385
|  6>  O       -0.1912096942     0.0763023791     0.6360235224
|  7>  C       -1.2711670962    -0.6481985947     0.2955540500
|  8>  C       -1.3826850705    -1.9520424534    -0.0702477722
|  9>  O       -0.3928260995    -2.8663326722    -0.2619460117
| 10>  C       -2.7849519554    -2.2101229045    -0.2157143137
| 11>  C       -3.4237847740    -1.0421537526     0.0669630772
| 12>  C       -4.8548722506    -0.6438889267     0.0825274168
| 13>  O       -2.5120288927    -0.0746182404     0.3919528709
| 14>  H        0.9946456435     1.6578267631     0.1616288274
| 15>  H        0.1967727110     0.8939933463    -1.2488088618
| 16>  H       -0.7434739312     1.9356229075    -0.1411121117
| 17>  H        0.4422691714    -2.4461499143    -0.0261272639
| 18>  H       -3.2413630530    -3.1456425050    -0.4976838657
| 19>  H       -5.1670847615    -0.2935973611     1.0732833392
| 20>  H       -5.0582937837     0.1654606038    -0.6286527867
| 21>  H       -5.4775455955    -1.4994728082    -0.1885322980
| 22> *
| 23>
| 24>                          ****END OF INPUT****

CARTESIAN COORDINATES (ANGSTROEM)
---------------------------------
  C      0.070952    1.207252   -0.205535
  O     -0.191210    0.076302    0.636024
  C     -1.271167   -0.648199    0.295554
  C     -1.382685   -1.952042   -0.070248
  O     -0.392826   -2.866333   -0.261946
  C     -2.784952   -2.210123   -0.215714
  C     -3.423785   -1.042154    0.066963
  C     -4.854872   -0.643889    0.082527
  O     -2.512029   -0.074618    0.391953
  H      0.994646    1.657827    0.161629
  H      0.196773    0.893993   -1.248809
  H     -0.743474    1.935623   -0.141112
  H      0.442269   -2.446150   -0.026127
  H     -3.241363   -3.145643   -0.497684
  H     -5.167085   -0.293597    1.073283
  H     -5.058294    0.165461   -0.628653
  H     -5.477546   -1.499473   -0.188532

 Total Charge           Charge          ....    0
 Multiplicity           Mult            ....    1
 Number of Electrons    NEL             ....   68
 Basis Dimension        Dim             ....  327

ORBITAL ENERGIES
----------------

  NO   OCC          E(Eh)            E(eV)
   0   2.0000     -20.614100      -560.9382
   1   2.0000     -20.592162      -560.3412
   2   2.0000     -20.582820      -560.0870
   3   2.0000     -11.321888      -308.0842
   4   2.0000     -11.292263      -307.2781
   5   2.0000     -11.287509      -307.1487
   6   2.0000     -11.282128      -307.0023
   7   2.0000     -11.235062      -305.7216
   8   2.0000     -11.221590      -305.3550
   9   2.0000      -1.469212       -39.9793
  10   2.0000      -1.399571       -38.0843
  11   2.0000      -1.392919       -37.9032
  12   2.0000      -1.078236       -29.3403
  13   2.0000      -1.040359       -28.3096
  14   2.0000      -0.968974       -26.3671
  15   2.0000      -0.899613       -24.4797
  16   2.0000      -0.807118       -21.9628
  17   2.0000      -0.798835       -21.7374
  18   2.0000      -0.726360       -19.7653
  19   2.0000      -0.675354       -18.3773
  20   2.0000      -0.673867       -18.3368
  21   2.0000      -0.642526       -17.4840
  22   2.0000      -0.633218       -17.2307
  23   2.0000      -0.616493       -16.7756
  24   2.0000      -0.580813       -15.8047
  25   2.0000      -0.575533       -15.6610
  26   2.0000      -0.567911       -15.4536
  27   2.0000      -0.555289       -15.1102
  28   2.0000      -0.552601       -15.0370
  29   2.0000      -0.528069       -14.3695
  30   2.0000      -0.521576       -14.1928
  31   2.0000      -0.470782       -12.8106
  32   2.0000      -0.374891       -10.2013
  33   2.0000      -0.287804        -7.8315
  34   0.0000       0.137618         3.7448
  35   0.0000       0.148117         4.0305
  36   0.0000       0.155582         4.2336
  37   0.0000       0.169121         4.6020
  38   0.0000       0.186671         5.0796

MULLIKEN ATOMIC CHARGES
-----------------------
   0 C :   -0.195694
   1 O :   -0.324268
   2 C :    0.222027
   3 C :    0.149180
   4 O :   -0.445993
   5 C :   -0.301644
   6 C :    0.235236
   7 C :   -0.427166
   8 O :   -0.230489
   9 H :    0.143548
  10 H :    0.123653
  11 H :    0.142282
  12 H :    0.334319
  13 H :    0.137155
  14 H :    0.147623
  15 H :    0.143901
  16 H :    0.146331
Sum of atomic charges:    0.0000000

LOEWDIN ATOMIC CHARGES
----------------------
   0 C :   -0.313069
   1 O :    0.206342
   2 C :   -0.392653
   3 C :   -0.303169
   4 O :    0.059527
   5 C :   -0.141878
   6 C :   -0.274504
   7 C :   -0.276007
   8 O :    0.353483
   9 H :    0.114404
  10 H :    0.107975
  11 H :    0.110763
  12 H :    0.196361
  13 H :    0.147386
  14 H :    0.133846
  15 H :    0.132942
  16 H :    0.138253

  Mayer bond orders larger than 0.1
B(  0-C ,  1-O ) :   0.8448 B(  0-C ,  9-H ) :   0.9370 B(  0-C , 10-H ) :   0.9279
B(  0-C , 11-H ) :   0.9395 B(  1-O ,  2-C ) :   1.0685 B(  2-C ,  3-C ) :   1.4730
B(  2-C ,  8-O ) :   0.9989 B(  3-C ,  4-O ) :   1.0864 B(  3-C ,  5-C ) :   1.1887
B(  4-O , 12-H ) :   0.8287 B(  5-C ,  6-C ) :   1.5295 B(  5-C , 13-H ) :   0.9255
B(  6-C ,  7-C ) :   0.8731 B(  6-C ,  8-O ) :   1.0085 B(  7-C , 14-H ) :   0.9306
B(  7-C , 15-H ) :   0.9325 B(  7-C , 16-H ) :   0.9515

MP2 TOTAL ENERGY:     -458.233904405 Eh
FINAL SINGLE POINT ENERGY      -458.233904404592

DIPOLE MOMENT
-------------
                                X             Y             Z
Electronic contribution:      3.36781      -3.38498       1.67661
Nuclear contribution   :     -3.33446       4.00076      -1.99261
                        -----------------------------------------
Total Dipole Moment    :      0.03335       0.61578      -0.31601
                        -----------------------------------------
Magnitude (a.u.)       :      0.69293
Magnitude (Debye)      :      1.76130

                             ****ORCA TERMINATED NORMALLY****
TOTAL RUN TIME: 0 days 0 hours 15 minutes 25 seconds 169 msec
