                         Program Version 3.0.3 - RELEASE   -
|  1> ! RI-MP2 RIJK def2-TZVP def2-TZVP/C def2-TZVP/JK TIGHTSCF
|  2> % maxcore 2000
|  3> % mp2 density relaxed end
|  4> *xyz 0 1
|  5>  C       -0.5278491851     2.5945751397     2.0855277920
|  6>  C       -0.0713302409     1.4952901576     1.1201235277
|  7>  C        0.8410070002     2.1035193914     0.0281180241
|  8>  C        1.2235040038     1.1115780192    -1.0471398521
|  9>  O        1.0927760697     1.3088579530    -2.2301366864
| 10>  N        0.6704778593     0.3777264002     1.7374742781
| 11>  C        0.6763442348     0.1145088800     3.1727475415
| 12>  C       -0.0029631849    -0.8222955213     2.2356739263
| 13>  C       -1.5083994404    -0.9653783387     2.2379054623
| 14>  H        0.3235007225     3.0083149152     2.6363258707
| 15>  H       -0.9981196095     3.4098816909     1.5277802319
| 16>  H       -1.2589671916     2.2297577249     2.8121609556
| 17>  H       -0.9605644658     1.0865417941     0.6219926702
| 18>  H        0.3662745303     2.9639678793    -0.4523793640
| 19>  H        1.7661501513     2.4417686954     0.5156549515
| 20>  H        1.6460849617     0.1595901634    -0.6631181409
| 21>  H        1.6479266642    -0.1215391008     3.6013728772
| 22>  H        0.0352781837     0.7049328914     3.8233278522
| 23>  H        0.5201614863    -1.7399062727     1.9660534967
| 24>  H       -2.0111692939    -0.0660911295     2.6044434719
| 25>  H       -1.8892427082    -1.1809663818     1.2329823081
| 26>  H       -1.8027248375    -1.7986442708     2.8844293956
| 27> *
| 28>
| 29>                          ****END OF INPUT****

CARTESIAN COORDINATES (ANGSTROEM)
---------------------------------
  C     -0.527849    2.594575    2.085528
  C     -0.071330    1.495290    1.120124
  C      0.841007    2.103519    0.028118
  C      1.223504    1.111578   -1.047140
  O      1.092776    1.308858   -2.230137
  N      0.670478    0.377726    1.737474
  C      0.676344    0.114509    3.172748
  C     -0.002963   -0.822296    2.235674
  C     -1.508399   -0.965378    2.237905
  H      0.323501    3.008315    2.636326
  H     -0.998120    3.409882    1.527780
  H     -1.258967    2.229758    2.812161
  H     -0.960564    1.086542    0.621993
  H      0.366275    2.963968   -0.452379
  H      1.766150    2.441769    0.515655
  H      1.646085    0.159590   -0.663118
  H      1.647927   -0.121539    3.601373
  H      0.035278    0.704933    3.823328
  H      0.520161   -1.739906    1.966053
  H     -2.011169   -0.066091    2.604443
  H     -1.889243   -1.180966    1.232982
  H     -1.802725   -1.798644    2.884429

 Total Charge           Charge          ....    0
 Multiplicity           Mult            ....    1
 Number of Electrons    NEL             ....   70
 Basis Dimension        Dim             ....  357

ORBITAL ENERGIES
----------------

  NO   OCC          E(Eh)            E(eV)
   0   2.0000     -20.544581      -559.0465
   1   2.0000     -15.560638      -423.4265
   2   2.0000     -11.317342      -307.9605
   3   2.0000     -11.275972      -306.8348
   4   2.0000     -11.267446      -306.6028
   5   2.0000     -11.258905      -306.3704
   6   2.0000     -11.232000      -305.6382
   7   2.0000     -11.231086      -305.6134
   8   2.0000     -11.228828      -305.5520
   9   2.0000      -1.382339       -37.6154
  10   2.0000      -1.277746       -34.7692
  11   2.0000      -1.089680       -29.6517
  12   2.0000      -0.995947       -27.1011
  13   2.0000      -0.974160       -26.5082
  14   2.0000      -0.910655       -24.7802
  15   2.0000      -0.817502       -22.2454
  16   2.0000      -0.796140       -21.6641
  17   2.0000      -0.758687       -20.6449
  18   2.0000      -0.691113       -18.8061
  19   2.0000      -0.664903       -18.0929
  20   2.0000      -0.651378       -17.7249
  21   2.0000      -0.632726       -17.2174
  22   2.0000      -0.591639       -16.0993
  23   2.0000      -0.581919       -15.8348
  24   2.0000      -0.567742       -15.4490
  25   2.0000      -0.563386       -15.3305
  26   2.0000      -0.551820       -15.0158
  27   2.0000      -0.529049       -14.3962
  28   2.0000      -0.523158       -14.2359
  29   2.0000      -0.514121       -13.9899
  30   2.0000      -0.484553       -13.1854
  31   2.0000      -0.455380       -12.3915
  32   2.0000      -0.450093       -12.2476
  33   2.0000      -0.409910       -11.1542
  34   2.0000      -0.367959       -10.0127
  35   0.0000       0.127592         3.4720
  36   0.0000       0.139601         3.7987
  37   0.0000       0.150193         4.0870
  38   0.0000       0.161149         4.3851
  39   0.0000       0.172205         4.6859

MULLIKEN ATOMIC CHARGES
-----------------------
   0 C :   -0.404617
   1 C :   -0.051715
   2 C :   -0.096991
   3 C :    0.068020
   4 O :   -0.273953
   5 N :   -0.225012
   6 C :   -0.209162
   7 C :   -0.025600
   8 C :   -0.407858
   9 H :    0.141631
  10 H :    0.142400
  11 H :    0.129799
  12 H :    0.103577
  13 H :    0.114951
  14 H :    0.115587
  15 H :    0.093172
  16 H :    0.129348
  17 H :    0.123461
  18 H :    0.118167
  19 H :    0.128503
  20 H :    0.142000
  21 H :    0.144292
Sum of atomic charges:    0.0000000

LOEWDIN ATOMIC CHARGES
----------------------
   0 C :   -0.296197
   1 C :   -0.302132
   2 C :   -0.242851
   3 C :   -0.293752
   4 O :    0.120719
   5 N :    0.131569
   6 C :   -0.246523
   7 C :   -0.282368
   8 C :   -0.301570
   9 H :    0.128034
  10 H :    0.129985
  11 H :    0.118559
  12 H :    0.149786
  13 H :    0.144871
  14 H :    0.154318
  15 H :    0.114405
  16 H :    0.123167
  17 H :    0.125079
  18 H :    0.140183
  19 H :    0.125373
  20 H :    0.127395
  21 H :    0.131949

  Mayer bond orders larger than 0.1
B(  0-C ,  1-C ) :   0.9126 B(  0-C ,  9-H ) :   0.9347 B(  0-C , 10-H ) :   0.9341
B(  0-C , 11-H ) :   0.9363 B(  1-C ,  2-C ) :   0.8922 B(  1-C ,  5-N ) :   0.8822
B(  1-C , 12-H ) :   0.9278 B(  2-C ,  3-C ) :   0.8899 B(  2-C , 13-H ) :   0.9050
B(  2-C , 14-H ) :   0.9007 B(  3-C ,  4-O ) :   1.9894 B(  3-C , 15-H ) :   0.9382
B(  5-N ,  6-C ) :   0.8982 B(  5-N ,  7-C ) :   0.8858 B(  6-C ,  7-C ) :   0.9432
B(  6-C , 16-H ) :   0.9203 B(  6-C , 17-H ) :   0.9232 B(  7-C ,  8-C ) :   0.9014
B(  7-C , 18-H ) :   0.9272 B(  8-C , 19-H ) :   0.9338 B(  8-C , 20-H ) :   0.9367
B(  8-C , 21-H ) :   0.9302

MP2 TOTAL ENERGY:     -403.628858700 Eh
FINAL SINGLE POINT ENERGY      -403.628858699679

DIPOLE MOMENT
-------------
                                X             Y             Z
Electronic contribution:      4.97720      -0.41002      -7.71516
Nuclear contribution   :     -5.48919       0.34160       9.16660
                        -----------------------------------------
Total Dipole Moment    :     -0.51199      -0.06842       1.45144
                        -----------------------------------------
Magnitude (a.u.)       :      1.54062
Magnitude (Debye)      :      3.91594

                             ****ORCA TERMINATED NORMALLY****
TOTAL RUN TIME: 0 days 0 hours 22 minutes 40 seconds 657 msec
