                         Program Version 3.0.3 - RELEASE   -
|  1> ! RI-MP2 RIJK def2-TZVP def2-TZVP/C def2-TZVP/JK TIGHTSCF
|  2> % maxcore 2000
|  3> % mp2 density relaxed end
|  4> *xyz 0 1
|  5>  O        0.0475353215     1.3747015612     0.2113440764
|  6>  C       -0.0261260794    -0.0081439419     0.0134179431
|  7>  C       -1.4752234494    -0.5012046273    -0.1149116261
|  8>  C       -1.4354513405    -2.0112017558    -0.2930688079
|  9>  C       -1.6866583705    -2.6569675372    -1.6402721433
| 10>  C       -0.2890591762    -2.5392091409    -1.1125369606
| 11>  O        0.5759572635    -1.6182865982    -1.7589509099
| 12>  C        0.7544341004    -0.3850762843    -1.2460118108
| 13>  O        1.4866739342     0.3994757983    -1.7933012419
| 14>  H        0.7263707443     1.6911754564    -0.4050128661
| 15>  H        0.4424280468    -0.5484499150     0.8553469850
| 16>  H       -2.0364117019    -0.2179667535     0.7786341156
| 17>  H       -1.9495351338     0.0026894993    -0.9631404645
| 18>  H       -1.6899690591    -2.5981254609     0.5834923995
| 19>  H       -2.1416443774    -3.6402461902    -1.6736667916
| 20>  H       -1.9490542259    -2.0026933781    -2.4649997651
| 21>  H        0.2532664735    -3.4259493319    -0.8048969917
| 22> *
| 23>
| 24>                          ****END OF INPUT****

CARTESIAN COORDINATES (ANGSTROEM)
---------------------------------
  O      0.047535    1.374702    0.211344
  C     -0.026126   -0.008144    0.013418
  C     -1.475223   -0.501205   -0.114912
  C     -1.435451   -2.011202   -0.293069
  C     -1.686658   -2.656968   -1.640272
  C     -0.289059   -2.539209   -1.112537
  O      0.575957   -1.618287   -1.758951
  C      0.754434   -0.385076   -1.246012
  O      1.486674    0.399476   -1.793301
  H      0.726371    1.691175   -0.405013
  H      0.442428   -0.548450    0.855347
  H     -2.036412   -0.217967    0.778634
  H     -1.949535    0.002689   -0.963140
  H     -1.689969   -2.598125    0.583492
  H     -2.141644   -3.640246   -1.673667
  H     -1.949054   -2.002693   -2.465000
  H      0.253266   -3.425949   -0.804897

 Total Charge           Charge          ....    0
 Multiplicity           Mult            ....    1
 Number of Electrons    NEL             ....   68
 Basis Dimension        Dim             ....  327

ORBITAL ENERGIES
----------------

  NO   OCC          E(Eh)            E(eV)
   0   2.0000     -20.618941      -561.0699
   1   2.0000     -20.563300      -559.5558
   2   2.0000     -20.554326      -559.3116
   3   2.0000     -11.390934      -309.9631
   4   2.0000     -11.314308      -307.8780
   5   2.0000     -11.310746      -307.7811
   6   2.0000     -11.262978      -306.4812
   7   2.0000     -11.251779      -306.1765
   8   2.0000     -11.251558      -306.1704
   9   2.0000      -1.476154       -40.1682
  10   2.0000      -1.392359       -37.8880
  11   2.0000      -1.365116       -37.1467
  12   2.0000      -1.172949       -31.9176
  13   2.0000      -1.060145       -28.8480
  14   2.0000      -0.914967       -24.8975
  15   2.0000      -0.892626       -24.2896
  16   2.0000      -0.837143       -22.7798
  17   2.0000      -0.768123       -20.9017
  18   2.0000      -0.732006       -19.9189
  19   2.0000      -0.719771       -19.5860
  20   2.0000      -0.687160       -18.6986
  21   2.0000      -0.658836       -17.9278
  22   2.0000      -0.636193       -17.3117
  23   2.0000      -0.623379       -16.9630
  24   2.0000      -0.598112       -16.2755
  25   2.0000      -0.583332       -15.8733
  26   2.0000      -0.562313       -15.3013
  27   2.0000      -0.539860       -14.6903
  28   2.0000      -0.519276       -14.1302
  29   2.0000      -0.503301       -13.6955
  30   2.0000      -0.476392       -12.9633
  31   2.0000      -0.454809       -12.3760
  32   2.0000      -0.429353       -11.6833
  33   2.0000      -0.419560       -11.4168
  34   0.0000       0.125845         3.4244
  35   0.0000       0.144476         3.9314
  36   0.0000       0.151066         4.1107
  37   0.0000       0.168473         4.5844
  38   0.0000       0.182322         4.9612

MULLIKEN ATOMIC CHARGES
-----------------------
   0 O :   -0.469487
   1 C :    0.045586
   2 C :   -0.179337
   3 C :   -0.141689
   4 C :   -0.287783
   5 C :    0.023056
   6 O :   -0.195198
   7 C :    0.238918
   8 O :   -0.319475
   9 H :    0.340226
  10 H :    0.107362
  11 H :    0.143371
  12 H :    0.126815
  13 H :    0.139736
  14 H :    0.141449
  15 H :    0.147222
  16 H :    0.139228
Sum of atomic charges:    0.0000000

LOEWDIN ATOMIC CHARGES
----------------------
   0 O :    0.000619
   1 C :   -0.334389
   2 C :   -0.210185
   3 C :   -0.200640
   4 C :   -0.195774
   5 C :   -0.251836
   6 O :    0.305112
   7 C :   -0.453956
   8 O :    0.126722
   9 H :    0.187198
  10 H :    0.154148
  11 H :    0.148446
  12 H :    0.148603
  13 H :    0.152495
  14 H :    0.137870
  15 H :    0.143996
  16 H :    0.141571

  Mayer bond orders larger than 0.1
B(  0-O ,  1-C ) :   1.1000 B(  0-O ,  2-C ) :  -0.1020 B(  0-O ,  9-H ) :   0.8026
B(  1-C ,  2-C ) :   0.8602 B(  1-C ,  7-C ) :   0.9448 B(  1-C , 10-H ) :   0.9192
B(  2-C ,  3-C ) :   0.8829 B(  2-C , 11-H ) :   0.9285 B(  2-C , 12-H ) :   0.9141
B(  3-C ,  4-C ) :   0.8923 B(  3-C ,  5-C ) :   0.8683 B(  3-C , 13-H ) :   0.9189
B(  4-C ,  5-C ) :   0.8865 B(  4-C , 14-H ) :   0.9241 B(  4-C , 15-H ) :   0.9161
B(  5-C ,  6-O ) :   0.8987 B(  5-C , 16-H ) :   0.9455 B(  6-O ,  7-C ) :   1.1341
B(  7-C ,  8-O ) :   1.9298

MP2 TOTAL ENERGY:     -458.251666123 Eh
FINAL SINGLE POINT ENERGY      -458.251666123390

DIPOLE MOMENT
-------------
                                X             Y             Z
Electronic contribution:      5.46900       2.65634      -2.09050
Nuclear contribution   :     -6.34830      -3.84842       2.61158
                        -----------------------------------------
Total Dipole Moment    :     -0.87930      -1.19209       0.52108
                        -----------------------------------------
Magnitude (a.u.)       :      1.57028
Magnitude (Debye)      :      3.99132

                             ****ORCA TERMINATED NORMALLY****
TOTAL RUN TIME: 0 days 0 hours 16 minutes 56 seconds 475 msec
