                         Program Version 3.0.3 - RELEASE   -
|  1> ! RI-MP2 RIJK def2-TZVP def2-TZVP/C def2-TZVP/JK TIGHTSCF
|  2> % maxcore 2000
|  3> % mp2 density relaxed end
|  4> *xyz 0 1
|  5>  O        0.1115905299     1.4321402050    -0.1655957194
|  6>  C        0.0782206719     0.0172427600    -0.0177624220
|  7>  C        0.7640807152    -0.4603119503     1.2621566686
|  8>  O       -0.0913897475    -0.3049156602     2.3933166638
|  9>  C       -1.3940198102    -0.7534784140     2.1436436308
| 10>  C       -1.7084103814    -1.6949417682     0.9335825249
| 11>  O       -3.1003103323    -1.2222575558     1.0002376361
| 12>  C       -2.2878147955     0.0015982798     1.1185828572
| 13>  C       -1.3605830802    -0.5107072422    -0.0182438572
| 14>  H       -0.2285728502     1.8164936373     0.6504621592
| 15>  H        0.6275901103    -0.3738888665    -0.8806991292
| 16>  H        1.0467532484    -1.5190188920     1.1549857080
| 17>  H        1.6650778239     0.1242801817     1.4620269869
| 18>  H       -1.8801712925    -1.0117728807     3.0847068148
| 19>  H       -1.5498936678    -2.7660765965     0.8058566611
| 20>  H       -2.8145038026     0.9521601914     1.2085396534
| 21>  H       -1.8378595295    -0.5504231688    -0.9985539171
| 22> *
| 23>
| 24>                          ****END OF INPUT****

CARTESIAN COORDINATES (ANGSTROEM)
---------------------------------
  O      0.111591    1.432140   -0.165596
  C      0.078221    0.017243   -0.017762
  C      0.764081   -0.460312    1.262157
  O     -0.091390   -0.304916    2.393317
  C     -1.394020   -0.753478    2.143644
  C     -1.708410   -1.694942    0.933583
  O     -3.100310   -1.222258    1.000238
  C     -2.287815    0.001598    1.118583
  C     -1.360583   -0.510707   -0.018244
  H     -0.228573    1.816494    0.650462
  H      0.627590   -0.373889   -0.880699
  H      1.046753   -1.519019    1.154986
  H      1.665078    0.124280    1.462027
  H     -1.880171   -1.011773    3.084707
  H     -1.549894   -2.766077    0.805857
  H     -2.814504    0.952160    1.208540
  H     -1.837860   -0.550423   -0.998554

 Total Charge           Charge          ....    0
 Multiplicity           Mult            ....    1
 Number of Electrons    NEL             ....   68
 Basis Dimension        Dim             ....  327

ORBITAL ENERGIES
----------------

  NO   OCC          E(Eh)            E(eV)
   0   2.0000     -20.577777      -559.9498
   1   2.0000     -20.567811      -559.6786
   2   2.0000     -20.563879      -559.5716
   3   2.0000     -11.310966      -307.7870
   4   2.0000     -11.305457      -307.6371
   5   2.0000     -11.304222      -307.6035
   6   2.0000     -11.296972      -307.4062
   7   2.0000     -11.291163      -307.2482
   8   2.0000     -11.252897      -306.2069
   9   2.0000      -1.425888       -38.8004
  10   2.0000      -1.390047       -37.8251
  11   2.0000      -1.370129       -37.2831
  12   2.0000      -1.089883       -29.6572
  13   2.0000      -1.031973       -28.0814
  14   2.0000      -0.904420       -24.6105
  15   2.0000      -0.894884       -24.3510
  16   2.0000      -0.874437       -23.7946
  17   2.0000      -0.732635       -19.9360
  18   2.0000      -0.724310       -19.7095
  19   2.0000      -0.710360       -19.3299
  20   2.0000      -0.674737       -18.3605
  21   2.0000      -0.671569       -18.2743
  22   2.0000      -0.627006       -17.0617
  23   2.0000      -0.595310       -16.1992
  24   2.0000      -0.585784       -15.9400
  25   2.0000      -0.558748       -15.2043
  26   2.0000      -0.539063       -14.6686
  27   2.0000      -0.531577       -14.4649
  28   2.0000      -0.518022       -14.0961
  29   2.0000      -0.498662       -13.5693
  30   2.0000      -0.467387       -12.7182
  31   2.0000      -0.447300       -12.1717
  32   2.0000      -0.419835       -11.4243
  33   2.0000      -0.406565       -11.0632
  34   0.0000       0.134549         3.6613
  35   0.0000       0.142010         3.8643
  36   0.0000       0.168948         4.5973
  37   0.0000       0.173227         4.7137
  38   0.0000       0.184760         5.0276

MULLIKEN ATOMIC CHARGES
-----------------------
   0 O :   -0.463627
   1 C :    0.038630
   2 C :   -0.069499
   3 O :   -0.310306
   4 C :    0.109012
   5 C :   -0.083445
   6 O :   -0.305630
   7 C :   -0.109281
   8 C :   -0.010077
   9 H :    0.321408
  10 H :    0.109939
  11 H :    0.099915
  12 H :    0.141396
  13 H :    0.124467
  14 H :    0.139718
  15 H :    0.142188
  16 H :    0.125191
Sum of atomic charges:   -0.0000000

LOEWDIN ATOMIC CHARGES
----------------------
   0 O :   -0.013306
   1 C :   -0.331103
   2 C :   -0.286507
   3 O :    0.176129
   4 C :   -0.261636
   5 C :   -0.200370
   6 O :    0.149125
   7 C :   -0.203644
   8 C :   -0.167080
   9 H :    0.177604
  10 H :    0.151003
  11 H :    0.129197
  12 H :    0.135737
  13 H :    0.143143
  14 H :    0.125564
  15 H :    0.125845
  16 H :    0.150298

  Mayer bond orders larger than 0.1
B(  0-O ,  1-C ) :   0.9152 B(  0-O ,  9-H ) :   0.8373 B(  1-C ,  2-C ) :   0.9487
B(  1-C ,  8-C ) :   0.8766 B(  1-C , 10-H ) :   0.9159 B(  2-C ,  3-O ) :   0.9040
B(  2-C , 11-H ) :   0.9208 B(  2-C , 12-H ) :   0.9307 B(  3-O ,  4-C ) :   0.9793
B(  4-C ,  5-C ) :   0.8880 B(  4-C ,  7-C ) :   0.8559 B(  4-C , 13-H ) :   0.9383
B(  5-C ,  6-O ) :   0.9216 B(  5-C ,  8-C ) :   0.8676 B(  5-C , 14-H ) :   0.8932
B(  6-O ,  7-C ) :   0.9116 B(  7-C ,  8-C ) :   0.8758 B(  7-C , 15-H ) :   0.8989
B(  8-C , 16-H ) :   0.9138

MP2 TOTAL ENERGY:     -458.159591822 Eh
FINAL SINGLE POINT ENERGY      -458.159591822450

DIPOLE MOMENT
-------------
                                X             Y             Z
Electronic contribution:     -2.21137       0.18167       1.14316
Nuclear contribution   :      2.67092      -0.42988      -1.13174
                        -----------------------------------------
Total Dipole Moment    :      0.45955      -0.24821       0.01142
                        -----------------------------------------
Magnitude (a.u.)       :      0.52242
Magnitude (Debye)      :      1.32789

                             ****ORCA TERMINATED NORMALLY****
TOTAL RUN TIME: 0 days 0 hours 17 minutes 35 seconds 127 msec
