                         Program Version 3.0.3 - RELEASE   -
|  1> ! RI-MP2 RIJK def2-TZVP def2-TZVP/C def2-TZVP/JK TIGHTSCF
|  2> % maxcore 2000
|  3> % mp2 density relaxed end
|  4> *xyz 0 1
|  5>  C        0.2157427727     1.4479554808    -0.3125359655
|  6>  C        0.1337401497    -0.0232598225     0.0349425517
|  7>  O        1.0286646543    -0.8350602257    -0.7657228236
|  8>  C        1.4517584677    -1.5969101542     0.3930672302
|  9>  C        2.9569521267    -1.7868169899     0.3725958912
| 10>  O        3.3407615961    -2.4817367693    -0.8005953712
| 11>  C        0.7432806900    -0.6085959873     1.3516260932
| 12>  C        1.6181212262     0.3223904127     2.1799705763
| 13>  O       -0.1732820704    -1.3040134701     2.1746006839
| 14>  H        1.2343234267     1.8315151961    -0.2111953386
| 15>  H       -0.1011569783     1.6019446437    -1.3489726841
| 16>  H       -0.4484032110     2.0354206232     0.3310088686
| 17>  H       -0.8995453384    -0.3840673706    -0.0684792656
| 18>  H        0.9552258205    -2.5757486099     0.4176827656
| 19>  H        3.4645206366    -0.8125790968     0.4380126815
| 20>  H        3.2770119353    -2.3954329331     1.2253862416
| 21>  H        2.9441945433    -2.0008692455    -1.5370811062
| 22>  H        2.3649722412     0.8416839752     1.5755026929
| 23>  H        1.0023116812     1.0886325571     2.6672644506
| 24>  H        2.1366549467    -0.2425230125     2.9603319607
| 25>  H       -0.5478185668    -0.6819144914     2.8074542668
| 26> *
| 27>
| 28>                          ****END OF INPUT****

CARTESIAN COORDINATES (ANGSTROEM)
---------------------------------
  C      0.215743    1.447955   -0.312536
  C      0.133740   -0.023260    0.034943
  O      1.028665   -0.835060   -0.765723
  C      1.451758   -1.596910    0.393067
  C      2.956952   -1.786817    0.372596
  O      3.340762   -2.481737   -0.800595
  C      0.743281   -0.608596    1.351626
  C      1.618121    0.322390    2.179971
  O     -0.173282   -1.304013    2.174601
  H      1.234323    1.831515   -0.211195
  H     -0.101157    1.601945   -1.348973
  H     -0.448403    2.035421    0.331009
  H     -0.899545   -0.384067   -0.068479
  H      0.955226   -2.575749    0.417683
  H      3.464521   -0.812579    0.438013
  H      3.277012   -2.395433    1.225386
  H      2.944195   -2.000869   -1.537081
  H      2.364972    0.841684    1.575503
  H      1.002312    1.088633    2.667264
  H      2.136655   -0.242523    2.960332
  H     -0.547819   -0.681914    2.807454

 Total Charge           Charge          ....    0
 Multiplicity           Mult            ....    1
 Number of Electrons    NEL             ....   72
 Basis Dimension        Dim             ....  351

ORBITAL ENERGIES
----------------

  NO   OCC          E(Eh)            E(eV)
   0   2.0000     -20.570306      -559.7465
   1   2.0000     -20.553015      -559.2760
   2   2.0000     -20.550020      -559.1945
   3   2.0000     -11.300897      -307.5131
   4   2.0000     -11.286406      -307.1187
   5   2.0000     -11.279719      -306.9368
   6   2.0000     -11.274562      -306.7964
   7   2.0000     -11.236404      -305.7581
   8   2.0000     -11.226670      -305.4932
   9   2.0000      -1.399604       -38.0852
  10   2.0000      -1.369037       -37.2534
  11   2.0000      -1.350392       -36.7460
  12   2.0000      -1.052222       -28.6324
  13   2.0000      -1.026866       -27.9425
  14   2.0000      -0.965560       -26.2742
  15   2.0000      -0.913066       -24.8458
  16   2.0000      -0.837411       -22.7871
  17   2.0000      -0.745672       -20.2908
  18   2.0000      -0.722420       -19.6581
  19   2.0000      -0.685571       -18.6553
  20   2.0000      -0.672778       -18.3072
  21   2.0000      -0.653580       -17.7848
  22   2.0000      -0.623616       -16.9695
  23   2.0000      -0.602216       -16.3871
  24   2.0000      -0.586999       -15.9730
  25   2.0000      -0.571077       -15.5398
  26   2.0000      -0.566965       -15.4279
  27   2.0000      -0.553818       -15.0702
  28   2.0000      -0.546290       -14.8653
  29   2.0000      -0.523067       -14.2334
  30   2.0000      -0.515964       -14.0401
  31   2.0000      -0.505638       -13.7591
  32   2.0000      -0.469190       -12.7673
  33   2.0000      -0.447355       -12.1731
  34   2.0000      -0.426922       -11.6171
  35   2.0000      -0.406994       -11.0749
  36   0.0000       0.117290         3.1916
  37   0.0000       0.153834         4.1860
  38   0.0000       0.161564         4.3964
  39   0.0000       0.173096         4.7102
  40   0.0000       0.177002         4.8165

MULLIKEN ATOMIC CHARGES
-----------------------
   0 C :   -0.382939
   1 C :    0.021108
   2 O :   -0.349193
   3 C :   -0.023724
   4 C :    0.009587
   5 O :   -0.475686
   6 C :    0.283322
   7 C :   -0.490852
   8 O :   -0.453680
   9 H :    0.121488
  10 H :    0.149016
  11 H :    0.127408
  12 H :    0.086761
  13 H :    0.097561
  14 H :    0.084685
  15 H :    0.114632
  16 H :    0.329265
  17 H :    0.143857
  18 H :    0.133172
  19 H :    0.158416
  20 H :    0.315797
Sum of atomic charges:    0.0000000

LOEWDIN ATOMIC CHARGES
----------------------
   0 C :   -0.296391
   1 C :   -0.271867
   2 O :    0.144183
   3 C :   -0.255325
   4 C :   -0.330329
   5 O :   -0.041688
   6 C :   -0.353124
   7 C :   -0.280425
   8 O :    0.014266
   9 H :    0.123844
  10 H :    0.132420
  11 H :    0.128567
  12 H :    0.140228
  13 H :    0.147001
  14 H :    0.117355
  15 H :    0.133301
  16 H :    0.180095
  17 H :    0.130701
  18 H :    0.127537
  19 H :    0.133019
  20 H :    0.176632

  Mayer bond orders larger than 0.1
B(  0-C ,  1-C ) :   0.9003 B(  0-C ,  9-H ) :   0.9303 B(  0-C , 10-H ) :   0.9332
B(  0-C , 11-H ) :   0.9327 B(  1-C ,  2-O ) :   0.9463 B(  1-C ,  6-C ) :   0.8915
B(  1-C , 12-H ) :   0.9228 B(  2-O ,  3-C ) :   0.9245 B(  3-C ,  4-C ) :   0.9496
B(  3-C ,  6-C ) :   0.8786 B(  3-C , 13-H ) :   0.9130 B(  4-C ,  5-O ) :   0.9227
B(  4-C , 14-H ) :   0.9070 B(  4-C , 15-H ) :   0.9318 B(  5-O , 16-H ) :   0.8339
B(  6-C ,  7-C ) :   0.9050 B(  6-C ,  8-O ) :   1.0085 B(  7-C , 17-H ) :   0.9390
B(  7-C , 18-H ) :   0.9194 B(  7-C , 19-H ) :   0.9338 B(  8-O , 20-H ) :   0.8400

MP2 TOTAL ENERGY:     -460.620004510 Eh
FINAL SINGLE POINT ENERGY      -460.620004510378

DIPOLE MOMENT
-------------
                                X             Y             Z
Electronic contribution:     -0.56725      -5.85072      -2.13400
Nuclear contribution   :      0.11261       7.11728       2.93431
                        -----------------------------------------
Total Dipole Moment    :     -0.45464       1.26657       0.80031
                        -----------------------------------------
Magnitude (a.u.)       :      1.56569
Magnitude (Debye)      :      3.97967

                             ****ORCA TERMINATED NORMALLY****
TOTAL RUN TIME: 0 days 0 hours 28 minutes 3 seconds 979 msec
