                         Program Version 3.0.3 - RELEASE   -
|  1> ! RI-MP2 RIJK def2-TZVP def2-TZVP/C def2-TZVP/JK TIGHTSCF
|  2> % maxcore 2000
|  3> % mp2 density relaxed end
|  4> *xyz 0 1
|  5>  C       -0.0966643181     1.5868187752    -0.0147022172
|  6>  C        0.0831617153     0.0694542398    -0.0115379391
|  7>  C        0.8721080775    -0.5051506926    -1.2247538790
|  8>  O        1.8858480178     0.3760574044    -1.6845979996
|  9>  C        1.4768148138    -1.8244848868    -0.6882486041
| 10>  C        1.6205572227    -1.5502490953     0.7863245853
| 11>  C        0.8638570232    -0.5088363636     1.1735621593
| 12>  C        0.7244823018    -0.0146455207     2.4920780678
| 13>  C        0.5739045791     0.4415697548     3.5979008588
| 14>  H        0.8650575544     2.1034696551    -0.0595654587
| 15>  H       -0.6820407079     1.9032374196    -0.8832281990
| 16>  H       -0.6182598534     1.9124586773     0.8895268623
| 17>  H       -0.9142054589    -0.3955615625    -0.0069722998
| 18>  H        0.2225886564    -0.6608164919    -2.0898363939
| 19>  H        2.5096706352     0.5057072120    -0.9604675140
| 20>  H        0.8007385286    -2.6748882192    -0.8604085219
| 21>  H        2.4178615976    -2.0597957632    -1.1963404277
| 22>  H        2.2280879015    -2.1496860112     1.4539307788
| 23>  H        0.4507792533     0.8309907389     4.5779414818
| 24> *
| 25>
| 26>                          ****END OF INPUT****

CARTESIAN COORDINATES (ANGSTROEM)
---------------------------------
  C     -0.096664    1.586819   -0.014702
  C      0.083162    0.069454   -0.011538
  C      0.872108   -0.505151   -1.224754
  O      1.885848    0.376057   -1.684598
  C      1.476815   -1.824485   -0.688249
  C      1.620557   -1.550249    0.786325
  C      0.863857   -0.508836    1.173562
  C      0.724482   -0.014646    2.492078
  C      0.573905    0.441570    3.597901
  H      0.865058    2.103470   -0.059565
  H     -0.682041    1.903237   -0.883228
  H     -0.618260    1.912459    0.889527
  H     -0.914205   -0.395562   -0.006972
  H      0.222589   -0.660816   -2.089836
  H      2.509671    0.505707   -0.960468
  H      0.800739   -2.674888   -0.860409
  H      2.417862   -2.059796   -1.196340
  H      2.228088   -2.149686    1.453931
  H      0.450779    0.830991    4.577941

 Total Charge           Charge          ....    0
 Multiplicity           Mult            ....    1
 Number of Electrons    NEL             ....   66
 Basis Dimension        Dim             ....  339

ORBITAL ENERGIES
----------------

  NO   OCC          E(Eh)            E(eV)
   0   2.0000     -20.554687      -559.3215
   1   2.0000     -11.284606      -307.0697
   2   2.0000     -11.256292      -306.2993
   3   2.0000     -11.246231      -306.0255
   4   2.0000     -11.240766      -305.8768
   5   2.0000     -11.240540      -305.8706
   6   2.0000     -11.234606      -305.7092
   7   2.0000     -11.231307      -305.6194
   8   2.0000     -11.212864      -305.1175
   9   2.0000      -1.363908       -37.1138
  10   2.0000      -1.152143       -31.3514
  11   2.0000      -1.043241       -28.3880
  12   2.0000      -1.019312       -27.7369
  13   2.0000      -0.964696       -26.2507
  14   2.0000      -0.894440       -24.3389
  15   2.0000      -0.800835       -21.7918
  16   2.0000      -0.794884       -21.6299
  17   2.0000      -0.711208       -19.3530
  18   2.0000      -0.697416       -18.9777
  19   2.0000      -0.648805       -17.6549
  20   2.0000      -0.642542       -17.4844
  21   2.0000      -0.615100       -16.7377
  22   2.0000      -0.578582       -15.7440
  23   2.0000      -0.560863       -15.2619
  24   2.0000      -0.542616       -14.7653
  25   2.0000      -0.518913       -14.1203
  26   2.0000      -0.512717       -13.9517
  27   2.0000      -0.491059       -13.3624
  28   2.0000      -0.483494       -13.1566
  29   2.0000      -0.446264       -12.1435
  30   2.0000      -0.430591       -11.7170
  31   2.0000      -0.392403       -10.6778
  32   2.0000      -0.331043        -9.0081
  33   0.0000       0.104761         2.8507
  34   0.0000       0.135515         3.6876
  35   0.0000       0.155709         4.2371
  36   0.0000       0.159200         4.3321
  37   0.0000       0.165274         4.4973

MULLIKEN ATOMIC CHARGES
-----------------------
   0 C :   -0.356663
   1 C :   -0.080984
   2 C :    0.055108
   3 O :   -0.462193
   4 C :   -0.187684
   5 C :   -0.224295
   6 C :   -0.183428
   7 C :    0.053147
   8 C :   -0.132059
   9 H :    0.114012
  10 H :    0.131889
  11 H :    0.143407
  12 H :    0.102557
  13 H :    0.110533
  14 H :    0.319306
  15 H :    0.122294
  16 H :    0.141383
  17 H :    0.140786
  18 H :    0.192886
Sum of atomic charges:   -0.0000000

LOEWDIN ATOMIC CHARGES
----------------------
   0 C :   -0.283940
   1 C :   -0.205269
   2 C :   -0.294431
   3 O :   -0.010326
   4 C :   -0.228697
   5 C :   -0.104752
   6 C :   -0.147163
   7 C :   -0.071943
   8 C :   -0.077402
   9 H :    0.124006
  10 H :    0.127502
  11 H :    0.128342
  12 H :    0.164066
  13 H :    0.141071
  14 H :    0.177990
  15 H :    0.147969
  16 H :    0.142793
  17 H :    0.142305
  18 H :    0.127879

  Mayer bond orders larger than 0.1
B(  0-C ,  1-C ) :   0.9364 B(  0-C ,  9-H ) :   0.9216 B(  0-C , 10-H ) :   0.9355
B(  0-C , 11-H ) :   0.9362 B(  1-C ,  2-C ) :   0.9309 B(  1-C ,  6-C ) :   0.9155
B(  1-C , 12-H ) :   0.8961 B(  2-C ,  3-O ) :   0.9344 B(  2-C ,  4-C ) :   0.9328
B(  2-C , 13-H ) :   0.9295 B(  3-O , 14-H ) :   0.8371 B(  4-C ,  5-C ) :   0.9366
B(  4-C , 15-H ) :   0.8978 B(  4-C , 16-H ) :   0.9289 B(  5-C ,  6-C ) :   1.6360
B(  5-C , 17-H ) :   0.9274 B(  6-C ,  7-C ) :   1.1518 B(  6-C ,  8-C ) :  -0.1506
B(  7-C ,  8-C ) :   2.5940 B(  8-C , 18-H ) :   0.8790

MP2 TOTAL ENERGY:     -385.190792570 Eh
FINAL SINGLE POINT ENERGY      -385.190792569945

DIPOLE MOMENT
-------------
                                X             Y             Z
Electronic contribution:      1.58879      -1.40971       3.20142
Nuclear contribution   :     -1.67927       1.08327      -2.85300
                        -----------------------------------------
Total Dipole Moment    :     -0.09047      -0.32644       0.34843
                        -----------------------------------------
Magnitude (a.u.)       :      0.48595
Magnitude (Debye)      :      1.23519

                             ****ORCA TERMINATED NORMALLY****
TOTAL RUN TIME: 0 days 0 hours 19 minutes 28 seconds 73 msec
