                         Program Version 3.0.3 - RELEASE   -
|  1> ! RI-MP2 RIJK def2-TZVP def2-TZVP/C def2-TZVP/JK TIGHTSCF
|  2> % maxcore 2000
|  3> % mp2 density relaxed end
|  4> *xyz 0 1
|  5>  C        0.3863273163     1.6187564963     0.1569754530
|  6>  C        0.0591508768     0.1262675546     0.0796591665
|  7>  C        0.5830105908    -0.5403679618    -1.1935931235
|  8>  C        0.3414716008    -2.0800654918    -1.2599665153
|  9>  N        0.0282608772    -2.2551746564    -2.6816815741
| 10>  C       -0.3320654477    -1.0105314783    -3.1473648726
| 11>  C       -1.0180206970    -0.8713282526    -4.4572876373
| 12>  O       -1.3627541972    -1.8214693042    -5.1187371352
| 13>  N       -0.0540408251     0.0048110910    -2.4131753117
| 14>  H        1.4692587629     1.7854396868     0.1655925109
| 15>  H       -0.0260682984     2.1476686645    -0.7059287547
| 16>  H       -0.0269012257     2.0649556929     1.0664468332
| 17>  H        0.4848794832    -0.3988351723     0.9448852873
| 18>  H       -1.0268497898    -0.0237960038     0.1263079444
| 19>  H        1.6609240646    -0.3340879191    -1.2785830793
| 20>  H        1.2181904801    -2.6616307649    -0.9646901109
| 21>  H       -0.5024558154    -2.3774464613    -0.6190200361
| 22>  H       -0.4961409821    -3.0519112937    -3.0118735730
| 23>  H       -1.2009031844     0.1775941441    -4.7579749914
| 24> *
| 25>
| 26>                          ****END OF INPUT****

CARTESIAN COORDINATES (ANGSTROEM)
---------------------------------
  C      0.386327    1.618756    0.156975
  C      0.059151    0.126268    0.079659
  C      0.583011   -0.540368   -1.193593
  C      0.341472   -2.080065   -1.259967
  N      0.028261   -2.255175   -2.681682
  C     -0.332065   -1.010531   -3.147365
  C     -1.018021   -0.871328   -4.457288
  O     -1.362754   -1.821469   -5.118737
  N     -0.054041    0.004811   -2.413175
  H      1.469259    1.785440    0.165593
  H     -0.026068    2.147669   -0.705929
  H     -0.026901    2.064956    1.066447
  H      0.484879   -0.398835    0.944885
  H     -1.026850   -0.023796    0.126308
  H      1.660924   -0.334088   -1.278583
  H      1.218190   -2.661631   -0.964690
  H     -0.502456   -2.377446   -0.619020
  H     -0.496141   -3.051911   -3.011874
  H     -1.200903    0.177594   -4.757975

 Total Charge           Charge          ....    0
 Multiplicity           Mult            ....    1
 Number of Electrons    NEL             ....   68
 Basis Dimension        Dim             ....  339

ORBITAL ENERGIES
----------------

  NO   OCC          E(Eh)            E(eV)
   0   2.0000     -20.580010      -560.0105
   1   2.0000     -15.579955      -423.9521
   2   2.0000     -15.557962      -423.3537
   3   2.0000     -11.349223      -308.8281
   4   2.0000     -11.317821      -307.9736
   5   2.0000     -11.271983      -306.7262
   6   2.0000     -11.267061      -306.5923
   7   2.0000     -11.227408      -305.5133
   8   2.0000     -11.212071      -305.0960
   9   2.0000      -1.416473       -38.5442
  10   2.0000      -1.314620       -35.7726
  11   2.0000      -1.165007       -31.7015
  12   2.0000      -1.071999       -29.1706
  13   2.0000      -0.995091       -27.0778
  14   2.0000      -0.904231       -24.6054
  15   2.0000      -0.869485       -23.6599
  16   2.0000      -0.795242       -21.6396
  17   2.0000      -0.774646       -21.0792
  18   2.0000      -0.727614       -19.7994
  19   2.0000      -0.681250       -18.5378
  20   2.0000      -0.657381       -17.8882
  21   2.0000      -0.623920       -16.9777
  22   2.0000      -0.596895       -16.2423
  23   2.0000      -0.587903       -15.9977
  24   2.0000      -0.572651       -15.5826
  25   2.0000      -0.561940       -15.2912
  26   2.0000      -0.542198       -14.7539
  27   2.0000      -0.507041       -13.7973
  28   2.0000      -0.495453       -13.4820
  29   2.0000      -0.487515       -13.2659
  30   2.0000      -0.476127       -12.9561
  31   2.0000      -0.451736       -12.2923
  32   2.0000      -0.431333       -11.7372
  33   2.0000      -0.355547        -9.6749
  34   0.0000       0.074881         2.0376
  35   0.0000       0.134102         3.6491
  36   0.0000       0.151929         4.1342
  37   0.0000       0.167020         4.5448
  38   0.0000       0.170052         4.6273

MULLIKEN ATOMIC CHARGES
-----------------------
   0 C :   -0.396148
   1 C :   -0.192927
   2 C :    0.059397
   3 C :   -0.151423
   4 N :   -0.329461
   5 C :    0.150834
   6 C :    0.090051
   7 O :   -0.275914
   8 N :   -0.273643
   9 H :    0.117945
  10 H :    0.148256
  11 H :    0.131923
  12 H :    0.109838
  13 H :    0.105336
  14 H :    0.100384
  15 H :    0.128981
  16 H :    0.116857
  17 H :    0.249166
  18 H :    0.110550
Sum of atomic charges:    0.0000000

LOEWDIN ATOMIC CHARGES
----------------------
   0 C :   -0.316356
   1 C :   -0.278104
   2 C :   -0.267453
   3 C :   -0.241852
   4 N :    0.089092
   5 C :   -0.363644
   6 C :   -0.248597
   7 O :    0.138817
   8 N :    0.124421
   9 H :    0.120627
  10 H :    0.127423
  11 H :    0.120600
  12 H :    0.138766
  13 H :    0.137806
  14 H :    0.151208
  15 H :    0.129260
  16 H :    0.127164
  17 H :    0.184724
  18 H :    0.126100

  Mayer bond orders larger than 0.1
B(  0-C ,  1-C ) :   0.9273 B(  0-C ,  9-H ) :   0.9367 B(  0-C , 10-H ) :   0.9365
B(  0-C , 11-H ) :   0.9391 B(  1-C ,  2-C ) :   0.9271 B(  1-C , 12-H ) :   0.9344
B(  1-C , 13-H ) :   0.9198 B(  2-C ,  3-C ) :   0.9105 B(  2-C ,  8-N ) :   0.8830
B(  2-C , 14-H ) :   0.9113 B(  3-C ,  4-N ) :   0.9260 B(  3-C , 15-H ) :   0.9186
B(  3-C , 16-H ) :   0.9367 B(  4-N ,  5-C ) :   1.1359 B(  4-N , 17-H ) :   0.8576
B(  5-C ,  6-C ) :   0.8498 B(  5-C ,  8-N ) :   1.7895 B(  6-C ,  7-O ) :   1.9595
B(  6-C , 18-H ) :   0.9579

MP2 TOTAL ENERGY:     -418.525732066 Eh
FINAL SINGLE POINT ENERGY      -418.525732066317

DIPOLE MOMENT
-------------
                                X             Y             Z
Electronic contribution:     -2.77308      -4.99366     -11.35928
Nuclear contribution   :      2.95570       4.64776      12.32411
                        -----------------------------------------
Total Dipole Moment    :      0.18262      -0.34590       0.96484
                        -----------------------------------------
Magnitude (a.u.)       :      1.04111
Magnitude (Debye)      :      2.64629

                             ****ORCA TERMINATED NORMALLY****
TOTAL RUN TIME: 0 days 0 hours 28 minutes 24 seconds 48 msec
