                         Program Version 3.0.3 - RELEASE   -
|  1> ! RI-MP2 RIJK def2-TZVP def2-TZVP/C def2-TZVP/JK TIGHTSCF
|  2> % maxcore 2000
|  3> % mp2 density relaxed end
|  4> *xyz 0 1
|  5>  C       -0.1237860116     1.3957021042    -0.0858338714
|  6>  C        0.0069730000    -0.0960583618     0.0169025459
|  7>  N        0.5196526247    -0.6661729096     1.0251508896
|  8>  O       -0.5040457874    -0.6839423336    -1.1114429270
|  9>  C       -0.5257774700    -2.0866769646    -1.1563420813
| 10>  C       -0.4848036116    -2.6878098474    -2.5228518895
| 11>  C        0.7099389266    -2.8233339832    -1.6020287445
| 12>  H        0.4009265434     1.7606435226    -0.9743944484
| 13>  H       -1.1758123458     1.6777026288    -0.1935244334
| 14>  H        0.2933634885     1.8609804013     0.8059655344
| 15>  H        0.5444367967    -1.6797831808     0.9179437860
| 16>  H       -1.1637898255    -2.5374061755    -0.3997449024
| 17>  H       -1.0988932167    -3.5593522862    -2.7172307072
| 18>  H       -0.3970828146    -1.9953403163    -3.3518871006
| 19>  H        1.5818353467    -2.2207166012    -1.8283919698
| 20>  H        0.9253416068    -3.7892560266    -1.1586989103
| 21> *
| 22>
| 23>                          ****END OF INPUT****

CARTESIAN COORDINATES (ANGSTROEM)
---------------------------------
  C     -0.123786    1.395702   -0.085834
  C      0.006973   -0.096058    0.016903
  N      0.519653   -0.666173    1.025151
  O     -0.504046   -0.683942   -1.111443
  C     -0.525777   -2.086677   -1.156342
  C     -0.484804   -2.687810   -2.522852
  C      0.709939   -2.823334   -1.602029
  H      0.400927    1.760644   -0.974394
  H     -1.175812    1.677703   -0.193524
  H      0.293363    1.860980    0.805966
  H      0.544437   -1.679783    0.917944
  H     -1.163790   -2.537406   -0.399745
  H     -1.098893   -3.559352   -2.717231
  H     -0.397083   -1.995340   -3.351887
  H      1.581835   -2.220717   -1.828392
  H      0.925342   -3.789256   -1.158699

 Total Charge           Charge          ....    0
 Multiplicity           Mult            ....    1
 Number of Electrons    NEL             ....   54
 Basis Dimension        Dim             ....  271

ORBITAL ENERGIES
----------------

  NO   OCC          E(Eh)            E(eV)
   0   2.0000     -20.597319      -560.4816
   1   2.0000     -15.531049      -422.6213
   2   2.0000     -11.336302      -308.4765
   3   2.0000     -11.299853      -307.4846
   4   2.0000     -11.240149      -305.8600
   5   2.0000     -11.239168      -305.8333
   6   2.0000     -11.226296      -305.4830
   7   2.0000      -1.430465       -38.9249
   8   2.0000      -1.196056       -32.5463
   9   2.0000      -1.143071       -31.1045
  10   2.0000      -0.998084       -27.1592
  11   2.0000      -0.860016       -23.4022
  12   2.0000      -0.840686       -22.8762
  13   2.0000      -0.763055       -20.7638
  14   2.0000      -0.721085       -19.6217
  15   2.0000      -0.680965       -18.5300
  16   2.0000      -0.652497       -17.7554
  17   2.0000      -0.616624       -16.7792
  18   2.0000      -0.594454       -16.1759
  19   2.0000      -0.556110       -15.1325
  20   2.0000      -0.546326       -14.8663
  21   2.0000      -0.530302       -14.4303
  22   2.0000      -0.523490       -14.2449
  23   2.0000      -0.448086       -12.1930
  24   2.0000      -0.433082       -11.7848
  25   2.0000      -0.426094       -11.5946
  26   2.0000      -0.399207       -10.8630
  27   0.0000       0.139715         3.8018
  28   0.0000       0.156388         4.2555
  29   0.0000       0.166117         4.5203
  30   0.0000       0.168171         4.5762
  31   0.0000       0.185394         5.0448

MULLIKEN ATOMIC CHARGES
-----------------------
   0 C :   -0.384375
   1 C :    0.225558
   2 N :   -0.392555
   3 O :   -0.245266
   4 C :   -0.059472
   5 C :   -0.248767
   6 C :   -0.255603
   7 H :    0.139184
   8 H :    0.140940
   9 H :    0.153784
  10 H :    0.220838
  11 H :    0.139108
  12 H :    0.136376
  13 H :    0.143713
  14 H :    0.149735
  15 H :    0.136802
Sum of atomic charges:   -0.0000000

LOEWDIN ATOMIC CHARGES
----------------------
   0 C :   -0.267603
   1 C :   -0.426378
   2 N :   -0.060530
   3 O :    0.264746
   4 C :   -0.308069
   5 C :   -0.221226
   6 C :   -0.233620
   7 H :    0.134505
   8 H :    0.135004
   9 H :    0.136662
  10 H :    0.160762
  11 H :    0.137209
  12 H :    0.134491
  13 H :    0.140931
  14 H :    0.140355
  15 H :    0.132761

  Mayer bond orders larger than 0.1
B(  0-C ,  1-C ) :   0.9160 B(  0-C ,  7-H ) :   0.9238 B(  0-C ,  8-H ) :   0.9240
B(  0-C ,  9-H ) :   0.9436 B(  1-C ,  2-N ) :   1.9491 B(  1-C ,  3-O ) :   1.0413
B(  2-N , 10-H ) :   0.8708 B(  3-O ,  4-C ) :   0.9139 B(  4-C ,  5-C ) :   0.9033
B(  4-C ,  6-C ) :   0.8889 B(  4-C , 11-H ) :   0.9334 B(  5-C ,  6-C ) :   0.9018
B(  5-C , 12-H ) :   0.9266 B(  5-C , 13-H ) :   0.9241 B(  6-C , 14-H ) :   0.9213
B(  6-C , 15-H ) :   0.9218

MP2 TOTAL ENERGY:     -325.213684014 Eh
FINAL SINGLE POINT ENERGY      -325.213684014130

DIPOLE MOMENT
-------------
                                X             Y             Z
Electronic contribution:     -0.64579       0.24841       1.14895
Nuclear contribution   :      0.41415      -0.75646      -1.81583
                        -----------------------------------------
Total Dipole Moment    :     -0.23164      -0.50805      -0.66688
                        -----------------------------------------
Magnitude (a.u.)       :      0.86977
Magnitude (Debye)      :      2.21078

                             ****ORCA TERMINATED NORMALLY****
TOTAL RUN TIME: 0 days 0 hours 7 minutes 43 seconds 360 msec
