                         Program Version 3.0.3 - RELEASE   -
|  1> ! RI-MP2 RIJK def2-TZVP def2-TZVP/C def2-TZVP/JK TIGHTSCF
|  2> % maxcore 2000
|  3> % mp2 density relaxed end
|  4> *xyz 0 1
|  5>  O       -0.1200116748    -0.0202926002     0.2549452014
|  6>  C       -0.0360617576     1.1676565891     0.1187508778
|  7>  C       -1.2291953183     2.1825067608     0.1238527862
|  8>  C       -0.5943193132     3.4600094493     0.6566718996
|  9>  C        0.7300234925     3.3579583816     0.5479487471
| 10>  C        2.0707668415     3.6338310098     1.1793875837
| 11>  C        2.2804641967     2.5322179139     2.2023903829
| 12>  C        2.5189170233     2.2099205427     0.7583084809
| 13>  C        1.2020620030     2.0635407264    -0.0481993969
| 14>  H       -1.6273032262     2.2664285377    -0.8980824309
| 15>  H       -2.0470493727     1.8077229589     0.7481450897
| 16>  H       -1.1620178023     4.2388512826     1.1523104133
| 17>  H        2.6342285400     4.5573124621     1.2004007929
| 18>  H        3.1820630889     2.6294939000     2.7998838232
| 19>  H        1.4302255707     2.1220665776     2.7392829076
| 20>  H        3.4883039222     1.8924790141     0.3971302860
| 21>  H        1.4154862164     2.1512357636    -1.1226806745
| 22> *
| 23>
| 24>                          ****END OF INPUT****

CARTESIAN COORDINATES (ANGSTROEM)
---------------------------------
  O     -0.120012   -0.020293    0.254945
  C     -0.036062    1.167657    0.118751
  C     -1.229195    2.182507    0.123853
  C     -0.594319    3.460009    0.656672
  C      0.730023    3.357958    0.547949
  C      2.070767    3.633831    1.179388
  C      2.280464    2.532218    2.202390
  C      2.518917    2.209921    0.758308
  C      1.202062    2.063541   -0.048199
  H     -1.627303    2.266429   -0.898082
  H     -2.047049    1.807723    0.748145
  H     -1.162018    4.238851    1.152310
  H      2.634229    4.557312    1.200401
  H      3.182063    2.629494    2.799884
  H      1.430226    2.122067    2.739283
  H      3.488304    1.892479    0.397130
  H      1.415486    2.151236   -1.122681

 Total Charge           Charge          ....    0
 Multiplicity           Mult            ....    1
 Number of Electrons    NEL             ....   64
 Basis Dimension        Dim             ....  327

ORBITAL ENERGIES
----------------

  NO   OCC          E(Eh)            E(eV)
   0   2.0000     -20.549767      -559.1876
   1   2.0000     -11.333201      -308.3921
   2   2.0000     -11.257763      -306.3393
   3   2.0000     -11.256202      -306.2968
   4   2.0000     -11.246776      -306.0403
   5   2.0000     -11.246042      -306.0204
   6   2.0000     -11.245663      -306.0100
   7   2.0000     -11.244432      -305.9765
   8   2.0000     -11.238160      -305.8059
   9   2.0000      -1.393594       -37.9216
  10   2.0000      -1.219725       -33.1904
  11   2.0000      -1.107051       -30.1244
  12   2.0000      -0.976202       -26.5638
  13   2.0000      -0.944471       -25.7004
  14   2.0000      -0.846314       -23.0294
  15   2.0000      -0.825582       -22.4652
  16   2.0000      -0.743881       -20.2420
  17   2.0000      -0.715301       -19.4643
  18   2.0000      -0.687572       -18.7098
  19   2.0000      -0.659915       -17.9572
  20   2.0000      -0.619050       -16.8452
  21   2.0000      -0.609504       -16.5854
  22   2.0000      -0.591600       -16.0983
  23   2.0000      -0.565877       -15.3983
  24   2.0000      -0.558582       -15.1998
  25   2.0000      -0.523152       -14.2357
  26   2.0000      -0.498082       -13.5535
  27   2.0000      -0.477685       -12.9985
  28   2.0000      -0.451013       -12.2727
  29   2.0000      -0.434518       -11.8238
  30   2.0000      -0.371588       -10.1114
  31   2.0000      -0.344080        -9.3629
  32   0.0000       0.128177         3.4879
  33   0.0000       0.131485         3.5779
  34   0.0000       0.150000         4.0817
  35   0.0000       0.160974         4.3803
  36   0.0000       0.164491         4.4760

MULLIKEN ATOMIC CHARGES
-----------------------
   0 O :   -0.246674
   1 C :    0.111598
   2 C :   -0.168395
   3 C :   -0.203165
   4 C :   -0.067786
   5 C :   -0.136277
   6 C :   -0.240128
   7 C :   -0.135141
   8 C :   -0.012506
   9 H :    0.135419
  10 H :    0.137323
  11 H :    0.139235
  12 H :    0.145620
  13 H :    0.133718
  14 H :    0.142911
  15 H :    0.138358
  16 H :    0.125892
Sum of atomic charges:    0.0000000

LOEWDIN ATOMIC CHARGES
----------------------
   0 O :    0.165352
   1 C :   -0.269740
   2 C :   -0.204263
   3 C :   -0.133502
   4 C :   -0.118201
   5 C :   -0.133445
   6 C :   -0.188233
   7 C :   -0.141925
   8 C :   -0.139767
   9 H :    0.150540
  10 H :    0.146676
  11 H :    0.136976
  12 H :    0.139209
  13 H :    0.142045
  14 H :    0.135928
  15 H :    0.137526
  16 H :    0.174825

  Mayer bond orders larger than 0.1
B(  0-O ,  1-C ) :   2.0882 B(  1-C ,  2-C ) :   0.9072 B(  1-C ,  8-C ) :   0.8517
B(  2-C ,  3-C ) :   0.9048 B(  2-C ,  8-C ) :  -0.1059 B(  2-C ,  9-H ) :   0.8887
B(  2-C , 10-H ) :   0.9095 B(  3-C ,  4-C ) :   1.6770 B(  3-C , 11-H ) :   0.9121
B(  4-C ,  5-C ) :   0.9227 B(  4-C ,  8-C ) :   0.9339 B(  5-C ,  6-C ) :   0.8653
B(  5-C ,  7-C ) :   0.8618 B(  5-C , 12-H ) :   0.9179 B(  6-C ,  7-C ) :   0.8868
B(  6-C , 13-H ) :   0.9255 B(  6-C , 14-H ) :   0.9203 B(  7-C ,  8-C ) :   0.8947
B(  7-C , 15-H ) :   0.9287 B(  8-C , 16-H ) :   0.8812

MP2 TOTAL ENERGY:     -383.966755449 Eh
FINAL SINGLE POINT ENERGY      -383.966755448852

DIPOLE MOMENT
-------------
                                X             Y             Z
Electronic contribution:     -1.01089      -2.51756      -1.68202
Nuclear contribution   :      1.29949       3.48721       1.72432
                        -----------------------------------------
Total Dipole Moment    :      0.28860       0.96964       0.04230
                        -----------------------------------------
Magnitude (a.u.)       :      1.01256
Magnitude (Debye)      :      2.57373

                             ****ORCA TERMINATED NORMALLY****
TOTAL RUN TIME: 0 days 0 hours 17 minutes 55 seconds 744 msec
