                         Program Version 3.0.3 - RELEASE   -
|  1> ! RI-MP2 RIJK def2-TZVP def2-TZVP/C def2-TZVP/JK TIGHTSCF
|  2> % maxcore 2000
|  3> % mp2 density relaxed end
|  4> *xyz 0 1
|  5>  C        0.0164545493     1.3929359241    -0.0332699097
|  6>  O        0.0068782143    -0.0343788176     0.0195613985
|  7>  C        0.6522330222    -0.5595520291     1.0945683854
|  8>  O        1.1926299066     0.1227421541     1.9411502874
|  9>  N        0.6115632914    -1.9243598642     1.0934968165
| 10>  C        1.2557400179    -2.6417606168     2.1766997280
| 11>  C       -0.0381025290    -2.7277273329     0.0755875676
| 12>  H        1.0391841991     1.7751556596    -0.0833720925
| 13>  H       -0.5323479902     1.6568242467    -0.9382524393
| 14>  H       -0.4723206509     1.8196971320     0.8462442683
| 15>  H        0.5281688882    -3.2586815298     2.7201491164
| 16>  H        2.0413127951    -3.3040980208     1.7901061845
| 17>  H        1.6970769108    -1.9180562706     2.8594368131
| 18>  H       -0.4825757342    -2.0869472844    -0.6809675024
| 19>  H        0.6865273296    -3.3976592907    -0.4063165681
| 20>  H       -0.8249591103    -3.3509857495     0.5212012963
| 21> *
| 22>
| 23>                          ****END OF INPUT****

CARTESIAN COORDINATES (ANGSTROEM)
---------------------------------
  C      0.016455    1.392936   -0.033270
  O      0.006878   -0.034379    0.019561
  C      0.652233   -0.559552    1.094568
  O      1.192630    0.122742    1.941150
  N      0.611563   -1.924360    1.093497
  C      1.255740   -2.641761    2.176700
  C     -0.038103   -2.727727    0.075588
  H      1.039184    1.775156   -0.083372
  H     -0.532348    1.656824   -0.938252
  H     -0.472321    1.819697    0.846244
  H      0.528169   -3.258682    2.720149
  H      2.041313   -3.304098    1.790106
  H      1.697077   -1.918056    2.859437
  H     -0.482576   -2.086947   -0.680968
  H      0.686527   -3.397659   -0.406317
  H     -0.824959   -3.350986    0.521201

 Total Charge           Charge          ....    0
 Multiplicity           Mult            ....    1
 Number of Electrons    NEL             ....   56
 Basis Dimension        Dim             ....  271

ORBITAL ENERGIES
----------------

  NO   OCC          E(Eh)            E(eV)
   0   2.0000     -20.595150      -560.4225
   1   2.0000     -20.514830      -558.2369
   2   2.0000     -15.585454      -424.1018
   3   2.0000     -11.393319      -310.0280
   4   2.0000     -11.279948      -306.9430
   5   2.0000     -11.261639      -306.4448
   6   2.0000     -11.254625      -306.2539
   7   2.0000      -1.456563       -39.6351
   8   2.0000      -1.346650       -36.6442
   9   2.0000      -1.248538       -33.9745
  10   2.0000      -0.986797       -26.8521
  11   2.0000      -0.968794       -26.3622
  12   2.0000      -0.906707       -24.6727
  13   2.0000      -0.761890       -20.7321
  14   2.0000      -0.724645       -19.7186
  15   2.0000      -0.682615       -18.5749
  16   2.0000      -0.676176       -18.3997
  17   2.0000      -0.632851       -17.2207
  18   2.0000      -0.611338       -16.6354
  19   2.0000      -0.594299       -16.1717
  20   2.0000      -0.560182       -15.2433
  21   2.0000      -0.556372       -15.1397
  22   2.0000      -0.542727       -14.7683
  23   2.0000      -0.538736       -14.6598
  24   2.0000      -0.518758       -14.1161
  25   2.0000      -0.461524       -12.5587
  26   2.0000      -0.447136       -12.1672
  27   2.0000      -0.376551       -10.2465
  28   0.0000       0.134633         3.6635
  29   0.0000       0.161787         4.4024
  30   0.0000       0.179558         4.8860
  31   0.0000       0.197529         5.3750
  32   0.0000       0.200291         5.4502

MULLIKEN ATOMIC CHARGES
-----------------------
   0 C :   -0.207444
   1 O :   -0.304660
   2 C :    0.399509
   3 O :   -0.412061
   4 N :   -0.129585
   5 C :   -0.312803
   6 C :   -0.315482
   7 H :    0.137159
   8 H :    0.136046
   9 H :    0.137179
  10 H :    0.128750
  11 H :    0.128767
  12 H :    0.182660
  13 H :    0.170934
  14 H :    0.130515
  15 H :    0.130515
Sum of atomic charges:   -0.0000000

LOEWDIN ATOMIC CHARGES
----------------------
   0 C :   -0.314934
   1 O :    0.202518
   2 C :   -0.570512
   3 O :    0.061844
   4 N :    0.136038
   5 C :   -0.288685
   6 C :   -0.295200
   7 H :    0.113166
   8 H :    0.112364
   9 H :    0.113172
  10 H :    0.115960
  11 H :    0.115965
  12 H :    0.135795
  13 H :    0.129605
  14 H :    0.116461
  15 H :    0.116443

  Mayer bond orders larger than 0.1
B(  0-C ,  1-O ) :   0.8559 B(  0-C ,  7-H ) :   0.9416 B(  0-C ,  8-H ) :   0.9330
B(  0-C ,  9-H ) :   0.9416 B(  1-O ,  2-C ) :   1.0551 B(  2-C ,  3-O ) :   1.8410
B(  2-C ,  4-N ) :   1.1919 B(  4-N ,  5-C ) :   0.8795 B(  4-N ,  6-C ) :   0.8885
B(  5-C , 10-H ) :   0.9334 B(  5-C , 11-H ) :   0.9334 B(  5-C , 12-H ) :   0.9236
B(  6-C , 13-H ) :   0.9274 B(  6-C , 14-H ) :   0.9328 B(  6-C , 15-H ) :   0.9328

MP2 TOTAL ENERGY:     -362.368680357 Eh
FINAL SINGLE POINT ENERGY      -362.368680357485

DIPOLE MOMENT
-------------
                                X             Y             Z
Electronic contribution:      0.60244       3.14005       0.82774
Nuclear contribution   :     -0.97639      -3.74863      -1.40676
                        -----------------------------------------
Total Dipole Moment    :     -0.37395      -0.60858      -0.57903
                        -----------------------------------------
Magnitude (a.u.)       :      0.91950
Magnitude (Debye)      :      2.33718

                             ****ORCA TERMINATED NORMALLY****
TOTAL RUN TIME: 0 days 0 hours 8 minutes 9 seconds 131 msec
