                         Program Version 3.0.3 - RELEASE   -
|  1> ! RI-MP2 RIJK def2-TZVP def2-TZVP/C def2-TZVP/JK TIGHTSCF
|  2> % maxcore 2000
|  3> % mp2 density relaxed end
|  4> *xyz 0 1
|  5>  C       -0.5593161561     1.3458326704    -0.1437748774
|  6>  N       -0.4260953533    -0.1037466815    -0.0961623908
|  7>  C        0.9727022842    -0.5143764681    -0.1238019235
|  8>  C       -1.1352703562    -0.6927959529     1.0299609951
|  9>  C       -1.3962927565    -2.1902526263     0.8440292929
| 10>  O       -1.1870795919    -2.9856831471     1.7300748687
| 11>  C       -1.9810816266    -2.6147345159    -0.4976925817
| 12>  C       -1.9944086830    -4.1173036000    -0.6809589493
| 13>  O       -2.9444567251    -4.7381461305    -1.0802272108
| 14>  H       -0.0663305821     1.7281660102    -1.0428675323
| 15>  H       -1.6170944918     1.6209514809    -0.1930080196
| 16>  H       -0.1110495770     1.8529167322     0.7304495271
| 17>  H        1.5434114594    -0.1517879162     0.7510450327
| 18>  H        1.0471698983    -1.6064567471    -0.1382070764
| 19>  H        1.4521745075    -0.1301877688    -1.0287786100
| 20>  H       -0.6220501015    -0.5638688405     1.9987099116
| 21>  H       -2.1180371496    -0.2090875561     1.1108456346
| 22>  H       -3.0013948634    -2.2251495163    -0.5952665752
| 23>  H       -1.3964454020    -2.1402557480    -1.2969278435
| 24>  H       -1.0355745035    -4.6208743385    -0.4351275120
| 25> *
| 26>
| 27>                          ****END OF INPUT****

CARTESIAN COORDINATES (ANGSTROEM)
---------------------------------
  C     -0.559316    1.345833   -0.143775
  N     -0.426095   -0.103747   -0.096162
  C      0.972702   -0.514376   -0.123802
  C     -1.135270   -0.692796    1.029961
  C     -1.396293   -2.190253    0.844029
  O     -1.187080   -2.985683    1.730075
  C     -1.981082   -2.614735   -0.497693
  C     -1.994409   -4.117304   -0.680959
  O     -2.944457   -4.738146   -1.080227
  H     -0.066331    1.728166   -1.042868
  H     -1.617094    1.620951   -0.193008
  H     -0.111050    1.852917    0.730450
  H      1.543411   -0.151788    0.751045
  H      1.047170   -1.606457   -0.138207
  H      1.452175   -0.130188   -1.028779
  H     -0.622050   -0.563869    1.998710
  H     -2.118037   -0.209088    1.110846
  H     -3.001395   -2.225150   -0.595267
  H     -1.396445   -2.140256   -1.296928
  H     -1.035575   -4.620874   -0.435128

 Total Charge           Charge          ....    0
 Multiplicity           Mult            ....    1
 Number of Electrons    NEL             ....   70
 Basis Dimension        Dim             ....  345

ORBITAL ENERGIES
----------------

  NO   OCC          E(Eh)            E(eV)
   0   2.0000     -20.565291      -559.6100
   1   2.0000     -20.558284      -559.4194
   2   2.0000     -15.575398      -423.8281
   3   2.0000     -11.349112      -308.8250
   4   2.0000     -11.335221      -308.4470
   5   2.0000     -11.278685      -306.9086
   6   2.0000     -11.264447      -306.5212
   7   2.0000     -11.263948      -306.5076
   8   2.0000     -11.254544      -306.2517
   9   2.0000      -1.410466       -38.3807
  10   2.0000      -1.396731       -38.0070
  11   2.0000      -1.253684       -34.1145
  12   2.0000      -1.061734       -28.8913
  13   2.0000      -0.996462       -27.1151
  14   2.0000      -0.973268       -26.4840
  15   2.0000      -0.855523       -23.2800
  16   2.0000      -0.816163       -22.2089
  17   2.0000      -0.755904       -20.5692
  18   2.0000      -0.689982       -18.7754
  19   2.0000      -0.681870       -18.5546
  20   2.0000      -0.672092       -18.2886
  21   2.0000      -0.656482       -17.8638
  22   2.0000      -0.639813       -17.4102
  23   2.0000      -0.622152       -16.9296
  24   2.0000      -0.592973       -16.1356
  25   2.0000      -0.586561       -15.9611
  26   2.0000      -0.569904       -15.5079
  27   2.0000      -0.553826       -15.0704
  28   2.0000      -0.540178       -14.6990
  29   2.0000      -0.533687       -14.5224
  30   2.0000      -0.515285       -14.0216
  31   2.0000      -0.503751       -13.7078
  32   2.0000      -0.444298       -12.0900
  33   2.0000      -0.415666       -11.3109
  34   2.0000      -0.382252       -10.4016
  35   0.0000       0.112974         3.0742
  36   0.0000       0.128319         3.4917
  37   0.0000       0.139855         3.8057
  38   0.0000       0.153292         4.1713
  39   0.0000       0.158030         4.3002

MULLIKEN ATOMIC CHARGES
-----------------------
   0 C :   -0.315967
   1 N :   -0.194447
   2 C :   -0.323548
   3 C :   -0.115352
   4 C :    0.120303
   5 O :   -0.269720
   6 C :   -0.194162
   7 C :    0.113296
   8 O :   -0.262303
   9 H :    0.137625
  10 H :    0.136324
  11 H :    0.113954
  12 H :    0.120656
  13 H :    0.140211
  14 H :    0.140446
  15 H :    0.120005
  16 H :    0.139234
  17 H :    0.139027
  18 H :    0.169287
  19 H :    0.085130
Sum of atomic charges:   -0.0000000

LOEWDIN ATOMIC CHARGES
----------------------
   0 C :   -0.326942
   1 N :    0.032381
   2 C :   -0.322148
   3 C :   -0.261737
   4 C :   -0.324064
   5 O :    0.163937
   6 C :   -0.238234
   7 C :   -0.284102
   8 O :    0.135143
   9 H :    0.119894
  10 H :    0.118480
  11 H :    0.105826
  12 H :    0.108681
  13 H :    0.120776
  14 H :    0.120503
  15 H :    0.135018
  16 H :    0.151264
  17 H :    0.162898
  18 H :    0.167725
  19 H :    0.114700

  Mayer bond orders larger than 0.1
B(  0-C ,  1-N ) :   0.9208 B(  0-C ,  9-H ) :   0.9377 B(  0-C , 10-H ) :   0.9383
B(  0-C , 11-H ) :   0.9295 B(  1-N ,  2-C ) :   0.8975 B(  1-N ,  3-C ) :   0.9153
B(  2-C , 12-H ) :   0.9257 B(  2-C , 13-H ) :   0.9340 B(  2-C , 14-H ) :   0.9386
B(  3-C ,  4-C ) :   0.9160 B(  3-C , 15-H ) :   0.9099 B(  3-C , 16-H ) :   0.9059
B(  4-C ,  5-O ) :   2.0174 B(  4-C ,  6-C ) :   0.8975 B(  6-C ,  7-C ) :   0.8677
B(  6-C , 17-H ) :   0.8679 B(  6-C , 18-H ) :   0.8922 B(  7-C ,  8-O ) :   1.9920
B(  7-C , 19-H ) :   0.9355

MP2 TOTAL ENERGY:     -439.561630364 Eh
FINAL SINGLE POINT ENERGY      -439.561630364142

DIPOLE MOMENT
-------------
                                X             Y             Z
Electronic contribution:     -5.74573     -11.19021       0.99795
Nuclear contribution   :      6.50236      12.84092      -1.24768
                        -----------------------------------------
Total Dipole Moment    :      0.75663       1.65071      -0.24973
                        -----------------------------------------
Magnitude (a.u.)       :      1.83295
Magnitude (Debye)      :      4.65899

                             ****ORCA TERMINATED NORMALLY****
TOTAL RUN TIME: 0 days 0 hours 17 minutes 40 seconds 346 msec
