                         Program Version 3.0.3 - RELEASE   -
|  1> ! RI-MP2 RIJK def2-TZVP def2-TZVP/C def2-TZVP/JK TIGHTSCF
|  2> % maxcore 2000
|  3> % mp2 density relaxed end
|  4> *xyz 0 1
|  5>  O        0.2423067105     0.9343649549     0.9226920165
|  6>  C       -0.0470890249     0.1544559241    -0.2306649581
|  7>  C       -1.3986750025    -0.3794118742    -0.1377114856
|  8>  C       -2.5159954001    -0.8292781321    -0.0829887695
|  9>  C       -3.8152068960    -1.3727967152    -0.0042151250
| 10>  C       -5.0049432357    -0.8295570241    -0.4044212788
| 11>  O       -6.0149964788    -1.6644388536    -0.1551647754
| 12>  N       -5.5141626459    -2.8254708124     0.4373542443
| 13>  C       -4.2245923173    -2.6419459267     0.5207964062
| 14>  H        1.1410416185     1.2662117994     0.8266480978
| 15>  H        0.0353710717     0.7549581585    -1.1514297873
| 16>  H        0.6595090911    -0.6851601041    -0.3347479659
| 17>  H       -5.2603151435     0.1123357603    -0.8635652163
| 18>  H       -3.6013015471    -3.4114706748     0.9526509972
| 19> *
| 20>
| 21>                          ****END OF INPUT****

CARTESIAN COORDINATES (ANGSTROEM)
---------------------------------
  O      0.242307    0.934365    0.922692
  C     -0.047089    0.154456   -0.230665
  C     -1.398675   -0.379412   -0.137711
  C     -2.515995   -0.829278   -0.082989
  C     -3.815207   -1.372797   -0.004215
  C     -5.004943   -0.829557   -0.404421
  O     -6.014996   -1.664439   -0.155165
  N     -5.514163   -2.825471    0.437354
  C     -4.224592   -2.641946    0.520796
  H      1.141042    1.266212    0.826648
  H      0.035371    0.754958   -1.151430
  H      0.659509   -0.685160   -0.334748
  H     -5.260315    0.112336   -0.863565
  H     -3.601302   -3.411471    0.952651

 Total Charge           Charge          ....    0
 Multiplicity           Mult            ....    1
 Number of Electrons    NEL             ....   64
 Basis Dimension        Dim             ....  309

ORBITAL ENERGIES
----------------

  NO   OCC          E(Eh)            E(eV)
   0   2.0000     -20.657890      -562.1298
   1   2.0000     -20.575079      -559.8764
   2   2.0000     -15.633325      -425.4044
   3   2.0000     -11.331848      -308.3553
   4   2.0000     -11.318056      -307.9800
   5   2.0000     -11.292179      -307.2758
   6   2.0000     -11.269865      -306.6686
   7   2.0000     -11.247070      -306.0483
   8   2.0000     -11.241567      -305.8986
   9   2.0000      -1.507270       -41.0149
  10   2.0000      -1.379252       -37.5314
  11   2.0000      -1.179826       -32.1047
  12   2.0000      -1.113285       -30.2940
  13   2.0000      -1.049380       -28.5551
  14   2.0000      -0.956636       -26.0314
  15   2.0000      -0.857802       -23.3420
  16   2.0000      -0.831812       -22.6348
  17   2.0000      -0.772587       -21.0232
  18   2.0000      -0.722405       -19.6576
  19   2.0000      -0.681931       -18.5563
  20   2.0000      -0.668978       -18.2038
  21   2.0000      -0.656684       -17.8693
  22   2.0000      -0.647363       -17.6156
  23   2.0000      -0.602773       -16.4023
  24   2.0000      -0.581361       -15.8196
  25   2.0000      -0.545219       -14.8362
  26   2.0000      -0.499419       -13.5899
  27   2.0000      -0.480478       -13.0745
  28   2.0000      -0.477438       -12.9917
  29   2.0000      -0.421357       -11.4657
  30   2.0000      -0.391419       -10.6511
  31   2.0000      -0.342732        -9.3262
  32   0.0000       0.096783         2.6336
  33   0.0000       0.120937         3.2909
  34   0.0000       0.150598         4.0980
  35   0.0000       0.162827         4.4307
  36   0.0000       0.166304         4.5254

MULLIKEN ATOMIC CHARGES
-----------------------
   0 O :   -0.441101
   1 C :   -0.176626
   2 C :    0.012602
   3 C :    0.128397
   4 C :   -0.132311
   5 C :   -0.003428
   6 O :   -0.097591
   7 N :   -0.103165
   8 C :   -0.097995
   9 H :    0.318530
  10 H :    0.130236
  11 H :    0.130665
  12 H :    0.171968
  13 H :    0.159820
Sum of atomic charges:   -0.0000000

LOEWDIN ATOMIC CHARGES
----------------------
   0 O :   -0.039229
   1 C :   -0.336453
   2 C :   -0.042153
   3 C :   -0.032079
   4 C :   -0.194442
   5 C :   -0.211091
   6 O :    0.287086
   7 N :    0.045201
   8 C :   -0.218156
   9 H :    0.175733
  10 H :    0.135849
  11 H :    0.135928
  12 H :    0.144750
  13 H :    0.149057

  Mayer bond orders larger than 0.1
B(  0-O ,  1-C ) :   1.1183 B(  0-O ,  9-H ) :   0.8452 B(  1-C ,  2-C ) :   0.9239
B(  1-C , 10-H ) :   0.9454 B(  1-C , 11-H ) :   0.9449 B(  2-C ,  3-C ) :   2.6361
B(  2-C ,  4-C ) :  -0.1590 B(  3-C ,  4-C ) :   1.0413 B(  4-C ,  5-C ) :   1.4988
B(  4-C ,  8-C ) :   1.2004 B(  5-C ,  6-O ) :   1.1362 B(  5-C ,  7-N ) :   0.1044
B(  5-C , 12-H ) :   0.9067 B(  6-O ,  7-N ) :   0.8879 B(  7-N ,  8-C ) :   1.6007
B(  8-C , 13-H ) :   0.9190

MP2 TOTAL ENERGY:     -435.902276153 Eh
FINAL SINGLE POINT ENERGY      -435.902276152929

DIPOLE MOMENT
-------------
                                X             Y             Z
Electronic contribution:     -6.53644      -2.34752       0.40087
Nuclear contribution   :      7.91643       2.89516      -1.04950
                        -----------------------------------------
Total Dipole Moment    :      1.38000       0.54764      -0.64863
                        -----------------------------------------
Magnitude (a.u.)       :      1.62019
Magnitude (Debye)      :      4.11820

                             ****ORCA TERMINATED NORMALLY****
TOTAL RUN TIME: 0 days 0 hours 12 minutes 31 seconds 701 msec
