                         Program Version 3.0.3 - RELEASE   -
|  1> ! RI-MP2 RIJK def2-TZVP def2-TZVP/C def2-TZVP/JK TIGHTSCF
|  2> % maxcore 2000
|  3> % mp2 density relaxed end
|  4> *xyz 0 1
|  5>  C       -0.0924407464     1.5855094528     0.0121222510
|  6>  C        0.0316007940     0.0690402929    -0.0558988022
|  7>  C       -1.3225105201    -0.6256179901     0.0852080736
|  8>  C        0.8135034216    -0.4311692566    -1.2896565723
|  9>  C        1.7795604904    -1.4543596953    -0.7289103071
| 10>  O        2.4351151237    -2.2737226616    -1.3060316317
| 11>  C        1.7907686940    -1.2439392776     0.8027586109
| 12>  O        2.5082000146    -1.7642493007     1.6037451420
| 13>  O        0.8424143441    -0.3334089622     1.1035299745
| 14>  H        0.8944806986     2.0553507709    -0.0199313608
| 15>  H       -0.6802389164     1.9537486661    -0.8342930413
| 16>  H       -0.5886607743     1.8887129335     0.9378953807
| 17>  H       -1.9953558193    -0.3135363941    -0.7193358107
| 18>  H       -1.2123085820    -1.7135855452     0.0372936744
| 19>  H       -1.7812559213    -0.3698072008     1.0436282727
| 20>  H        0.1790768356    -0.8581183062    -2.0685878428
| 21>  H        1.4005531032     0.3762422542    -1.7432964409
| 22> *
| 23>
| 24>                          ****END OF INPUT****

CARTESIAN COORDINATES (ANGSTROEM)
---------------------------------
  C     -0.092441    1.585509    0.012122
  C      0.031601    0.069040   -0.055899
  C     -1.322511   -0.625618    0.085208
  C      0.813503   -0.431169   -1.289657
  C      1.779560   -1.454360   -0.728910
  O      2.435115   -2.273723   -1.306032
  C      1.790769   -1.243939    0.802759
  O      2.508200   -1.764249    1.603745
  O      0.842414   -0.333409    1.103530
  H      0.894481    2.055351   -0.019931
  H     -0.680239    1.953749   -0.834293
  H     -0.588661    1.888713    0.937895
  H     -1.995356   -0.313536   -0.719336
  H     -1.212309   -1.713586    0.037294
  H     -1.781256   -0.369807    1.043628
  H      0.179077   -0.858118   -2.068588
  H      1.400553    0.376242   -1.743296

 Total Charge           Charge          ....    0
 Multiplicity           Mult            ....    1
 Number of Electrons    NEL             ....   68
 Basis Dimension        Dim             ....  327

ORBITAL ENERGIES
----------------

  NO   OCC          E(Eh)            E(eV)
   0   2.0000     -20.618836      -561.0670
   1   2.0000     -20.590846      -560.3054
   2   2.0000     -20.562481      -559.5336
   3   2.0000     -11.393574      -310.0349
   4   2.0000     -11.366535      -309.2991
   5   2.0000     -11.337261      -308.5026
   6   2.0000     -11.271948      -306.7253
   7   2.0000     -11.248164      -306.0781
   8   2.0000     -11.247249      -306.0532
   9   2.0000      -1.478530       -40.2328
  10   2.0000      -1.427126       -38.8341
  11   2.0000      -1.384784       -37.6819
  12   2.0000      -1.122434       -30.5430
  13   2.0000      -1.044427       -28.4203
  14   2.0000      -0.975275       -26.5386
  15   2.0000      -0.904648       -24.6167
  16   2.0000      -0.836900       -22.7732
  17   2.0000      -0.766785       -20.8653
  18   2.0000      -0.698666       -19.0117
  19   2.0000      -0.696224       -18.9452
  20   2.0000      -0.677028       -18.4229
  21   2.0000      -0.656296       -17.8587
  22   2.0000      -0.634988       -17.2789
  23   2.0000      -0.626927       -17.0596
  24   2.0000      -0.592067       -16.1110
  25   2.0000      -0.588357       -16.0100
  26   2.0000      -0.565155       -15.3786
  27   2.0000      -0.563086       -15.3224
  28   2.0000      -0.543897       -14.8002
  29   2.0000      -0.532826       -14.4989
  30   2.0000      -0.510602       -13.8942
  31   2.0000      -0.499975       -13.6050
  32   2.0000      -0.465043       -12.6545
  33   2.0000      -0.421279       -11.4636
  34   0.0000       0.062437         1.6990
  35   0.0000       0.109574         2.9817
  36   0.0000       0.156504         4.2587
  37   0.0000       0.161986         4.4079
  38   0.0000       0.173963         4.7338

MULLIKEN ATOMIC CHARGES
-----------------------
   0 C :   -0.382685
   1 C :    0.150122
   2 C :   -0.406343
   3 C :   -0.199741
   4 C :    0.095380
   5 O :   -0.221872
   6 C :    0.245376
   7 O :   -0.252044
   8 O :   -0.203434
   9 H :    0.141202
  10 H :    0.135835
  11 H :    0.148468
  12 H :    0.138633
  13 H :    0.143830
  14 H :    0.151105
  15 H :    0.158913
  16 H :    0.157254
Sum of atomic charges:    0.0000000

LOEWDIN ATOMIC CHARGES
----------------------
   0 C :   -0.264129
   1 C :   -0.345281
   2 C :   -0.262586
   3 C :   -0.182601
   4 C :   -0.290936
   5 O :    0.205672
   6 C :   -0.455043
   7 O :    0.169690
   8 O :    0.302787
   9 H :    0.131146
  10 H :    0.133338
  11 H :    0.133944
  12 H :    0.132602
  13 H :    0.132237
  14 H :    0.134496
  15 H :    0.158969
  16 H :    0.165694

  Mayer bond orders larger than 0.1
B(  0-C ,  1-C ) :   0.9215 B(  0-C ,  9-H ) :   0.9294 B(  0-C , 10-H ) :   0.9273
B(  0-C , 11-H ) :   0.9332 B(  1-C ,  2-C ) :   0.9526 B(  1-C ,  3-C ) :   0.8837
B(  1-C ,  8-O ) :   0.8233 B(  2-C , 12-H ) :   0.9292 B(  2-C , 13-H ) :   0.9174
B(  2-C , 14-H ) :   0.9327 B(  3-C ,  4-C ) :   0.8908 B(  3-C , 15-H ) :   0.8988
B(  3-C , 16-H ) :   0.8944 B(  4-C ,  5-O ) :   2.0165 B(  4-C ,  6-C ) :   0.8729
B(  6-C ,  7-O ) :   2.0335 B(  6-C ,  8-O ) :   1.1269

MP2 TOTAL ENERGY:     -458.286970367 Eh
FINAL SINGLE POINT ENERGY      -458.286970367200

DIPOLE MOMENT
-------------
                                X             Y             Z
Electronic contribution:      9.27399      -6.92014       2.47639
Nuclear contribution   :    -10.81741       8.19605      -3.42764
                        -----------------------------------------
Total Dipole Moment    :     -1.54342       1.27591      -0.95126
                        -----------------------------------------
Magnitude (a.u.)       :      2.21698
Magnitude (Debye)      :      5.63510

                             ****ORCA TERMINATED NORMALLY****
TOTAL RUN TIME: 0 days 0 hours 18 minutes 58 seconds 11 msec
