                         Program Version 3.0.3 - RELEASE   -
|  1> ! RI-MP2 RIJK def2-TZVP def2-TZVP/C def2-TZVP/JK TIGHTSCF
|  2> % maxcore 2000
|  3> % mp2 density relaxed end
|  4> *xyz 0 1
|  5>  C        0.0861918334     1.5679520867    -0.1351799900
|  6>  C       -0.0304321455     0.0423431576     0.0318426109
|  7>  C        0.6646472984    -0.4899763763     1.2638221411
|  8>  C       -0.0178936293    -0.9101324069     2.3327642771
|  9>  C        0.6107047066    -1.4557915983     3.5888476850
| 10>  C        2.0912268456    -1.8077030945     3.3844830847
| 11>  C        2.8063455256    -0.7026061518     2.6053337012
| 12>  O        4.1851270341    -0.9872148911     2.3987282726
| 13>  C        2.1770710876    -0.5328618062     1.2243485188
| 14>  H        1.1296698738     1.8905657620    -0.2048215936
| 15>  H       -0.4226566061     1.8988478259    -1.0460873092
| 16>  H       -0.3671178550     2.0865960690     0.7154440027
| 17>  H       -1.0900552503    -0.2337360981     0.0669516433
| 18>  H        0.3896576781    -0.4437384529    -0.8600280000
| 19>  H       -1.1054663137    -0.8620946232     2.3162529456
| 20>  H        0.5060515212    -0.7209172671     4.4016494202
| 21>  H        0.0581311637    -2.3407541579     3.9286987459
| 22>  H        2.5831713413    -1.9681635486     4.3524503503
| 23>  H        2.1838665903    -2.7421895113     2.8177328078
| 24>  H        2.6943727520     0.2454306934     3.1595973456
| 25>  H        4.5959355728    -1.0994159171     3.2619726077
| 26>  H        2.5102181110    -1.3680066158     0.5907984611
| 27>  H        2.5789018846     0.3713448928     0.7528178511
| 28> *
| 29>
| 30>                          ****END OF INPUT****

CARTESIAN COORDINATES (ANGSTROEM)
---------------------------------
  C      0.086192    1.567952   -0.135180
  C     -0.030432    0.042343    0.031843
  C      0.664647   -0.489976    1.263822
  C     -0.017894   -0.910132    2.332764
  C      0.610705   -1.455792    3.588848
  C      2.091227   -1.807703    3.384483
  C      2.806346   -0.702606    2.605334
  O      4.185127   -0.987215    2.398728
  C      2.177071   -0.532862    1.224349
  H      1.129670    1.890566   -0.204822
  H     -0.422657    1.898848   -1.046087
  H     -0.367118    2.086596    0.715444
  H     -1.090055   -0.233736    0.066952
  H      0.389658   -0.443738   -0.860028
  H     -1.105466   -0.862095    2.316253
  H      0.506052   -0.720917    4.401649
  H      0.058131   -2.340754    3.928699
  H      2.583171   -1.968164    4.352450
  H      2.183867   -2.742190    2.817733
  H      2.694373    0.245431    3.159597
  H      4.595936   -1.099416    3.261973
  H      2.510218   -1.368007    0.590798
  H      2.578902    0.371345    0.752818

 Total Charge           Charge          ....    0
 Multiplicity           Mult            ....    1
 Number of Electrons    NEL             ....   70
 Basis Dimension        Dim             ....  363

ORBITAL ENERGIES
----------------

  NO   OCC          E(Eh)            E(eV)
   0   2.0000     -20.551125      -559.2245
   1   2.0000     -11.274998      -306.8083
   2   2.0000     -11.226943      -305.5007
   3   2.0000     -11.225554      -305.4629
   4   2.0000     -11.222288      -305.3740
   5   2.0000     -11.219742      -305.3047
   6   2.0000     -11.217516      -305.2441
   7   2.0000     -11.214568      -305.1639
   8   2.0000     -11.213189      -305.1264
   9   2.0000      -1.357389       -36.9364
  10   2.0000      -1.123645       -30.5759
  11   2.0000      -1.048897       -28.5419
  12   2.0000      -0.994715       -27.0676
  13   2.0000      -0.975406       -26.5421
  14   2.0000      -0.866680       -23.5836
  15   2.0000      -0.833923       -22.6922
  16   2.0000      -0.798828       -21.7372
  17   2.0000      -0.712970       -19.4009
  18   2.0000      -0.666555       -18.1379
  19   2.0000      -0.654100       -17.7990
  20   2.0000      -0.618511       -16.8305
  21   2.0000      -0.602901       -16.4058
  22   2.0000      -0.592640       -16.1265
  23   2.0000      -0.581168       -15.8144
  24   2.0000      -0.550573       -14.9819
  25   2.0000      -0.539665       -14.6850
  26   2.0000      -0.531013       -14.4496
  27   2.0000      -0.511329       -13.9140
  28   2.0000      -0.502984       -13.6869
  29   2.0000      -0.500040       -13.6068
  30   2.0000      -0.476158       -12.9569
  31   2.0000      -0.466513       -12.6945
  32   2.0000      -0.438597       -11.9348
  33   2.0000      -0.426859       -11.6154
  34   2.0000      -0.333856        -9.0847
  35   0.0000       0.127613         3.4725
  36   0.0000       0.149432         4.0662
  37   0.0000       0.158757         4.3200
  38   0.0000       0.163348         4.4449
  39   0.0000       0.172438         4.6923

MULLIKEN ATOMIC CHARGES
-----------------------
   0 C :   -0.395403
   1 C :   -0.223925
   2 C :    0.028691
   3 C :   -0.219859
   4 C :   -0.187921
   5 C :   -0.250627
   6 C :    0.078934
   7 O :   -0.454179
   8 C :   -0.202169
   9 H :    0.123614
  10 H :    0.130061
  11 H :    0.127279
  12 H :    0.116639
  13 H :    0.112765
  14 H :    0.113700
  15 H :    0.115145
  16 H :    0.124909
  17 H :    0.111661
  18 H :    0.117242
  19 H :    0.072719
  20 H :    0.310201
  21 H :    0.123851
  22 H :    0.126670
Sum of atomic charges:   -0.0000000

LOEWDIN ATOMIC CHARGES
----------------------
   0 C :   -0.312002
   1 C :   -0.252717
   2 C :   -0.170938
   3 C :   -0.151809
   4 C :   -0.253686
   5 C :   -0.247916
   6 C :   -0.343867
   7 O :   -0.022055
   8 C :   -0.201406
   9 H :    0.118434
  10 H :    0.120282
  11 H :    0.121437
  12 H :    0.141072
  13 H :    0.142074
  14 H :    0.142833
  15 H :    0.143108
  16 H :    0.142718
  17 H :    0.132691
  18 H :    0.143810
  19 H :    0.136454
  20 H :    0.171504
  21 H :    0.152878
  22 H :    0.147102

  Mayer bond orders larger than 0.1
B(  0-C ,  1-C ) :   0.9154 B(  0-C ,  9-H ) :   0.9383 B(  0-C , 10-H ) :   0.9365
B(  0-C , 11-H ) :   0.9388 B(  1-C ,  2-C ) :   0.8901 B(  1-C , 12-H ) :   0.9456
B(  1-C , 13-H ) :   0.9281 B(  2-C ,  3-C ) :   1.7509 B(  2-C ,  8-C ) :   0.9107
B(  3-C ,  4-C ) :   0.9412 B(  3-C , 14-H ) :   0.9274 B(  4-C ,  5-C ) :   0.9363
B(  4-C , 15-H ) :   0.9124 B(  4-C , 16-H ) :   0.9267 B(  5-C ,  6-C ) :   0.9177
B(  5-C , 17-H ) :   0.9298 B(  5-C , 18-H ) :   0.9264 B(  6-C ,  7-O ) :   1.0107
B(  6-C ,  8-C ) :   0.9371 B(  6-C , 19-H ) :   0.9393 B(  7-O ,  8-C ) :  -0.1007
B(  7-O , 20-H ) :   0.8477 B(  8-C , 21-H ) :   0.8970 B(  8-C , 22-H ) :   0.9290

MP2 TOTAL ENERGY:     -387.640056881 Eh
FINAL SINGLE POINT ENERGY      -387.640056880873

DIPOLE MOMENT
-------------
                                X             Y             Z
Electronic contribution:      3.61596      -2.57237       2.16157
Nuclear contribution   :     -3.87778       2.59421      -1.64804
                        -----------------------------------------
Total Dipole Moment    :     -0.26182       0.02183       0.51353
                        -----------------------------------------
Magnitude (a.u.)       :      0.57684
Magnitude (Debye)      :      1.46621

                             ****ORCA TERMINATED NORMALLY****
TOTAL RUN TIME: 0 days 0 hours 21 minutes 10 seconds 270 msec
