                         Program Version 3.0.3 - RELEASE   -
|  1> ! RI-MP2 RIJK def2-TZVP def2-TZVP/C def2-TZVP/JK TIGHTSCF
|  2> % maxcore 2000
|  3> % mp2 density relaxed end
|  4> *xyz 0 1
|  5>  O        0.0850532719     0.0524035882     0.0993940413
|  6>  C        0.0006650616     1.2494895944     0.0665252005
|  7>  C       -1.2936410015     2.0595595431    -0.1298011134
|  8>  C       -0.8127587431     3.4830312092    -0.1333168372
|  9>  C        0.5074215064     3.5855151667     0.0415977946
| 10>  C        1.2898576215     4.8739504901     0.0643324538
| 11>  C        2.0289884732     5.0588130714     1.3175524093
| 12>  N        2.6089475448     5.1841643367     2.3088582237
| 13>  C        1.1689701007     2.2410180390     0.2043707951
| 14>  H       -1.7913965639     1.7555980031    -1.0593084670
| 15>  H       -2.0002657449     1.8380924208     0.6805340685
| 16>  H       -1.4802618751     4.3280780724    -0.2630733932
| 17>  H        2.0186200940     4.8954087285    -0.7575757524
| 18>  H        0.6213203071     5.7291906857    -0.0803835014
| 19>  H        1.6607900343     2.1150760555     1.1775478257
| 20>  H        1.9350090928     2.0303706952    -0.5534858279
| 21> *
| 22>
| 23>                          ****END OF INPUT****

CARTESIAN COORDINATES (ANGSTROEM)
---------------------------------
  O      0.085053    0.052404    0.099394
  C      0.000665    1.249490    0.066525
  C     -1.293641    2.059560   -0.129801
  C     -0.812759    3.483031   -0.133317
  C      0.507422    3.585515    0.041598
  C      1.289858    4.873950    0.064332
  C      2.028988    5.058813    1.317552
  N      2.608948    5.184164    2.308858
  C      1.168970    2.241018    0.204371
  H     -1.791397    1.755598   -1.059308
  H     -2.000266    1.838092    0.680534
  H     -1.480262    4.328078   -0.263073
  H      2.018620    4.895409   -0.757576
  H      0.621320    5.729191   -0.080384
  H      1.660790    2.115076    1.177548
  H      1.935009    2.030371   -0.553486

 Total Charge           Charge          ....    0
 Multiplicity           Mult            ....    1
 Number of Electrons    NEL             ....   64
 Basis Dimension        Dim             ....  321

ORBITAL ENERGIES
----------------

  NO   OCC          E(Eh)            E(eV)
   0   2.0000     -20.558903      -559.4362
   1   2.0000     -15.579755      -423.9467
   2   2.0000     -11.346073      -308.7424
   3   2.0000     -11.304071      -307.5994
   4   2.0000     -11.284411      -307.0644
   5   2.0000     -11.275642      -306.8258
   6   2.0000     -11.261958      -306.4535
   7   2.0000     -11.258331      -306.3548
   8   2.0000     -11.257838      -306.3414
   9   2.0000      -1.404435       -38.2166
  10   2.0000      -1.230237       -33.4765
  11   2.0000      -1.173665       -31.9371
  12   2.0000      -1.069424       -29.1005
  13   2.0000      -0.998869       -27.1806
  14   2.0000      -0.944190       -25.6927
  15   2.0000      -0.769045       -20.9268
  16   2.0000      -0.764929       -20.8148
  17   2.0000      -0.718346       -19.5472
  18   2.0000      -0.685305       -18.6481
  19   2.0000      -0.657576       -17.8936
  20   2.0000      -0.641038       -17.4435
  21   2.0000      -0.615294       -16.7430
  22   2.0000      -0.598883       -16.2964
  23   2.0000      -0.586240       -15.9524
  24   2.0000      -0.571801       -15.5595
  25   2.0000      -0.558270       -15.1913
  26   2.0000      -0.541445       -14.7335
  27   2.0000      -0.512499       -13.9458
  28   2.0000      -0.470562       -12.8046
  29   2.0000      -0.469155       -12.7663
  30   2.0000      -0.414403       -11.2765
  31   2.0000      -0.381840       -10.3904
  32   0.0000       0.109245         2.9727
  33   0.0000       0.122005         3.3199
  34   0.0000       0.128305         3.4914
  35   0.0000       0.141977         3.8634
  36   0.0000       0.145061         3.9473

MULLIKEN ATOMIC CHARGES
-----------------------
   0 O :   -0.248483
   1 C :    0.098004
   2 C :   -0.128676
   3 C :   -0.238616
   4 C :    0.012256
   5 C :   -0.146195
   6 C :   -0.172904
   7 N :   -0.060839
   8 C :   -0.191551
   9 H :    0.144573
  10 H :    0.146561
  11 H :    0.142319
  12 H :    0.169914
  13 H :    0.166568
  14 H :    0.163820
  15 H :    0.143250
Sum of atomic charges:   -0.0000000

LOEWDIN ATOMIC CHARGES
----------------------
   0 O :    0.163258
   1 C :   -0.286993
   2 C :   -0.210010
   3 C :   -0.122522
   4 C :   -0.159690
   5 C :   -0.205427
   6 C :   -0.184263
   7 N :    0.061798
   8 C :   -0.179900
   9 H :    0.155968
  10 H :    0.157648
  11 H :    0.142775
  12 H :    0.173449
  13 H :    0.171868
  14 H :    0.164081
  15 H :    0.157959

  Mayer bond orders larger than 0.1
B(  0-O ,  1-C ) :   2.0884 B(  1-C ,  2-C ) :   0.9222 B(  1-C ,  8-C ) :   0.9146
B(  2-C ,  3-C ) :   0.9314 B(  2-C ,  8-C ) :  -0.1355 B(  2-C ,  9-H ) :   0.8955
B(  2-C , 10-H ) :   0.8913 B(  3-C ,  4-C ) :   1.6895 B(  3-C , 11-H ) :   0.9107
B(  4-C ,  5-C ) :   0.8813 B(  4-C ,  8-C ) :   0.9022 B(  5-C ,  6-C ) :   0.9178
B(  5-C , 12-H ) :   0.9087 B(  5-C , 13-H ) :   0.9175 B(  6-C ,  7-N ) :   2.8537
B(  8-C , 14-H ) :   0.8864 B(  8-C , 15-H ) :   0.8940

MP2 TOTAL ENERGY:     -400.094278045 Eh
FINAL SINGLE POINT ENERGY      -400.094278044542

DIPOLE MOMENT
-------------
                                X             Y             Z
Electronic contribution:      2.21213      -0.63255       2.24628
Nuclear contribution   :     -3.08151       1.35043      -3.52172
                        -----------------------------------------
Total Dipole Moment    :     -0.86938       0.71788      -1.27544
                        -----------------------------------------
Magnitude (a.u.)       :      1.70233
Magnitude (Debye)      :      4.32697

                             ****ORCA TERMINATED NORMALLY****
TOTAL RUN TIME: 0 days 0 hours 15 minutes 28 seconds 150 msec
