                         Program Version 3.0.3 - RELEASE   -
|  1> ! RI-MP2 RIJK def2-TZVP def2-TZVP/C def2-TZVP/JK TIGHTSCF
|  2> % maxcore 2000
|  3> % mp2 density relaxed end
|  4> *xyz 0 1
|  5>  C       -0.0331030896     1.5131195390     0.1332308402
|  6>  C       -0.0106991984     0.0304366157    -0.0414490770
|  7>  C        0.0056609067    -0.7630303502    -1.1735243880
|  8>  C       -0.0017971259    -0.3390730890    -2.6081176359
|  9>  C        0.0427061303    -2.0962406296    -0.6706050153
| 10>  N        0.0484466182    -2.1237656566     0.6690033578
| 11>  N        0.0184038837    -0.8293934672     1.0144728595
| 12>  C        0.0607780944    -3.2869466573    -1.4401119711
| 13>  C        0.0727867544    -4.2680570480    -2.1379037959
| 14>  H        0.9751455603     1.9298443821     0.2450833921
| 15>  H       -0.4896706897     1.9924454015    -0.7364047618
| 16>  H       -0.6119405759     1.8046338528     1.0159521663
| 17>  H        1.0106284754    -0.1576655221    -2.9892740058
| 18>  H       -0.4468496825    -1.1167478203    -3.2348237874
| 19>  H       -0.5741937825     0.5825797369    -2.7554268177
| 20>  H        0.0046324515    -0.5921192300     1.9926748046
| 21>  H        0.0855434497    -5.1436248878    -2.7380655347
| 22> *
| 23>
| 24>                          ****END OF INPUT****

CARTESIAN COORDINATES (ANGSTROEM)
---------------------------------
  C     -0.033103    1.513120    0.133231
  C     -0.010699    0.030437   -0.041449
  C      0.005661   -0.763030   -1.173524
  C     -0.001797   -0.339073   -2.608118
  C      0.042706   -2.096241   -0.670605
  N      0.048447   -2.123766    0.669003
  N      0.018404   -0.829393    1.014473
  C      0.060778   -3.286947   -1.440112
  C      0.072787   -4.268057   -2.137904
  H      0.975146    1.929844    0.245083
  H     -0.489671    1.992445   -0.736405
  H     -0.611941    1.804634    1.015952
  H      1.010628   -0.157666   -2.989274
  H     -0.446850   -1.116748   -3.234824
  H     -0.574194    0.582580   -2.755427
  H      0.004632   -0.592119    1.992675
  H      0.085543   -5.143625   -2.738066

 Total Charge           Charge          ....    0
 Multiplicity           Mult            ....    1
 Number of Electrons    NEL             ....   64
 Basis Dimension        Dim             ....  327

ORBITAL ENERGIES
----------------

  NO   OCC          E(Eh)            E(eV)
   0   2.0000     -15.637668      -425.5226
   1   2.0000     -15.590697      -424.2444
   2   2.0000     -11.279915      -306.9421
   3   2.0000     -11.271213      -306.7053
   4   2.0000     -11.248926      -306.0988
   5   2.0000     -11.234029      -305.6935
   6   2.0000     -11.228313      -305.5379
   7   2.0000     -11.225861      -305.4712
   8   2.0000     -11.225305      -305.4561
   9   2.0000      -1.377746       -37.4904
  10   2.0000      -1.121933       -30.5294
  11   2.0000      -1.093816       -29.7642
  12   2.0000      -1.019174       -27.7331
  13   2.0000      -0.985498       -26.8168
  14   2.0000      -0.936952       -25.4958
  15   2.0000      -0.857091       -23.3226
  16   2.0000      -0.772851       -21.0303
  17   2.0000      -0.716125       -19.4867
  18   2.0000      -0.704178       -19.1617
  19   2.0000      -0.639033       -17.3890
  20   2.0000      -0.634124       -17.2554
  21   2.0000      -0.602610       -16.3978
  22   2.0000      -0.574600       -15.6357
  23   2.0000      -0.569925       -15.5084
  24   2.0000      -0.560736       -15.2584
  25   2.0000      -0.548016       -14.9123
  26   2.0000      -0.526332       -14.3222
  27   2.0000      -0.460461       -12.5298
  28   2.0000      -0.442445       -12.0395
  29   2.0000      -0.394000       -10.7213
  30   2.0000      -0.330987        -9.0066
  31   2.0000      -0.327891        -8.9224
  32   0.0000       0.122194         3.3251
  33   0.0000       0.125150         3.4055
  34   0.0000       0.147925         4.0252
  35   0.0000       0.164534         4.4772
  36   0.0000       0.168909         4.5962

MULLIKEN ATOMIC CHARGES
-----------------------
   0 C :   -0.438978
   1 C :    0.070295
   2 C :   -0.047529
   3 C :   -0.412749
   4 C :   -0.093503
   5 N :   -0.214877
   6 N :   -0.108929
   7 C :    0.054207
   8 C :   -0.137345
   9 H :    0.156309
  10 H :    0.150018
  11 H :    0.141805
  12 H :    0.149281
  13 H :    0.156599
  14 H :    0.131713
  15 H :    0.253852
  16 H :    0.189830
Sum of atomic charges:   -0.0000000

LOEWDIN ATOMIC CHARGES
----------------------
   0 C :   -0.272341
   1 C :   -0.237653
   2 C :   -0.156246
   3 C :   -0.264503
   4 C :   -0.254014
   5 N :    0.061786
   6 N :    0.151728
   7 C :   -0.068419
   8 C :   -0.082594
   9 H :    0.134759
  10 H :    0.137755
  11 H :    0.132296
  12 H :    0.133222
  13 H :    0.138791
  14 H :    0.128599
  15 H :    0.190212
  16 H :    0.126622

  Mayer bond orders larger than 0.1
B(  0-C ,  1-C ) :   0.8412 B(  0-C ,  9-H ) :   0.9290 B(  0-C , 10-H ) :   0.9485
B(  0-C , 11-H ) :   0.9448 B(  1-C ,  2-C ) :   1.4128 B(  1-C ,  5-N ) :   0.1289
B(  1-C ,  6-N ) :   1.2176 B(  2-C ,  3-C ) :   0.8708 B(  2-C ,  4-C ) :   1.2312
B(  3-C , 12-H ) :   0.9303 B(  3-C , 13-H ) :   0.9415 B(  3-C , 14-H ) :   0.9421
B(  4-C ,  5-N ) :   1.5038 B(  4-C ,  7-C ) :   1.2209 B(  4-C ,  8-C ) :  -0.1544
B(  5-N ,  6-N ) :   1.0786 B(  6-N , 15-H ) :   0.8697 B(  7-C ,  8-C ) :   2.6129
B(  8-C , 16-H ) :   0.8718

MP2 TOTAL ENERGY:     -380.186764075 Eh
FINAL SINGLE POINT ENERGY      -380.186764074981

DIPOLE MOMENT
-------------
                                X             Y             Z
Electronic contribution:      0.17971      -7.53833       3.63894
Nuclear contribution   :     -0.20152       8.87809      -3.55252
                        -----------------------------------------
Total Dipole Moment    :     -0.02180       1.33976       0.08642
                        -----------------------------------------
Magnitude (a.u.)       :      1.34272
Magnitude (Debye)      :      3.41292

                             ****ORCA TERMINATED NORMALLY****
TOTAL RUN TIME: 0 days 0 hours 17 minutes 45 seconds 180 msec
