                         Program Version 3.0.3 - RELEASE   -
|  1> ! RI-MP2 RIJK def2-TZVP def2-TZVP/C def2-TZVP/JK TIGHTSCF
|  2> % maxcore 2000
|  3> % mp2 density relaxed end
|  4> *xyz 0 1
|  5>  C        0.0776925316     1.5230638149    -0.0384516135
|  6>  C       -0.0154449085     0.0125878027     0.0179011060
|  7>  C       -1.2793870206    -0.5973023383    -0.6000598329
|  8>  C       -1.9181165858    -1.7249382464     0.2256621561
|  9>  C       -0.8744170434    -2.7137411431     0.7725317363
| 10>  C        0.0857864590    -1.9724830462     1.6944635429
| 11>  O        0.3340603571    -2.3512894123     2.8184621818
| 12>  C        0.6627951512    -0.7010701761     1.1623557298
| 13>  N        1.2589213797    -0.6708073022    -0.1986775237
| 14>  H        1.0380862543     1.8652035617     0.3538966689
| 15>  H       -0.0082645512     1.8722147013    -1.0738264610
| 16>  H       -0.7271282945     1.9859944471     0.5425245202
| 17>  H       -2.0184036815     0.1958039997    -0.7527091243
| 18>  H       -1.0262480254    -0.9667983568    -1.6033489050
| 19>  H       -2.4585438253    -1.2894491580     1.0751531562
| 20>  H       -2.6624162703    -2.2543410006    -0.3781656233
| 21>  H       -1.3348757337    -3.5161990454     1.3528115744
| 22>  H       -0.3259001518    -3.1838287862    -0.0552383245
| 23>  H        1.2149488654    -0.1309172725     1.9041365416
| 24>  H        1.1148594736    -1.5650767034    -0.6635529360
| 25> *
| 26>
| 27>                          ****END OF INPUT****

CARTESIAN COORDINATES (ANGSTROEM)
---------------------------------
  C      0.077693    1.523064   -0.038452
  C     -0.015445    0.012588    0.017901
  C     -1.279387   -0.597302   -0.600060
  C     -1.918117   -1.724938    0.225662
  C     -0.874417   -2.713741    0.772532
  C      0.085786   -1.972483    1.694464
  O      0.334060   -2.351289    2.818462
  C      0.662795   -0.701070    1.162356
  N      1.258921   -0.670807   -0.198678
  H      1.038086    1.865204    0.353897
  H     -0.008265    1.872215   -1.073826
  H     -0.727128    1.985994    0.542525
  H     -2.018404    0.195804   -0.752709
  H     -1.026248   -0.966798   -1.603349
  H     -2.458544   -1.289449    1.075153
  H     -2.662416   -2.254341   -0.378166
  H     -1.334876   -3.516199    1.352812
  H     -0.325900   -3.183829   -0.055238
  H      1.214949   -0.130917    1.904137
  H      1.114859   -1.565077   -0.663553

 Total Charge           Charge          ....    0
 Multiplicity           Mult            ....    1
 Number of Electrons    NEL             ....   68
 Basis Dimension        Dim             ....  345

ORBITAL ENERGIES
----------------

  NO   OCC          E(Eh)            E(eV)
   0   2.0000     -20.545921      -559.0829
   1   2.0000     -15.573629      -423.7800
   2   2.0000     -11.331671      -308.3504
   3   2.0000     -11.285928      -307.1057
   4   2.0000     -11.267985      -306.6174
   5   2.0000     -11.247155      -306.0506
   6   2.0000     -11.245427      -306.0036
   7   2.0000     -11.244644      -305.9823
   8   2.0000     -11.227064      -305.5039
   9   2.0000      -1.388809       -37.7914
  10   2.0000      -1.283226       -34.9184
  11   2.0000      -1.095452       -29.8088
  12   2.0000      -1.025941       -27.9173
  13   2.0000      -0.969471       -26.3806
  14   2.0000      -0.925259       -25.1776
  15   2.0000      -0.857715       -23.3396
  16   2.0000      -0.805377       -21.9154
  17   2.0000      -0.725946       -19.7540
  18   2.0000      -0.683631       -18.6025
  19   2.0000      -0.655378       -17.8337
  20   2.0000      -0.650122       -17.6907
  21   2.0000      -0.604793       -16.4573
  22   2.0000      -0.596486       -16.2312
  23   2.0000      -0.590179       -16.0596
  24   2.0000      -0.570611       -15.5271
  25   2.0000      -0.561774       -15.2866
  26   2.0000      -0.542574       -14.7642
  27   2.0000      -0.527452       -14.3527
  28   2.0000      -0.504242       -13.7211
  29   2.0000      -0.491854       -13.3840
  30   2.0000      -0.467679       -12.7262
  31   2.0000      -0.456320       -12.4171
  32   2.0000      -0.407827       -11.0975
  33   2.0000      -0.391730       -10.6595
  34   0.0000       0.120188         3.2705
  35   0.0000       0.130459         3.5500
  36   0.0000       0.143764         3.9120
  37   0.0000       0.161442         4.3931
  38   0.0000       0.171746         4.6734

MULLIKEN ATOMIC CHARGES
-----------------------
   0 C :   -0.426927
   1 C :    0.211886
   2 C :   -0.263959
   3 C :   -0.221740
   4 C :   -0.261925
   5 C :    0.176180
   6 O :   -0.274870
   7 C :   -0.155427
   8 N :   -0.353256
   9 H :    0.146857
  10 H :    0.135424
  11 H :    0.131356
  12 H :    0.132831
  13 H :    0.131967
  14 H :    0.132499
  15 H :    0.133521
  16 H :    0.147090
  17 H :    0.135519
  18 H :    0.131181
  19 H :    0.211792
Sum of atomic charges:   -0.0000000

LOEWDIN ATOMIC CHARGES
----------------------
   0 C :   -0.265184
   1 C :   -0.296600
   2 C :   -0.223172
   3 C :   -0.250051
   4 C :   -0.230066
   5 C :   -0.325947
   6 O :    0.151022
   7 C :   -0.190536
   8 N :    0.049719
   9 H :    0.133758
  10 H :    0.130130
  11 H :    0.128124
  12 H :    0.148369
  13 H :    0.144903
  14 H :    0.145054
  15 H :    0.139248
  16 H :    0.149800
  17 H :    0.145634
  18 H :    0.151898
  19 H :    0.163897

  Mayer bond orders larger than 0.1
B(  0-C ,  1-C ) :   0.8692 B(  0-C ,  9-H ) :   0.9376 B(  0-C , 10-H ) :   0.9370
B(  0-C , 11-H ) :   0.9380 B(  1-C ,  2-C ) :   0.8951 B(  1-C ,  7-C ) :   0.8374
B(  1-C ,  8-N ) :   0.9291 B(  2-C ,  3-C ) :   0.9350 B(  2-C , 12-H ) :   0.9284
B(  2-C , 13-H ) :   0.9267 B(  3-C ,  4-C ) :   0.8733 B(  3-C , 14-H ) :   0.9291
B(  3-C , 15-H ) :   0.9348 B(  4-C ,  5-C ) :   0.9035 B(  4-C , 16-H ) :   0.9193
B(  4-C , 17-H ) :   0.9233 B(  5-C ,  6-O ) :   2.0060 B(  5-C ,  7-C ) :   0.9375
B(  7-C ,  8-N ) :   0.8751 B(  7-C , 18-H ) :   0.9180 B(  8-N , 19-H ) :   0.8746

MP2 TOTAL ENERGY:     -402.473705945 Eh
FINAL SINGLE POINT ENERGY      -402.473705944868

DIPOLE MOMENT
-------------
                                X             Y             Z
Electronic contribution:      3.87028      -3.78083       5.01049
Nuclear contribution   :     -4.80074       3.99758      -6.06392
                        -----------------------------------------
Total Dipole Moment    :     -0.93046       0.21675      -1.05343
                        -----------------------------------------
Magnitude (a.u.)       :      1.42213
Magnitude (Debye)      :      3.61476

                             ****ORCA TERMINATED NORMALLY****
TOTAL RUN TIME: 0 days 0 hours 21 minutes 8 seconds 438 msec
