                         Program Version 3.0.3 - RELEASE   -
|  1> ! RI-MP2 RIJK def2-TZVP def2-TZVP/C def2-TZVP/JK TIGHTSCF
|  2> % maxcore 2000
|  3> % mp2 density relaxed end
|  4> *xyz 0 1
|  5>  O        0.0425582373     0.0345082935     0.5213058513
|  6>  C        0.0361304161     1.1433373581     0.0788254626
|  7>  O       -1.1771549311     1.7344573923    -0.2639965678
|  8>  N       -1.2608511248     3.0043606591    -0.7774970397
|  9>  C       -0.1405410892     3.6377309147    -0.9308993185
| 10>  N        1.1397929569     3.1874095292    -0.6382414230
| 11>  C        1.2115565160     1.9997420562    -0.1585876015
| 12>  C       -0.2486485709     4.9661687479    -1.4697995908
| 13>  N       -0.3118975927     6.0358302655    -1.9016217964
| 14>  H        2.1811549523     1.5769107834     0.0956520539
| 15> *
| 16>
| 17>                          ****END OF INPUT****

CARTESIAN COORDINATES (ANGSTROEM)
---------------------------------
  O      0.042558    0.034508    0.521306
  C      0.036130    1.143337    0.078825
  O     -1.177155    1.734457   -0.263997
  N     -1.260851    3.004361   -0.777497
  C     -0.140541    3.637731   -0.930899
  N      1.139793    3.187410   -0.638241
  C      1.211557    1.999742   -0.158588
  C     -0.248649    4.966169   -1.469800
  N     -0.311898    6.035830   -1.901622
  H      2.181155    1.576911    0.095652

 Total Charge           Charge          ....    0
 Multiplicity           Mult            ....    1
 Number of Electrons    NEL             ....   62
 Basis Dimension        Dim             ....  285

ORBITAL ENERGIES
----------------

  NO   OCC          E(Eh)            E(eV)
   0   2.0000     -20.701487      -563.3161
   1   2.0000     -20.609115      -560.8025
   2   2.0000     -15.718739      -427.7286
   3   2.0000     -15.669841      -426.3980
   4   2.0000     -15.617558      -424.9754
   5   2.0000     -11.448240      -311.5224
   6   2.0000     -11.406455      -310.3854
   7   2.0000     -11.379473      -309.6512
   8   2.0000     -11.313646      -307.8600
   9   2.0000      -1.555805       -42.3356
  10   2.0000      -1.453079       -39.5403
  11   2.0000      -1.354632       -36.8614
  12   2.0000      -1.261931       -34.3389
  13   2.0000      -1.226420       -33.3726
  14   2.0000      -1.029092       -28.0030
  15   2.0000      -0.987308       -26.8660
  16   2.0000      -0.862403       -23.4672
  17   2.0000      -0.836436       -22.7606
  18   2.0000      -0.729811       -19.8592
  19   2.0000      -0.728963       -19.8361
  20   2.0000      -0.700998       -19.0751
  21   2.0000      -0.648442       -17.6450
  22   2.0000      -0.608142       -16.5484
  23   2.0000      -0.605802       -16.4847
  24   2.0000      -0.591104       -16.0848
  25   2.0000      -0.579537       -15.7700
  26   2.0000      -0.568038       -15.4571
  27   2.0000      -0.516012       -14.0414
  28   2.0000      -0.510401       -13.8887
  29   2.0000      -0.473625       -12.8880
  30   2.0000      -0.430612       -11.7175
  31   0.0000      -0.012642        -0.3440
  32   0.0000       0.065102         1.7715
  33   0.0000       0.126765         3.4495
  34   0.0000       0.145778         3.9668
  35   0.0000       0.154764         4.2113

MULLIKEN ATOMIC CHARGES
-----------------------
   0 O :   -0.243831
   1 C :    0.272896
   2 O :   -0.085053
   3 N :   -0.046285
   4 C :    0.281751
   5 N :   -0.184137
   6 C :   -0.036383
   7 C :   -0.111095
   8 N :   -0.029731
   9 H :    0.181870
Sum of atomic charges:    0.0000000

LOEWDIN ATOMIC CHARGES
----------------------
   0 O :    0.186087
   1 C :   -0.460920
   2 O :    0.264922
   3 N :    0.121873
   4 C :   -0.323824
   5 N :    0.197233
   6 C :   -0.130802
   7 C :   -0.132148
   8 N :    0.116984
   9 H :    0.160595

  Mayer bond orders larger than 0.1
B(  0-O ,  1-C ) :   1.9848 B(  1-C ,  2-O ) :   1.0349 B(  1-C ,  6-C ) :   1.0021
B(  2-O ,  3-N ) :   0.8508 B(  3-N ,  4-C ) :   1.6404 B(  4-C ,  5-N ) :   1.1089
B(  4-C ,  7-C ) :   0.9486 B(  5-N ,  6-C ) :   1.6584 B(  6-C ,  9-H ) :   0.9055
B(  7-C ,  8-N ) :   2.7988

MP2 TOTAL ENERGY:     -466.822989692 Eh
FINAL SINGLE POINT ENERGY      -466.822989692373

DIPOLE MOMENT
-------------
                                X             Y             Z
Electronic contribution:     -1.29741       0.58366      -0.34735
Nuclear contribution   :      2.12077      -1.16432       0.65147
                        -----------------------------------------
Total Dipole Moment    :      0.82336      -0.58066       0.30413
                        -----------------------------------------
Magnitude (a.u.)       :      1.05242
Magnitude (Debye)      :      2.67503

                             ****ORCA TERMINATED NORMALLY****
TOTAL RUN TIME: 0 days 0 hours 12 minutes 8 seconds 347 msec
