                         Program Version 3.0.3 - RELEASE   -
|  1> ! RI-MP2 RIJK def2-TZVP def2-TZVP/C def2-TZVP/JK TIGHTSCF
|  2> % maxcore 2000
|  3> % mp2 density relaxed end
|  4> *xyz 0 1
|  5>  O        0.7543313808    -0.2796493237     1.3083453599
|  6>  C        0.1197557319     0.0423174529     0.0862244032
|  7>  C       -1.2667144859    -0.5900461537     0.0130949428
|  8>  O       -1.9887742527    -0.1604423075     1.1687856029
|  9>  C       -2.0895766350    -0.7133377973    -1.3134498099
| 10>  C       -1.1346125678    -1.8476933466    -1.7616392978
| 11>  C       -1.4927060142    -2.1033937702    -0.2774529678
| 12>  N       -2.9346111148    -1.8096532953    -0.6792738100
| 13>  H        0.0697752967    -0.1983748087     1.9843437485
| 14>  H        0.0081707523     1.1370346268    -0.0336250824
| 15>  H        0.7786185330    -0.2980615120    -0.7143510254
| 16>  H       -2.1538603389     0.7859018874     1.0837712714
| 17>  H       -2.5321977637     0.0817642053    -1.9177049615
| 18>  H       -1.5906797003    -2.5570790605    -2.4507161164
| 19>  H       -0.1064526495    -1.6056204470    -2.0239379511
| 20>  H       -1.2275131492    -2.9530990101     0.3520519265
| 21>  H       -3.4100828827    -1.4142275596     0.1355687271
| 22> *
| 23>
| 24>                          ****END OF INPUT****

CARTESIAN COORDINATES (ANGSTROEM)
---------------------------------
  O      0.754331   -0.279649    1.308345
  C      0.119756    0.042317    0.086224
  C     -1.266714   -0.590046    0.013095
  O     -1.988774   -0.160442    1.168786
  C     -2.089577   -0.713338   -1.313450
  C     -1.134613   -1.847693   -1.761639
  C     -1.492706   -2.103394   -0.277453
  N     -2.934611   -1.809653   -0.679274
  H      0.069775   -0.198375    1.984344
  H      0.008171    1.137035   -0.033625
  H      0.778619   -0.298062   -0.714351
  H     -2.153860    0.785902    1.083771
  H     -2.532198    0.081764   -1.917705
  H     -1.590680   -2.557079   -2.450716
  H     -0.106453   -1.605620   -2.023938
  H     -1.227513   -2.953099    0.352052
  H     -3.410083   -1.414228    0.135569

 Total Charge           Charge          ....    0
 Multiplicity           Mult            ....    1
 Number of Electrons    NEL             ....   62
 Basis Dimension        Dim             ....  302

ORBITAL ENERGIES
----------------

  NO   OCC          E(Eh)            E(eV)
   0   2.0000     -20.581303      -560.0457
   1   2.0000     -20.556952      -559.3831
   2   2.0000     -15.551685      -423.1829
   3   2.0000     -11.304425      -307.6090
   4   2.0000     -11.285315      -307.0890
   5   2.0000     -11.281819      -306.9939
   6   2.0000     -11.277683      -306.8814
   7   2.0000     -11.237166      -305.7788
   8   2.0000      -1.399890       -38.0929
   9   2.0000      -1.357594       -36.9420
  10   2.0000      -1.276873       -34.7455
  11   2.0000      -1.028989       -28.0002
  12   2.0000      -0.956893       -26.0384
  13   2.0000      -0.882875       -24.0243
  14   2.0000      -0.869972       -23.6732
  15   2.0000      -0.756041       -20.5729
  16   2.0000      -0.712323       -19.3833
  17   2.0000      -0.698405       -19.0046
  18   2.0000      -0.688606       -18.7379
  19   2.0000      -0.643938       -17.5224
  20   2.0000      -0.633351       -17.2344
  21   2.0000      -0.594970       -16.1900
  22   2.0000      -0.547648       -14.9023
  23   2.0000      -0.527981       -14.3671
  24   2.0000      -0.503774       -13.7084
  25   2.0000      -0.497734       -13.5440
  26   2.0000      -0.476232       -12.9589
  27   2.0000      -0.463241       -12.6054
  28   2.0000      -0.460119       -12.5205
  29   2.0000      -0.439242       -11.9524
  30   2.0000      -0.389614       -10.6019
  31   0.0000       0.117860         3.2071
  32   0.0000       0.159356         4.3363
  33   0.0000       0.166658         4.5350
  34   0.0000       0.177159         4.8207
  35   0.0000       0.189400         5.1538

MULLIKEN ATOMIC CHARGES
-----------------------
   0 O :   -0.468071
   1 C :    0.010078
   2 C :    0.052553
   3 O :   -0.502306
   4 C :   -0.078530
   5 C :   -0.232152
   6 C :   -0.026439
   7 N :   -0.345586
   8 H :    0.327996
   9 H :    0.085044
  10 H :    0.105372
  11 H :    0.332002
  12 H :    0.138180
  13 H :    0.124657
  14 H :    0.119517
  15 H :    0.141449
  16 H :    0.216236
Sum of atomic charges:    0.0000000

LOEWDIN ATOMIC CHARGES
----------------------
   0 O :   -0.043003
   1 C :   -0.321938
   2 C :   -0.332374
   3 O :   -0.006196
   4 C :   -0.200655
   5 C :   -0.197676
   6 C :   -0.183124
   7 N :    0.007016
   8 H :    0.175805
   9 H :    0.118066
  10 H :    0.131291
  11 H :    0.181577
  12 H :    0.122054
  13 H :    0.137849
  14 H :    0.125215
  15 H :    0.127439
  16 H :    0.158653

  Mayer bond orders larger than 0.1
B(  0-O ,  1-C ) :   0.9413 B(  0-O ,  8-H ) :   0.8265 B(  1-C ,  2-C ) :   1.0397
B(  1-C ,  9-H ) :   0.8886 B(  1-C , 10-H ) :   0.9202 B(  2-C ,  3-O ) :   0.9817
B(  2-C ,  4-C ) :   0.9219 B(  2-C ,  6-C ) :   0.8957 B(  3-O , 11-H ) :   0.8321
B(  4-C ,  5-C ) :   0.8938 B(  4-C ,  7-N ) :   0.9468 B(  4-C , 12-H ) :   0.8774
B(  5-C ,  6-C ) :   0.8870 B(  5-C , 13-H ) :   0.9035 B(  5-C , 14-H ) :   0.9297
B(  6-C ,  7-N ) :   0.9402 B(  6-C , 15-H ) :   0.8798 B(  7-N , 16-H ) :   0.8752

MP2 TOTAL ENERGY:     -400.277942885 Eh
FINAL SINGLE POINT ENERGY      -400.277942885325

DIPOLE MOMENT
-------------
                                X             Y             Z
Electronic contribution:     -0.99090      -0.02744       2.22098
Nuclear contribution   :      0.85254       0.91262      -2.40435
                        -----------------------------------------
Total Dipole Moment    :     -0.13836       0.88518      -0.18337
                        -----------------------------------------
Magnitude (a.u.)       :      0.91450
Magnitude (Debye)      :      2.32448

                             ****ORCA TERMINATED NORMALLY****
TOTAL RUN TIME: 0 days 0 hours 11 minutes 25 seconds 677 msec
