                         Program Version 3.0.3 - RELEASE   -
|  1> ! RI-MP2 RIJK def2-TZVP def2-TZVP/C def2-TZVP/JK TIGHTSCF
|  2> % maxcore 2000
|  3> % mp2 density relaxed end
|  4> *xyz 0 1
|  5>  C       -0.0305376682     1.5785687314     0.0461825002
|  6>  C        0.0046884122     0.0493359004     0.0196319257
|  7>  C        0.7036113897    -0.5011232705    -1.2403423685
|  8>  C        0.7469979976    -1.9591096106    -1.2874512499
|  9>  C        0.7594821195    -3.1643727006    -1.3029004351
| 10>  C        0.8083066869    -4.6275235066    -1.3243274273
| 11>  C        1.4688363890    -5.1291261284    -2.6249358382
| 12>  C        1.5098782988    -5.1632811194    -0.0514167576
| 13>  C        1.4380604833    -6.6839430438     0.1130073458
| 14>  H        0.9808929984     2.0000209918     0.0296888579
| 15>  H       -0.5689955673     1.9787939101    -0.8202852817
| 16>  H       -0.5297485238     1.9477049678     0.9471687930
| 17>  H        0.5233973704    -0.3318788035     0.9064148230
| 18>  H       -1.0138227779    -0.3525867923     0.0626791901
| 19>  H        0.1899550305    -0.1182223875    -2.1330874580
| 20>  H        1.7251158479    -0.0992430385    -1.2895292638
| 21>  H       -0.2264937002    -5.0016833862    -1.3097481886
| 22>  H        1.4314277911    -6.2200389250    -2.6910311580
| 23>  H        0.9582434701    -4.7179651657    -3.4996092104
| 24>  H        2.5168806446    -4.8156817924    -2.6686240370
| 25>  H        2.5563688147    -4.8344781555    -0.0654129125
| 26>  H        1.0497023606    -4.6810644057     0.8178770842
| 27>  H        0.3995133473    -7.0345227859     0.1093441580
| 28>  H        1.9697812222    -7.2110883760    -0.6847842185
| 29>  H        1.8869463627    -6.9906780074     1.0627959473
| 30> *
| 31>
| 32>                          ****END OF INPUT****

CARTESIAN COORDINATES (ANGSTROEM)
---------------------------------
  C     -0.030538    1.578569    0.046183
  C      0.004688    0.049336    0.019632
  C      0.703611   -0.501123   -1.240342
  C      0.746998   -1.959110   -1.287451
  C      0.759482   -3.164373   -1.302900
  C      0.808307   -4.627524   -1.324327
  C      1.468836   -5.129126   -2.624936
  C      1.509878   -5.163281   -0.051417
  C      1.438060   -6.683943    0.113007
  H      0.980893    2.000021    0.029689
  H     -0.568996    1.978794   -0.820285
  H     -0.529749    1.947705    0.947169
  H      0.523397   -0.331879    0.906415
  H     -1.013823   -0.352587    0.062679
  H      0.189955   -0.118222   -2.133087
  H      1.725116   -0.099243   -1.289529
  H     -0.226494   -5.001683   -1.309748
  H      1.431428   -6.220039   -2.691031
  H      0.958243   -4.717965   -3.499609
  H      2.516881   -4.815682   -2.668624
  H      2.556369   -4.834478   -0.065413
  H      1.049702   -4.681064    0.817877
  H      0.399513   -7.034523    0.109344
  H      1.969781   -7.211088   -0.684784
  H      1.886946   -6.990678    1.062796

 Total Charge           Charge          ....    0
 Multiplicity           Mult            ....    1
 Number of Electrons    NEL             ....   70
 Basis Dimension        Dim             ....  375

ORBITAL ENERGIES
----------------

  NO   OCC          E(Eh)            E(eV)
   0   2.0000     -11.247006      -306.0466
   1   2.0000     -11.241530      -305.8976
   2   2.0000     -11.224371      -305.4307
   3   2.0000     -11.221917      -305.3639
   4   2.0000     -11.215333      -305.1847
   5   2.0000     -11.215319      -305.1843
   6   2.0000     -11.213847      -305.1443
   7   2.0000     -11.210917      -305.0646
   8   2.0000     -11.206683      -304.9493
   9   2.0000      -1.100468       -29.9452
  10   2.0000      -1.075877       -29.2761
  11   2.0000      -1.009439       -27.4682
  12   2.0000      -0.979736       -26.6600
  13   2.0000      -0.929779       -25.3006
  14   2.0000      -0.879179       -23.9237
  15   2.0000      -0.815915       -22.2022
  16   2.0000      -0.794372       -21.6160
  17   2.0000      -0.669459       -18.2169
  18   2.0000      -0.637074       -17.3357
  19   2.0000      -0.632058       -17.1992
  20   2.0000      -0.625807       -17.0291
  21   2.0000      -0.583808       -15.8862
  22   2.0000      -0.571378       -15.5480
  23   2.0000      -0.553396       -15.0587
  24   2.0000      -0.550414       -14.9775
  25   2.0000      -0.537377       -14.6228
  26   2.0000      -0.513798       -13.9811
  27   2.0000      -0.507487       -13.8094
  28   2.0000      -0.493693       -13.4341
  29   2.0000      -0.488542       -13.2939
  30   2.0000      -0.479253       -13.0411
  31   2.0000      -0.473283       -12.8787
  32   2.0000      -0.468558       -12.7501
  33   2.0000      -0.357030        -9.7153
  34   2.0000      -0.356411        -9.6984
  35   0.0000       0.130237         3.5439
  36   0.0000       0.141857         3.8601
  37   0.0000       0.170108         4.6289
  38   0.0000       0.170342         4.6352
  39   0.0000       0.176046         4.7904

MULLIKEN ATOMIC CHARGES
-----------------------
   0 C :   -0.396579
   1 C :   -0.148486
   2 C :   -0.425034
   3 C :    0.085748
   4 C :    0.053826
   5 C :   -0.204977
   6 C :   -0.394609
   7 C :   -0.162524
   8 C :   -0.413530
   9 H :    0.122781
  10 H :    0.122998
  11 H :    0.135889
  12 H :    0.112566
  13 H :    0.112741
  14 H :    0.139268
  15 H :    0.138693
  16 H :    0.105154
  17 H :    0.132516
  18 H :    0.138944
  19 H :    0.125503
  20 H :    0.109786
  21 H :    0.119326
  22 H :    0.123127
  23 H :    0.129607
  24 H :    0.137265
Sum of atomic charges:    0.0000000

LOEWDIN ATOMIC CHARGES
----------------------
   0 C :   -0.321356
   1 C :   -0.280745
   2 C :   -0.257078
   3 C :   -0.079517
   4 C :   -0.061066
   5 C :   -0.272249
   6 C :   -0.276037
   7 C :   -0.259540
   8 C :   -0.319660
   9 H :    0.120461
  10 H :    0.120488
  11 H :    0.121984
  12 H :    0.137343
  13 H :    0.137475
  14 H :    0.153362
  15 H :    0.153130
  16 H :    0.165707
  17 H :    0.120782
  18 H :    0.126930
  19 H :    0.126299
  20 H :    0.139211
  21 H :    0.141188
  22 H :    0.121228
  23 H :    0.118937
  24 H :    0.122720

  Mayer bond orders larger than 0.1
B(  0-C ,  1-C ) :   0.9164 B(  0-C ,  9-H ) :   0.9381 B(  0-C , 10-H ) :   0.9386
B(  0-C , 11-H ) :   0.9427 B(  1-C ,  2-C ) :   0.9557 B(  1-C , 12-H ) :   0.9309
B(  1-C , 13-H ) :   0.9314 B(  2-C ,  3-C ) :   1.0092 B(  2-C ,  4-C ) :  -0.1185
B(  2-C , 14-H ) :   0.9340 B(  2-C , 15-H ) :   0.9272 B(  3-C ,  4-C ) :   2.6155
B(  3-C ,  5-C ) :  -0.1217 B(  4-C ,  5-C ) :   1.0755 B(  5-C ,  6-C ) :   0.9294
B(  5-C ,  7-C ) :   0.9511 B(  5-C , 16-H ) :   0.9146 B(  6-C , 17-H ) :   0.9401
B(  6-C , 18-H ) :   0.9376 B(  6-C , 19-H ) :   0.9291 B(  7-C ,  8-C ) :   0.9060
B(  7-C , 20-H ) :   0.9233 B(  7-C , 21-H ) :   0.9354 B(  8-C , 22-H ) :   0.9370
B(  8-C , 23-H ) :   0.9421 B(  8-C , 24-H ) :   0.9415

MP2 TOTAL ENERGY:     -351.687419473 Eh
FINAL SINGLE POINT ENERGY      -351.687419473474

DIPOLE MOMENT
-------------
                                X             Y             Z
Electronic contribution:     -0.56828       0.81724      -1.85274
Nuclear contribution   :      0.55271      -0.79228       1.94166
                        -----------------------------------------
Total Dipole Moment    :     -0.01556       0.02496       0.08893
                        -----------------------------------------
Magnitude (a.u.)       :      0.09367
Magnitude (Debye)      :      0.23809

                             ****ORCA TERMINATED NORMALLY****
TOTAL RUN TIME: 0 days 0 hours 17 minutes 46 seconds 127 msec
