                         Program Version 3.0.3 - RELEASE   -
|  1> ! RI-MP2 RIJK def2-TZVP def2-TZVP/C def2-TZVP/JK TIGHTSCF
|  2> % maxcore 2000
|  3> % mp2 density relaxed end
|  4> *xyz 0 1
|  5>  O       -0.0085582674    -0.0072403991     0.0049130186
|  6>  C        0.0068357469     1.1866934481     0.0099228423
|  7>  O       -1.1379541109     1.9335571888     0.0288063841
|  8>  C       -0.8362504534     3.3473253978     0.0313991830
|  9>  C        0.0094328699     3.6411424961     1.2679395023
| 10>  O        1.2263121086     2.8895738728     1.1699323119
| 11>  C        1.2371409497     2.1046162088    -0.0020800835
| 12>  O        1.1952119012     2.9005834788    -1.1659319461
| 13>  C       -0.0237880423     3.6528333280    -1.2244370247
| 14>  H       -1.7908176547     3.8740497710     0.0465974382
| 15>  H        0.2517373903     4.7090127747     1.3238408851
| 16>  H       -0.5254494734     3.3488668895     2.1789028962
| 17>  H        2.1628017067     1.5336952494    -0.0170902584
| 18>  H       -0.5827788795     3.3690131610    -2.1235221365
| 19>  H        0.2170337084     4.7212191344    -1.2767730626
| 20> *
| 21>
| 22>                          ****END OF INPUT****

CARTESIAN COORDINATES (ANGSTROEM)
---------------------------------
  O     -0.008558   -0.007240    0.004913
  C      0.006836    1.186693    0.009923
  O     -1.137954    1.933557    0.028806
  C     -0.836250    3.347325    0.031399
  C      0.009433    3.641142    1.267940
  O      1.226312    2.889574    1.169932
  C      1.237141    2.104616   -0.002080
  O      1.195212    2.900583   -1.165932
  C     -0.023788    3.652833   -1.224437
  H     -1.790818    3.874050    0.046597
  H      0.251737    4.709013    1.323841
  H     -0.525449    3.348867    2.178903
  H      2.162802    1.533695   -0.017090
  H     -0.582779    3.369013   -2.123522
  H      0.217034    4.721219   -1.276773

 Total Charge           Charge          ....    0
 Multiplicity           Mult            ....    1
 Number of Electrons    NEL             ....   68
 Basis Dimension        Dim             ....  315

ORBITAL ENERGIES
----------------

  NO   OCC          E(Eh)            E(eV)
   0   2.0000     -20.619348      -561.0810
   1   2.0000     -20.595800      -560.4402
   2   2.0000     -20.595781      -560.4397
   3   2.0000     -20.559361      -559.4487
   4   2.0000     -11.390903      -309.9622
   5   2.0000     -11.370295      -309.4015
   6   2.0000     -11.329516      -308.2918
   7   2.0000     -11.312611      -307.8318
   8   2.0000     -11.312588      -307.8312
   9   2.0000      -1.493467       -40.6393
  10   2.0000      -1.437387       -39.1133
  11   2.0000      -1.383097       -37.6360
  12   2.0000      -1.377248       -37.4768
  13   2.0000      -1.095365       -29.8064
  14   2.0000      -0.970889       -26.4192
  15   2.0000      -0.955699       -26.0059
  16   2.0000      -0.893424       -24.3113
  17   2.0000      -0.771275       -20.9875
  18   2.0000      -0.760832       -20.7033
  19   2.0000      -0.735149       -20.0044
  20   2.0000      -0.707835       -19.2612
  21   2.0000      -0.666325       -18.1316
  22   2.0000      -0.650626       -17.7044
  23   2.0000      -0.634298       -17.2601
  24   2.0000      -0.618398       -16.8275
  25   2.0000      -0.612791       -16.6749
  26   2.0000      -0.592154       -16.1133
  27   2.0000      -0.586310       -15.9543
  28   2.0000      -0.552358       -15.0304
  29   2.0000      -0.528609       -14.3842
  30   2.0000      -0.504103       -13.7173
  31   2.0000      -0.468796       -12.7566
  32   2.0000      -0.454373       -12.3641
  33   2.0000      -0.427098       -11.6219
  34   0.0000       0.122083         3.3220
  35   0.0000       0.154416         4.2019
  36   0.0000       0.165171         4.4945
  37   0.0000       0.169848         4.6218
  38   0.0000       0.177886         4.8405

MULLIKEN ATOMIC CHARGES
-----------------------
   0 O :   -0.262658
   1 C :    0.216588
   2 O :   -0.233271
   3 C :    0.042562
   4 C :   -0.075516
   5 O :   -0.301030
   6 C :    0.186601
   7 O :   -0.301043
   8 C :   -0.075526
   9 H :    0.151870
  10 H :    0.122847
  11 H :    0.129573
  12 H :    0.146584
  13 H :    0.129572
  14 H :    0.122848
Sum of atomic charges:    0.0000000

LOEWDIN ATOMIC CHARGES
----------------------
   0 O :    0.160231
   1 C :   -0.443942
   2 O :    0.273126
   3 C :   -0.299887
   4 C :   -0.267860
   5 O :    0.185012
   6 C :   -0.375793
   7 O :    0.184997
   8 C :   -0.267863
   9 H :    0.157277
  10 H :    0.135699
  11 H :    0.134431
  12 H :    0.154445
  13 H :    0.134429
  14 H :    0.135698

  Mayer bond orders larger than 0.1
B(  0-O ,  1-C ) :   2.0415 B(  1-C ,  2-O ) :   1.1099 B(  1-C ,  6-C ) :   0.9442
B(  2-O ,  3-C ) :   0.8458 B(  3-C ,  4-C ) :   0.9614 B(  3-C ,  8-C ) :   0.9614
B(  3-C ,  9-H ) :   0.9088 B(  4-C ,  5-O ) :   0.9115 B(  4-C , 10-H ) :   0.9161
B(  4-C , 11-H ) :   0.9239 B(  5-O ,  6-C ) :   0.9609 B(  6-C ,  7-O ) :   0.9609
B(  6-C , 12-H ) :   0.9078 B(  7-O ,  8-C ) :   0.9115 B(  8-C , 13-H ) :   0.9239
B(  8-C , 14-H ) :   0.9161

MP2 TOTAL ENERGY:     -494.168580862 Eh
FINAL SINGLE POINT ENERGY      -494.168580861893

DIPOLE MOMENT
-------------
                                X             Y             Z
Electronic contribution:      0.86713      -4.96859      -0.03490
Nuclear contribution   :     -1.31876       6.67287       0.04870
                        -----------------------------------------
Total Dipole Moment    :     -0.45163       1.70428       0.01380
                        -----------------------------------------
Magnitude (a.u.)       :      1.76315
Magnitude (Debye)      :      4.48158

                             ****ORCA TERMINATED NORMALLY****
TOTAL RUN TIME: 0 days 0 hours 15 minutes 37 seconds 727 msec
