                         Program Version 3.0.3 - RELEASE   -
|  1> ! RI-MP2 RIJK def2-TZVP def2-TZVP/C def2-TZVP/JK TIGHTSCF
|  2> % maxcore 2000
|  3> % mp2 density relaxed end
|  4> *xyz 0 1
|  5>  N        0.1024340736     1.0344533635    -0.8314918350
|  6>  C       -0.0252704769     0.1455725559     0.0668257879
|  7>  O        0.8386069654    -0.0255266396     1.0829013927
|  8>  N        1.5008549365    -1.5061227161     1.2630789002
|  9>  N        0.7556800037    -2.3657626278     1.6159383976
| 10>  C       -0.6287764897    -2.3839140175     1.8153446568
| 11>  C       -1.5301415395    -1.6674637658     1.1269313688
| 12>  C       -1.3032929057    -0.6609617197     0.0835191790
| 13>  N       -2.2560604122    -0.4606171930    -0.7430120002
| 14>  H        0.9950939081     1.5189394320    -0.7293742933
| 15>  H       -0.9314597808    -3.1672221426     2.4982247412
| 16>  H       -2.5772553691    -1.9083118804     1.2840324668
| 17>  H       -1.9540340834     0.2621535211    -1.4083217825
| 18> *
| 19>
| 20>                          ****END OF INPUT****

CARTESIAN COORDINATES (ANGSTROEM)
---------------------------------
  N      0.102434    1.034453   -0.831492
  C     -0.025270    0.145573    0.066826
  O      0.838607   -0.025527    1.082901
  N      1.500855   -1.506123    1.263079
  N      0.755680   -2.365763    1.615938
  C     -0.628776   -2.383914    1.815345
  C     -1.530142   -1.667464    1.126931
  C     -1.303293   -0.660962    0.083519
  N     -2.256060   -0.460617   -0.743012
  H      0.995094    1.518939   -0.729374
  H     -0.931460   -3.167222    2.498225
  H     -2.577255   -1.908312    1.284032
  H     -1.954034    0.262154   -1.408322

 Total Charge           Charge          ....    0
 Multiplicity           Mult            ....    1
 Number of Electrons    NEL             ....   64
 Basis Dimension        Dim             ....  303

ORBITAL ENERGIES
----------------

  NO   OCC          E(Eh)            E(eV)
   0   2.0000     -20.602924      -560.6341
   1   2.0000     -15.755855      -428.7386
   2   2.0000     -15.695082      -427.0849
   3   2.0000     -15.587629      -424.1609
   4   2.0000     -15.558101      -423.3575
   5   2.0000     -11.354835      -308.9808
   6   2.0000     -11.323092      -308.1170
   7   2.0000     -11.318155      -307.9826
   8   2.0000     -11.300700      -307.5077
   9   2.0000      -1.479228       -40.2518
  10   2.0000      -1.380765       -37.5725
  11   2.0000      -1.257697       -34.2237
  12   2.0000      -1.190787       -32.4030
  13   2.0000      -1.137327       -30.9482
  14   2.0000      -0.993675       -27.0393
  15   2.0000      -0.916155       -24.9298
  16   2.0000      -0.815678       -22.1957
  17   2.0000      -0.794622       -21.6228
  18   2.0000      -0.739025       -20.1099
  19   2.0000      -0.686616       -18.6838
  20   2.0000      -0.681126       -18.5344
  21   2.0000      -0.662157       -18.0182
  22   2.0000      -0.636014       -17.3068
  23   2.0000      -0.610832       -16.6216
  24   2.0000      -0.576231       -15.6800
  25   2.0000      -0.559562       -15.2265
  26   2.0000      -0.523945       -14.2573
  27   2.0000      -0.478438       -13.0190
  28   2.0000      -0.463753       -12.6194
  29   2.0000      -0.443837       -12.0774
  30   2.0000      -0.418988       -11.4012
  31   2.0000      -0.382499       -10.4083
  32   0.0000       0.018519         0.5039
  33   0.0000       0.085303         2.3212
  34   0.0000       0.138302         3.7634
  35   0.0000       0.152839         4.1589
  36   0.0000       0.168189         4.5767

MULLIKEN ATOMIC CHARGES
-----------------------
   0 N :   -0.388133
   1 C :    0.138741
   2 O :   -0.282128
   3 N :    0.059392
   4 N :   -0.017162
   5 C :   -0.022623
   6 C :   -0.104906
   7 C :    0.091595
   8 N :   -0.290350
   9 H :    0.233648
  10 H :    0.167375
  11 H :    0.164554
  12 H :    0.249997
Sum of atomic charges:   -0.0000000

LOEWDIN ATOMIC CHARGES
----------------------
   0 N :   -0.027111
   1 C :   -0.450749
   2 O :    0.096871
   3 N :    0.096608
   4 N :    0.107565
   5 C :   -0.203886
   6 C :   -0.087026
   7 C :   -0.252638
   8 N :    0.039901
   9 H :    0.173173
  10 H :    0.156154
  11 H :    0.172519
  12 H :    0.178617

  Mayer bond orders larger than 0.1
B(  0-N ,  1-C ) :   1.9155 B(  0-N ,  9-H ) :   0.8548 B(  1-C ,  2-O ) :   1.1681
B(  1-C ,  7-C ) :   0.8889 B(  2-O ,  3-N ) :   0.5418 B(  3-N ,  4-N ) :   1.8015
B(  4-N ,  5-C ) :   0.9739 B(  5-C ,  6-C ) :   1.6552 B(  5-C , 10-H ) :   0.9239
B(  6-C ,  7-C ) :   1.0194 B(  6-C , 11-H ) :   0.8989 B(  7-C ,  8-N ) :   1.9112
B(  8-N , 12-H ) :   0.8506

MP2 TOTAL ENERGY:     -448.099357055 Eh
FINAL SINGLE POINT ENERGY      -448.099357054992

DIPOLE MOMENT
-------------
                                X             Y             Z
Electronic contribution:      3.08749      -0.79322       1.37567
Nuclear contribution   :     -3.21560       0.09007      -0.70576
                        -----------------------------------------
Total Dipole Moment    :     -0.12811      -0.70315       0.66991
                        -----------------------------------------
Magnitude (a.u.)       :      0.97960
Magnitude (Debye)      :      2.48994

                             ****ORCA TERMINATED NORMALLY****
TOTAL RUN TIME: 0 days 0 hours 15 minutes 39 seconds 348 msec
