                         Program Version 3.0.3 - RELEASE   -
|  1> ! RI-MP2 RIJK def2-TZVP def2-TZVP/C def2-TZVP/JK TIGHTSCF
|  2> % maxcore 2000
|  3> % mp2 density relaxed end
|  4> *xyz 0 1
|  5>  C        0.0477533019     1.5405204511     0.0204133431
|  6>  C       -0.0303158184     0.0569829563     0.0273422373
|  7>  C       -1.0801020396    -0.7745433735    -0.0667343608
|  8>  C       -0.5975364324    -2.2052426837    -0.0056275311
|  9>  O        0.8135478695    -2.1034851653     0.1308624895
| 10>  C        1.1942554299    -0.7873199808     0.1549938061
| 11>  O        2.3323850665    -0.4342618730     0.2624439157
| 12>  C       -2.4475778841    -0.4314580580    -0.2033429549
| 13>  N       -3.5702043889    -0.1687812290    -0.3153217956
| 14>  H        0.6884604777     1.8789514132    -0.8009308650
| 15>  H       -0.9379015066     1.9982230318    -0.0803176458
| 16>  H        0.5181055080     1.8959459433     0.9435052409
| 17>  H       -1.0090675425    -2.7483112970     0.8528152233
| 18>  H       -0.8366598311    -2.7657361552    -0.9166008829
| 19> *
| 20>
| 21>                          ****END OF INPUT****

CARTESIAN COORDINATES (ANGSTROEM)
---------------------------------
  C      0.047753    1.540520    0.020413
  C     -0.030316    0.056983    0.027342
  C     -1.080102   -0.774543   -0.066734
  C     -0.597536   -2.205243   -0.005628
  O      0.813548   -2.103485    0.130862
  C      1.194255   -0.787320    0.154994
  O      2.332385   -0.434262    0.262444
  C     -2.447578   -0.431458   -0.203343
  N     -3.570204   -0.168781   -0.315322
  H      0.688460    1.878951   -0.800931
  H     -0.937902    1.998223   -0.080318
  H      0.518106    1.895946    0.943505
  H     -1.009068   -2.748311    0.852815
  H     -0.836660   -2.765736   -0.916601

 Total Charge           Charge          ....    0
 Multiplicity           Mult            ....    1
 Number of Electrons    NEL             ....   64
 Basis Dimension        Dim             ....  309

ORBITAL ENERGIES
----------------

  NO   OCC          E(Eh)            E(eV)
   0   2.0000     -20.629267      -561.3509
   1   2.0000     -20.567549      -559.6714
   2   2.0000     -15.608457      -424.7277
   3   2.0000     -11.405921      -310.3709
   4   2.0000     -11.339765      -308.5707
   5   2.0000     -11.322318      -308.0959
   6   2.0000     -11.309590      -307.7496
   7   2.0000     -11.307648      -307.6967
   8   2.0000     -11.261938      -306.4529
   9   2.0000      -1.486752       -40.4566
  10   2.0000      -1.396037       -37.9881
  11   2.0000      -1.252998       -34.0958
  12   2.0000      -1.166489       -31.7418
  13   2.0000      -1.048743       -28.5377
  14   2.0000      -0.974416       -26.5152
  15   2.0000      -0.913822       -24.8664
  16   2.0000      -0.801165       -21.8008
  17   2.0000      -0.745552       -20.2875
  18   2.0000      -0.718274       -19.5452
  19   2.0000      -0.702350       -19.1119
  20   2.0000      -0.654663       -17.8143
  21   2.0000      -0.612984       -16.6801
  22   2.0000      -0.612732       -16.6733
  23   2.0000      -0.589760       -16.0482
  24   2.0000      -0.589227       -16.0337
  25   2.0000      -0.583845       -15.8872
  26   2.0000      -0.565166       -15.3789
  27   2.0000      -0.536639       -14.6027
  28   2.0000      -0.497487       -13.5373
  29   2.0000      -0.483801       -13.1649
  30   2.0000      -0.470746       -12.8097
  31   2.0000      -0.404845       -11.0164
  32   0.0000       0.038772         1.0550
  33   0.0000       0.118495         3.2244
  34   0.0000       0.134895         3.6707
  35   0.0000       0.158471         4.3122
  36   0.0000       0.170188         4.6311

MULLIKEN ATOMIC CHARGES
-----------------------
   0 C :   -0.399732
   1 C :   -0.091584
   2 C :    0.135414
   3 C :   -0.018311
   4 O :   -0.224420
   5 C :    0.292003
   6 O :   -0.274364
   7 C :   -0.177922
   8 N :   -0.033891
   9 H :    0.166139
  10 H :    0.161766
  11 H :    0.166131
  12 H :    0.149385
  13 H :    0.149385
Sum of atomic charges:   -0.0000000

LOEWDIN ATOMIC CHARGES
----------------------
   0 C :   -0.243812
   1 C :   -0.101377
   2 C :   -0.128227
   3 C :   -0.213430
   4 O :    0.270464
   5 C :   -0.422959
   6 O :    0.156822
   7 C :   -0.145527
   8 N :    0.097970
   9 H :    0.148732
  10 H :    0.139838
  11 H :    0.148739
  12 H :    0.146384
  13 H :    0.146384

  Mayer bond orders larger than 0.1
B(  0-C ,  1-C ) :   0.8820 B(  0-C ,  9-H ) :   0.9215 B(  0-C , 10-H ) :   0.9486
B(  0-C , 11-H ) :   0.9215 B(  1-C ,  2-C ) :   1.6073 B(  1-C ,  5-C ) :   0.9670
B(  2-C ,  3-C ) :   0.9737 B(  2-C ,  7-C ) :   0.8803 B(  3-C ,  4-O ) :   0.9180
B(  3-C , 12-H ) :   0.9037 B(  3-C , 13-H ) :   0.9037 B(  4-O ,  5-C ) :   1.0930
B(  5-C ,  6-O ) :   2.0282 B(  7-C ,  8-N ) :   2.8180

MP2 TOTAL ENERGY:     -436.024815631 Eh
FINAL SINGLE POINT ENERGY      -436.024815630984

DIPOLE MOMENT
-------------
                                X             Y             Z
Electronic contribution:     -0.18889      -3.11376       0.01205
Nuclear contribution   :     -0.06075       3.04321      -0.03566
                        -----------------------------------------
Total Dipole Moment    :     -0.24964      -0.07055      -0.02362
                        -----------------------------------------
Magnitude (a.u.)       :      0.26049
Magnitude (Debye)      :      0.66211

                             ****ORCA TERMINATED NORMALLY****
TOTAL RUN TIME: 0 days 0 hours 13 minutes 38 seconds 604 msec
