                         Program Version 3.0.3 - RELEASE   -
|  1> ! RI-MP2 RIJK def2-TZVP def2-TZVP/C def2-TZVP/JK TIGHTSCF
|  2> % maxcore 2000
|  3> % mp2 density relaxed end
|  4> *xyz 0 1
|  5>  C       -0.1249081975     1.5912114062    -0.0302419156
|  6>  C        0.0179083705     0.0701291298    -0.0080307212
|  7>  C        0.9043825628    -0.5221454244    -1.1052323565
|  8>  C        2.3094777912    -0.6446047568    -0.5441299081
|  9>  C        2.2692649632    -0.1370276665     0.8958955726
| 10>  C        0.8045835761    -0.5368914019     1.1854507215
| 11>  C        0.8368701502    -2.0426801903     0.7949256536
| 12>  O       -0.4264849271    -2.6837969802     0.7330581126
| 13>  C        1.4050127658    -1.8605610859    -0.6030046173
| 14>  H        0.8433585453     2.1007576050    -0.0346374812
| 15>  H       -0.6651548126     1.9130583469    -0.9273109976
| 16>  H       -0.6899362006     1.9474760332     0.8384164316
| 17>  H       -0.9769344672    -0.3857570006    -0.0426145341
| 18>  H        0.7252503547    -0.3431860545    -2.1577186227
| 19>  H        3.1866531755    -0.5594633930    -1.1720908525
| 20>  H        2.9771048943    -0.6594518520     1.5490817752
| 21>  H        2.4562947473     0.9366797216     0.9872260569
| 22>  H        0.4240732163    -0.3110104281     2.1832033420
| 23>  H        1.5200782989    -2.6072826907     1.4479294094
| 24>  H       -0.7567980895    -2.7729706604     1.6327922039
| 25>  H        1.5922916823    -2.7000161775    -1.2589138427
| 26> *
| 27>
| 28>                          ****END OF INPUT****

CARTESIAN COORDINATES (ANGSTROEM)
---------------------------------
  C     -0.124908    1.591211   -0.030242
  C      0.017908    0.070129   -0.008031
  C      0.904383   -0.522145   -1.105232
  C      2.309478   -0.644605   -0.544130
  C      2.269265   -0.137028    0.895896
  C      0.804584   -0.536891    1.185451
  C      0.836870   -2.042680    0.794926
  O     -0.426485   -2.683797    0.733058
  C      1.405013   -1.860561   -0.603005
  H      0.843359    2.100758   -0.034637
  H     -0.665155    1.913058   -0.927311
  H     -0.689936    1.947476    0.838416
  H     -0.976934   -0.385757   -0.042615
  H      0.725250   -0.343186   -2.157719
  H      3.186653   -0.559463   -1.172091
  H      2.977105   -0.659452    1.549082
  H      2.456295    0.936680    0.987226
  H      0.424073   -0.311010    2.183203
  H      1.520078   -2.607283    1.447929
  H     -0.756798   -2.772971    1.632792
  H      1.592292   -2.700016   -1.258914

 Total Charge           Charge          ....    0
 Multiplicity           Mult            ....    1
 Number of Electrons    NEL             ....   68
 Basis Dimension        Dim             ....  351

ORBITAL ENERGIES
----------------

  NO   OCC          E(Eh)            E(eV)
   0   2.0000     -20.551670      -559.2394
   1   2.0000     -11.275428      -306.8200
   2   2.0000     -11.224837      -305.4433
   3   2.0000     -11.223338      -305.4026
   4   2.0000     -11.220541      -305.3264
   5   2.0000     -11.220329      -305.3207
   6   2.0000     -11.219489      -305.2978
   7   2.0000     -11.219104      -305.2873
   8   2.0000     -11.208629      -305.0023
   9   2.0000      -1.359105       -36.9831
  10   2.0000      -1.205731       -32.8096
  11   2.0000      -1.027686       -27.9648
  12   2.0000      -0.994817       -27.0703
  13   2.0000      -0.947004       -25.7693
  14   2.0000      -0.884133       -24.0585
  15   2.0000      -0.767012       -20.8715
  16   2.0000      -0.745632       -20.2897
  17   2.0000      -0.736839       -20.0504
  18   2.0000      -0.700313       -19.0565
  19   2.0000      -0.684300       -18.6208
  20   2.0000      -0.635283       -17.2869
  21   2.0000      -0.591181       -16.0869
  22   2.0000      -0.585245       -15.9253
  23   2.0000      -0.553553       -15.0629
  24   2.0000      -0.538703       -14.6589
  25   2.0000      -0.534549       -14.5458
  26   2.0000      -0.509741       -13.8707
  27   2.0000      -0.489368       -13.3164
  28   2.0000      -0.486787       -13.2461
  29   2.0000      -0.468896       -12.7593
  30   2.0000      -0.441287       -12.0080
  31   2.0000      -0.418418       -11.3857
  32   2.0000      -0.387753       -10.5513
  33   2.0000      -0.383792       -10.4435
  34   0.0000       0.133177         3.6239
  35   0.0000       0.148519         4.0414
  36   0.0000       0.162335         4.4173
  37   0.0000       0.175501         4.7756
  38   0.0000       0.193841         5.2747

MULLIKEN ATOMIC CHARGES
-----------------------
   0 C :   -0.424749
   1 C :   -0.000090
   2 C :   -0.184437
   3 C :   -0.151927
   4 C :   -0.284675
   5 C :   -0.058097
   6 C :    0.033055
   7 O :   -0.465081
   8 C :   -0.115523
   9 H :    0.126445
  10 H :    0.132917
  11 H :    0.129048
  12 H :    0.100550
  13 H :    0.127129
  14 H :    0.128483
  15 H :    0.117358
  16 H :    0.121110
  17 H :    0.129292
  18 H :    0.091989
  19 H :    0.313207
  20 H :    0.133994
Sum of atomic charges:    0.0000000

LOEWDIN ATOMIC CHARGES
----------------------
   0 C :   -0.289327
   1 C :   -0.222357
   2 C :   -0.148719
   3 C :   -0.166597
   4 C :   -0.204323
   5 C :   -0.190877
   6 C :   -0.293212
   7 O :   -0.011584
   8 C :   -0.151065
   9 H :    0.122529
  10 H :    0.124863
  11 H :    0.123322
  12 H :    0.157362
  13 H :    0.143783
  14 H :    0.140811
  15 H :    0.137824
  16 H :    0.134645
  17 H :    0.140306
  18 H :    0.134552
  19 H :    0.173987
  20 H :    0.144074

  Mayer bond orders larger than 0.1
B(  0-C ,  1-C ) :   0.8710 B(  0-C ,  9-H ) :   0.9408 B(  0-C , 10-H ) :   0.9438
B(  0-C , 11-H ) :   0.9401 B(  1-C ,  2-C ) :   0.9555 B(  1-C ,  5-C ) :   0.9165
B(  1-C , 12-H ) :   0.9024 B(  2-C ,  3-C ) :   0.8778 B(  2-C ,  8-C ) :   0.8630
B(  2-C , 13-H ) :   0.9282 B(  3-C ,  4-C ) :   0.9573 B(  3-C ,  8-C ) :   0.8398
B(  3-C , 14-H ) :   0.9341 B(  4-C ,  5-C ) :   0.9042 B(  4-C , 15-H ) :   0.9243
B(  4-C , 16-H ) :   0.9200 B(  5-C ,  6-C ) :   0.9017 B(  5-C , 17-H ) :   0.9122
B(  6-C ,  7-O ) :   1.0833 B(  6-C ,  8-C ) :   0.9205 B(  6-C , 18-H ) :   0.9681
B(  7-O , 19-H ) :   0.8467 B(  8-C , 20-H ) :   0.9261

MP2 TOTAL ENERGY:     -386.439091016 Eh
FINAL SINGLE POINT ENERGY      -386.439091015923

DIPOLE MOMENT
-------------
                                X             Y             Z
Electronic contribution:     -0.22724      -5.19705      -0.40766
Nuclear contribution   :      0.43525       5.39583       0.88610
                        -----------------------------------------
Total Dipole Moment    :      0.20801       0.19878       0.47844
                        -----------------------------------------
Magnitude (a.u.)       :      0.55829
Magnitude (Debye)      :      1.41906

                             ****ORCA TERMINATED NORMALLY****
TOTAL RUN TIME: 0 days 0 hours 20 minutes 44 seconds 704 msec
