                         Program Version 3.0.3 - RELEASE   -
|  1> ! RI-MP2 RIJK def2-TZVP def2-TZVP/C def2-TZVP/JK TIGHTSCF
|  2> % maxcore 2000
|  3> % mp2 density relaxed end
|  4> *xyz 0 1
|  5>  C        0.1071352837     1.5181103702     0.0085976743
|  6>  C        1.3705679354     0.6740335035     0.0158806697
|  7>  N        1.9345354144     0.3288167641     1.2959145713
|  8>  C        1.0788749544    -0.3944138558     1.9168686743
|  9>  N       -0.1243145312    -0.6359175091     1.2413848600
| 10>  C       -0.7153547019    -1.8817595002     0.9775784461
| 11>  N       -1.1142065466    -2.0854122510    -0.2134375698
| 12>  C       -0.7773808747    -0.8862848746    -1.0106572100
| 13>  C       -0.0276729233     0.0339047278    -0.0497300511
| 14>  H       -0.1764752563     2.0439323790     0.9155031362
| 15>  H       -0.0899827918     2.0537693957    -0.9147649236
| 16>  H        2.0669608208     0.7577186336    -0.8109959623
| 17>  H        1.2290364252    -0.7977288965     2.9118791121
| 18>  H       -0.8199403524    -2.5997973020     1.7843627675
| 19>  H       -0.1926485677    -1.1826443493    -1.8881206878
| 20>  H       -1.7017258880    -0.4243493756    -1.3752726568
| 21> *
| 22>
| 23>                          ****END OF INPUT****

CARTESIAN COORDINATES (ANGSTROEM)
---------------------------------
  C      0.107135    1.518110    0.008598
  C      1.370568    0.674034    0.015881
  N      1.934535    0.328817    1.295915
  C      1.078875   -0.394414    1.916869
  N     -0.124315   -0.635918    1.241385
  C     -0.715355   -1.881760    0.977578
  N     -1.114207   -2.085412   -0.213438
  C     -0.777381   -0.886285   -1.010657
  C     -0.027673    0.033905   -0.049730
  H     -0.176475    2.043932    0.915503
  H     -0.089983    2.053769   -0.914765
  H      2.066961    0.757719   -0.810996
  H      1.229036   -0.797729    2.911879
  H     -0.819940   -2.599797    1.784363
  H     -0.192649   -1.182644   -1.888121
  H     -1.701726   -0.424349   -1.375273

 Total Charge           Charge          ....    0
 Multiplicity           Mult            ....    1
 Number of Electrons    NEL             ....   64
 Basis Dimension        Dim             ....  321

ORBITAL ENERGIES
----------------

  NO   OCC          E(Eh)            E(eV)
   0   2.0000     -15.604013      -424.6068
   1   2.0000     -15.561262      -423.4435
   2   2.0000     -15.559803      -423.4038
   3   2.0000     -11.323035      -308.1155
   4   2.0000     -11.320407      -308.0439
   5   2.0000     -11.283183      -307.0310
   6   2.0000     -11.270342      -306.6816
   7   2.0000     -11.269040      -306.6462
   8   2.0000     -11.240521      -305.8701
   9   2.0000      -1.360013       -37.0078
  10   2.0000      -1.259990       -34.2861
  11   2.0000      -1.151879       -31.3442
  12   2.0000      -1.124221       -30.5916
  13   2.0000      -0.976724       -26.5780
  14   2.0000      -0.888109       -24.1667
  15   2.0000      -0.830235       -22.5918
  16   2.0000      -0.813134       -22.1265
  17   2.0000      -0.767648       -20.8888
  18   2.0000      -0.723287       -19.6816
  19   2.0000      -0.657654       -17.8957
  20   2.0000      -0.643447       -17.5091
  21   2.0000      -0.617537       -16.8040
  22   2.0000      -0.585784       -15.9400
  23   2.0000      -0.575667       -15.6647
  24   2.0000      -0.565381       -15.3848
  25   2.0000      -0.534350       -14.5404
  26   2.0000      -0.508653       -13.8411
  27   2.0000      -0.483470       -13.1559
  28   2.0000      -0.434333       -11.8188
  29   2.0000      -0.423592       -11.5265
  30   2.0000      -0.379391       -10.3237
  31   2.0000      -0.346138        -9.4189
  32   0.0000       0.133547         3.6340
  33   0.0000       0.143037         3.8922
  34   0.0000       0.156425         4.2565
  35   0.0000       0.159813         4.3487
  36   0.0000       0.170956         4.6519

MULLIKEN ATOMIC CHARGES
-----------------------
   0 C :   -0.245728
   1 C :   -0.053125
   2 N :   -0.248238
   3 C :   -0.002681
   4 N :   -0.115170
   5 C :    0.013152
   6 N :   -0.247032
   7 C :   -0.097928
   8 C :    0.021616
   9 H :    0.141498
  10 H :    0.138517
  11 H :    0.135030
  12 H :    0.149576
  13 H :    0.150835
  14 H :    0.130748
  15 H :    0.128930
Sum of atomic charges:    0.0000000

LOEWDIN ATOMIC CHARGES
----------------------
   0 C :   -0.181712
   1 C :   -0.220881
   2 N :    0.104542
   3 C :   -0.271119
   4 N :    0.217417
   5 C :   -0.265188
   6 N :    0.081014
   7 C :   -0.229259
   8 C :   -0.216440
   9 H :    0.141963
  10 H :    0.144203
  11 H :    0.140733
  12 H :    0.136405
  13 H :    0.138658
  14 H :    0.139303
  15 H :    0.140360

  Mayer bond orders larger than 0.1
B(  0-C ,  1-C ) :   0.8597 B(  0-C ,  8-C ) :   0.8710 B(  0-C ,  9-H ) :   0.8995
B(  0-C , 10-H ) :   0.9306 B(  1-C ,  2-N ) :   0.9968 B(  1-C ,  8-C ) :   0.8372
B(  1-C , 11-H ) :   0.9295 B(  2-N ,  3-C ) :   1.7719 B(  3-C ,  4-N ) :   1.0427
B(  3-C , 12-H ) :   0.9190 B(  4-N ,  5-C ) :   1.0078 B(  4-N ,  8-C ) :   0.9130
B(  5-C ,  6-N ) :   1.8361 B(  5-C , 13-H ) :   0.9167 B(  6-N ,  7-C ) :   0.9449
B(  7-C ,  8-C ) :   0.9235 B(  7-C , 14-H ) :   0.9158 B(  7-C , 15-H ) :   0.9157

MP2 TOTAL ENERGY:     -396.231817295 Eh
FINAL SINGLE POINT ENERGY      -396.231817294977

DIPOLE MOMENT
-------------
                                X             Y             Z
Electronic contribution:      0.62327      -2.04129       2.41231
Nuclear contribution   :     -0.92390       2.28764      -2.41940
                        -----------------------------------------
Total Dipole Moment    :     -0.30064       0.24635      -0.00709
                        -----------------------------------------
Magnitude (a.u.)       :      0.38874
Magnitude (Debye)      :      0.98810

                             ****ORCA TERMINATED NORMALLY****
TOTAL RUN TIME: 0 days 0 hours 17 minutes 54 seconds 295 msec
