                         Program Version 3.0.3 - RELEASE   -
|  1> ! RI-MP2 RIJK def2-TZVP def2-TZVP/C def2-TZVP/JK TIGHTSCF
|  2> % maxcore 2000
|  3> % mp2 density relaxed end
|  4> *xyz 0 1
|  5>  N       -0.1708359990     1.2935134815     0.0722079207
|  6>  C        0.0362701186    -0.0587205010     0.0876664012
|  7>  O        1.1032640390    -0.5958093372     0.2789184483
|  8>  O       -1.1384371037    -0.7043276976    -0.1128034296
|  9>  C       -1.0771991030    -2.1470514392    -0.0556170768
| 10>  C       -1.1567077914    -2.6347301845     1.4112907123
| 11>  C       -2.6107744492    -3.0000360197     1.5832083644
| 12>  C       -3.2626332942    -3.0184682824     0.4221961210
| 13>  C       -2.3611371006    -2.6672608183    -0.7371173053
| 14>  H        0.6522094291     1.8649656212    -0.0106665982
| 15>  H       -1.0306836801     1.6452510800    -0.3133786992
| 16>  H       -0.1570553558    -2.4606634016    -0.5479539155
| 17>  H       -0.5035202604    -3.5032431320     1.5688463736
| 18>  H       -0.8091984675    -1.8605025962     2.1021064086
| 19>  H       -3.0423016804    -3.2398802839     2.5484774961
| 20>  H       -4.3068733657    -3.2778179233     0.2900893045
| 21>  H       -2.7765571954    -1.9046366292    -1.4040022787
| 22>  H       -2.1473375804    -3.5477404865    -1.3576137774
| 23> *
| 24>
| 25>                          ****END OF INPUT****

CARTESIAN COORDINATES (ANGSTROEM)
---------------------------------
  N     -0.170836    1.293513    0.072208
  C      0.036270   -0.058721    0.087666
  O      1.103264   -0.595809    0.278918
  O     -1.138437   -0.704328   -0.112803
  C     -1.077199   -2.147051   -0.055617
  C     -1.156708   -2.634730    1.411291
  C     -2.610774   -3.000036    1.583208
  C     -3.262633   -3.018468    0.422196
  C     -2.361137   -2.667261   -0.737117
  H      0.652209    1.864966   -0.010667
  H     -1.030684    1.645251   -0.313379
  H     -0.157055   -2.460663   -0.547954
  H     -0.503520   -3.503243    1.568846
  H     -0.809198   -1.860503    2.102106
  H     -3.042302   -3.239880    2.548477
  H     -4.306873   -3.277818    0.290089
  H     -2.776557   -1.904637   -1.404002
  H     -2.147338   -3.547740   -1.357614

 Total Charge           Charge          ....    0
 Multiplicity           Mult            ....    1
 Number of Electrons    NEL             ....   68
 Basis Dimension        Dim             ....  333

ORBITAL ENERGIES
----------------

  NO   OCC          E(Eh)            E(eV)
   0   2.0000     -20.593961      -560.3902
   1   2.0000     -20.523232      -558.4655
   2   2.0000     -15.583320      -424.0437
   3   2.0000     -11.399364      -310.1925
   4   2.0000     -11.290410      -307.2277
   5   2.0000     -11.230294      -305.5918
   6   2.0000     -11.227066      -305.5040
   7   2.0000     -11.226387      -305.4855
   8   2.0000     -11.225190      -305.4529
   9   2.0000      -1.458043       -39.6754
  10   2.0000      -1.353156       -36.8213
  11   2.0000      -1.215562       -33.0771
  12   2.0000      -1.131916       -30.8010
  13   2.0000      -0.975094       -26.5337
  14   2.0000      -0.966529       -26.3006
  15   2.0000      -0.846229       -23.0271
  16   2.0000      -0.770226       -20.9589
  17   2.0000      -0.750403       -20.4195
  18   2.0000      -0.735205       -20.0059
  19   2.0000      -0.706667       -19.2294
  20   2.0000      -0.677811       -18.4442
  21   2.0000      -0.656467       -17.8634
  22   2.0000      -0.639261       -17.3952
  23   2.0000      -0.589225       -16.0336
  24   2.0000      -0.558622       -15.2009
  25   2.0000      -0.550668       -14.9844
  26   2.0000      -0.541190       -14.7265
  27   2.0000      -0.520664       -14.1680
  28   2.0000      -0.498064       -13.5530
  29   2.0000      -0.487385       -13.2624
  30   2.0000      -0.456983       -12.4351
  31   2.0000      -0.446566       -12.1517
  32   2.0000      -0.428814       -11.6686
  33   2.0000      -0.350175        -9.5288
  34   0.0000       0.132923         3.6170
  35   0.0000       0.151113         4.1120
  36   0.0000       0.159980         4.3533
  37   0.0000       0.176990         4.8161
  38   0.0000       0.180220         4.9040

MULLIKEN ATOMIC CHARGES
-----------------------
   0 N :   -0.510028
   1 C :    0.406616
   2 O :   -0.383199
   3 O :   -0.305098
   4 C :    0.097890
   5 C :   -0.209195
   6 C :   -0.177457
   7 C :   -0.194989
   8 C :   -0.146840
   9 H :    0.268025
  10 H :    0.266575
  11 H :    0.126310
  12 H :    0.122324
  13 H :    0.136846
  14 H :    0.129030
  15 H :    0.127641
  16 H :    0.126036
  17 H :    0.119512
Sum of atomic charges:    0.0000000

LOEWDIN ATOMIC CHARGES
----------------------
   0 N :   -0.037481
   1 C :   -0.615951
   2 O :    0.072277
   3 O :    0.246805
   4 C :   -0.244590
   5 C :   -0.219927
   6 C :   -0.163020
   7 C :   -0.165466
   8 C :   -0.221362
   9 H :    0.176818
  10 H :    0.173987
  11 H :    0.143255
  12 H :    0.146784
  13 H :    0.147270
  14 H :    0.136620
  15 H :    0.135910
  16 H :    0.143893
  17 H :    0.144178

  Mayer bond orders larger than 0.1
B(  0-N ,  1-C ) :   1.1555 B(  0-N ,  9-H ) :   0.8673 B(  0-N , 10-H ) :   0.8645
B(  1-C ,  2-O ) :   1.9178 B(  1-C ,  3-O ) :   1.0918 B(  3-O ,  4-C ) :   0.8245
B(  4-C ,  5-C ) :   0.9436 B(  4-C ,  8-C ) :   0.8887 B(  4-C , 11-H ) :   0.9477
B(  5-C ,  6-C ) :   0.9356 B(  5-C , 12-H ) :   0.9057 B(  5-C , 13-H ) :   0.9268
B(  6-C ,  7-C ) :   1.7878 B(  6-C , 14-H ) :   0.9276 B(  7-C ,  8-C ) :   0.9575
B(  7-C , 15-H ) :   0.9267 B(  8-C , 16-H ) :   0.9161 B(  8-C , 17-H ) :   0.9110

MP2 TOTAL ENERGY:     -438.422403361 Eh
FINAL SINGLE POINT ENERGY      -438.422403360605

DIPOLE MOMENT
-------------
                                X             Y             Z
Electronic contribution:      3.04894       3.55721      -0.46875
Nuclear contribution   :     -3.74759      -3.18201       0.09104
                        -----------------------------------------
Total Dipole Moment    :     -0.69865       0.37520      -0.37771
                        -----------------------------------------
Magnitude (a.u.)       :      0.87838
Magnitude (Debye)      :      2.23266

                             ****ORCA TERMINATED NORMALLY****
TOTAL RUN TIME: 0 days 0 hours 16 minutes 55 seconds 471 msec
