                         Program Version 3.0.3 - RELEASE   -
|  1> ! RI-MP2 RIJK def2-TZVP def2-TZVP/C def2-TZVP/JK TIGHTSCF
|  2> % maxcore 2000
|  3> % mp2 density relaxed end
|  4> *xyz 0 1
|  5>  C        0.1183944580     1.5211415373    -0.0931932115
|  6>  C        0.0879214355     0.0053547766    -0.0055610827
|  7>  O        0.7352120068    -0.4987544222    -1.1843559506
|  8>  C        0.6964346870    -1.9139246386    -1.2619323361
|  9>  C        1.5121723669    -2.4948099448    -0.1084217439
| 10>  O        2.8592245125    -2.0017660662    -0.1949590775
| 11>  C        0.8667947392    -2.0707313161     1.2184045050
| 12>  C        0.7417297988    -0.5389453159     1.2879848318
| 13>  O        1.9978037122     0.0685862049     1.5516404990
| 14>  H        1.1489176491     1.8761584147    -0.0311632435
| 15>  H       -0.3242125288     1.8548909911    -1.0350109522
| 16>  H       -0.4458259766     1.9602148144     0.7350674617
| 17>  H       -0.9578617409    -0.3509579326    -0.0151405416
| 18>  H       -0.3397054918    -2.2867341913    -1.2295364379
| 19>  H        1.1342847455    -2.1858358523    -2.2276682766
| 20>  H        1.5579493630    -3.5872898744    -0.1835763255
| 21>  H        2.8208707417    -1.2266384876    -0.7719883787
| 22>  H       -0.1248687265    -2.5332661105     1.2947053678
| 23>  H        1.4619562358    -2.4258743519     2.0654717373
| 24>  H        0.0812930815    -0.2602106158     2.1199903267
| 25>  H        2.6720816310    -0.5143062088     1.1790697091
| 26> *
| 27>
| 28>                          ****END OF INPUT****

CARTESIAN COORDINATES (ANGSTROEM)
---------------------------------
  C      0.118394    1.521142   -0.093193
  C      0.087921    0.005355   -0.005561
  O      0.735212   -0.498754   -1.184356
  C      0.696435   -1.913925   -1.261932
  C      1.512172   -2.494810   -0.108422
  O      2.859225   -2.001766   -0.194959
  C      0.866795   -2.070731    1.218405
  C      0.741730   -0.538945    1.287985
  O      1.997804    0.068586    1.551640
  H      1.148918    1.876158   -0.031163
  H     -0.324213    1.854891   -1.035011
  H     -0.445826    1.960215    0.735067
  H     -0.957862   -0.350958   -0.015141
  H     -0.339705   -2.286734   -1.229536
  H      1.134285   -2.185836   -2.227668
  H      1.557949   -3.587290   -0.183576
  H      2.820871   -1.226638   -0.771988
  H     -0.124869   -2.533266    1.294705
  H      1.461956   -2.425874    2.065472
  H      0.081293   -0.260211    2.119990
  H      2.672082   -0.514306    1.179070

 Total Charge           Charge          ....    0
 Multiplicity           Mult            ....    1
 Number of Electrons    NEL             ....   72
 Basis Dimension        Dim             ....  351

ORBITAL ENERGIES
----------------

  NO   OCC          E(Eh)            E(eV)
   0   2.0000     -20.567103      -559.6593
   1   2.0000     -20.566613      -559.6460
   2   2.0000     -20.544028      -559.0314
   3   2.0000     -11.291931      -307.2691
   4   2.0000     -11.287342      -307.1442
   5   2.0000     -11.284258      -307.0603
   6   2.0000     -11.282475      -307.0117
   7   2.0000     -11.233045      -305.6667
   8   2.0000     -11.210507      -305.0534
   9   2.0000      -1.400391       -38.1066
  10   2.0000      -1.362862       -37.0854
  11   2.0000      -1.351284       -36.7703
  12   2.0000      -1.067058       -29.0361
  13   2.0000      -1.050702       -28.5911
  14   2.0000      -0.948574       -25.8120
  15   2.0000      -0.886917       -24.1342
  16   2.0000      -0.836718       -22.7682
  17   2.0000      -0.781600       -21.2684
  18   2.0000      -0.721622       -19.6363
  19   2.0000      -0.687294       -18.7022
  20   2.0000      -0.658913       -17.9299
  21   2.0000      -0.650921       -17.7125
  22   2.0000      -0.635214       -17.2850
  23   2.0000      -0.622432       -16.9372
  24   2.0000      -0.596169       -16.2226
  25   2.0000      -0.575911       -15.6713
  26   2.0000      -0.560767       -15.2593
  27   2.0000      -0.541895       -14.7457
  28   2.0000      -0.532902       -14.5010
  29   2.0000      -0.517921       -14.0934
  30   2.0000      -0.511528       -13.9194
  31   2.0000      -0.493550       -13.4302
  32   2.0000      -0.471219       -12.8225
  33   2.0000      -0.463315       -12.6074
  34   2.0000      -0.436558       -11.8793
  35   2.0000      -0.404037       -10.9944
  36   0.0000       0.127703         3.4750
  37   0.0000       0.154084         4.1928
  38   0.0000       0.163417         4.4468
  39   0.0000       0.174183         4.7398
  40   0.0000       0.181803         4.9471

MULLIKEN ATOMIC CHARGES
-----------------------
   0 C :   -0.365433
   1 C :    0.066294
   2 O :   -0.327660
   3 C :   -0.126578
   4 C :    0.084629
   5 O :   -0.511478
   6 C :   -0.237634
   7 C :    0.012952
   8 O :   -0.479916
   9 H :    0.143390
  10 H :    0.137419
  11 H :    0.120335
  12 H :    0.073039
  13 H :    0.110221
  14 H :    0.145563
  15 H :    0.116486
  16 H :    0.333809
  17 H :    0.120741
  18 H :    0.144927
  19 H :    0.106016
  20 H :    0.332876
Sum of atomic charges:   -0.0000000

LOEWDIN ATOMIC CHARGES
----------------------
   0 C :   -0.289226
   1 C :   -0.323427
   2 O :    0.165215
   3 C :   -0.312032
   4 C :   -0.341557
   5 O :   -0.030463
   6 C :   -0.237653
   7 C :   -0.330290
   8 O :   -0.016688
   9 H :    0.130925
  10 H :    0.125814
  11 H :    0.128867
  12 H :    0.139049
  13 H :    0.127933
  14 H :    0.133974
  15 H :    0.143497
  16 H :    0.176328
  17 H :    0.147466
  18 H :    0.146553
  19 H :    0.146391
  20 H :    0.169325

  Mayer bond orders larger than 0.1
B(  0-C ,  1-C ) :   0.9270 B(  0-C ,  9-H ) :   0.9297 B(  0-C , 10-H ) :   0.9384
B(  0-C , 11-H ) :   0.9300 B(  1-C ,  2-O ) :   0.8915 B(  1-C ,  7-C ) :   0.8963
B(  1-C , 12-H ) :   0.9245 B(  2-O ,  3-C ) :   0.9043 B(  3-C ,  4-C ) :   0.9499
B(  3-C , 13-H ) :   0.9352 B(  3-C , 14-H ) :   0.9302 B(  4-C ,  5-O ) :   0.8895
B(  4-C ,  6-C ) :   0.8997 B(  4-C , 15-H ) :   0.9394 B(  5-O , 16-H ) :   0.8185
B(  6-C ,  7-C ) :   0.9176 B(  6-C , 17-H ) :   0.9186 B(  6-C , 18-H ) :   0.9275
B(  7-C ,  8-O ) :   0.9480 B(  7-C , 19-H ) :   0.9362 B(  8-O , 20-H ) :   0.8101

MP2 TOTAL ENERGY:     -460.651414234 Eh
FINAL SINGLE POINT ENERGY      -460.651414234030

DIPOLE MOMENT
-------------
                                X             Y             Z
Electronic contribution:      3.45723      -1.31005      -0.56971
Nuclear contribution   :     -4.30260       0.68593       0.32019
                        -----------------------------------------
Total Dipole Moment    :     -0.84537      -0.62412      -0.24951
                        -----------------------------------------
Magnitude (a.u.)       :      1.08001
Magnitude (Debye)      :      2.74517

                             ****ORCA TERMINATED NORMALLY****
TOTAL RUN TIME: 0 days 0 hours 18 minutes 19 seconds 243 msec
