                         Program Version 3.0.3 - RELEASE   -
|  1> ! RI-MP2 RIJK def2-TZVP def2-TZVP/C def2-TZVP/JK TIGHTSCF
|  2> % maxcore 2000
|  3> % mp2 density relaxed end
|  4> *xyz 0 1
|  5>  O       -0.0360034334    -0.0669785729     0.0034833130
|  6>  C        0.0086608610     1.1323409163     0.0088890283
|  7>  O       -1.2053365527     1.8268326679     0.0292276201
|  8>  N       -1.3070909691     3.2033195615     0.0377280041
|  9>  C       -0.2129204671     3.8790294051     0.0261541240
| 10>  C        1.1190304374     3.3043398479     0.0048979119
| 11>  C        1.2086482486     1.9516588846    -0.0033008795
| 12>  C        2.2452720699     4.1674604476    -0.0060819546
| 13>  C        3.1809045482     4.9245231501    -0.0151036782
| 14>  H       -0.3444337962     4.9556453209     0.0335041052
| 15>  H        2.1548946307     1.4265774515    -0.0189743982
| 16>  H        4.0139676426     5.5844318495    -0.0235491160
| 17> *
| 18>
| 19>                          ****END OF INPUT****

CARTESIAN COORDINATES (ANGSTROEM)
---------------------------------
  O     -0.036003   -0.066979    0.003483
  C      0.008661    1.132341    0.008889
  O     -1.205337    1.826833    0.029228
  N     -1.307091    3.203320    0.037728
  C     -0.212920    3.879029    0.026154
  C      1.119030    3.304340    0.004898
  C      1.208648    1.951659   -0.003301
  C      2.245272    4.167460   -0.006082
  C      3.180905    4.924523   -0.015104
  H     -0.344434    4.955645    0.033504
  H      2.154895    1.426577   -0.018974
  H      4.013968    5.584432   -0.023549

 Total Charge           Charge          ....    0
 Multiplicity           Mult            ....    1
 Number of Electrons    NEL             ....   62
 Basis Dimension        Dim             ....  297

ORBITAL ENERGIES
----------------

  NO   OCC          E(Eh)            E(eV)
   0   2.0000     -20.654288      -562.0317
   1   2.0000     -20.558358      -559.4214
   2   2.0000     -15.675354      -426.5481
   3   2.0000     -11.405597      -310.3621
   4   2.0000     -11.333183      -308.3916
   5   2.0000     -11.319706      -308.0249
   6   2.0000     -11.299747      -307.4817
   7   2.0000     -11.282718      -307.0184
   8   2.0000     -11.278917      -306.9149
   9   2.0000      -1.503276       -40.9062
  10   2.0000      -1.402114       -38.1535
  11   2.0000      -1.217396       -33.1270
  12   2.0000      -1.155155       -31.4334
  13   2.0000      -1.067434       -29.0463
  14   2.0000      -0.957288       -26.0491
  15   2.0000      -0.914977       -24.8978
  16   2.0000      -0.787454       -21.4277
  17   2.0000      -0.765776       -20.8378
  18   2.0000      -0.751502       -20.4494
  19   2.0000      -0.717644       -19.5281
  20   2.0000      -0.679323       -18.4853
  21   2.0000      -0.663505       -18.0549
  22   2.0000      -0.628951       -17.1146
  23   2.0000      -0.574613       -15.6360
  24   2.0000      -0.547339       -14.8938
  25   2.0000      -0.532177       -14.4813
  26   2.0000      -0.532002       -14.4765
  27   2.0000      -0.454095       -12.3566
  28   2.0000      -0.442645       -12.0450
  29   2.0000      -0.435250       -11.8438
  30   2.0000      -0.378307       -10.2943
  31   0.0000       0.013870         0.3774
  32   0.0000       0.118647         3.2286
  33   0.0000       0.138856         3.7785
  34   0.0000       0.141198         3.8422
  35   0.0000       0.149765         4.0753

MULLIKEN ATOMIC CHARGES
-----------------------
   0 O :   -0.279079
   1 C :    0.288334
   2 O :   -0.097071
   3 N :   -0.058734
   4 C :   -0.100359
   5 C :   -0.014265
   6 C :   -0.249666
   7 C :    0.042533
   8 C :   -0.079300
   9 H :    0.170133
  10 H :    0.166883
  11 H :    0.210591
Sum of atomic charges:    0.0000000

LOEWDIN ATOMIC CHARGES
----------------------
   0 O :    0.150582
   1 C :   -0.460906
   2 O :    0.240414
   3 N :    0.074583
   4 C :   -0.197659
   5 C :   -0.140782
   6 C :   -0.042576
   7 C :   -0.056443
   8 C :   -0.031916
   9 H :    0.160828
  10 H :    0.168614
  11 H :    0.135259

  Mayer bond orders larger than 0.1
B(  0-O ,  1-C ) :   1.9753 B(  1-C ,  2-O ) :   1.0552 B(  1-C ,  6-C ) :   1.0596
B(  2-O ,  3-N ) :   0.8478 B(  3-N ,  4-C ) :   1.7001 B(  4-C ,  5-C ) :   1.0499
B(  4-C ,  9-H ) :   0.9219 B(  5-C ,  6-C ) :   1.4914 B(  5-C ,  7-C ) :   1.0930
B(  5-C ,  8-C ) :  -0.1565 B(  6-C , 10-H ) :   0.9307 B(  7-C ,  8-C ) :   2.5876
B(  8-C , 11-H ) :   0.8724

MP2 TOTAL ENERGY:     -434.707324101 Eh
FINAL SINGLE POINT ENERGY      -434.707324101229

DIPOLE MOMENT
-------------
                                X             Y             Z
Electronic contribution:     -2.56626      -2.19019       0.02409
Nuclear contribution   :      4.06497       3.79643      -0.03668
                        -----------------------------------------
Total Dipole Moment    :      1.49871       1.60623      -0.01258
                        -----------------------------------------
Magnitude (a.u.)       :      2.19688
Magnitude (Debye)      :      5.58402

                             ****ORCA TERMINATED NORMALLY****
TOTAL RUN TIME: 0 days 0 hours 13 minutes 40 seconds 948 msec
