                         Program Version 3.0.3 - RELEASE   -
|  1> ! RI-MP2 RIJK def2-TZVP def2-TZVP/C def2-TZVP/JK TIGHTSCF
|  2> % maxcore 2000
|  3> % mp2 density relaxed end
|  4> *xyz 0 1
|  5>  C       -0.1428777621     1.5770596290     0.0175363515
|  6>  C        0.0576634953     0.0640724108     0.0273354653
|  7>  C        0.9287540016    -0.5309591384    -1.1350830456
|  8>  O        1.2465690246    -1.8233292443    -0.5907374502
|  9>  C        1.9574400719    -1.3370105133     0.5516914059
| 10>  C        2.9229528472    -0.3322412574    -0.0608135853
| 11>  C        2.2832037733     0.1626515436    -1.1203922022
| 12>  C        0.8217192212    -0.5121623767     1.2636646664
| 13>  O        1.2853705821     0.5186565803     2.1166449701
| 14>  H        0.8083744859     2.1096481645     0.0785411566
| 15>  H       -0.6589121689     1.8883209169    -0.8975979552
| 16>  H       -0.7494528366     1.8937568209     0.8703225952
| 17>  H       -0.9180295598    -0.4272766491    -0.0306318312
| 18>  H        0.4204958450    -0.6304141650    -2.0938700618
| 19>  H        2.3772957869    -2.1619018658     1.1283264994
| 20>  H        3.8752330271    -0.0351780329     0.3547740909
| 21>  H        2.5892073122     0.9603917012    -1.7828576780
| 22>  H        0.1734549614    -1.2037286565     1.8157732070
| 23>  H        1.5971573214     0.1153758821     2.9320999415
| 24> *
| 25>
| 26>                          ****END OF INPUT****

CARTESIAN COORDINATES (ANGSTROEM)
---------------------------------
  C     -0.142878    1.577060    0.017536
  C      0.057663    0.064072    0.027335
  C      0.928754   -0.530959   -1.135083
  O      1.246569   -1.823329   -0.590737
  C      1.957440   -1.337011    0.551691
  C      2.922953   -0.332241   -0.060814
  C      2.283204    0.162652   -1.120392
  C      0.821719   -0.512162    1.263665
  O      1.285371    0.518657    2.116645
  H      0.808374    2.109648    0.078541
  H     -0.658912    1.888321   -0.897598
  H     -0.749453    1.893757    0.870323
  H     -0.918030   -0.427277   -0.030632
  H      0.420496   -0.630414   -2.093870
  H      2.377296   -2.161902    1.128326
  H      3.875233   -0.035178    0.354774
  H      2.589207    0.960392   -1.782858
  H      0.173455   -1.203729    1.815773
  H      1.597157    0.115376    2.932100

 Total Charge           Charge          ....    0
 Multiplicity           Mult            ....    1
 Number of Electrons    NEL             ....   68
 Basis Dimension        Dim             ....  339

ORBITAL ENERGIES
----------------

  NO   OCC          E(Eh)            E(eV)
   0   2.0000     -20.560894      -559.4904
   1   2.0000     -20.552219      -559.2543
   2   2.0000     -11.283849      -307.0491
   3   2.0000     -11.282855      -307.0221
   4   2.0000     -11.282075      -307.0009
   5   2.0000     -11.230076      -305.5859
   6   2.0000     -11.228416      -305.5407
   7   2.0000     -11.226389      -305.4856
   8   2.0000     -11.208526      -304.9995
   9   2.0000      -1.395652       -37.9776
  10   2.0000      -1.364439       -37.1283
  11   2.0000      -1.088669       -29.6242
  12   2.0000      -1.038528       -28.2598
  13   2.0000      -0.989874       -26.9358
  14   2.0000      -0.918179       -24.9849
  15   2.0000      -0.802501       -21.8372
  16   2.0000      -0.781532       -21.2666
  17   2.0000      -0.741101       -20.1664
  18   2.0000      -0.724257       -19.7080
  19   2.0000      -0.692714       -18.8497
  20   2.0000      -0.660029       -17.9603
  21   2.0000      -0.595879       -16.2147
  22   2.0000      -0.588344       -16.0096
  23   2.0000      -0.571874       -15.5615
  24   2.0000      -0.563179       -15.3249
  25   2.0000      -0.541502       -14.7350
  26   2.0000      -0.527299       -14.3485
  27   2.0000      -0.515376       -14.0241
  28   2.0000      -0.496663       -13.5149
  29   2.0000      -0.486967       -13.2510
  30   2.0000      -0.465497       -12.6668
  31   2.0000      -0.430275       -11.7084
  32   2.0000      -0.411082       -11.1861
  33   2.0000      -0.351720        -9.5708
  34   0.0000       0.124865         3.3978
  35   0.0000       0.140287         3.8174
  36   0.0000       0.162757         4.4288
  37   0.0000       0.169288         4.6066
  38   0.0000       0.177280         4.8240

MULLIKEN ATOMIC CHARGES
-----------------------
   0 C :   -0.421281
   1 C :   -0.047232
   2 C :    0.112740
   3 O :   -0.308757
   4 C :    0.100950
   5 C :   -0.186409
   6 C :   -0.250588
   7 C :   -0.012191
   8 O :   -0.459157
   9 H :    0.145605
  10 H :    0.128352
  11 H :    0.132104
  12 H :    0.100291
  13 H :    0.136901
  14 H :    0.142594
  15 H :    0.130812
  16 H :    0.136803
  17 H :    0.105260
  18 H :    0.313203
Sum of atomic charges:   -0.0000000

LOEWDIN ATOMIC CHARGES
----------------------
   0 C :   -0.293586
   1 C :   -0.224388
   2 C :   -0.248779
   3 O :    0.201081
   4 C :   -0.270048
   5 C :   -0.128291
   6 C :   -0.130583
   7 C :   -0.288557
   8 O :   -0.006250
   9 H :    0.128615
  10 H :    0.123149
  11 H :    0.127687
  12 H :    0.152516
  13 H :    0.139206
  14 H :    0.136073
  15 H :    0.136293
  16 H :    0.137671
  17 H :    0.132688
  18 H :    0.175504

  Mayer bond orders larger than 0.1
B(  0-C ,  1-C ) :   0.9054 B(  0-C ,  9-H ) :   0.9280 B(  0-C , 10-H ) :   0.9383
B(  0-C , 11-H ) :   0.9324 B(  1-C ,  2-C ) :   0.9104 B(  1-C ,  7-C ) :   0.9376
B(  1-C , 12-H ) :   0.9203 B(  2-C ,  3-O ) :   0.9298 B(  2-C ,  6-C ) :   0.9371
B(  2-C , 13-H ) :   0.9022 B(  3-O ,  4-C ) :   0.9677 B(  4-C ,  5-C ) :   0.9506
B(  4-C ,  7-C ) :   0.8884 B(  4-C , 14-H ) :   0.9025 B(  5-C ,  6-C ) :   1.7955
B(  5-C , 15-H ) :   0.9103 B(  6-C , 16-H ) :   0.9260 B(  7-C ,  8-O ) :   1.0657
B(  7-C , 17-H ) :   0.9502 B(  8-O , 18-H ) :   0.8451

MP2 TOTAL ENERGY:     -422.319434895 Eh
FINAL SINGLE POINT ENERGY      -422.319434894928

DIPOLE MOMENT
-------------
                                X             Y             Z
Electronic contribution:      2.75755      -4.37905      -0.18490
Nuclear contribution   :     -2.68445       4.51723       0.65944
                        -----------------------------------------
Total Dipole Moment    :      0.07311       0.13819       0.47454
                        -----------------------------------------
Magnitude (a.u.)       :      0.49963
Magnitude (Debye)      :      1.26996

                             ****ORCA TERMINATED NORMALLY****
TOTAL RUN TIME: 0 days 0 hours 17 minutes 49 seconds 733 msec
