                         Program Version 3.0.3 - RELEASE   -
|  1> ! RI-MP2 RIJK def2-TZVP def2-TZVP/C def2-TZVP/JK TIGHTSCF
|  2> % maxcore 2000
|  3> % mp2 density relaxed end
|  4> *xyz 0 1
|  5>  C       -0.0398839531     1.0652016087     0.6421656605
|  6>  O       -0.2293046408    -0.3266797667     0.4551942280
|  7>  C       -1.3587109220    -0.6414078000    -0.3119993589
|  8>  C       -1.4229388329    -2.1669676915    -0.4385164991
|  9>  C       -2.2407770830    -2.5272320168     0.7748335973
| 10>  C       -2.9325299580    -1.2744081841     1.2597602671
| 11>  O       -2.5684092425    -0.2615084830     0.3218190524
| 12>  N       -2.2865928351    -3.6924428597     1.2758729894
| 13>  O       -3.1334086568    -3.7100326230     2.4024028017
| 14>  H        0.8653695013     1.1860529831     1.2404617711
| 15>  H        0.0958943042     1.5809589978    -0.3206301739
| 16>  H       -0.8886756492     1.5199797481     1.1653902613
| 17>  H       -1.3370417617    -0.1003833324    -1.2676753477
| 18>  H       -1.9517329599    -2.4406407755    -1.3579341944
| 19>  H       -0.4351213286    -2.6271686362    -0.4473807532
| 20>  H       -4.0224410043    -1.3735753420     1.2679131267
| 21>  H       -2.6081882051    -1.0249974776     2.2787512441
| 22>  H       -3.0690798125    -4.6258939992     2.6926782875
| 23> *
| 24>
| 25>                          ****END OF INPUT****

CARTESIAN COORDINATES (ANGSTROEM)
---------------------------------
  C     -0.039884    1.065202    0.642166
  O     -0.229305   -0.326680    0.455194
  C     -1.358711   -0.641408   -0.311999
  C     -1.422939   -2.166968   -0.438516
  C     -2.240777   -2.527232    0.774834
  C     -2.932530   -1.274408    1.259760
  O     -2.568409   -0.261508    0.321819
  N     -2.286593   -3.692443    1.275873
  O     -3.133409   -3.710033    2.402403
  H      0.865370    1.186053    1.240462
  H      0.095894    1.580959   -0.320630
  H     -0.888676    1.519980    1.165390
  H     -1.337042   -0.100383   -1.267675
  H     -1.951733   -2.440641   -1.357934
  H     -0.435121   -2.627169   -0.447381
  H     -4.022441   -1.373575    1.267913
  H     -2.608188   -1.024997    2.278751
  H     -3.069080   -4.625894    2.692678

 Total Charge           Charge          ....    0
 Multiplicity           Mult            ....    1
 Number of Electrons    NEL             ....   70
 Basis Dimension        Dim             ....  333

ORBITAL ENERGIES
----------------

  NO   OCC          E(Eh)            E(eV)
   0   2.0000     -20.593188      -560.3691
   1   2.0000     -20.569922      -559.7360
   2   2.0000     -20.567597      -559.6728
   3   2.0000     -15.616667      -424.9511
   4   2.0000     -11.341991      -308.6313
   5   2.0000     -11.289482      -307.2024
   6   2.0000     -11.283245      -307.0327
   7   2.0000     -11.274309      -306.7896
   8   2.0000     -11.242478      -305.9234
   9   2.0000      -1.430992       -38.9393
  10   2.0000      -1.418311       -38.5942
  11   2.0000      -1.357686       -36.9445
  12   2.0000      -1.168983       -31.8096
  13   2.0000      -1.038576       -28.2611
  14   2.0000      -0.979322       -26.6487
  15   2.0000      -0.929624       -25.2964
  16   2.0000      -0.824450       -22.4344
  17   2.0000      -0.762089       -20.7375
  18   2.0000      -0.712229       -19.3807
  19   2.0000      -0.708922       -19.2907
  20   2.0000      -0.684442       -18.6246
  21   2.0000      -0.660768       -17.9804
  22   2.0000      -0.637721       -17.3533
  23   2.0000      -0.626691       -17.0531
  24   2.0000      -0.589749       -16.0479
  25   2.0000      -0.584652       -15.9092
  26   2.0000      -0.559043       -15.2123
  27   2.0000      -0.556950       -15.1554
  28   2.0000      -0.543882       -14.7998
  29   2.0000      -0.525531       -14.3004
  30   2.0000      -0.486586       -13.2407
  31   2.0000      -0.456683       -12.4270
  32   2.0000      -0.449293       -12.2259
  33   2.0000      -0.427826       -11.6417
  34   2.0000      -0.385385       -10.4868
  35   0.0000       0.139714         3.8018
  36   0.0000       0.144119         3.9217
  37   0.0000       0.153807         4.1853
  38   0.0000       0.165108         4.4928
  39   0.0000       0.180635         4.9153

MULLIKEN ATOMIC CHARGES
-----------------------
   0 C :   -0.237166
   1 O :   -0.311062
   2 C :    0.199101
   3 C :   -0.123946
   4 C :   -0.052921
   5 C :   -0.039981
   6 O :   -0.325019
   7 N :   -0.084244
   8 O :   -0.372390
   9 H :    0.141829
  10 H :    0.112348
  11 H :    0.138402
  12 H :    0.090588
  13 H :    0.130076
  14 H :    0.137498
  15 H :    0.140400
  16 H :    0.119024
  17 H :    0.337464
Sum of atomic charges:    0.0000000

LOEWDIN ATOMIC CHARGES
----------------------
   0 C :   -0.347555
   1 O :    0.159912
   2 C :   -0.403439
   3 C :   -0.192863
   4 C :   -0.284952
   5 C :   -0.265380
   6 O :    0.172186
   7 N :    0.026028
   8 O :   -0.074482
   9 H :    0.113910
  10 H :    0.103452
  11 H :    0.107313
  12 H :    0.129537
  13 H :    0.154081
  14 H :    0.155026
  15 H :    0.139610
  16 H :    0.137526
  17 H :    0.170090

  Mayer bond orders larger than 0.1
B(  0-C ,  1-O ) :   0.8939 B(  0-C ,  9-H ) :   0.9379 B(  0-C , 10-H ) :   0.9370
B(  0-C , 11-H ) :   0.9353 B(  1-O ,  2-C ) :   1.0246 B(  2-C ,  3-C ) :   0.9380
B(  2-C ,  6-O ) :   0.9443 B(  2-C , 12-H ) :   0.9249 B(  3-C ,  4-C ) :   0.9579
B(  3-C , 13-H ) :   0.9009 B(  3-C , 14-H ) :   0.8996 B(  4-C ,  5-C ) :   0.9826
B(  4-C ,  7-N ) :   1.8627 B(  5-C ,  6-O ) :   0.9232 B(  5-C , 15-H ) :   0.9064
B(  5-C , 16-H ) :   0.9135 B(  7-N ,  8-O ) :   0.8066 B(  8-O , 17-H ) :   0.8441

MP2 TOTAL ENERGY:     -475.428278143 Eh
FINAL SINGLE POINT ENERGY      -475.428278143381

DIPOLE MOMENT
-------------
                                X             Y             Z
Electronic contribution:     -2.61558      -5.01467       1.17850
Nuclear contribution   :      2.68618       5.13306      -1.31272
                        -----------------------------------------
Total Dipole Moment    :      0.07060       0.11839      -0.13422
                        -----------------------------------------
Magnitude (a.u.)       :      0.19239
Magnitude (Debye)      :      0.48902

                             ****ORCA TERMINATED NORMALLY****
TOTAL RUN TIME: 0 days 0 hours 14 minutes 48 seconds 147 msec
