                         Program Version 3.0.3 - RELEASE   -
|  1> ! RI-MP2 RIJK def2-TZVP def2-TZVP/C def2-TZVP/JK TIGHTSCF
|  2> % maxcore 2000
|  3> % mp2 density relaxed end
|  4> *xyz 0 1
|  5>  C       -0.0580411423     1.5934165629     0.1097488510
|  6>  C        0.2060309440     0.0963192871    -0.0261703117
|  7>  C        1.1996920252    -0.3489526856    -1.1069187369
|  8>  O        1.7086988731    -1.6141515169    -0.6612475458
|  9>  C        1.8517757557    -1.5618682753     0.7318133224
| 10>  C        3.2450137515    -1.1214806354     1.1889904662
| 11>  O        4.0901448468    -0.7095908150     0.4426406226
| 12>  C        0.8178849558    -0.5265197616     1.2304030303
| 13>  O        0.5836231952    -0.2568407158     2.3772057992
| 14>  H        0.8796427379     2.1492428485     0.2103632625
| 15>  H       -0.5904448333     1.9803209233    -0.7635503679
| 16>  H       -0.6618331052     1.7884459285     0.9997149863
| 17>  H       -0.7423838386    -0.4376764788    -0.1831244177
| 18>  H        0.7451841866    -0.5094093187    -2.0860613740
| 19>  H        2.0198739704     0.3746127501    -1.2106381917
| 20>  H        1.6392810509    -2.5434817723     1.1746604938
| 21>  H        3.3967875262    -1.1946777050     2.2877238812
| 22> *
| 23>
| 24>                          ****END OF INPUT****

CARTESIAN COORDINATES (ANGSTROEM)
---------------------------------
  C     -0.058041    1.593417    0.109749
  C      0.206031    0.096319   -0.026170
  C      1.199692   -0.348953   -1.106919
  O      1.708699   -1.614152   -0.661248
  C      1.851776   -1.561868    0.731813
  C      3.245014   -1.121481    1.188990
  O      4.090145   -0.709591    0.442641
  C      0.817885   -0.526520    1.230403
  O      0.583623   -0.256841    2.377206
  H      0.879643    2.149243    0.210363
  H     -0.590445    1.980321   -0.763550
  H     -0.661833    1.788446    0.999715
  H     -0.742384   -0.437676   -0.183124
  H      0.745184   -0.509409   -2.086061
  H      2.019874    0.374613   -1.210638
  H      1.639281   -2.543482    1.174660
  H      3.396788   -1.194678    2.287724

 Total Charge           Charge          ....    0
 Multiplicity           Mult            ....    1
 Number of Electrons    NEL             ....   68
 Basis Dimension        Dim             ....  327

ORBITAL ENERGIES
----------------

  NO   OCC          E(Eh)            E(eV)
   0   2.0000     -20.583627      -560.1090
   1   2.0000     -20.576132      -559.9050
   2   2.0000     -20.574401      -559.8579
   3   2.0000     -11.356900      -309.0370
   4   2.0000     -11.348098      -308.7974
   5   2.0000     -11.317120      -307.9545
   6   2.0000     -11.297354      -307.4166
   7   2.0000     -11.262317      -306.4632
   8   2.0000     -11.239133      -305.8324
   9   2.0000      -1.432639       -38.9841
  10   2.0000      -1.415522       -38.5183
  11   2.0000      -1.398584       -38.0574
  12   2.0000      -1.097632       -29.8681
  13   2.0000      -1.041229       -28.3333
  14   2.0000      -0.949101       -25.8264
  15   2.0000      -0.887443       -24.1486
  16   2.0000      -0.799086       -21.7442
  17   2.0000      -0.764467       -20.8022
  18   2.0000      -0.731313       -19.9000
  19   2.0000      -0.700280       -19.0556
  20   2.0000      -0.671219       -18.2648
  21   2.0000      -0.660182       -17.9645
  22   2.0000      -0.638369       -17.3709
  23   2.0000      -0.606783       -16.5114
  24   2.0000      -0.594694       -16.1824
  25   2.0000      -0.583720       -15.8838
  26   2.0000      -0.559498       -15.2247
  27   2.0000      -0.548329       -14.9208
  28   2.0000      -0.538579       -14.6555
  29   2.0000      -0.511709       -13.9243
  30   2.0000      -0.508648       -13.8410
  31   2.0000      -0.473795       -12.8926
  32   2.0000      -0.435502       -11.8506
  33   2.0000      -0.405885       -11.0447
  34   0.0000       0.094790         2.5794
  35   0.0000       0.127724         3.4756
  36   0.0000       0.146927         3.9981
  37   0.0000       0.153925         4.1885
  38   0.0000       0.164457         4.4751

MULLIKEN ATOMIC CHARGES
-----------------------
   0 C :   -0.413392
   1 C :   -0.039468
   2 C :   -0.063113
   3 O :   -0.305177
   4 C :    0.142772
   5 C :    0.063018
   6 O :   -0.249754
   7 C :    0.073861
   8 O :   -0.261669
   9 H :    0.134845
  10 H :    0.143876
  11 H :    0.154504
  12 H :    0.121945
  13 H :    0.130810
  14 H :    0.116491
  15 H :    0.152120
  16 H :    0.098330
Sum of atomic charges:    0.0000000

LOEWDIN ATOMIC CHARGES
----------------------
   0 C :   -0.281084
   1 C :   -0.251002
   2 C :   -0.258601
   3 O :    0.194369
   4 C :   -0.300987
   5 C :   -0.269197
   6 O :    0.154467
   7 C :   -0.274229
   8 O :    0.175008
   9 H :    0.129330
  10 H :    0.127710
  11 H :    0.134364
  12 H :    0.173067
  13 H :    0.130970
  14 H :    0.130016
  15 H :    0.165169
  16 H :    0.120628

  Mayer bond orders larger than 0.1
B(  0-C ,  1-C ) :   0.9091 B(  0-C ,  9-H ) :   0.9283 B(  0-C , 10-H ) :   0.9404
B(  0-C , 11-H ) :   0.9288 B(  1-C ,  2-C ) :   0.9688 B(  1-C ,  7-C ) :   0.8806
B(  1-C , 12-H ) :   0.8851 B(  2-C ,  3-O ) :   0.8872 B(  2-C , 13-H ) :   0.9247
B(  2-C , 14-H ) :   0.9086 B(  3-O ,  4-C ) :   0.9909 B(  4-C ,  5-C ) :   0.8280
B(  4-C ,  7-C ) :   0.8602 B(  4-C , 15-H ) :   0.8838 B(  5-C ,  6-O ) :   2.0016
B(  5-C , 16-H ) :   0.9223 B(  7-C ,  8-O ) :   2.0156

MP2 TOTAL ENERGY:     -458.247745399 Eh
FINAL SINGLE POINT ENERGY      -458.247745398523

DIPOLE MOMENT
-------------
                                X             Y             Z
Electronic contribution:      4.36597      -5.04041       2.88915
Nuclear contribution   :     -5.18676       5.12998      -3.13195
                        -----------------------------------------
Total Dipole Moment    :     -0.82079       0.08956      -0.24279
                        -----------------------------------------
Magnitude (a.u.)       :      0.86062
Magnitude (Debye)      :      2.18752

                             ****ORCA TERMINATED NORMALLY****
TOTAL RUN TIME: 0 days 0 hours 15 minutes 23 seconds 638 msec
