                         Program Version 3.0.3 - RELEASE   -
|  1> ! RI-MP2 RIJK def2-TZVP def2-TZVP/C def2-TZVP/JK TIGHTSCF
|  2> % maxcore 2000
|  3> % mp2 density relaxed end
|  4> *xyz 0 1
|  5>  C        0.1410447062     1.6687885217     0.1180763695
|  6>  C        0.1310061696     0.1508774777     0.0252331836
|  7>  C        0.6862524372    -0.5913420039    -1.2516850901
|  8>  O        1.5554043830     0.1663707087    -2.0618118748
|  9>  C        1.3722175041    -1.6572759606    -0.3228234628
| 10>  C        2.8213872951    -2.1035757057    -0.5225948756
| 11>  O        3.2928124859    -2.7798312284     0.6258949537
| 12>  C        1.1493461803    -0.6697182330     0.8266646525
| 13>  O        1.7291573520    -0.4994193075     1.8678988536
| 14>  H        1.1117117556     2.0848871902    -0.1667862546
| 15>  H       -0.6143878818     2.1083532144    -0.5391595974
| 16>  H       -0.0657968660     1.9859494427     1.1440173711
| 17>  H       -0.8692428219    -0.2427394720     0.2482895415
| 18>  H       -0.0735335244    -0.9828099214    -1.9287647680
| 19>  H        2.2468876242     0.5583314267    -1.5176488064
| 20>  H        0.7315045941    -2.5371621629    -0.1968086780
| 21>  H        2.9018818862    -2.7997090964    -1.3630817812
| 22>  H        3.4542423333    -1.2353520619    -0.7659115773
| 23>  H        3.1596815273    -2.1835582284     1.3749033308
| 24> *
| 25>
| 26>                          ****END OF INPUT****

CARTESIAN COORDINATES (ANGSTROEM)
---------------------------------
  C      0.141045    1.668789    0.118076
  C      0.131006    0.150877    0.025233
  C      0.686252   -0.591342   -1.251685
  O      1.555404    0.166371   -2.061812
  C      1.372218   -1.657276   -0.322823
  C      2.821387   -2.103576   -0.522595
  O      3.292812   -2.779831    0.625895
  C      1.149346   -0.669718    0.826665
  O      1.729157   -0.499419    1.867899
  H      1.111712    2.084887   -0.166786
  H     -0.614388    2.108353   -0.539160
  H     -0.065797    1.985949    1.144017
  H     -0.869243   -0.242739    0.248290
  H     -0.073534   -0.982810   -1.928765
  H      2.246888    0.558331   -1.517649
  H      0.731505   -2.537162   -0.196809
  H      2.901882   -2.799709   -1.363082
  H      3.454242   -1.235352   -0.765912
  H      3.159682   -2.183558    1.374903

 Total Charge           Charge          ....    0
 Multiplicity           Mult            ....    1
 Number of Electrons    NEL             ....   70
 Basis Dimension        Dim             ....  339

ORBITAL ENERGIES
----------------

  NO   OCC          E(Eh)            E(eV)
   0   2.0000     -20.580980      -560.0369
   1   2.0000     -20.571591      -559.7814
   2   2.0000     -20.554243      -559.3094
   3   2.0000     -11.345319      -308.7218
   4   2.0000     -11.310864      -307.7843
   5   2.0000     -11.289689      -307.2081
   6   2.0000     -11.259273      -306.3804
   7   2.0000     -11.252124      -306.1859
   8   2.0000     -11.238206      -305.8071
   9   2.0000      -1.413542       -38.4644
  10   2.0000      -1.389055       -37.7981
  11   2.0000      -1.361347       -37.0441
  12   2.0000      -1.147037       -31.2125
  13   2.0000      -1.030190       -28.0329
  14   2.0000      -0.948349       -25.8059
  15   2.0000      -0.874362       -23.7926
  16   2.0000      -0.844666       -22.9845
  17   2.0000      -0.739217       -20.1151
  18   2.0000      -0.719850       -19.5881
  19   2.0000      -0.697041       -18.9674
  20   2.0000      -0.660508       -17.9733
  21   2.0000      -0.655574       -17.8391
  22   2.0000      -0.642505       -17.4835
  23   2.0000      -0.613309       -16.6890
  24   2.0000      -0.597787       -16.2666
  25   2.0000      -0.575502       -15.6602
  26   2.0000      -0.564344       -15.3566
  27   2.0000      -0.563477       -15.3330
  28   2.0000      -0.544743       -14.8232
  29   2.0000      -0.518182       -14.1005
  30   2.0000      -0.509273       -13.8580
  31   2.0000      -0.489137       -13.3101
  32   2.0000      -0.457070       -12.4375
  33   2.0000      -0.428203       -11.6520
  34   2.0000      -0.404691       -11.0122
  35   0.0000       0.096101         2.6150
  36   0.0000       0.130237         3.5439
  37   0.0000       0.149381         4.0649
  38   0.0000       0.161234         4.3874
  39   0.0000       0.179361         4.8806

MULLIKEN ATOMIC CHARGES
-----------------------
   0 C :   -0.377175
   1 C :    0.005472
   2 C :   -0.033503
   3 O :   -0.438514
   4 C :   -0.077857
   5 C :    0.014528
   6 O :   -0.472861
   7 C :    0.025933
   8 O :   -0.288070
   9 H :    0.106166
  10 H :    0.145294
  11 H :    0.152301
  12 H :    0.133665
  13 H :    0.131301
  14 H :    0.315938
  15 H :    0.131787
  16 H :    0.123527
  17 H :    0.071074
  18 H :    0.330994
Sum of atomic charges:    0.0000000

LOEWDIN ATOMIC CHARGES
----------------------
   0 C :   -0.287741
   1 C :   -0.214385
   2 C :   -0.267461
   3 O :    0.005039
   4 C :   -0.203220
   5 C :   -0.322506
   6 O :   -0.038268
   7 C :   -0.285805
   8 O :    0.150318
   9 H :    0.122263
  10 H :    0.130847
  11 H :    0.134357
  12 H :    0.170289
  13 H :    0.138064
  14 H :    0.173877
  15 H :    0.169426
  16 H :    0.132920
  17 H :    0.114733
  18 H :    0.177253

  Mayer bond orders larger than 0.1
B(  0-C ,  1-C ) :   0.9082 B(  0-C ,  9-H ) :   0.9254 B(  0-C , 10-H ) :   0.9379
B(  0-C , 11-H ) :   0.9357 B(  1-C ,  2-C ) :   0.8984 B(  1-C ,  7-C ) :   0.8517
B(  1-C , 12-H ) :   0.8891 B(  2-C ,  3-O ) :   0.9883 B(  2-C ,  4-C ) :   0.8958
B(  2-C , 13-H ) :   0.9303 B(  3-O , 14-H ) :   0.8350 B(  4-C ,  5-C ) :   0.9391
B(  4-C ,  7-C ) :   0.8364 B(  4-C , 15-H ) :   0.8805 B(  5-C ,  6-O ) :   0.9377
B(  5-C , 16-H ) :   0.9339 B(  5-C , 17-H ) :   0.9077 B(  6-O , 18-H ) :   0.8253
B(  7-C ,  8-O ) :   1.9591

MP2 TOTAL ENERGY:     -459.429296188 Eh
FINAL SINGLE POINT ENERGY      -459.429296187844

DIPOLE MOMENT
-------------
                                X             Y             Z
Electronic contribution:      1.83437      -3.03128       2.37306
Nuclear contribution   :     -2.63902       3.54048      -2.72424
                        -----------------------------------------
Total Dipole Moment    :     -0.80465       0.50920      -0.35118
                        -----------------------------------------
Magnitude (a.u.)       :      1.01493
Magnitude (Debye)      :      2.57974

                             ****ORCA TERMINATED NORMALLY****
TOTAL RUN TIME: 0 days 0 hours 16 minutes 53 seconds 109 msec
