                         Program Version 3.0.3 - RELEASE   -
|  1> ! RI-MP2 RIJK def2-TZVP def2-TZVP/C def2-TZVP/JK TIGHTSCF
|  2> % maxcore 2000
|  3> % mp2 density relaxed end
|  4> *xyz 0 1
|  5>  C       -0.1019156952     1.4275385646     0.1736902191
|  6>  C        1.2194486228     0.7566174717     0.0322919331
|  7>  C        1.9906784890     0.3865839960     1.2919933619
|  8>  C        1.8809292540     1.3523784008     2.4895775311
|  9>  O        0.7411199533     0.6289861281     3.0089707566
| 10>  C        0.9880981241    -0.4758174967     2.0987350771
| 11>  C       -0.1627752368    -0.8324667423     1.1547261803
| 12>  N       -0.0434329811    -0.0188659532    -0.0720109000
| 13>  H       -0.4056088885     1.7647177434     1.1606043574
| 14>  H       -0.4975790222     2.0120009567    -0.6529710133
| 15>  H        1.7805750381     0.8736741616    -0.8901253326
| 16>  H        2.9771590346    -0.0209926535     1.0697614552
| 17>  H        2.7314797592     1.3057356378     3.1817200314
| 18>  H        1.6460577723     2.3989532889     2.2696266334
| 19>  H        1.3835501982    -1.3429115609     2.6413928371
| 20>  H       -0.0831548822    -1.8862469158     0.8641898511
| 21>  H       -1.1369377696    -0.6848794372     1.6315825011
| 22> *
| 23>
| 24>                          ****END OF INPUT****

CARTESIAN COORDINATES (ANGSTROEM)
---------------------------------
  C     -0.101916    1.427539    0.173690
  C      1.219449    0.756617    0.032292
  C      1.990678    0.386584    1.291993
  C      1.880929    1.352378    2.489578
  O      0.741120    0.628986    3.008971
  C      0.988098   -0.475817    2.098735
  C     -0.162775   -0.832467    1.154726
  N     -0.043433   -0.018866   -0.072011
  H     -0.405609    1.764718    1.160604
  H     -0.497579    2.012001   -0.652971
  H      1.780575    0.873674   -0.890125
  H      2.977159   -0.020993    1.069761
  H      2.731480    1.305736    3.181720
  H      1.646058    2.398953    2.269627
  H      1.383550   -1.342912    2.641393
  H     -0.083155   -1.886247    0.864190
  H     -1.136938   -0.684879    1.631583

 Total Charge           Charge          ....    0
 Multiplicity           Mult            ....    1
 Number of Electrons    NEL             ....   60
 Basis Dimension        Dim             ....  302

ORBITAL ENERGIES
----------------

  NO   OCC          E(Eh)            E(eV)
   0   2.0000     -20.552282      -559.2560
   1   2.0000     -15.557747      -423.3478
   2   2.0000     -11.286085      -307.1100
   3   2.0000     -11.283663      -307.0441
   4   2.0000     -11.260469      -306.4130
   5   2.0000     -11.250696      -306.1470
   6   2.0000     -11.250297      -306.1361
   7   2.0000     -11.242441      -305.9224
   8   2.0000      -1.384327       -37.6695
   9   2.0000      -1.274187       -34.6724
  10   2.0000      -1.032111       -28.0852
  11   2.0000      -1.020903       -27.7802
  12   2.0000      -0.911479       -24.8026
  13   2.0000      -0.848085       -23.0776
  14   2.0000      -0.798187       -21.7198
  15   2.0000      -0.754371       -20.5275
  16   2.0000      -0.713275       -19.4092
  17   2.0000      -0.653276       -17.7766
  18   2.0000      -0.635627       -17.2963
  19   2.0000      -0.612197       -16.6587
  20   2.0000      -0.599335       -16.3087
  21   2.0000      -0.581419       -15.8212
  22   2.0000      -0.559718       -15.2307
  23   2.0000      -0.524032       -14.2596
  24   2.0000      -0.477634       -12.9971
  25   2.0000      -0.464746       -12.6464
  26   2.0000      -0.454242       -12.3606
  27   2.0000      -0.436035       -11.8651
  28   2.0000      -0.421901       -11.4805
  29   2.0000      -0.370545       -10.0831
  30   0.0000       0.144463         3.9310
  31   0.0000       0.161357         4.3907
  32   0.0000       0.170522         4.6401
  33   0.0000       0.178278         4.8512
  34   0.0000       0.183930         5.0050

MULLIKEN ATOMIC CHARGES
-----------------------
   0 C :   -0.180569
   1 C :   -0.143872
   2 C :   -0.054903
   3 C :   -0.059279
   4 O :   -0.339754
   5 C :    0.042532
   6 C :   -0.137028
   7 N :   -0.225328
   8 H :    0.152190
   9 H :    0.125949
  10 H :    0.119821
  11 H :    0.130761
  12 H :    0.105785
  13 H :    0.113028
  14 H :    0.100103
  15 H :    0.123895
  16 H :    0.126672
Sum of atomic charges:    0.0000000

LOEWDIN ATOMIC CHARGES
----------------------
   0 C :   -0.241788
   1 C :   -0.224241
   2 C :   -0.196394
   3 C :   -0.254516
   4 O :    0.124711
   5 C :   -0.248181
   6 C :   -0.259892
   7 N :    0.104636
   8 H :    0.133792
   9 H :    0.124629
  10 H :    0.139452
  11 H :    0.145805
  12 H :    0.119427
  13 H :    0.119357
  14 H :    0.134511
  15 H :    0.138168
  16 H :    0.140524

  Mayer bond orders larger than 0.1
B(  0-C ,  1-C ) :   0.9376 B(  0-C ,  7-N ) :   0.8808 B(  0-C ,  8-H ) :   0.9114
B(  0-C ,  9-H ) :   0.9239 B(  1-C ,  2-C ) :   0.9543 B(  1-C ,  7-N ) :   0.9009
B(  1-C , 10-H ) :   0.9211 B(  2-C ,  3-C ) :   0.9387 B(  2-C ,  5-C ) :   0.9318
B(  2-C , 11-H ) :   0.9147 B(  3-C ,  4-O ) :   0.9072 B(  3-C , 12-H ) :   0.9149
B(  3-C , 13-H ) :   0.9193 B(  4-O ,  5-C ) :   0.9575 B(  5-C ,  6-C ) :   0.9316
B(  5-C , 14-H ) :   0.9182 B(  6-C ,  7-N ) :   0.9358 B(  6-C , 15-H ) :   0.9214
B(  6-C , 16-H ) :   0.9263

MP2 TOTAL ENERGY:     -363.199459187 Eh
FINAL SINGLE POINT ENERGY      -363.199459186825

DIPOLE MOMENT
-------------
                                X             Y             Z
Electronic contribution:     -0.37754      -0.59504       0.46381
Nuclear contribution   :      1.06784       0.67878      -0.45509
                        -----------------------------------------
Total Dipole Moment    :      0.69031       0.08375       0.00872
                        -----------------------------------------
Magnitude (a.u.)       :      0.69542
Magnitude (Debye)      :      1.76762

                             ****ORCA TERMINATED NORMALLY****
TOTAL RUN TIME: 0 days 0 hours 12 minutes 34 seconds 511 msec
