                         Program Version 3.0.3 - RELEASE   -
|  1> ! RI-MP2 RIJK def2-TZVP def2-TZVP/C def2-TZVP/JK TIGHTSCF
|  2> % maxcore 2000
|  3> % mp2 density relaxed end
|  4> *xyz 0 1
|  5>  C        0.0671156909     1.5093491115    -0.1228576429
|  6>  O        1.5104455155     1.4798846209     0.1254162359
|  7>  C        1.2986071288     0.2437778802     0.8868408648
|  8>  C        1.9248804775    -1.1265753101     0.8109738573
|  9>  C        0.6518924827    -2.0135482486     0.9303383239
| 10>  C       -0.6306051304    -1.1289103531     0.9166207126
| 11>  C        0.0263726580    -0.0164793273     0.0913052933
| 12>  C        0.5532208361    -0.7900913232    -1.1498366298
| 13>  C        1.3606130726    -1.8325535953    -0.3967049899
| 14>  H       -0.4527171770     2.0989319789     0.6438014104
| 15>  H       -0.1668684462     1.8962750614    -1.1184546117
| 16>  H        1.1176098558     0.5261709583     1.9340330129
| 17>  H        2.8442027400    -1.4262393186     1.2963636300
| 18>  H        0.6904645298    -2.9477656418     1.4748422419
| 19>  H       -1.4670315654    -1.6440466903     0.4339962251
| 20>  H       -0.9395804457    -0.8079974999     1.9151949774
| 21>  H       -0.2691444285    -1.2168290200    -1.7350135310
| 22>  H        1.1706222200    -0.1649120114    -1.7979378107
| 23>  H        1.8878007357    -2.6425715916    -0.8837051594
| 24> *
| 25>
| 26>                          ****END OF INPUT****

CARTESIAN COORDINATES (ANGSTROEM)
---------------------------------
  C      0.067116    1.509349   -0.122858
  O      1.510446    1.479885    0.125416
  C      1.298607    0.243778    0.886841
  C      1.924880   -1.126575    0.810974
  C      0.651892   -2.013548    0.930338
  C     -0.630605   -1.128910    0.916621
  C      0.026373   -0.016479    0.091305
  C      0.553221   -0.790091   -1.149837
  C      1.360613   -1.832554   -0.396705
  H     -0.452717    2.098932    0.643801
  H     -0.166868    1.896275   -1.118455
  H      1.117610    0.526171    1.934033
  H      2.844203   -1.426239    1.296364
  H      0.690465   -2.947766    1.474842
  H     -1.467032   -1.644047    0.433996
  H     -0.939580   -0.807997    1.915195
  H     -0.269144   -1.216829   -1.735014
  H      1.170622   -0.164912   -1.797938
  H      1.887801   -2.642572   -0.883705

 Total Charge           Charge          ....    0
 Multiplicity           Mult            ....    1
 Number of Electrons    NEL             ....   66
 Basis Dimension        Dim             ....  339

ORBITAL ENERGIES
----------------

  NO   OCC          E(Eh)            E(eV)
   0   2.0000     -20.546224      -559.0912
   1   2.0000     -11.283681      -307.0446
   2   2.0000     -11.273802      -306.7757
   3   2.0000     -11.239484      -305.8419
   4   2.0000     -11.235764      -305.7407
   5   2.0000     -11.234781      -305.7139
   6   2.0000     -11.232807      -305.6602
   7   2.0000     -11.232209      -305.6439
   8   2.0000     -11.221049      -305.3403
   9   2.0000      -1.369676       -37.2708
  10   2.0000      -1.208907       -32.8960
  11   2.0000      -1.027282       -27.9538
  12   2.0000      -0.971341       -26.4315
  13   2.0000      -0.946905       -25.7666
  14   2.0000      -0.909133       -24.7388
  15   2.0000      -0.770935       -20.9782
  16   2.0000      -0.756371       -20.5819
  17   2.0000      -0.738669       -20.1002
  18   2.0000      -0.696111       -18.9421
  19   2.0000      -0.653836       -17.7918
  20   2.0000      -0.620212       -16.8768
  21   2.0000      -0.606903       -16.5147
  22   2.0000      -0.579396       -15.7662
  23   2.0000      -0.573651       -15.6098
  24   2.0000      -0.536185       -14.5903
  25   2.0000      -0.522819       -14.2266
  26   2.0000      -0.511382       -13.9154
  27   2.0000      -0.469041       -12.7632
  28   2.0000      -0.460039       -12.5183
  29   2.0000      -0.426887       -11.6162
  30   2.0000      -0.406107       -11.0507
  31   2.0000      -0.397028       -10.8037
  32   2.0000      -0.389339       -10.5944
  33   0.0000       0.138069         3.7570
  34   0.0000       0.162518         4.4223
  35   0.0000       0.169738         4.6188
  36   0.0000       0.173086         4.7099
  37   0.0000       0.185759         5.0547

MULLIKEN ATOMIC CHARGES
-----------------------
   0 C :   -0.027851
   1 O :   -0.332133
   2 C :    0.054151
   3 C :   -0.166546
   4 C :   -0.149766
   5 C :   -0.204466
   6 C :    0.031341
   7 C :   -0.252855
   8 C :   -0.135131
   9 H :    0.096471
  10 H :    0.115771
  11 H :    0.083297
  12 H :    0.139244
  13 H :    0.132939
  14 H :    0.117434
  15 H :    0.119459
  16 H :    0.117320
  17 H :    0.127858
  18 H :    0.133465
Sum of atomic charges:    0.0000000

LOEWDIN ATOMIC CHARGES
----------------------
   0 C :   -0.229105
   1 O :    0.115729
   2 C :   -0.215088
   3 C :   -0.152724
   4 C :   -0.140360
   5 C :   -0.188029
   6 C :   -0.222102
   7 C :   -0.173757
   8 C :   -0.174780
   9 H :    0.122356
  10 H :    0.121773
  11 H :    0.146462
  12 H :    0.142815
  13 H :    0.140457
  14 H :    0.137546
  15 H :    0.139172
  16 H :    0.139297
  17 H :    0.147221
  18 H :    0.143117

  Mayer bond orders larger than 0.1
B(  0-C ,  1-O ) :   0.9172 B(  0-C ,  6-C ) :   0.9482 B(  0-C ,  9-H ) :   0.9134
B(  0-C , 10-H ) :   0.9073 B(  1-O ,  2-C ) :   0.9458 B(  2-C ,  3-C ) :   0.9505
B(  2-C ,  6-C ) :   0.8971 B(  2-C , 11-H ) :   0.9611 B(  3-C ,  4-C ) :   0.8365
B(  3-C ,  8-C ) :   0.8441 B(  3-C , 12-H ) :   0.9240 B(  4-C ,  5-C ) :   0.9418
B(  4-C ,  8-C ) :   0.8482 B(  4-C , 13-H ) :   0.9341 B(  5-C ,  6-C ) :   0.9287
B(  5-C , 14-H ) :   0.9119 B(  5-C , 15-H ) :   0.9180 B(  6-C ,  7-C ) :   0.9099
B(  7-C ,  8-C ) :   0.9848 B(  7-C , 16-H ) :   0.9286 B(  7-C , 17-H ) :   0.9040
B(  8-C , 18-H ) :   0.9283

MP2 TOTAL ENERGY:     -385.174061645 Eh
FINAL SINGLE POINT ENERGY      -385.174061645331

DIPOLE MOMENT
-------------
                                X             Y             Z
Electronic contribution:      2.33703       1.88338       0.23506
Nuclear contribution   :     -2.88838      -2.48384      -0.10768
                        -----------------------------------------
Total Dipole Moment    :     -0.55136      -0.60046       0.12738
                        -----------------------------------------
Magnitude (a.u.)       :      0.82509
Magnitude (Debye)      :      2.09721

                             ****ORCA TERMINATED NORMALLY****
TOTAL RUN TIME: 0 days 0 hours 19 minutes 31 seconds 892 msec
