                         Program Version 3.0.3 - RELEASE   -
|  1> ! RI-MP2 RIJK def2-TZVP def2-TZVP/C def2-TZVP/JK TIGHTSCF
|  2> % maxcore 2000
|  3> % mp2 density relaxed end
|  4> *xyz 0 1
|  5>  C       -0.0084063668     1.5080321008     0.0292733974
|  6>  C        0.0007093609     0.0155682910    -0.0017125531
|  7>  C       -0.0432847922    -0.7859667432    -1.0774996455
|  8>  N       -0.0139364893    -2.1443705219    -0.7196827689
|  9>  C        0.0417028605    -2.3006177224     0.6533883171
| 10>  O        0.0922118998    -3.3401430716     1.2673545017
| 11>  C        0.0590439318    -0.8775406037     1.1895009929
| 12>  C        0.7796764578    -0.5792832529     2.4641894965
| 13>  N       -0.6778607113    -0.6420747187     2.4556164001
| 14>  H        0.9003426406     1.9150473911     0.4911058564
| 15>  H       -0.0754569522     1.9169412051    -0.9827393822
| 16>  H       -0.8596904927     1.9064578839     0.5972345345
| 17>  H       -0.0894851807    -0.5107127837    -2.1217130398
| 18>  H       -0.0446552671    -2.9209880598    -1.3579465916
| 19>  H        1.2630642044    -1.4101441635     2.9703807368
| 20>  H        1.2749706304     0.3842155795     2.5517353448
| 21>  H       -1.0659836741     0.2993605999     2.4322667030
| 22> *
| 23>
| 24>                          ****END OF INPUT****

CARTESIAN COORDINATES (ANGSTROEM)
---------------------------------
  C     -0.008406    1.508032    0.029273
  C      0.000709    0.015568   -0.001713
  C     -0.043285   -0.785967   -1.077500
  N     -0.013936   -2.144371   -0.719683
  C      0.041703   -2.300618    0.653388
  O      0.092212   -3.340143    1.267355
  C      0.059044   -0.877541    1.189501
  C      0.779676   -0.579283    2.464189
  N     -0.677861   -0.642075    2.455616
  H      0.900343    1.915047    0.491106
  H     -0.075457    1.916941   -0.982739
  H     -0.859690    1.906458    0.597235
  H     -0.089485   -0.510713   -2.121713
  H     -0.044655   -2.920988   -1.357947
  H      1.263064   -1.410144    2.970381
  H      1.274971    0.384216    2.551735
  H     -1.065984    0.299361    2.432267

 Total Charge           Charge          ....    0
 Multiplicity           Mult            ....    1
 Number of Electrons    NEL             ....   66
 Basis Dimension        Dim             ....  327

ORBITAL ENERGIES
----------------

  NO   OCC          E(Eh)            E(eV)
   0   2.0000     -20.523096      -558.4618
   1   2.0000     -15.596292      -424.3967
   2   2.0000     -15.576933      -423.8699
   3   2.0000     -11.351233      -308.8827
   4   2.0000     -11.284599      -307.0695
   5   2.0000     -11.281795      -306.9932
   6   2.0000     -11.271385      -306.7100
   7   2.0000     -11.244588      -305.9808
   8   2.0000     -11.243786      -305.9590
   9   2.0000      -1.387749       -37.7626
  10   2.0000      -1.285825       -34.9891
  11   2.0000      -1.260878       -34.3102
  12   2.0000      -1.076568       -29.2949
  13   2.0000      -0.964639       -26.2492
  14   2.0000      -0.939734       -25.5715
  15   2.0000      -0.889133       -24.1945
  16   2.0000      -0.782281       -21.2870
  17   2.0000      -0.775576       -21.1045
  18   2.0000      -0.715847       -19.4792
  19   2.0000      -0.668515       -18.1912
  20   2.0000      -0.655319       -17.8321
  21   2.0000      -0.613436       -16.6924
  22   2.0000      -0.609327       -16.5806
  23   2.0000      -0.593220       -16.1423
  24   2.0000      -0.581387       -15.8204
  25   2.0000      -0.565717       -15.3939
  26   2.0000      -0.539099       -14.6696
  27   2.0000      -0.495561       -13.4849
  28   2.0000      -0.489095       -13.3089
  29   2.0000      -0.474015       -12.8986
  30   2.0000      -0.432840       -11.7782
  31   2.0000      -0.403527       -10.9805
  32   2.0000      -0.315215        -8.5774
  33   0.0000       0.121406         3.3036
  34   0.0000       0.124875         3.3980
  35   0.0000       0.138982         3.7819
  36   0.0000       0.168296         4.5796
  37   0.0000       0.171371         4.6632

MULLIKEN ATOMIC CHARGES
-----------------------
   0 C :   -0.435991
   1 C :    0.023826
   2 C :   -0.058254
   3 N :   -0.273604
   4 C :    0.184996
   5 O :   -0.315377
   6 C :    0.162938
   7 C :   -0.224775
   8 N :   -0.384269
   9 H :    0.142844
  10 H :    0.144550
  11 H :    0.139044
  12 H :    0.146972
  13 H :    0.244172
  14 H :    0.148070
  15 H :    0.133621
  16 H :    0.221237
Sum of atomic charges:   -0.0000000

LOEWDIN ATOMIC CHARGES
----------------------
   0 C :   -0.275589
   1 C :   -0.185129
   2 C :   -0.173269
   3 N :    0.150733
   4 C :   -0.379900
   5 O :    0.110876
   6 C :   -0.222210
   7 C :   -0.218640
   8 N :    0.037531
   9 H :    0.130826
  10 H :    0.136259
  11 H :    0.128260
  12 H :    0.139580
  13 H :    0.187956
  14 H :    0.137766
  15 H :    0.124479
  16 H :    0.170472

  Mayer bond orders larger than 0.1
B(  0-C ,  1-C ) :   0.8526 B(  0-C ,  9-H ) :   0.9348 B(  0-C , 10-H ) :   0.9459
B(  0-C , 11-H ) :   0.9369 B(  1-C ,  2-C ) :   1.7383 B(  1-C ,  6-C ) :   0.9471
B(  2-C ,  3-N ) :   0.9910 B(  2-C , 12-H ) :   0.9019 B(  3-N ,  4-C ) :   1.1173
B(  3-N , 13-H ) :   0.8642 B(  4-C ,  5-O ) :   2.0717 B(  4-C ,  6-C ) :   0.8712
B(  5-O ,  6-C ) :  -0.1098 B(  6-C ,  7-C ) :   0.8678 B(  6-C ,  8-N ) :   0.7941
B(  7-C ,  8-N ) :   1.0044 B(  7-C , 14-H ) :   0.9112 B(  7-C , 15-H ) :   0.9236
B(  8-N , 16-H ) :   0.8698

MP2 TOTAL ENERGY:     -417.314336875 Eh
FINAL SINGLE POINT ENERGY      -417.314336874731

DIPOLE MOMENT
-------------
                                X             Y             Z
Electronic contribution:     -0.73329      -7.65702      -0.12217
Nuclear contribution   :      1.03439       9.13118      -1.03315
                        -----------------------------------------
Total Dipole Moment    :      0.30110       1.47416      -1.15532
                        -----------------------------------------
Magnitude (a.u.)       :      1.89699
Magnitude (Debye)      :      4.82176

                             ****ORCA TERMINATED NORMALLY****
TOTAL RUN TIME: 0 days 0 hours 17 minutes 20 seconds 543 msec
