                         Program Version 3.0.3 - RELEASE   -
|  1> ! RI-MP2 RIJK def2-TZVP def2-TZVP/C def2-TZVP/JK TIGHTSCF
|  2> % maxcore 2000
|  3> % mp2 density relaxed end
|  4> *xyz 0 1
|  5>  N       -0.0287688129     1.3033797066     0.0162330123
|  6>  C        0.0003956374     0.0477641769     0.0092134843
|  7>  O        1.1000882374    -0.7569189161     0.0019492191
|  8>  C        0.6798664324    -2.1287000462    -0.0373485210
|  9>  O       -0.7431137624    -2.1315727668     0.0138855439
| 10>  C       -1.2151029771    -0.8465979400     0.0225065127
| 11>  O       -2.3684047802    -0.5647171962     0.0462499088
| 12>  C        1.1672028764    -2.7882655389    -1.2409992499
| 13>  C        1.5850169401    -3.3502771394    -2.2148749362
| 14>  H        0.9119873688     1.7012976267     0.0051870431
| 15>  H        1.0571237130    -2.6230955667     0.8643913602
| 16>  H        1.9499715170    -3.8447317500    -3.0824534872
| 17> *
| 18>
| 19>                          ****END OF INPUT****

CARTESIAN COORDINATES (ANGSTROEM)
---------------------------------
  N     -0.028769    1.303380    0.016233
  C      0.000396    0.047764    0.009213
  O      1.100088   -0.756919    0.001949
  C      0.679866   -2.128700   -0.037349
  O     -0.743114   -2.131573    0.013886
  C     -1.215103   -0.846598    0.022507
  O     -2.368405   -0.564717    0.046250
  C      1.167203   -2.788266   -1.240999
  C      1.585017   -3.350277   -2.214875
  H      0.911987    1.701298    0.005187
  H      1.057124   -2.623096    0.864391
  H      1.949972   -3.844732   -3.082453

 Total Charge           Charge          ....    0
 Multiplicity           Mult            ....    1
 Number of Electrons    NEL             ....   64
 Basis Dimension        Dim             ....  297

ORBITAL ENERGIES
----------------

  NO   OCC          E(Eh)            E(eV)
   0   2.0000     -20.648840      -561.8835
   1   2.0000     -20.648684      -561.8793
   2   2.0000     -20.581362      -560.0473
   3   2.0000     -15.585589      -424.1054
   4   2.0000     -11.424887      -310.8870
   5   2.0000     -11.418675      -310.7179
   6   2.0000     -11.382474      -309.7329
   7   2.0000     -11.274243      -306.7878
   8   2.0000     -11.268038      -306.6189
   9   2.0000      -1.538928       -41.8764
  10   2.0000      -1.453833       -39.5608
  11   2.0000      -1.403320       -38.1863
  12   2.0000      -1.242532       -33.8110
  13   2.0000      -1.098855       -29.9014
  14   2.0000      -1.013074       -27.5671
  15   2.0000      -0.932134       -25.3647
  16   2.0000      -0.842432       -22.9238
  17   2.0000      -0.804218       -21.8839
  18   2.0000      -0.759190       -20.6586
  19   2.0000      -0.740607       -20.1530
  20   2.0000      -0.721975       -19.6459
  21   2.0000      -0.693082       -18.8597
  22   2.0000      -0.636371       -17.3165
  23   2.0000      -0.633341       -17.2341
  24   2.0000      -0.617848       -16.8125
  25   2.0000      -0.601599       -16.3703
  26   2.0000      -0.506921       -13.7940
  27   2.0000      -0.500797       -13.6274
  28   2.0000      -0.471164       -12.8210
  29   2.0000      -0.449760       -12.2386
  30   2.0000      -0.436506       -11.8779
  31   2.0000      -0.435001       -11.8370
  32   0.0000       0.075903         2.0654
  33   0.0000       0.118660         3.2289
  34   0.0000       0.128536         3.4976
  35   0.0000       0.148113         4.0304
  36   0.0000       0.156738         4.2650

MULLIKEN ATOMIC CHARGES
-----------------------
   0 N :   -0.317678
   1 C :    0.099351
   2 O :   -0.238335
   3 C :    0.121674
   4 O :   -0.209938
   5 C :    0.294257
   6 O :   -0.226076
   7 C :   -0.058919
   8 C :   -0.060881
   9 H :    0.238640
  10 H :    0.146876
  11 H :    0.211029
Sum of atomic charges:    0.0000000

LOEWDIN ATOMIC CHARGES
----------------------
   0 N :    0.002830
   1 C :   -0.384650
   2 O :    0.272662
   3 C :   -0.313155
   4 O :    0.291487
   5 C :   -0.424684
   6 O :    0.199840
   7 C :   -0.080263
   8 C :   -0.034842
   9 H :    0.178230
  10 H :    0.156969
  11 H :    0.135576

  Mayer bond orders larger than 0.1
B(  0-N ,  1-C ) :   2.0275 B(  0-N ,  9-H ) :   0.8471 B(  1-C ,  2-O ) :   1.0634
B(  1-C ,  5-C ) :   0.8973 B(  2-O ,  3-C ) :   0.9260 B(  3-C ,  4-O ) :   0.9612
B(  3-C ,  7-C ) :   1.1258 B(  3-C , 10-H ) :   0.9348 B(  4-O ,  5-C ) :   1.0796
B(  5-C ,  6-O ) :   2.0601 B(  7-C ,  8-C ) :   2.5944 B(  8-C , 11-H ) :   0.8868

MP2 TOTAL ENERGY:     -471.853115523 Eh
FINAL SINGLE POINT ENERGY      -471.853115522570

DIPOLE MOMENT
-------------
                                X             Y             Z
Electronic contribution:     -2.03107       0.15807       0.87498
Nuclear contribution   :      3.69270      -1.06496      -1.09984
                        -----------------------------------------
Total Dipole Moment    :      1.66162      -0.90689      -0.22486
                        -----------------------------------------
Magnitude (a.u.)       :      1.90631
Magnitude (Debye)      :      4.84544

                             ****ORCA TERMINATED NORMALLY****
TOTAL RUN TIME: 0 days 0 hours 12 minutes 26 seconds 702 msec
