                         Program Version 3.0.3 - RELEASE   -
|  1> ! RI-MP2 RIJK def2-TZVP def2-TZVP/C def2-TZVP/JK TIGHTSCF
|  2> % maxcore 2000
|  3> % mp2 density relaxed end
|  4> *xyz 0 1
|  5>  C       -0.0586117090     1.6295114928    -0.0014948876
|  6>  C       -0.0220096202     0.1017402028     0.0821597819
|  7>  C       -1.4210052816    -0.5540701870    -0.0014595459
|  8>  C       -2.1022634100    -0.1801864218    -1.2413985981
|  9>  C       -2.6180923606     0.1285218062    -2.2828229364
| 10>  C       -1.3853537904    -2.0977877590     0.1251143309
| 11>  C       -0.6429419473    -2.5972785390     1.3668684256
| 12>  O       -2.7441293339    -2.5133490559     0.1636246106
| 13>  C       -2.9838632788    -3.7955674962    -0.3648763705
| 14>  H        0.9509532858     2.0452750868     0.0706997070
| 15>  H       -0.4992582372     1.9624672102    -0.9448174912
| 16>  H       -0.6537232469     2.0547800324     0.8144308293
| 17>  H        0.6053543937    -0.2995082547    -0.7235201087
| 18>  H        0.4448096867    -0.1954168302     1.0262685093
| 19>  H       -2.0227467095    -0.1923976530     0.8449623222
| 20>  H       -3.0964907891     0.3996357671    -3.1910407483
| 21>  H       -0.9036318139    -2.5028534238    -0.7791244946
| 22>  H       -0.7831922232    -3.6763114581     1.4778853798
| 23>  H        0.4323277141    -2.4116949985     1.3020552728
| 24>  H       -1.0307148254    -2.1120601494     2.2686328789
| 25>  H       -2.4616788294    -4.5894384568     0.1909563657
| 26>  H       -4.0593083800    -3.9764609456    -0.2925577784
| 27>  H       -2.6845034940    -3.8600092492    -1.4221114944
| 28> *
| 29>
| 30>                          ****END OF INPUT****

CARTESIAN COORDINATES (ANGSTROEM)
---------------------------------
  C     -0.058612    1.629511   -0.001495
  C     -0.022010    0.101740    0.082160
  C     -1.421005   -0.554070   -0.001460
  C     -2.102263   -0.180186   -1.241399
  C     -2.618092    0.128522   -2.282823
  C     -1.385354   -2.097788    0.125114
  C     -0.642942   -2.597279    1.366868
  O     -2.744129   -2.513349    0.163625
  C     -2.983863   -3.795567   -0.364876
  H      0.950953    2.045275    0.070700
  H     -0.499258    1.962467   -0.944817
  H     -0.653723    2.054780    0.814431
  H      0.605354   -0.299508   -0.723520
  H      0.444810   -0.195417    1.026269
  H     -2.022747   -0.192398    0.844962
  H     -3.096491    0.399636   -3.191041
  H     -0.903632   -2.502853   -0.779124
  H     -0.783192   -3.676311    1.477885
  H      0.432328   -2.411695    1.302055
  H     -1.030715   -2.112060    2.268633
  H     -2.461679   -4.589438    0.190956
  H     -4.059308   -3.976461   -0.292558
  H     -2.684503   -3.860009   -1.422111

 Total Charge           Charge          ....    0
 Multiplicity           Mult            ....    1
 Number of Electrons    NEL             ....   70
 Basis Dimension        Dim             ....  363

ORBITAL ENERGIES
----------------

  NO   OCC          E(Eh)            E(eV)
   0   2.0000     -20.550254      -559.2008
   1   2.0000     -11.286390      -307.1183
   2   2.0000     -11.267917      -306.6156
   3   2.0000     -11.251076      -306.1573
   4   2.0000     -11.229298      -305.5647
   5   2.0000     -11.224267      -305.4278
   6   2.0000     -11.218881      -305.2813
   7   2.0000     -11.211783      -305.0881
   8   2.0000     -11.210954      -305.0656
   9   2.0000      -1.373375       -37.3714
  10   2.0000      -1.107908       -30.1477
  11   2.0000      -1.018583       -27.7171
  12   2.0000      -1.009637       -27.4736
  13   2.0000      -0.940302       -25.5869
  14   2.0000      -0.917034       -24.9538
  15   2.0000      -0.829990       -22.5852
  16   2.0000      -0.800200       -21.7746
  17   2.0000      -0.716102       -19.4861
  18   2.0000      -0.674221       -18.3465
  19   2.0000      -0.657994       -17.9049
  20   2.0000      -0.639334       -17.3971
  21   2.0000      -0.630079       -17.1453
  22   2.0000      -0.589505       -16.0413
  23   2.0000      -0.571741       -15.5579
  24   2.0000      -0.558093       -15.1865
  25   2.0000      -0.551755       -15.0140
  26   2.0000      -0.532768       -14.4974
  27   2.0000      -0.517092       -14.0708
  28   2.0000      -0.493414       -13.4265
  29   2.0000      -0.486201       -13.2302
  30   2.0000      -0.479915       -13.0591
  31   2.0000      -0.464225       -12.6322
  32   2.0000      -0.419822       -11.4240
  33   2.0000      -0.377109       -10.2617
  34   2.0000      -0.375951       -10.2301
  35   0.0000       0.133623         3.6361
  36   0.0000       0.151591         4.1250
  37   0.0000       0.162970         4.4346
  38   0.0000       0.169228         4.6049
  39   0.0000       0.175464         4.7746

MULLIKEN ATOMIC CHARGES
-----------------------
   0 C :   -0.399625
   1 C :   -0.210811
   2 C :   -0.101197
   3 C :   -0.042200
   4 C :   -0.180073
   5 C :    0.101675
   6 C :   -0.405959
   7 O :   -0.304517
   8 C :   -0.222786
   9 H :    0.132608
  10 H :    0.146458
  11 H :    0.122489
  12 H :    0.112589
  13 H :    0.118351
  14 H :    0.106318
  15 H :    0.184468
  16 H :    0.073879
  17 H :    0.134221
  18 H :    0.137022
  19 H :    0.133198
  20 H :    0.104251
  21 H :    0.139083
  22 H :    0.120557
Sum of atomic charges:   -0.0000000

LOEWDIN ATOMIC CHARGES
----------------------
   0 C :   -0.311601
   1 C :   -0.253841
   2 C :   -0.225789
   3 C :   -0.083526
   4 C :   -0.106635
   5 C :   -0.314965
   6 C :   -0.295250
   7 O :    0.166860
   8 C :   -0.361057
   9 H :    0.121126
  10 H :    0.127718
  11 H :    0.122264
  12 H :    0.141167
  13 H :    0.138949
  14 H :    0.174736
  15 H :    0.125046
  16 H :    0.141264
  17 H :    0.124903
  18 H :    0.124033
  19 H :    0.127634
  20 H :    0.098939
  21 H :    0.114565
  22 H :    0.103459

  Mayer bond orders larger than 0.1
B(  0-C ,  1-C ) :   0.9283 B(  0-C ,  9-H ) :   0.9404 B(  0-C , 10-H ) :   0.9371
B(  0-C , 11-H ) :   0.9370 B(  1-C ,  2-C ) :   0.8931 B(  1-C , 12-H ) :   0.9192
B(  1-C , 13-H ) :   0.9332 B(  2-C ,  3-C ) :   1.1391 B(  2-C ,  5-C ) :   0.9262
B(  2-C , 14-H ) :   0.8943 B(  3-C ,  4-C ) :   2.5919 B(  4-C , 15-H ) :   0.8972
B(  5-C ,  6-C ) :   0.9002 B(  5-C ,  7-O ) :   0.9250 B(  5-C , 16-H ) :   0.9252
B(  6-C , 17-H ) :   0.9319 B(  6-C , 18-H ) :   0.9368 B(  6-C , 19-H ) :   0.9352
B(  7-O ,  8-C ) :   0.9212 B(  8-C , 20-H ) :   0.9309 B(  8-C , 21-H ) :   0.9406
B(  8-C , 22-H ) :   0.9391

MP2 TOTAL ENERGY:     -387.568825928 Eh
FINAL SINGLE POINT ENERGY      -387.568825928095

DIPOLE MOMENT
-------------
                                X             Y             Z
Electronic contribution:     -5.00421       0.72200      -3.14193
Nuclear contribution   :      5.46131      -1.08853       3.16596
                        -----------------------------------------
Total Dipole Moment    :      0.45710      -0.36653       0.02403
                        -----------------------------------------
Magnitude (a.u.)       :      0.58640
Magnitude (Debye)      :      1.49051

                             ****ORCA TERMINATED NORMALLY****
TOTAL RUN TIME: 0 days 0 hours 21 minutes 19 seconds 972 msec
