                         Program Version 3.0.3 - RELEASE   -
|  1> ! RI-MP2 RIJK def2-TZVP def2-TZVP/C def2-TZVP/JK TIGHTSCF
|  2> % maxcore 2000
|  3> % mp2 density relaxed end
|  4> *xyz 0 1
|  5>  O        0.0460247978    -0.0628267472     0.1304463933
|  6>  C       -0.0149486092     1.1425457279     0.0135751500
|  7>  C       -1.3326480790     1.9006660495    -0.0410069877
|  8>  C       -1.2700330406     3.1499933287    -0.9341152052
|  9>  C       -0.0448309412     4.0109767353    -0.6664768635
| 10>  O       -0.0527366179     5.2185172753    -0.7763834423
| 11>  C        1.2020371474     3.2826436930    -0.3107443963
| 12>  C        1.2192629371     1.9712046420    -0.0279810575
| 13>  H       -2.1187486767     1.2101004342    -0.3540845950
| 14>  H       -1.5629724602     2.2008293837     0.9907803849
| 15>  H       -1.2115420604     2.8428635334    -1.9876726465
| 16>  H       -2.1616725143     3.7726755594    -0.8336276881
| 17>  H        2.1055462232     3.8857361238    -0.3002214151
| 18>  H        2.1419385640     1.4419675008     0.1927827591
| 19> *
| 20>
| 21>                          ****END OF INPUT****

CARTESIAN COORDINATES (ANGSTROEM)
---------------------------------
  O      0.046025   -0.062827    0.130446
  C     -0.014949    1.142546    0.013575
  C     -1.332648    1.900666   -0.041007
  C     -1.270033    3.149993   -0.934115
  C     -0.044831    4.010977   -0.666477
  O     -0.052737    5.218517   -0.776383
  C      1.202037    3.282644   -0.310744
  C      1.219263    1.971205   -0.027981
  H     -2.118749    1.210100   -0.354085
  H     -1.562972    2.200829    0.990780
  H     -1.211542    2.842864   -1.987673
  H     -2.161673    3.772676   -0.833628
  H      2.105546    3.885736   -0.300221
  H      2.141939    1.441968    0.192783

 Total Charge           Charge          ....    0
 Multiplicity           Mult            ....    1
 Number of Electrons    NEL             ....   58
 Basis Dimension        Dim             ....  284

ORBITAL ENERGIES
----------------

  NO   OCC          E(Eh)            E(eV)
   0   2.0000     -20.565569      -559.6176
   1   2.0000     -20.565567      -559.6175
   2   2.0000     -11.352184      -308.9086
   3   2.0000     -11.352178      -308.9085
   4   2.0000     -11.280555      -306.9595
   5   2.0000     -11.278906      -306.9146
   6   2.0000     -11.262616      -306.4714
   7   2.0000     -11.262027      -306.4553
   8   2.0000      -1.407701       -38.3055
   9   2.0000      -1.405639       -38.2494
  10   2.0000      -1.144434       -31.1416
  11   2.0000      -1.063484       -28.9389
  12   2.0000      -0.971200       -26.4277
  13   2.0000      -0.886175       -24.1140
  14   2.0000      -0.811523       -22.0827
  15   2.0000      -0.711138       -19.3511
  16   2.0000      -0.702517       -19.1165
  17   2.0000      -0.684718       -18.6321
  18   2.0000      -0.656607       -17.8672
  19   2.0000      -0.623061       -16.9544
  20   2.0000      -0.615726       -16.7548
  21   2.0000      -0.586320       -15.9546
  22   2.0000      -0.582352       -15.8466
  23   2.0000      -0.558918       -15.2089
  24   2.0000      -0.540198       -14.6995
  25   2.0000      -0.502109       -13.6631
  26   2.0000      -0.441517       -12.0143
  27   2.0000      -0.427146       -11.6232
  28   2.0000      -0.411701       -11.2030
  29   0.0000       0.039724         1.0809
  30   0.0000       0.123512         3.3609
  31   0.0000       0.138489         3.7685
  32   0.0000       0.161645         4.3986
  33   0.0000       0.165781         4.5111

MULLIKEN ATOMIC CHARGES
-----------------------
   0 O :   -0.271852
   1 C :    0.202922
   2 C :   -0.224077
   3 C :   -0.224071
   4 C :    0.202926
   5 O :   -0.271850
   6 C :   -0.156616
   7 C :   -0.156631
   8 H :    0.150155
   9 H :    0.146035
  10 H :    0.146030
  11 H :    0.150152
  12 H :    0.153439
  13 H :    0.153437
Sum of atomic charges:    0.0000000

LOEWDIN ATOMIC CHARGES
----------------------
   0 O :    0.160861
   1 C :   -0.320947
   2 C :   -0.216094
   3 C :   -0.216095
   4 C :   -0.320948
   5 O :    0.160863
   6 C :   -0.093397
   7 C :   -0.093402
   8 H :    0.151685
   9 H :    0.160939
  10 H :    0.160938
  11 H :    0.151683
  12 H :    0.156957
  13 H :    0.156957

  Mayer bond orders larger than 0.1
B(  0-O ,  1-C ) :   1.9586 B(  1-C ,  2-C ) :   0.9113 B(  1-C ,  7-C ) :   0.9728
B(  2-C ,  3-C ) :   0.8724 B(  2-C ,  8-H ) :   0.9229 B(  2-C ,  9-H ) :   0.9011
B(  3-C ,  4-C ) :   0.9113 B(  3-C , 10-H ) :   0.9011 B(  3-C , 11-H ) :   0.9229
B(  4-C ,  5-O ) :   1.9586 B(  4-C ,  6-C ) :   0.9728 B(  6-C ,  7-C ) :   1.6161
B(  6-C , 12-H ) :   0.9151 B(  7-C , 13-H ) :   0.9151

MP2 TOTAL ENERGY:     -381.944397872 Eh
FINAL SINGLE POINT ENERGY      -381.944397871880

DIPOLE MOMENT
-------------
                                X             Y             Z
Electronic contribution:      2.27975       0.09228       0.28904
Nuclear contribution   :     -2.33418      -0.09449      -0.29612
                        -----------------------------------------
Total Dipole Moment    :     -0.05444      -0.00221      -0.00708
                        -----------------------------------------
Magnitude (a.u.)       :      0.05494
Magnitude (Debye)      :      0.13964

                             ****ORCA TERMINATED NORMALLY****
TOTAL RUN TIME: 0 days 0 hours 9 minutes 49 seconds 357 msec
