                         Program Version 3.0.3 - RELEASE   -
|  1> ! RI-MP2 RIJK def2-TZVP def2-TZVP/C def2-TZVP/JK TIGHTSCF
|  2> % maxcore 2000
|  3> % mp2 density relaxed end
|  4> *xyz 0 1
|  5>  C       -0.0313665283     1.4969646000    -0.0449090589
|  6>  C        0.1528626539    -0.0038334622    -0.0242443057
|  7>  C        1.5423702121    -0.6150870747     0.0325656007
|  8>  C        0.6136438162    -0.7148465680     1.2183892051
|  9>  O        0.8798221333     0.1081207149     2.3258066647
| 10>  C       -0.0046592678    -2.0465520102     1.5848951042
| 11>  N        0.8822700448    -2.8090192607     2.4645419720
| 12>  C        0.6438807310    -2.6551303447     3.9010138581
| 13>  C        0.2581091889    -3.9060381936     3.1969833476
| 14>  H        0.6684939502     1.9838195819     0.6375775617
| 15>  H        0.1304413207     1.8961755767    -1.0520171640
| 16>  H       -1.0442302299     1.7747081685     0.2667694747
| 17>  H       -0.5713066513    -0.5538520859    -0.6214133260
| 18>  H        1.7556681801    -1.5081975700    -0.5448985468
| 19>  H        2.3751067821     0.0741408606     0.1291672128
| 20>  H        1.6433292255    -0.2686958919     2.7766753742
| 21>  H       -0.9920092558    -1.8741260157     2.0516590811
| 22>  H       -0.1677222176    -2.6350149437     0.6748655039
| 23>  H        1.5307872310    -2.6304316121     4.5286247046
| 24>  H       -0.1556177076    -1.9862209225     4.2123773171
| 25>  H       -0.8057156198    -4.0799638229     3.0416562207
| 26>  H        0.8560940685    -4.8071345337     3.2984759784
| 27> *
| 28>
| 29>                          ****END OF INPUT****

CARTESIAN COORDINATES (ANGSTROEM)
---------------------------------
  C     -0.031367    1.496965   -0.044909
  C      0.152863   -0.003833   -0.024244
  C      1.542370   -0.615087    0.032566
  C      0.613644   -0.714847    1.218389
  O      0.879822    0.108121    2.325807
  C     -0.004659   -2.046552    1.584895
  N      0.882270   -2.809019    2.464542
  C      0.643881   -2.655130    3.901014
  C      0.258109   -3.906038    3.196983
  H      0.668494    1.983820    0.637578
  H      0.130441    1.896176   -1.052017
  H     -1.044230    1.774708    0.266769
  H     -0.571307   -0.553852   -0.621413
  H      1.755668   -1.508198   -0.544899
  H      2.375107    0.074141    0.129167
  H      1.643329   -0.268696    2.776675
  H     -0.992009   -1.874126    2.051659
  H     -0.167722   -2.635015    0.674866
  H      1.530787   -2.630432    4.528625
  H     -0.155618   -1.986221    4.212377
  H     -0.805716   -4.079964    3.041656
  H      0.856094   -4.807135    3.298476

 Total Charge           Charge          ....    0
 Multiplicity           Mult            ....    1
 Number of Electrons    NEL             ....   70
 Basis Dimension        Dim             ....  357

ORBITAL ENERGIES
----------------

  NO   OCC          E(Eh)            E(eV)
   0   2.0000     -20.555416      -559.3413
   1   2.0000     -15.561514      -423.4503
   2   2.0000     -11.278916      -306.9149
   3   2.0000     -11.255810      -306.2862
   4   2.0000     -11.254868      -306.2605
   5   2.0000     -11.253901      -306.2342
   6   2.0000     -11.226789      -305.4965
   7   2.0000     -11.216229      -305.2091
   8   2.0000     -11.208356      -304.9949
   9   2.0000      -1.368418       -37.2366
  10   2.0000      -1.273359       -34.6499
  11   2.0000      -1.133809       -30.8525
  12   2.0000      -1.007456       -27.4143
  13   2.0000      -0.947924       -25.7943
  14   2.0000      -0.847734       -23.0680
  15   2.0000      -0.844023       -22.9670
  16   2.0000      -0.790517       -21.5111
  17   2.0000      -0.764694       -20.8084
  18   2.0000      -0.697098       -18.9690
  19   2.0000      -0.658744       -17.9253
  20   2.0000      -0.652944       -17.7675
  21   2.0000      -0.645486       -17.5646
  22   2.0000      -0.608436       -16.5564
  23   2.0000      -0.578761       -15.7489
  24   2.0000      -0.557647       -15.1743
  25   2.0000      -0.540667       -14.7123
  26   2.0000      -0.528447       -14.3798
  27   2.0000      -0.521520       -14.1913
  28   2.0000      -0.503617       -13.7041
  29   2.0000      -0.493349       -13.4247
  30   2.0000      -0.471117       -12.8198
  31   2.0000      -0.456303       -12.4166
  32   2.0000      -0.394011       -10.7216
  33   2.0000      -0.390539       -10.6271
  34   2.0000      -0.375694       -10.2232
  35   0.0000       0.141142         3.8407
  36   0.0000       0.153229         4.1696
  37   0.0000       0.162226         4.4144
  38   0.0000       0.174813         4.7569
  39   0.0000       0.182843         4.9754

MULLIKEN ATOMIC CHARGES
-----------------------
   0 C :   -0.416351
   1 C :   -0.082869
   2 C :   -0.326709
   3 C :    0.233674
   4 O :   -0.479472
   5 C :   -0.146043
   6 N :   -0.247769
   7 C :   -0.213577
   8 C :   -0.173571
   9 H :    0.146101
  10 H :    0.129600
  11 H :    0.127788
  12 H :    0.117968
  13 H :    0.127310
  14 H :    0.130687
  15 H :    0.332379
  16 H :    0.094494
  17 H :    0.122901
  18 H :    0.130525
  19 H :    0.139386
  20 H :    0.121526
  21 H :    0.132022
Sum of atomic charges:    0.0000000

LOEWDIN ATOMIC CHARGES
----------------------
   0 C :   -0.293003
   1 C :   -0.215508
   2 C :   -0.196038
   3 C :   -0.352908
   4 O :    0.028998
   5 C :   -0.260088
   6 N :    0.088283
   7 C :   -0.279412
   8 C :   -0.271660
   9 H :    0.130715
  10 H :    0.123983
  11 H :    0.125366
  12 H :    0.148536
  13 H :    0.133572
  14 H :    0.137571
  15 H :    0.183822
  16 H :    0.130035
  17 H :    0.142781
  18 H :    0.122649
  19 H :    0.124699
  20 H :    0.123070
  21 H :    0.124537

  Mayer bond orders larger than 0.1
B(  0-C ,  1-C ) :   0.8949 B(  0-C ,  9-H ) :   0.9351 B(  0-C , 10-H ) :   0.9394
B(  0-C , 11-H ) :   0.9391 B(  1-C ,  2-C ) :   0.8998 B(  1-C ,  3-C ) :   0.8654
B(  1-C , 12-H ) :   0.9284 B(  2-C ,  3-C ) :   0.8895 B(  2-C , 13-H ) :   0.9144
B(  2-C , 14-H ) :   0.9256 B(  3-C ,  4-O ) :   0.9700 B(  3-C ,  5-C ) :   0.9235
B(  4-O , 15-H ) :   0.8355 B(  5-C ,  6-N ) :   0.8824 B(  5-C , 16-H ) :   0.9126
B(  5-C , 17-H ) :   0.9134 B(  6-N ,  7-C ) :   0.8819 B(  6-N ,  8-C ) :   0.8877
B(  7-C ,  8-C ) :   0.9474 B(  7-C , 18-H ) :   0.9293 B(  7-C , 19-H ) :   0.9217
B(  8-C , 20-H ) :   0.9242 B(  8-C , 21-H ) :   0.9270

MP2 TOTAL ENERGY:     -403.609122184 Eh
FINAL SINGLE POINT ENERGY      -403.609122184456

DIPOLE MOMENT
-------------
                                X             Y             Z
Electronic contribution:      1.65169      -1.45712       1.97534
Nuclear contribution   :     -1.78928       1.04530      -1.90082
                        -----------------------------------------
Total Dipole Moment    :     -0.13760      -0.41182       0.07452
                        -----------------------------------------
Magnitude (a.u.)       :      0.44054
Magnitude (Debye)      :      1.11977

                             ****ORCA TERMINATED NORMALLY****
TOTAL RUN TIME: 0 days 0 hours 17 minutes 11 seconds 335 msec
