                         Program Version 3.0.3 - RELEASE   -
|  1> ! RI-MP2 RIJK def2-TZVP def2-TZVP/C def2-TZVP/JK TIGHTSCF
|  2> % maxcore 2000
|  3> % mp2 density relaxed end
|  4> *xyz 0 1
|  5>  O       -0.0027740002     1.3822738663     0.0892199842
|  6>  C        0.0103686265    -0.0136949834     0.0345295130
|  7>  C        0.4609942313    -0.6742740277     1.3904038330
|  8>  C       -0.8811961770    -1.3442180136     1.7520759034
|  9>  C       -1.2881114342    -2.0754244787     0.4545011739
| 10>  C       -1.4484670365    -0.5930499247     0.0470719077
| 11>  O       -1.8456242146    -0.3022724970     1.4133295238
| 12>  C        0.8303994099    -0.4661272558    -1.1502875844
| 13>  O        1.3321611535     0.3235765378    -1.9159508537
| 14>  H        0.4948345401     1.6787353570    -0.6899315783
| 15>  H        1.2858803616    -1.3864517082     1.2935840977
| 16>  H        0.7402078464     0.1166873043     2.0869954383
| 17>  H       -1.0070439779    -1.7621216731     2.7500821528
| 18>  H       -0.5655909356    -2.7187191984    -0.0543685200
| 19>  H       -2.2573556060    -2.5655055301     0.5476677789
| 20>  H       -2.1332660721    -0.2226834179    -0.7146050747
| 21>  H        0.9520080048    -1.5583712870    -1.2900854458
| 22> *
| 23>
| 24>                          ****END OF INPUT****

CARTESIAN COORDINATES (ANGSTROEM)
---------------------------------
  O     -0.002774    1.382274    0.089220
  C      0.010369   -0.013695    0.034530
  C      0.460994   -0.674274    1.390404
  C     -0.881196   -1.344218    1.752076
  C     -1.288111   -2.075424    0.454501
  C     -1.448467   -0.593050    0.047072
  O     -1.845624   -0.302272    1.413330
  C      0.830399   -0.466127   -1.150288
  O      1.332161    0.323577   -1.915951
  H      0.494835    1.678735   -0.689932
  H      1.285880   -1.386452    1.293584
  H      0.740208    0.116687    2.086995
  H     -1.007044   -1.762122    2.750082
  H     -0.565591   -2.718719   -0.054369
  H     -2.257356   -2.565506    0.547668
  H     -2.133266   -0.222683   -0.714605
  H      0.952008   -1.558371   -1.290085

 Total Charge           Charge          ....    0
 Multiplicity           Mult            ....    1
 Number of Electrons    NEL             ....   68
 Basis Dimension        Dim             ....  327

ORBITAL ENERGIES
----------------

  NO   OCC          E(Eh)            E(eV)
   0   2.0000     -20.583249      -560.0987
   1   2.0000     -20.562616      -559.5372
   2   2.0000     -20.559739      -559.4589
   3   2.0000     -11.352245      -308.9103
   4   2.0000     -11.310603      -307.7771
   5   2.0000     -11.306572      -307.6675
   6   2.0000     -11.304089      -307.5999
   7   2.0000     -11.250202      -306.1336
   8   2.0000     -11.246306      -306.0276
   9   2.0000      -1.430845       -38.9353
  10   2.0000      -1.409113       -38.3439
  11   2.0000      -1.365071       -37.1455
  12   2.0000      -1.096231       -29.8300
  13   2.0000      -0.991242       -26.9731
  14   2.0000      -0.981624       -26.7114
  15   2.0000      -0.877936       -23.8899
  16   2.0000      -0.793057       -21.5802
  17   2.0000      -0.767885       -20.8952
  18   2.0000      -0.740141       -20.1403
  19   2.0000      -0.724034       -19.7020
  20   2.0000      -0.685605       -18.6562
  21   2.0000      -0.663429       -18.0528
  22   2.0000      -0.616915       -16.7871
  23   2.0000      -0.587952       -15.9990
  24   2.0000      -0.573703       -15.6113
  25   2.0000      -0.561355       -15.2752
  26   2.0000      -0.546911       -14.8822
  27   2.0000      -0.537859       -14.6359
  28   2.0000      -0.524402       -14.2697
  29   2.0000      -0.497091       -13.5265
  30   2.0000      -0.484200       -13.1757
  31   2.0000      -0.457706       -12.4548
  32   2.0000      -0.445467       -12.1218
  33   2.0000      -0.410987       -11.1835
  34   0.0000       0.103374         2.8129
  35   0.0000       0.133974         3.6456
  36   0.0000       0.158231         4.3057
  37   0.0000       0.165664         4.5079
  38   0.0000       0.174258         4.7418

MULLIKEN ATOMIC CHARGES
-----------------------
   0 O :   -0.452403
   1 C :    0.240779
   2 C :   -0.271534
   3 C :    0.020119
   4 C :   -0.237183
   5 C :   -0.004369
   6 O :   -0.296421
   7 C :    0.061913
   8 O :   -0.287932
   9 H :    0.330436
  10 H :    0.129457
  11 H :    0.140474
  12 H :    0.135019
  13 H :    0.118493
  14 H :    0.131356
  15 H :    0.141049
  16 H :    0.100747
Sum of atomic charges:    0.0000000

LOEWDIN ATOMIC CHARGES
----------------------
   0 O :    0.036676
   1 C :   -0.364130
   2 C :   -0.181480
   3 C :   -0.255319
   4 C :   -0.202483
   5 C :   -0.221955
   6 O :    0.180508
   7 C :   -0.255522
   8 O :    0.130590
   9 H :    0.184012
  10 H :    0.139147
  11 H :    0.149844
  12 H :    0.132639
  13 H :    0.124880
  14 H :    0.143074
  15 H :    0.137098
  16 H :    0.122421

  Mayer bond orders larger than 0.1
B(  0-O ,  1-C ) :   1.1589 B(  0-O ,  9-H ) :   0.7990 B(  1-C ,  2-C ) :   0.8719
B(  1-C ,  5-C ) :   0.8702 B(  1-C ,  7-C ) :   0.8519 B(  2-C ,  3-C ) :   0.9215
B(  2-C , 10-H ) :   0.9064 B(  2-C , 11-H ) :   0.9142 B(  3-C ,  4-C ) :   0.9266
B(  3-C ,  6-O ) :   0.9287 B(  3-C , 12-H ) :   0.9129 B(  4-C ,  5-C ) :   0.9113
B(  4-C , 13-H ) :   0.9224 B(  4-C , 14-H ) :   0.9127 B(  5-C ,  6-O ) :   0.9275
B(  5-C , 15-H ) :   0.8983 B(  7-C ,  8-O ) :   1.8965 B(  7-C , 16-H ) :   0.9275

MP2 TOTAL ENERGY:     -458.215072008 Eh
FINAL SINGLE POINT ENERGY      -458.215072007587

DIPOLE MOMENT
-------------
                                X             Y             Z
Electronic contribution:      0.27591       3.70295      -2.02771
Nuclear contribution   :     -0.07028      -5.04365       2.04727
                        -----------------------------------------
Total Dipole Moment    :      0.20562      -1.34070       0.01955
                        -----------------------------------------
Magnitude (a.u.)       :      1.35652
Magnitude (Debye)      :      3.44800

                             ****ORCA TERMINATED NORMALLY****
TOTAL RUN TIME: 0 days 0 hours 18 minutes 16 seconds 923 msec
