                         Program Version 3.0.3 - RELEASE   -
|  1> ! RI-MP2 RIJK def2-TZVP def2-TZVP/C def2-TZVP/JK TIGHTSCF
|  2> % maxcore 2000
|  3> % mp2 density relaxed end
|  4> *xyz 0 1
|  5>  N        0.0373861771     1.3090468363     0.0667814136
|  6>  C        0.0248826111     0.0504524432     0.0072762582
|  7>  O       -1.1193756210    -0.6241579090     0.2491388099
|  8>  C       -1.1012276620    -2.0322271054     0.1750082029
|  9>  C       -1.7485003844    -2.7729384218     1.3610086372
| 10>  O       -2.6099251545    -3.5057877132     0.4653339486
| 11>  C       -2.2330565052    -2.6732345657    -0.6509926159
| 12>  H        0.9703995087     1.6584806717    -0.1404544772
| 13>  H        0.8744438523    -0.6055330541    -0.2297989582
| 14>  H       -0.1011494890    -2.3943051140    -0.0837941658
| 15>  H       -1.1096434826    -3.4333307357     1.9569293553
| 16>  H       -2.3056460463    -2.0970272605     2.0220477259
| 17>  H       -3.0143011286    -1.9512339703    -0.9204516602
| 18>  H       -1.9495943656    -3.2604997013    -1.5308493543
| 19> *
| 20>
| 21>                          ****END OF INPUT****

CARTESIAN COORDINATES (ANGSTROEM)
---------------------------------
  N      0.037386    1.309047    0.066781
  C      0.024883    0.050452    0.007276
  O     -1.119376   -0.624158    0.249139
  C     -1.101228   -2.032227    0.175008
  C     -1.748500   -2.772938    1.361009
  O     -2.609925   -3.505788    0.465334
  C     -2.233057   -2.673235   -0.650993
  H      0.970400    1.658481   -0.140454
  H      0.874444   -0.605533   -0.229799
  H     -0.101149   -2.394305   -0.083794
  H     -1.109643   -3.433331    1.956929
  H     -2.305646   -2.097027    2.022048
  H     -3.014301   -1.951234   -0.920452
  H     -1.949594   -3.260500   -1.530849

 Total Charge           Charge          ....    0
 Multiplicity           Mult            ....    1
 Number of Electrons    NEL             ....   54
 Basis Dimension        Dim             ....  259

ORBITAL ENERGIES
----------------

  NO   OCC          E(Eh)            E(eV)
   0   2.0000     -20.605149      -560.6946
   1   2.0000     -20.561151      -559.4974
   2   2.0000     -15.547414      -423.0666
   3   2.0000     -11.348329      -308.8037
   4   2.0000     -11.312774      -307.8362
   5   2.0000     -11.290574      -307.2321
   6   2.0000     -11.290561      -307.2318
   7   2.0000      -1.444827       -39.3157
   8   2.0000      -1.388833       -37.7921
   9   2.0000      -1.208037       -32.8724
  10   2.0000      -1.023389       -27.8478
  11   2.0000      -0.950212       -25.8566
  12   2.0000      -0.849458       -23.1149
  13   2.0000      -0.812448       -22.1078
  14   2.0000      -0.733411       -19.9571
  15   2.0000      -0.705600       -19.2003
  16   2.0000      -0.664198       -18.0738
  17   2.0000      -0.658170       -17.9097
  18   2.0000      -0.633482       -17.2379
  19   2.0000      -0.585668       -15.9368
  20   2.0000      -0.574898       -15.6438
  21   2.0000      -0.547139       -14.8884
  22   2.0000      -0.489887       -13.3305
  23   2.0000      -0.486773       -13.2458
  24   2.0000      -0.445553       -12.1241
  25   2.0000      -0.429032       -11.6746
  26   2.0000      -0.404617       -11.0102
  27   0.0000       0.134638         3.6637
  28   0.0000       0.152381         4.1465
  29   0.0000       0.153093         4.1659
  30   0.0000       0.166482         4.5302
  31   0.0000       0.173424         4.7191

MULLIKEN ATOMIC CHARGES
-----------------------
   0 N :   -0.341909
   1 C :    0.061645
   2 O :   -0.208525
   3 C :    0.022953
   4 C :   -0.023729
   5 O :   -0.324480
   6 C :   -0.023729
   7 H :    0.226967
   8 H :    0.080483
   9 H :    0.092072
  10 H :    0.107655
  11 H :    0.111469
  12 H :    0.111472
  13 H :    0.107655
Sum of atomic charges:   -0.0000000

LOEWDIN ATOMIC CHARGES
----------------------
   0 N :   -0.078201
   1 C :   -0.398037
   2 O :    0.271224
   3 C :   -0.299274
   4 C :   -0.252872
   5 O :    0.112946
   6 C :   -0.252867
   7 H :    0.169409
   8 H :    0.105181
   9 H :    0.132731
  10 H :    0.118567
  11 H :    0.126313
  12 H :    0.126313
  13 H :    0.118568

  Mayer bond orders larger than 0.1
B(  0-N ,  1-C ) :   1.9598 B(  0-N ,  7-H ) :   0.8489 B(  1-C ,  2-O ) :   1.0376
B(  1-C ,  8-H ) :   0.9244 B(  2-O ,  3-C ) :   0.9267 B(  3-C ,  4-C ) :   0.9674
B(  3-C ,  6-C ) :   0.9674 B(  3-C ,  9-H ) :   0.9203 B(  4-C ,  5-O ) :   0.9492
B(  4-C , 10-H ) :   0.9160 B(  4-C , 11-H ) :   0.9023 B(  5-O ,  6-C ) :   0.9492
B(  6-C , 12-H ) :   0.9023 B(  6-C , 13-H ) :   0.9160

MP2 TOTAL ENERGY:     -361.093036622 Eh
FINAL SINGLE POINT ENERGY      -361.093036622267

DIPOLE MOMENT
-------------
                                X             Y             Z
Electronic contribution:     -0.79179       1.09254       0.24469
Nuclear contribution   :      1.98570      -1.65143      -0.55988
                        -----------------------------------------
Total Dipole Moment    :      1.19391      -0.55889      -0.31519
                        -----------------------------------------
Magnitude (a.u.)       :      1.35541
Magnitude (Debye)      :      3.44517

                             ****ORCA TERMINATED NORMALLY****
TOTAL RUN TIME: 0 days 0 hours 6 minutes 27 seconds 933 msec
