                         Program Version 3.0.3 - RELEASE   -
|  1> ! RI-MP2 RIJK def2-TZVP def2-TZVP/C def2-TZVP/JK TIGHTSCF
|  2> % maxcore 2000
|  3> % mp2 density relaxed end
|  4> *xyz 0 1
|  5>  O       -0.0810683429     1.3343455592     0.0368662228
|  6>  C        0.0369386942    -0.0610548490     0.0227513082
|  7>  C        1.0141180289    -0.6957786732     1.0191967643
|  8>  C        1.2583501679    -2.1016063437     0.3895830822
|  9>  N        0.4553989102    -2.1705567927    -0.8558654033
| 10>  C       -0.9990617838    -2.1294384957    -0.6022074557
| 11>  C       -1.2429050294    -0.9854679198    -1.5311818299
| 12>  C       -1.3358948932    -0.7340632216    -0.0384289370
| 13>  C        0.2921371949    -0.7683350144    -1.3623945397
| 14>  H        0.8029208891     1.7080587164    -0.0530517171
| 15>  H        1.9423869221    -0.1132232563     1.0749174077
| 16>  H        0.5943974088    -0.7379919466     2.0281018997
| 17>  H        2.3131243345    -2.2459288915     0.1345647657
| 18>  H        0.9664004228    -2.9233541486     1.0492748906
| 19>  H       -1.5886675438    -3.0155874165    -0.4025030357
| 20>  H       -1.9361462419    -0.8487611363    -2.3460076794
| 21>  H       -2.2038061401    -0.5318616366     0.5756905891
| 22>  H        1.0120893516    -0.3894737932    -2.0882741126
| 23> *
| 24>
| 25>                          ****END OF INPUT****

CARTESIAN COORDINATES (ANGSTROEM)
---------------------------------
  O     -0.081068    1.334346    0.036866
  C      0.036939   -0.061055    0.022751
  C      1.014118   -0.695779    1.019197
  C      1.258350   -2.101606    0.389583
  N      0.455399   -2.170557   -0.855865
  C     -0.999062   -2.129438   -0.602207
  C     -1.242905   -0.985468   -1.531182
  C     -1.335895   -0.734063   -0.038429
  C      0.292137   -0.768335   -1.362395
  H      0.802921    1.708059   -0.053052
  H      1.942387   -0.113223    1.074917
  H      0.594397   -0.737992    2.028102
  H      2.313124   -2.245929    0.134565
  H      0.966400   -2.923354    1.049275
  H     -1.588668   -3.015587   -0.402503
  H     -1.936146   -0.848761   -2.346008
  H     -2.203806   -0.531862    0.575691
  H      1.012089   -0.389474   -2.088274

 Total Charge           Charge          ....    0
 Multiplicity           Mult            ....    1
 Number of Electrons    NEL             ....   66
 Basis Dimension        Dim             ....  333

ORBITAL ENERGIES
----------------

  NO   OCC          E(Eh)            E(eV)
   0   2.0000     -20.563643      -559.5652
   1   2.0000     -15.552492      -423.2048
   2   2.0000     -11.288703      -307.1812
   3   2.0000     -11.261200      -306.4328
   4   2.0000     -11.260670      -306.4184
   5   2.0000     -11.246992      -306.0462
   6   2.0000     -11.235519      -305.7340
   7   2.0000     -11.232925      -305.6634
   8   2.0000     -11.222496      -305.3797
   9   2.0000      -1.376604       -37.4593
  10   2.0000      -1.298697       -35.3393
  11   2.0000      -1.105023       -30.0692
  12   2.0000      -1.029164       -28.0050
  13   2.0000      -0.942454       -25.6455
  14   2.0000      -0.857947       -23.3459
  15   2.0000      -0.850859       -23.1531
  16   2.0000      -0.741952       -20.1895
  17   2.0000      -0.729103       -19.8399
  18   2.0000      -0.713127       -19.4052
  19   2.0000      -0.676489       -18.4082
  20   2.0000      -0.641586       -17.4584
  21   2.0000      -0.605449       -16.4751
  22   2.0000      -0.592761       -16.1299
  23   2.0000      -0.575455       -15.6589
  24   2.0000      -0.557465       -15.1694
  25   2.0000      -0.529318       -14.4035
  26   2.0000      -0.487765       -13.2728
  27   2.0000      -0.481401       -13.0996
  28   2.0000      -0.462359       -12.5814
  29   2.0000      -0.449425       -12.2295
  30   2.0000      -0.425880       -11.5888
  31   2.0000      -0.378030       -10.2867
  32   2.0000      -0.343205        -9.3391
  33   0.0000       0.130420         3.5489
  34   0.0000       0.153327         4.1722
  35   0.0000       0.168780         4.5927
  36   0.0000       0.180522         4.9122
  37   0.0000       0.187755         5.1091

MULLIKEN ATOMIC CHARGES
-----------------------
   0 O :   -0.439392
   1 C :    0.146782
   2 C :   -0.244934
   3 C :   -0.173215
   4 N :   -0.170824
   5 C :   -0.066095
   6 C :   -0.269302
   7 C :   -0.169241
   8 C :    0.025571
   9 H :    0.316332
  10 H :    0.102692
  11 H :    0.120253
  12 H :    0.119620
  13 H :    0.120200
  14 H :    0.135677
  15 H :    0.158457
  16 H :    0.139150
  17 H :    0.148269
Sum of atomic charges:    0.0000000

LOEWDIN ATOMIC CHARGES
----------------------
   0 O :    0.029514
   1 C :   -0.338190
   2 C :   -0.229558
   3 C :   -0.261289
   4 N :    0.129613
   5 C :   -0.187806
   6 C :   -0.126828
   7 C :   -0.123786
   8 C :   -0.140454
   9 H :    0.178951
  10 H :    0.132045
  11 H :    0.138902
  12 H :    0.128831
  13 H :    0.130607
  14 H :    0.134733
  15 H :    0.134553
  16 H :    0.140384
  17 H :    0.129778

  Mayer bond orders larger than 0.1
B(  0-O ,  1-C ) :   1.1531 B(  0-O ,  9-H ) :   0.8363 B(  1-C ,  2-C ) :   0.9793
B(  1-C ,  7-C ) :   0.8919 B(  1-C ,  8-C ) :   0.8932 B(  2-C ,  3-C ) :   0.9313
B(  2-C , 10-H ) :   0.9127 B(  2-C , 11-H ) :   0.9137 B(  3-C ,  4-N ) :   0.9289
B(  3-C , 12-H ) :   0.9326 B(  3-C , 13-H ) :   0.9302 B(  4-N ,  5-C ) :   0.9510
B(  4-N ,  8-C ) :   0.9687 B(  5-C ,  6-C ) :   0.8854 B(  5-C ,  7-C ) :   0.8500
B(  5-C , 14-H ) :   0.9244 B(  6-C ,  7-C ) :   0.8405 B(  6-C ,  8-C ) :   0.8980
B(  6-C , 15-H ) :   0.8942 B(  7-C , 16-H ) :   0.9195 B(  8-C , 17-H ) :   0.8888

MP2 TOTAL ENERGY:     -401.197882639 Eh
FINAL SINGLE POINT ENERGY      -401.197882638718

DIPOLE MOMENT
-------------
                                X             Y             Z
Electronic contribution:     -1.79407       1.19954      -2.22234
Nuclear contribution   :      2.11123      -1.10435       2.49116
                        -----------------------------------------
Total Dipole Moment    :      0.31716       0.09519       0.26882
                        -----------------------------------------
Magnitude (a.u.)       :      0.42652
Magnitude (Debye)      :      1.08412

                             ****ORCA TERMINATED NORMALLY****
TOTAL RUN TIME: 0 days 0 hours 19 minutes 24 seconds 975 msec
