                         Program Version 3.0.3 - RELEASE   -
|  1> ! RI-MP2 RIJK def2-TZVP def2-TZVP/C def2-TZVP/JK TIGHTSCF
|  2> % maxcore 2000
|  3> % mp2 density relaxed end
|  4> *xyz 0 1
|  5>  N       -0.5805532612     1.2392356859     0.0223859928
|  6>  C       -0.6536994097     0.0091039613     0.2947244646
|  7>  O       -0.6676200622    -0.8897632904    -0.7187731831
|  8>  C       -0.7180746258    -2.2678777488    -0.3656439943
|  9>  C       -2.1220348196    -2.7398775749     0.0049374852
| 10>  C       -2.4381903880    -4.2707104921     0.0525142583
| 11>  C       -3.2290127408    -4.0733068543     1.3820087048
| 12>  C       -2.5664503262    -2.6941572306     1.4811260718
| 13>  O       -2.3144133842    -1.9566399133     2.3917524544
| 14>  H       -0.5819820203     1.7788255003     0.8859069740
| 15>  H       -0.7246833844    -0.4429030398     1.2900555214
| 16>  H       -0.3778113069    -2.8025353093    -1.2570349032
| 17>  H       -0.0112495702    -2.4841964406     0.4467138064
| 18>  H       -2.8498702636    -2.2145213194    -0.6240365654
| 19>  H       -2.9941446745    -4.6716013210    -0.7949099009
| 20>  H       -1.5353842526    -4.8689105013     0.2018524142
| 21>  H       -4.3085892587    -3.9872387406     1.2220355457
| 22>  H       -3.0492253510    -4.7604330911     2.2115071332
| 23> *
| 24>
| 25>                          ****END OF INPUT****

CARTESIAN COORDINATES (ANGSTROEM)
---------------------------------
  N     -0.580553    1.239236    0.022386
  C     -0.653699    0.009104    0.294724
  O     -0.667620   -0.889763   -0.718773
  C     -0.718075   -2.267878   -0.365644
  C     -2.122035   -2.739878    0.004937
  C     -2.438190   -4.270710    0.052514
  C     -3.229013   -4.073307    1.382009
  C     -2.566450   -2.694157    1.481126
  O     -2.314413   -1.956640    2.391752
  H     -0.581982    1.778826    0.885907
  H     -0.724683   -0.442903    1.290056
  H     -0.377811   -2.802535   -1.257035
  H     -0.011250   -2.484196    0.446714
  H     -2.849870   -2.214521   -0.624037
  H     -2.994145   -4.671601   -0.794910
  H     -1.535384   -4.868911    0.201852
  H     -4.308589   -3.987239    1.222036
  H     -3.049225   -4.760433    2.211507

 Total Charge           Charge          ....    0
 Multiplicity           Mult            ....    1
 Number of Electrons    NEL             ....   68
 Basis Dimension        Dim             ....  333

ORBITAL ENERGIES
----------------

  NO   OCC          E(Eh)            E(eV)
   0   2.0000     -20.590112      -560.2854
   1   2.0000     -20.569834      -559.7336
   2   2.0000     -15.531956      -422.6460
   3   2.0000     -11.348725      -308.8145
   4   2.0000     -11.327506      -308.2371
   5   2.0000     -11.307405      -307.6901
   6   2.0000     -11.262036      -306.4556
   7   2.0000     -11.260155      -306.4044
   8   2.0000     -11.257084      -306.3208
   9   2.0000      -1.424815       -38.7712
  10   2.0000      -1.412416       -38.4338
  11   2.0000      -1.192439       -32.4479
  12   2.0000      -1.157549       -31.4985
  13   2.0000      -1.011053       -27.5122
  14   2.0000      -0.901622       -24.5344
  15   2.0000      -0.881786       -23.9946
  16   2.0000      -0.815270       -22.1846
  17   2.0000      -0.748992       -20.3811
  18   2.0000      -0.724857       -19.7244
  19   2.0000      -0.687289       -18.7021
  20   2.0000      -0.674040       -18.3416
  21   2.0000      -0.657997       -17.9050
  22   2.0000      -0.638626       -17.3779
  23   2.0000      -0.606651       -16.5078
  24   2.0000      -0.595507       -16.2046
  25   2.0000      -0.560744       -15.2586
  26   2.0000      -0.546485       -14.8706
  27   2.0000      -0.530005       -14.4222
  28   2.0000      -0.511396       -13.9158
  29   2.0000      -0.495964       -13.4959
  30   2.0000      -0.490458       -13.3461
  31   2.0000      -0.430511       -11.7148
  32   2.0000      -0.413833       -11.2610
  33   2.0000      -0.394301       -10.7295
  34   0.0000       0.106312         2.8929
  35   0.0000       0.133338         3.6283
  36   0.0000       0.142051         3.8654
  37   0.0000       0.159379         4.3369
  38   0.0000       0.166512         4.5310

MULLIKEN ATOMIC CHARGES
-----------------------
   0 N :   -0.347773
   1 C :    0.054282
   2 O :   -0.222259
   3 C :   -0.134340
   4 C :   -0.054495
   5 C :   -0.272580
   6 C :   -0.186621
   7 C :    0.112214
   8 O :   -0.268132
   9 H :    0.226307
  10 H :    0.114394
  11 H :    0.142846
  12 H :    0.136995
  13 H :    0.143649
  14 H :    0.138197
  15 H :    0.133131
  16 H :    0.144465
  17 H :    0.139719
Sum of atomic charges:   -0.0000000

LOEWDIN ATOMIC CHARGES
----------------------
   0 N :   -0.083217
   1 C :   -0.397231
   2 O :    0.235663
   3 C :   -0.284656
   4 C :   -0.207223
   5 C :   -0.206027
   6 C :   -0.205018
   7 C :   -0.301441
   8 O :    0.160495
   9 H :    0.168438
  10 H :    0.115538
  11 H :    0.140251
  12 H :    0.132193
  13 H :    0.171921
  14 H :    0.131042
  15 H :    0.139034
  16 H :    0.151459
  17 H :    0.138778

  Mayer bond orders larger than 0.1
B(  0-N ,  1-C ) :   1.9544 B(  0-N ,  9-H ) :   0.8519 B(  1-C ,  2-O ) :   1.0291
B(  1-C , 10-H ) :   0.9189 B(  2-O ,  3-C ) :   0.8852 B(  3-C ,  4-C ) :   0.8968
B(  3-C , 11-H ) :   0.9320 B(  3-C , 12-H ) :   0.9476 B(  4-C ,  5-C ) :   0.8963
B(  4-C ,  7-C ) :   0.8468 B(  4-C , 13-H ) :   0.8919 B(  5-C ,  6-C ) :   0.9266
B(  5-C , 14-H ) :   0.9297 B(  5-C , 15-H ) :   0.9236 B(  6-C ,  7-C ) :   0.9126
B(  6-C , 16-H ) :   0.9020 B(  6-C , 17-H ) :   0.9069 B(  7-C ,  8-O ) :   1.9880

MP2 TOTAL ENERGY:     -438.353437479 Eh
FINAL SINGLE POINT ENERGY      -438.353437478644

DIPOLE MOMENT
-------------
                                X             Y             Z
Electronic contribution:      0.84549       4.85846       1.21058
Nuclear contribution   :     -1.24253      -6.60894      -0.94361
                        -----------------------------------------
Total Dipole Moment    :     -0.39703      -1.75048       0.26697
                        -----------------------------------------
Magnitude (a.u.)       :      1.81469
Magnitude (Debye)      :      4.61257

                             ****ORCA TERMINATED NORMALLY****
TOTAL RUN TIME: 0 days 0 hours 14 minutes 40 seconds 791 msec
