                         Program Version 3.0.3 - RELEASE   -
|  1> ! RI-MP2 RIJK def2-TZVP def2-TZVP/C def2-TZVP/JK TIGHTSCF
|  2> % maxcore 2000
|  3> % mp2 density relaxed end
|  4> *xyz 0 1
|  5>  C       -0.1411198830     1.6113350962     0.0689411149
|  6>  C        0.0733767989     0.0980254694     0.0852181798
|  7>  N        1.2303626285    -0.4167444078    -0.7489339576
|  8>  C        1.6825973541    -1.2594271399     0.3877749426
|  9>  C        2.1939704691    -0.3060125249     1.4068364954
| 10>  O        2.8185215527     0.8818225478     1.0486382306
| 11>  C        0.6946660950    -0.5656833925     1.3343050566
| 12>  C       -1.1633834287    -0.6006256870    -0.2884202022
| 13>  N       -2.1327714976    -1.1471208092    -0.6032552692
| 14>  H        0.7699488052     2.1121985317     0.3958629742
| 15>  H       -0.4081184325     1.9515069061    -0.9357671073
| 16>  H       -0.9548177470     1.8816910463     0.7483381676
| 17>  H        0.9118221337    -0.9576109762    -1.5452136174
| 18>  H        1.9677104595    -2.2961543011     0.2574134984
| 19>  H        2.6453151106    -0.7544717694     2.2874823144
| 20>  H        2.7407050132     0.9322975775     0.0831999446
| 21>  H        0.1193299184    -0.9440991471     2.1687153448
| 22> *
| 23>
| 24>                          ****END OF INPUT****

CARTESIAN COORDINATES (ANGSTROEM)
---------------------------------
  C     -0.141120    1.611335    0.068941
  C      0.073377    0.098025    0.085218
  N      1.230363   -0.416744   -0.748934
  C      1.682597   -1.259427    0.387775
  C      2.193970   -0.306013    1.406836
  O      2.818522    0.881823    1.048638
  C      0.694666   -0.565683    1.334305
  C     -1.163383   -0.600626   -0.288420
  N     -2.132771   -1.147121   -0.603255
  H      0.769949    2.112199    0.395863
  H     -0.408118    1.951507   -0.935767
  H     -0.954818    1.881691    0.748338
  H      0.911822   -0.957611   -1.545214
  H      1.967710   -2.296154    0.257413
  H      2.645315   -0.754472    2.287482
  H      2.740705    0.932298    0.083200
  H      0.119330   -0.944099    2.168715

 Total Charge           Charge          ....    0
 Multiplicity           Mult            ....    1
 Number of Electrons    NEL             ....   66
 Basis Dimension        Dim             ....  327

ORBITAL ENERGIES
----------------

  NO   OCC          E(Eh)            E(eV)
   0   2.0000     -20.569819      -559.7332
   1   2.0000     -15.590112      -424.2285
   2   2.0000     -15.580572      -423.9689
   3   2.0000     -11.333105      -308.3895
   4   2.0000     -11.307733      -307.6991
   5   2.0000     -11.290678      -307.2350
   6   2.0000     -11.279405      -306.9282
   7   2.0000     -11.263244      -306.4885
   8   2.0000     -11.239385      -305.8392
   9   2.0000      -1.389880       -37.8206
  10   2.0000      -1.293049       -35.1857
  11   2.0000      -1.223314       -33.2881
  12   2.0000      -1.094021       -29.7698
  13   2.0000      -1.051653       -28.6169
  14   2.0000      -0.918934       -25.0055
  15   2.0000      -0.836581       -22.7645
  16   2.0000      -0.809517       -22.0281
  17   2.0000      -0.764673       -20.8078
  18   2.0000      -0.705907       -19.2087
  19   2.0000      -0.653594       -17.7852
  20   2.0000      -0.642049       -17.4710
  21   2.0000      -0.611945       -16.6519
  22   2.0000      -0.601818       -16.3763
  23   2.0000      -0.588270       -16.0076
  24   2.0000      -0.577355       -15.7106
  25   2.0000      -0.548398       -14.9227
  26   2.0000      -0.534881       -14.5548
  27   2.0000      -0.522517       -14.2184
  28   2.0000      -0.492911       -13.4128
  29   2.0000      -0.473578       -12.8867
  30   2.0000      -0.451672       -12.2906
  31   2.0000      -0.410618       -11.1735
  32   2.0000      -0.390775       -10.6335
  33   0.0000       0.120398         3.2762
  34   0.0000       0.141693         3.8557
  35   0.0000       0.147438         4.0120
  36   0.0000       0.165760         4.5106
  37   0.0000       0.180638         4.9154

MULLIKEN ATOMIC CHARGES
-----------------------
   0 C :   -0.374387
   1 C :    0.307064
   2 N :   -0.432726
   3 C :   -0.034118
   4 C :    0.066720
   5 O :   -0.466025
   6 C :   -0.191529
   7 C :   -0.285573
   8 N :   -0.041500
   9 H :    0.157062
  10 H :    0.141505
  11 H :    0.142201
  12 H :    0.229070
  13 H :    0.150852
  14 H :    0.131913
  15 H :    0.341349
  16 H :    0.158122
Sum of atomic charges:   -0.0000000

LOEWDIN ATOMIC CHARGES
----------------------
   0 C :   -0.245383
   1 C :   -0.286557
   2 N :    0.046498
   3 C :   -0.205141
   4 C :   -0.304031
   5 O :    0.006611
   6 C :   -0.125279
   7 C :   -0.152259
   8 N :    0.071449
   9 H :    0.134472
  10 H :    0.133526
  11 H :    0.136952
  12 H :    0.172678
  13 H :    0.134299
  14 H :    0.153474
  15 H :    0.183926
  16 H :    0.144767

  Mayer bond orders larger than 0.1
B(  0-C ,  1-C ) :   0.9183 B(  0-C ,  9-H ) :   0.9199 B(  0-C , 10-H ) :   0.9233
B(  0-C , 11-H ) :   0.9252 B(  1-C ,  2-N ) :   0.8717 B(  1-C ,  6-C ) :   0.8808
B(  1-C ,  7-C ) :   0.9193 B(  2-N ,  3-C ) :   0.8938 B(  2-N , 12-H ) :   0.8849
B(  3-C ,  4-C ) :   0.9411 B(  3-C ,  6-C ) :   0.8504 B(  3-C , 13-H ) :   0.9016
B(  4-C ,  5-O ) :   0.9946 B(  4-C ,  6-C ) :   0.8215 B(  4-C , 14-H ) :   0.9591
B(  5-O , 15-H ) :   0.8045 B(  6-C , 16-H ) :   0.9087 B(  7-C ,  8-N ) :   2.8723

MP2 TOTAL ENERGY:     -417.265141105 Eh
FINAL SINGLE POINT ENERGY      -417.265141105494

DIPOLE MOMENT
-------------
                                X             Y             Z
Electronic contribution:     -1.81138      -3.05074      -0.88330
Nuclear contribution   :      2.46781       2.91098       0.99174
                        -----------------------------------------
Total Dipole Moment    :      0.65643      -0.13976       0.10844
                        -----------------------------------------
Magnitude (a.u.)       :      0.67984
Magnitude (Debye)      :      1.72802

                             ****ORCA TERMINATED NORMALLY****
TOTAL RUN TIME: 0 days 0 hours 17 minutes 38 seconds 455 msec
