                         Program Version 3.0.3 - RELEASE   -
|  1> ! RI-MP2 RIJK def2-TZVP def2-TZVP/C def2-TZVP/JK TIGHTSCF
|  2> % maxcore 2000
|  3> % mp2 density relaxed end
|  4> *xyz 0 1
|  5>  N        0.0245593739    -1.1220359049    -0.0981901593
|  6>  C        0.0349837496     0.0308694055    -0.0019582594
|  7>  C        0.0333727437     1.4616587569     0.1051374077
|  8>  N        0.3157942156     2.2824084326    -1.1024394330
|  9>  C        1.2916821360     2.2727301984    -0.0086459398
| 10>  C        1.1548953092     3.4369410724     0.9667525975
| 11>  N       -0.1551075587     3.3328721544     1.6485528720
| 12>  C       -1.3546221350     3.4995004977     0.8132926503
| 13>  C       -0.8542898696     2.1388343971     1.1333821781
| 14>  H        0.6278697737     1.6789198347    -1.8608842539
| 15>  H        2.2564621866     1.7986552849    -0.1622099010
| 16>  H        1.9372619154     3.3617457078     1.7290346821
| 17>  H        1.2568814775     4.4054791750     0.4679411831
| 18>  H       -2.2146479303     3.8925372949     1.3483134565
| 19>  H       -1.2407411692     3.8373489999    -0.2110744779
| 20>  H       -1.3476171184     1.4914140027     1.8512492270
| 21> *
| 22>
| 23>                          ****END OF INPUT****

CARTESIAN COORDINATES (ANGSTROEM)
---------------------------------
  N      0.024559   -1.122036   -0.098190
  C      0.034984    0.030869   -0.001958
  C      0.033373    1.461659    0.105137
  N      0.315794    2.282408   -1.102439
  C      1.291682    2.272730   -0.008646
  C      1.154895    3.436941    0.966753
  N     -0.155108    3.332872    1.648553
  C     -1.354622    3.499500    0.813293
  C     -0.854290    2.138834    1.133382
  H      0.627870    1.678920   -1.860884
  H      2.256462    1.798655   -0.162210
  H      1.937262    3.361746    1.729035
  H      1.256881    4.405479    0.467941
  H     -2.214648    3.892537    1.348313
  H     -1.240741    3.837349   -0.211074
  H     -1.347617    1.491414    1.851249

 Total Charge           Charge          ....    0
 Multiplicity           Mult            ....    1
 Number of Electrons    NEL             ....   64
 Basis Dimension        Dim             ....  321

ORBITAL ENERGIES
----------------

  NO   OCC          E(Eh)            E(eV)
   0   2.0000     -15.602035      -424.5530
   1   2.0000     -15.585672      -424.1077
   2   2.0000     -15.575227      -423.8235
   3   2.0000     -11.325809      -308.1909
   4   2.0000     -11.301050      -307.5172
   5   2.0000     -11.288292      -307.1700
   6   2.0000     -11.284068      -307.0551
   7   2.0000     -11.275414      -306.8196
   8   2.0000     -11.265908      -306.5609
   9   2.0000      -1.338313       -36.4173
  10   2.0000      -1.266105       -34.4525
  11   2.0000      -1.227310       -33.3968
  12   2.0000      -1.038424       -28.2569
  13   2.0000      -0.993878       -27.0448
  14   2.0000      -0.885187       -24.0872
  15   2.0000      -0.841924       -22.9099
  16   2.0000      -0.817882       -22.2557
  17   2.0000      -0.785267       -21.3682
  18   2.0000      -0.671087       -18.2612
  19   2.0000      -0.653082       -17.7713
  20   2.0000      -0.628720       -17.1084
  21   2.0000      -0.605126       -16.4663
  22   2.0000      -0.578630       -15.7453
  23   2.0000      -0.564854       -15.3705
  24   2.0000      -0.549750       -14.9595
  25   2.0000      -0.533282       -14.5113
  26   2.0000      -0.501312       -13.6414
  27   2.0000      -0.484740       -13.1905
  28   2.0000      -0.475862       -12.9489
  29   2.0000      -0.456988       -12.4353
  30   2.0000      -0.403024       -10.9668
  31   2.0000      -0.384639       -10.4666
  32   0.0000       0.119516         3.2522
  33   0.0000       0.139685         3.8010
  34   0.0000       0.157673         4.2905
  35   0.0000       0.160151         4.3579
  36   0.0000       0.173403         4.7185

MULLIKEN ATOMIC CHARGES
-----------------------
   0 N :   -0.042271
   1 C :   -0.216415
   2 C :    0.266950
   3 N :   -0.363988
   4 C :   -0.130785
   5 C :   -0.087078
   6 N :   -0.232714
   7 C :   -0.198361
   8 C :   -0.088900
   9 H :    0.235393
  10 H :    0.151528
  11 H :    0.134114
  12 H :    0.124585
  13 H :    0.132662
  14 H :    0.161581
  15 H :    0.153699
Sum of atomic charges:    0.0000000

LOEWDIN ATOMIC CHARGES
----------------------
   0 N :    0.077802
   1 C :   -0.156641
   2 C :   -0.248549
   3 N :    0.059032
   4 C :   -0.203997
   5 C :   -0.245249
   6 N :    0.116224
   7 C :   -0.227478
   8 C :   -0.191438
   9 H :    0.179268
  10 H :    0.144765
  11 H :    0.142044
  12 H :    0.140929
  13 H :    0.128002
  14 H :    0.135041
  15 H :    0.150244

  Mayer bond orders larger than 0.1
B(  0-N ,  1-C ) :   2.8559 B(  1-C ,  2-C ) :   0.8507 B(  2-C ,  3-N ) :   0.9278
B(  2-C ,  4-C ) :   0.8528 B(  2-C ,  8-C ) :   0.9551 B(  3-N ,  4-C ) :   0.9741
B(  3-N ,  9-H ) :   0.8658 B(  4-C ,  5-C ) :   0.9524 B(  4-C , 10-H ) :   0.9036
B(  5-C ,  6-N ) :   0.9411 B(  5-C , 11-H ) :   0.9269 B(  5-C , 12-H ) :   0.9115
B(  6-N ,  7-C ) :   0.8786 B(  6-N ,  8-C ) :   0.9135 B(  7-C ,  8-C ) :   0.9441
B(  7-C , 13-H ) :   0.9266 B(  7-C , 14-H ) :   0.8996 B(  8-C , 15-H ) :   0.9076

MP2 TOTAL ENERGY:     -396.199141229 Eh
FINAL SINGLE POINT ENERGY      -396.199141229440

DIPOLE MOMENT
-------------
                                X             Y             Z
Electronic contribution:     -0.30903      -5.34176      -0.81385
Nuclear contribution   :      0.78699       6.30215       0.49163
                        -----------------------------------------
Total Dipole Moment    :      0.47796       0.96039      -0.32222
                        -----------------------------------------
Magnitude (a.u.)       :      1.12010
Magnitude (Debye)      :      2.84706

                             ****ORCA TERMINATED NORMALLY****
TOTAL RUN TIME: 0 days 0 hours 16 minutes 59 seconds 766 msec
