                         Program Version 3.0.3 - RELEASE   -
|  1> ! RI-MP2 RIJK def2-TZVP def2-TZVP/C def2-TZVP/JK TIGHTSCF
|  2> % maxcore 2000
|  3> % mp2 density relaxed end
|  4> *xyz 0 1
|  5>  C       -0.7137885286     1.3755037846     0.4888003125
|  6>  C       -0.2470308066    -0.0457464093     0.2648678703
|  7>  C        1.0906967285    -0.3103836172    -0.3864096733
|  8>  C        0.8810527952    -0.6560607243     1.0665198633
|  9>  N        1.5517498174     0.1355123341     2.0625896212
| 10>  C        0.8819154074     0.0793096949     3.3588771026
| 11>  C        2.9658422185    -0.2089836632     2.1535844469
| 12>  C        3.7253066956     0.7778417962     2.9319100928
| 13>  N        4.3296233961     1.5439692308     3.5501017237
| 14>  H        0.1068787134     2.0033370441     0.8439755775
| 15>  H       -1.0988254804     1.8066085275    -0.4414247175
| 16>  H       -1.5188847956     1.4203865717     1.2305938293
| 17>  H       -1.0374247527    -0.7450947030     0.0047699642
| 18>  H        1.1861623212    -1.1172436788    -1.1042369119
| 19>  H        1.7063683326     0.5589788996    -0.5948037384
| 20>  H        0.7798277646    -1.7219599477     1.3015370834
| 21>  H        0.8739709601    -0.9388292128     3.7898889920
| 22>  H        1.3822130130     0.7468414972     4.0657231153
| 23>  H       -0.1520824971     0.4106286626     3.2442874484
| 24>  H        3.1427023742    -1.2040256256     2.6060417931
| 25>  H        3.3833373130    -0.2421437315     1.1424587049
| 26> *
| 27>
| 28>                          ****END OF INPUT****

CARTESIAN COORDINATES (ANGSTROEM)
---------------------------------
  C     -0.713789    1.375504    0.488800
  C     -0.247031   -0.045746    0.264868
  C      1.090697   -0.310384   -0.386410
  C      0.881053   -0.656061    1.066520
  N      1.551750    0.135512    2.062590
  C      0.881915    0.079310    3.358877
  C      2.965842   -0.208984    2.153584
  C      3.725307    0.777842    2.931910
  N      4.329623    1.543969    3.550102
  H      0.106879    2.003337    0.843976
  H     -1.098825    1.806609   -0.441425
  H     -1.518885    1.420387    1.230594
  H     -1.037425   -0.745095    0.004770
  H      1.186162   -1.117244   -1.104237
  H      1.706368    0.558979   -0.594804
  H      0.779828   -1.721960    1.301537
  H      0.873971   -0.938829    3.789889
  H      1.382213    0.746841    4.065723
  H     -0.152082    0.410629    3.244287
  H      3.142702   -1.204026    2.606042
  H      3.383337   -0.242144    1.142459

 Total Charge           Charge          ....    0
 Multiplicity           Mult            ....    1
 Number of Electrons    NEL             ....   68
 Basis Dimension        Dim             ....  351

ORBITAL ENERGIES
----------------

  NO   OCC          E(Eh)            E(eV)
   0   2.0000     -15.576803      -423.8664
   1   2.0000     -15.569708      -423.6733
   2   2.0000     -11.308378      -307.7166
   3   2.0000     -11.272072      -306.7287
   4   2.0000     -11.269383      -306.6555
   5   2.0000     -11.256763      -306.3121
   6   2.0000     -11.242270      -305.9177
   7   2.0000     -11.233405      -305.6765
   8   2.0000     -11.220538      -305.3264
   9   2.0000      -1.268280       -34.5117
  10   2.0000      -1.214907       -33.0593
  11   2.0000      -1.139691       -31.0126
  12   2.0000      -1.008987       -27.4559
  13   2.0000      -0.972963       -26.4757
  14   2.0000      -0.911617       -24.8063
  15   2.0000      -0.817061       -22.2333
  16   2.0000      -0.771964       -21.0062
  17   2.0000      -0.713203       -19.4073
  18   2.0000      -0.693303       -18.8657
  19   2.0000      -0.658413       -17.9163
  20   2.0000      -0.651695       -17.7335
  21   2.0000      -0.609259       -16.5788
  22   2.0000      -0.574658       -15.6372
  23   2.0000      -0.566316       -15.4102
  24   2.0000      -0.561957       -15.2916
  25   2.0000      -0.552820       -15.0430
  26   2.0000      -0.544691       -14.8218
  27   2.0000      -0.532232       -14.4828
  28   2.0000      -0.505289       -13.7496
  29   2.0000      -0.467572       -12.7233
  30   2.0000      -0.459603       -12.5064
  31   2.0000      -0.430268       -11.7082
  32   2.0000      -0.419516       -11.4156
  33   2.0000      -0.378831       -10.3085
  34   0.0000       0.124208         3.3799
  35   0.0000       0.145766         3.9665
  36   0.0000       0.153726         4.1831
  37   0.0000       0.156812         4.2671
  38   0.0000       0.175662         4.7800

MULLIKEN ATOMIC CHARGES
-----------------------
   0 C :   -0.425449
   1 C :   -0.028620
   2 C :   -0.280552
   3 C :   -0.121172
   4 N :   -0.155087
   5 C :   -0.333240
   6 C :   -0.071381
   7 C :   -0.173911
   8 N :   -0.055303
   9 H :    0.153556
  10 H :    0.138045
  11 H :    0.127634
  12 H :    0.120556
  13 H :    0.137730
  14 H :    0.141954
  15 H :    0.101917
  16 H :    0.112495
  17 H :    0.161621
  18 H :    0.144814
  19 H :    0.136508
  20 H :    0.167885
Sum of atomic charges:   -0.0000000

LOEWDIN ATOMIC CHARGES
----------------------
   0 C :   -0.296709
   1 C :   -0.228310
   2 C :   -0.209467
   3 C :   -0.259613
   4 N :    0.091208
   5 C :   -0.306421
   6 C :   -0.268082
   7 C :   -0.188650
   8 N :    0.060698
   9 H :    0.131549
  10 H :    0.126753
  11 H :    0.123309
  12 H :    0.147719
  13 H :    0.131751
  14 H :    0.140986
  15 H :    0.135315
  16 H :    0.106998
  17 H :    0.126932
  18 H :    0.123868
  19 H :    0.146661
  20 H :    0.163507

  Mayer bond orders larger than 0.1
B(  0-C ,  1-C ) :   0.8983 B(  0-C ,  9-H ) :   0.9337 B(  0-C , 10-H ) :   0.9357
B(  0-C , 11-H ) :   0.9380 B(  1-C ,  2-C ) :   0.8875 B(  1-C ,  3-C ) :   0.8879
B(  1-C , 12-H ) :   0.9305 B(  2-C ,  3-C ) :   0.8992 B(  2-C , 13-H ) :   0.9276
B(  2-C , 14-H ) :   0.9233 B(  3-C ,  4-N ) :   0.9354 B(  3-C , 15-H ) :   0.9157
B(  4-N ,  5-C ) :   0.8911 B(  4-N ,  6-C ) :   0.9256 B(  5-C , 16-H ) :   0.9267
B(  5-C , 17-H ) :   0.9308 B(  5-C , 18-H ) :   0.9376 B(  6-C ,  7-C ) :   0.9185
B(  6-C , 19-H ) :   0.9060 B(  6-C , 20-H ) :   0.9060 B(  7-C ,  8-N ) :   2.8790

MP2 TOTAL ENERGY:     -382.577781218 Eh
FINAL SINGLE POINT ENERGY      -382.577781218220

DIPOLE MOMENT
-------------
                                X             Y             Z
Electronic contribution:      8.41062       1.28534       3.51243
Nuclear contribution   :     -9.38664      -2.40023      -4.24690
                        -----------------------------------------
Total Dipole Moment    :     -0.97601      -1.11489      -0.73447
                        -----------------------------------------
Magnitude (a.u.)       :      1.65379
Magnitude (Debye)      :      4.20360

                             ****ORCA TERMINATED NORMALLY****
TOTAL RUN TIME: 0 days 0 hours 22 minutes 11 seconds 722 msec
