                         Program Version 3.0.3 - RELEASE   -
|  1> ! RI-MP2 RIJK def2-TZVP def2-TZVP/C def2-TZVP/JK TIGHTSCF
|  2> % maxcore 2000
|  3> % mp2 density relaxed end
|  4> *xyz 0 1
|  5>  C        0.0529190710     1.5399284711     0.1919863437
|  6>  C       -0.1161581530     0.0354931388    -0.0472057523
|  7>  C        0.6079998814    -0.4488797962    -1.3006572129
|  8>  C        2.1390204290    -0.6594501339    -1.1539174480
|  9>  O        1.8346893682    -1.9118227252    -0.4374726187
| 10>  C        0.7463538639    -1.9873904728    -1.4312783814
| 11>  C        1.5408866737    -2.2419984473    -2.7284502936
| 12>  C        1.7392170267    -1.1292732560    -3.7272737345
| 13>  C        2.6304420587    -1.2011508437    -2.5124499740
| 14>  H        1.1060608123     1.8069661764     0.3320603865
| 15>  H       -0.3262621109     2.1251346163    -0.6535560905
| 16>  H       -0.4899340597     1.8597614955     1.0866784372
| 17>  H        0.2455207408    -0.5285090166     0.8170759901
| 18>  H       -1.1845853188    -0.1957155157    -0.1520369535
| 19>  H        0.2491251420     0.1106332653    -2.1672792870
| 20>  H        2.7898198809     0.0151259536    -0.5973468326
| 21>  H       -0.0478371037    -2.6830569966    -1.1584722315
| 22>  H        1.7652462816    -3.2654795263    -3.0029946291
| 23>  H        2.2092428556    -1.4275919389    -4.6603464753
| 24>  H        1.0096856148    -0.3395358709    -3.8568787753
| 25>  H        3.6823495754    -1.4342075371    -2.6236935673
| 26> *
| 27>
| 28>                          ****END OF INPUT****

CARTESIAN COORDINATES (ANGSTROEM)
---------------------------------
  C      0.052919    1.539928    0.191986
  C     -0.116158    0.035493   -0.047206
  C      0.608000   -0.448880   -1.300657
  C      2.139020   -0.659450   -1.153917
  O      1.834689   -1.911823   -0.437473
  C      0.746354   -1.987390   -1.431278
  C      1.540887   -2.241998   -2.728450
  C      1.739217   -1.129273   -3.727274
  C      2.630442   -1.201151   -2.512450
  H      1.106061    1.806966    0.332060
  H     -0.326262    2.125135   -0.653556
  H     -0.489934    1.859761    1.086678
  H      0.245521   -0.528509    0.817076
  H     -1.184585   -0.195716   -0.152037
  H      0.249125    0.110633   -2.167279
  H      2.789820    0.015126   -0.597347
  H     -0.047837   -2.683057   -1.158472
  H      1.765246   -3.265480   -3.002995
  H      2.209243   -1.427592   -4.660346
  H      1.009686   -0.339536   -3.856879
  H      3.682350   -1.434208   -2.623694

 Total Charge           Charge          ....    0
 Multiplicity           Mult            ....    1
 Number of Electrons    NEL             ....   68
 Basis Dimension        Dim             ....  351

ORBITAL ENERGIES
----------------

  NO   OCC          E(Eh)            E(eV)
   0   2.0000     -20.538398      -558.8782
   1   2.0000     -11.287881      -307.1589
   2   2.0000     -11.287843      -307.1578
   3   2.0000     -11.238289      -305.8094
   4   2.0000     -11.232789      -305.6597
   5   2.0000     -11.232556      -305.6534
   6   2.0000     -11.232170      -305.6429
   7   2.0000     -11.218494      -305.2707
   8   2.0000     -11.214065      -305.1502
   9   2.0000      -1.378791       -37.5188
  10   2.0000      -1.153417       -31.3861
  11   2.0000      -1.061478       -28.8843
  12   2.0000      -0.969049       -26.3692
  13   2.0000      -0.942527       -25.6475
  14   2.0000      -0.875755       -23.8305
  15   2.0000      -0.819817       -22.3084
  16   2.0000      -0.758978       -20.6528
  17   2.0000      -0.730422       -19.8758
  18   2.0000      -0.699778       -19.0419
  19   2.0000      -0.679623       -18.4935
  20   2.0000      -0.632183       -17.2026
  21   2.0000      -0.600518       -16.3409
  22   2.0000      -0.579015       -15.7558
  23   2.0000      -0.558756       -15.2045
  24   2.0000      -0.545742       -14.8504
  25   2.0000      -0.518583       -14.1114
  26   2.0000      -0.504080       -13.7167
  27   2.0000      -0.497047       -13.5253
  28   2.0000      -0.486014       -13.2251
  29   2.0000      -0.459253       -12.4969
  30   2.0000      -0.453993       -12.3538
  31   2.0000      -0.414685       -11.2842
  32   2.0000      -0.412317       -11.2197
  33   2.0000      -0.389344       -10.5946
  34   0.0000       0.140782         3.8309
  35   0.0000       0.153721         4.1830
  36   0.0000       0.163105         4.4383
  37   0.0000       0.167787         4.5657
  38   0.0000       0.187226         5.0947

MULLIKEN ATOMIC CHARGES
-----------------------
   0 C :   -0.397433
   1 C :   -0.271892
   2 C :   -0.003940
   3 C :   -0.039019
   4 O :   -0.312714
   5 C :    0.010208
   6 C :   -0.112183
   7 C :   -0.268840
   8 C :   -0.105424
   9 H :    0.124886
  10 H :    0.120202
  11 H :    0.136594
  12 H :    0.143289
  13 H :    0.110003
  14 H :    0.085908
  15 H :    0.126196
  16 H :    0.125826
  17 H :    0.134138
  18 H :    0.130813
  19 H :    0.129624
  20 H :    0.133757
Sum of atomic charges:    0.0000000

LOEWDIN ATOMIC CHARGES
----------------------
   0 C :   -0.316962
   1 C :   -0.272806
   2 C :   -0.193242
   3 C :   -0.211581
   4 O :    0.143482
   5 C :   -0.209629
   6 C :   -0.172228
   7 C :   -0.203502
   8 C :   -0.171864
   9 H :    0.119925
  10 H :    0.119452
  11 H :    0.121864
  12 H :    0.145639
  13 H :    0.137891
  14 H :    0.143027
  15 H :    0.133682
  16 H :    0.134323
  17 H :    0.142441
  18 H :    0.139521
  19 H :    0.128115
  20 H :    0.142452

  Mayer bond orders larger than 0.1
B(  0-C ,  1-C ) :   0.9098 B(  0-C ,  9-H ) :   0.9427 B(  0-C , 10-H ) :   0.9381
B(  0-C , 11-H ) :   0.9416 B(  1-C ,  2-C ) :   0.8870 B(  1-C , 12-H ) :   0.9380
B(  1-C , 13-H ) :   0.9310 B(  2-C ,  3-C ) :   0.9635 B(  2-C ,  5-C ) :   0.9268
B(  2-C , 14-H ) :   0.9301 B(  3-C ,  4-O ) :   0.9174 B(  3-C ,  8-C ) :   0.9369
B(  3-C , 15-H ) :   0.9056 B(  4-O ,  5-C ) :   0.9096 B(  5-C ,  6-C ) :   0.9487
B(  5-C , 16-H ) :   0.9090 B(  6-C ,  7-C ) :   0.8912 B(  6-C ,  8-C ) :   0.8734
B(  6-C , 17-H ) :   0.9283 B(  7-C ,  8-C ) :   0.8838 B(  7-C , 18-H ) :   0.9197
B(  7-C , 19-H ) :   0.9026 B(  8-C , 20-H ) :   0.9259

MP2 TOTAL ENERGY:     -386.364767138 Eh
FINAL SINGLE POINT ENERGY      -386.364767138357

DIPOLE MOMENT
-------------
                                X             Y             Z
Electronic contribution:      3.26998      -5.70898      -0.93876
Nuclear contribution   :     -3.50121       6.04149       0.40007
                        -----------------------------------------
Total Dipole Moment    :     -0.23123       0.33251      -0.53869
                        -----------------------------------------
Magnitude (a.u.)       :      0.67396
Magnitude (Debye)      :      1.71306

                             ****ORCA TERMINATED NORMALLY****
TOTAL RUN TIME: 0 days 0 hours 30 minutes 43 seconds 941 msec
