                         Program Version 3.0.3 - RELEASE   -
|  1> ! RI-MP2 RIJK def2-TZVP def2-TZVP/C def2-TZVP/JK TIGHTSCF
|  2> % maxcore 2000
|  3> % mp2 density relaxed end
|  4> *xyz 0 1
|  5>  C        0.7899406011     1.1839757086     0.1510976953
|  6>  N       -0.0352536390    -0.0183301813     0.0469314937
|  7>  C       -0.7775503358    -0.3775478376     1.1436872016
|  8>  O       -0.7598394128     0.2096787862     2.2048551365
|  9>  C       -0.0507432253    -0.7347789391    -1.2391083440
| 10>  C        1.3823883551    -1.1635831033    -1.6325855485
| 11>  C       -0.9623762301    -1.9796117526    -1.2464459249
| 12>  C       -0.5639763530     0.1931057721    -2.2813458798
| 13>  N       -0.9546714813     0.9126204051    -3.0968034591
| 14>  H        1.8524730937     0.9399550835     0.2532682698
| 15>  H        0.6505192333     1.8161508935    -0.7305346975
| 16>  H        0.4694691585     1.7204110394     1.0430265353
| 17>  H       -1.4013234118    -1.2668156056     0.9801520479
| 18>  H        1.7725242320    -1.8441141840    -0.8707807795
| 19>  H        1.3690935904    -1.6771145166    -2.5968110087
| 20>  H        2.0515688088    -0.3061194953    -1.7160169614
| 21>  H       -2.0056341020    -1.7321185258    -1.0426821881
| 22>  H       -0.9133741973    -2.4309887130    -2.2397027861
| 23>  H       -0.6142348447    -2.7166434641    -0.5187247227
| 24> *
| 25>
| 26>                          ****END OF INPUT****

CARTESIAN COORDINATES (ANGSTROEM)
---------------------------------
  C      0.789941    1.183976    0.151098
  N     -0.035254   -0.018330    0.046931
  C     -0.777550   -0.377548    1.143687
  O     -0.759839    0.209679    2.204855
  C     -0.050743   -0.734779   -1.239108
  C      1.382388   -1.163583   -1.632586
  C     -0.962376   -1.979612   -1.246446
  C     -0.563976    0.193106   -2.281346
  N     -0.954671    0.912620   -3.096803
  H      1.852473    0.939955    0.253268
  H      0.650519    1.816151   -0.730535
  H      0.469469    1.720411    1.043027
  H     -1.401323   -1.266816    0.980152
  H      1.772524   -1.844114   -0.870781
  H      1.369094   -1.677115   -2.596811
  H      2.051569   -0.306119   -1.716017
  H     -2.005634   -1.732119   -1.042682
  H     -0.913374   -2.430989   -2.239703
  H     -0.614235   -2.716643   -0.518725

 Total Charge           Charge          ....    0
 Multiplicity           Mult            ....    1
 Number of Electrons    NEL             ....   68
 Basis Dimension        Dim             ....  339

ORBITAL ENERGIES
----------------

  NO   OCC          E(Eh)            E(eV)
   0   2.0000     -20.533306      -558.7397
   1   2.0000     -15.612111      -424.8271
   2   2.0000     -15.584295      -424.0702
   3   2.0000     -11.359730      -309.1140
   4   2.0000     -11.352769      -308.9245
   5   2.0000     -11.282923      -307.0239
   6   2.0000     -11.267220      -306.5967
   7   2.0000     -11.265939      -306.5618
   8   2.0000     -11.258328      -306.3547
   9   2.0000      -1.396185       -37.9921
  10   2.0000      -1.281645       -34.8753
  11   2.0000      -1.226922       -33.3863
  12   2.0000      -1.105190       -30.0737
  13   2.0000      -0.996440       -27.1145
  14   2.0000      -0.958744       -26.0888
  15   2.0000      -0.911277       -24.7971
  16   2.0000      -0.798810       -21.7367
  17   2.0000      -0.759151       -20.6575
  18   2.0000      -0.696778       -18.9603
  19   2.0000      -0.666456       -18.1352
  20   2.0000      -0.636200       -17.3119
  21   2.0000      -0.621478       -16.9113
  22   2.0000      -0.608234       -16.5509
  23   2.0000      -0.593957       -16.1624
  24   2.0000      -0.584081       -15.8936
  25   2.0000      -0.575188       -15.6517
  26   2.0000      -0.553935       -15.0733
  27   2.0000      -0.550486       -14.9795
  28   2.0000      -0.543312       -14.7843
  29   2.0000      -0.536658       -14.6032
  30   2.0000      -0.480554       -13.0766
  31   2.0000      -0.471516       -12.8306
  32   2.0000      -0.440226       -11.9792
  33   2.0000      -0.399997       -10.8845
  34   0.0000       0.111335         3.0296
  35   0.0000       0.139044         3.7836
  36   0.0000       0.144915         3.9433
  37   0.0000       0.160485         4.3670
  38   0.0000       0.167379         4.5546

MULLIKEN ATOMIC CHARGES
-----------------------
   0 C :   -0.359810
   1 N :   -0.076268
   2 C :    0.129808
   3 O :   -0.354554
   4 C :    0.210929
   5 C :   -0.399896
   6 C :   -0.452137
   7 C :   -0.217633
   8 N :   -0.041704
   9 H :    0.144680
  10 H :    0.159791
  11 H :    0.188222
  12 H :    0.111309
  13 H :    0.153072
  14 H :    0.148546
  15 H :    0.160139
  16 H :    0.169581
  17 H :    0.159961
  18 H :    0.165965
Sum of atomic charges:   -0.0000000

LOEWDIN ATOMIC CHARGES
----------------------
   0 C :   -0.276553
   1 N :    0.189337
   2 C :   -0.407806
   3 O :    0.065867
   4 C :   -0.324419
   5 C :   -0.239461
   6 C :   -0.249190
   7 C :   -0.154653
   8 N :    0.074177
   9 H :    0.118716
  10 H :    0.128295
  11 H :    0.138431
  12 H :    0.123422
  13 H :    0.134459
  14 H :    0.136074
  15 H :    0.133444
  16 H :    0.134954
  17 H :    0.141254
  18 H :    0.133653

  Mayer bond orders larger than 0.1
B(  0-C ,  1-N ) :   0.8522 B(  0-C ,  9-H ) :   0.9348 B(  0-C , 10-H ) :   0.9207
B(  0-C , 11-H ) :   0.9141 B(  1-N ,  2-C ) :   1.1207 B(  1-N ,  4-C ) :   0.9321
B(  2-C ,  3-O ) :   1.8948 B(  2-C , 12-H ) :   0.9296 B(  4-C ,  5-C ) :   0.9110
B(  4-C ,  6-C ) :   0.8801 B(  4-C ,  7-C ) :   0.8792 B(  5-C , 13-H ) :   0.9326
B(  5-C , 14-H ) :   0.9245 B(  5-C , 15-H ) :   0.9215 B(  6-C , 16-H ) :   0.9274
B(  6-C , 17-H ) :   0.9215 B(  6-C , 18-H ) :   0.9351 B(  7-C ,  8-N ) :   2.8722

MP2 TOTAL ENERGY:     -418.536625253 Eh
FINAL SINGLE POINT ENERGY      -418.536625252939

DIPOLE MOMENT
-------------
                                X             Y             Z
Electronic contribution:     -4.03672       3.79348       0.85877
Nuclear contribution   :      4.87554      -5.06846      -1.27683
                        -----------------------------------------
Total Dipole Moment    :      0.83882      -1.27499      -0.41806
                        -----------------------------------------
Magnitude (a.u.)       :      1.58240
Magnitude (Debye)      :      4.02214

                             ****ORCA TERMINATED NORMALLY****
TOTAL RUN TIME: 0 days 0 hours 20 minutes 27 seconds 193 msec
