                         Program Version 3.0.3 - RELEASE   -
|  1> ! RI-MP2 RIJK def2-TZVP def2-TZVP/C def2-TZVP/JK TIGHTSCF
|  2> % maxcore 2000
|  3> % mp2 density relaxed end
|  4> *xyz 0 1
|  5>  C        0.0629322639     1.5243559535    -0.2001713876
|  6>  C        0.0191034110     0.0018285534    -0.0598312559
|  7>  C       -1.4149358131    -0.5408640181     0.0828639206
|  8>  O       -2.2375019148    -0.1380367768    -1.0144027827
|  9>  C       -1.4445231030    -2.0240470970     0.2669947914
| 10>  C       -1.8546625462    -2.8531435712     1.2630149757
| 11>  C       -1.6201457777    -4.1924843456     0.8053322734
| 12>  C       -1.0905873309    -4.0763029081    -0.4380947122
| 13>  O       -0.9710042380    -2.7643743173    -0.7825156265
| 14>  H        1.0883298874     1.8769222627    -0.3457605177
| 15>  H       -0.5400869894     1.8487555737    -1.0517373409
| 16>  H       -0.3351612983     2.0148429292     0.6953731657
| 17>  H        0.4837408376    -0.4756659328    -0.9320627572
| 18>  H        0.5993592234    -0.3214598822     0.8130231081
| 19>  H       -1.8804429209    -0.0922872684     0.9678727754
| 20>  H       -1.9605144074    -0.6556040042    -1.7790106190
| 21>  H       -2.2770797549    -2.5496154517     2.2081786699
| 22>  H       -1.8248068143    -5.1109556071     1.3325735219
| 23>  H       -0.7605054843    -4.7860665918    -1.1784329825
| 24> *
| 25>
| 26>                          ****END OF INPUT****

CARTESIAN COORDINATES (ANGSTROEM)
---------------------------------
  C      0.062932    1.524356   -0.200171
  C      0.019103    0.001829   -0.059831
  C     -1.414936   -0.540864    0.082864
  O     -2.237502   -0.138037   -1.014403
  C     -1.444523   -2.024047    0.266995
  C     -1.854663   -2.853144    1.263015
  C     -1.620146   -4.192484    0.805332
  C     -1.090587   -4.076303   -0.438095
  O     -0.971004   -2.764374   -0.782516
  H      1.088330    1.876922   -0.345761
  H     -0.540087    1.848756   -1.051737
  H     -0.335161    2.014843    0.695373
  H      0.483741   -0.475666   -0.932063
  H      0.599359   -0.321460    0.813023
  H     -1.880443   -0.092287    0.967873
  H     -1.960514   -0.655604   -1.779011
  H     -2.277080   -2.549615    2.208179
  H     -1.824807   -5.110956    1.332574
  H     -0.760505   -4.786067   -1.178433

 Total Charge           Charge          ....    0
 Multiplicity           Mult            ....    1
 Number of Electrons    NEL             ....   68
 Basis Dimension        Dim             ....  339

ORBITAL ENERGIES
----------------

  NO   OCC          E(Eh)            E(eV)
   0   2.0000     -20.623819      -561.2027
   1   2.0000     -20.556095      -559.3598
   2   2.0000     -11.292890      -307.2952
   3   2.0000     -11.289494      -307.2028
   4   2.0000     -11.288851      -307.1853
   5   2.0000     -11.232112      -305.6413
   6   2.0000     -11.229749      -305.5770
   7   2.0000     -11.225167      -305.4523
   8   2.0000     -11.211364      -305.0767
   9   2.0000      -1.461574       -39.7715
  10   2.0000      -1.361564       -37.0500
  11   2.0000      -1.087699       -29.5978
  12   2.0000      -1.065867       -29.0037
  13   2.0000      -1.011733       -27.5307
  14   2.0000      -0.917139       -24.9566
  15   2.0000      -0.824752       -22.4426
  16   2.0000      -0.810825       -22.0637
  17   2.0000      -0.766370       -20.8540
  18   2.0000      -0.736887       -20.0517
  19   2.0000      -0.651554       -17.7297
  20   2.0000      -0.643939       -17.5225
  21   2.0000      -0.641256       -17.4495
  22   2.0000      -0.616596       -16.7784
  23   2.0000      -0.589902       -16.0520
  24   2.0000      -0.569804       -15.5052
  25   2.0000      -0.567029       -15.4296
  26   2.0000      -0.545049       -14.8315
  27   2.0000      -0.532906       -14.5011
  28   2.0000      -0.524790       -14.2803
  29   2.0000      -0.484881       -13.1943
  30   2.0000      -0.483205       -13.1487
  31   2.0000      -0.443939       -12.0802
  32   2.0000      -0.401191       -10.9170
  33   2.0000      -0.317805        -8.6479
  34   0.0000       0.138391         3.7658
  35   0.0000       0.142222         3.8701
  36   0.0000       0.163649         4.4531
  37   0.0000       0.169658         4.6166
  38   0.0000       0.180364         4.9080

MULLIKEN ATOMIC CHARGES
-----------------------
   0 C :   -0.390458
   1 C :   -0.190225
   2 C :    0.044273
   3 O :   -0.463480
   4 C :    0.232207
   5 C :   -0.266414
   6 C :   -0.138130
   7 C :   -0.048918
   8 O :   -0.246697
   9 H :    0.132678
  10 H :    0.141086
  11 H :    0.116673
  12 H :    0.110089
  13 H :    0.116423
  14 H :    0.100222
  15 H :    0.320502
  16 H :    0.141141
  17 H :    0.142008
  18 H :    0.147019
Sum of atomic charges:   -0.0000000

LOEWDIN ATOMIC CHARGES
----------------------
   0 C :   -0.318660
   1 C :   -0.275843
   2 C :   -0.318987
   3 O :   -0.014650
   4 C :   -0.235547
   5 C :   -0.157278
   6 C :   -0.188297
   7 C :   -0.242201
   8 O :    0.348510
   9 H :    0.120659
  10 H :    0.124735
  11 H :    0.120928
  12 H :    0.138201
  13 H :    0.141899
  14 H :    0.157651
  15 H :    0.176677
  16 H :    0.146098
  17 H :    0.143807
  18 H :    0.132300

  Mayer bond orders larger than 0.1
B(  0-C ,  1-C ) :   0.9188 B(  0-C ,  9-H ) :   0.9411 B(  0-C , 10-H ) :   0.9365
B(  0-C , 11-H ) :   0.9355 B(  1-C ,  2-C ) :   0.9487 B(  1-C , 12-H ) :   0.9152
B(  1-C , 13-H ) :   0.9285 B(  2-C ,  3-O ) :   0.8876 B(  2-C ,  4-C ) :   0.9227
B(  2-C , 14-H ) :   0.9304 B(  3-O , 15-H ) :   0.8381 B(  4-C ,  5-C ) :   1.4746
B(  4-C ,  8-O ) :   0.9759 B(  5-C ,  6-C ) :   1.2035 B(  5-C , 16-H ) :   0.9237
B(  6-C ,  7-C ) :   1.5561 B(  6-C , 17-H ) :   0.9236 B(  7-C ,  8-O ) :   1.0592
B(  7-C , 18-H ) :   0.9348

MP2 TOTAL ENERGY:     -422.346137809 Eh
FINAL SINGLE POINT ENERGY      -422.346137808765

DIPOLE MOMENT
-------------
                                X             Y             Z
Electronic contribution:     -3.56584      -7.67818      -1.04306
Nuclear contribution   :      3.96927       7.19710       1.20684
                        -----------------------------------------
Total Dipole Moment    :      0.40343      -0.48107       0.16378
                        -----------------------------------------
Magnitude (a.u.)       :      0.64885
Magnitude (Debye)      :      1.64926

                             ****ORCA TERMINATED NORMALLY****
TOTAL RUN TIME: 0 days 0 hours 15 minutes 55 seconds 156 msec
