                         Program Version 3.0.3 - RELEASE   -
|  1> ! RI-MP2 RIJK def2-TZVP def2-TZVP/C def2-TZVP/JK TIGHTSCF
|  2> % maxcore 2000
|  3> % mp2 density relaxed end
|  4> *xyz 0 1
|  5>  O        0.0555067703     1.4249137484     0.0810976965
|  6>  C        0.0523868302     0.0048726735     0.0283585370
|  7>  C       -1.3560557671    -0.6434329841    -0.0191474466
|  8>  C       -1.2381884961    -1.8602225797    -0.9740292212
|  9>  O       -2.3707196712    -2.0813829086    -1.8033471767
| 10>  C        0.0392644351    -1.5744114827    -1.7308391220
| 11>  C        0.7324643919    -0.5726226407    -1.1924320499
| 12>  H       -0.3321854237     1.7447646343    -0.7412055537
| 13>  H        0.5859267616    -0.2930896269     0.9395100987
| 14>  H       -1.7464703933    -0.9032166187     0.9668784070
| 15>  H       -2.0540219055     0.0776281991    -0.4621619265
| 16>  H       -1.1438021547    -2.7928338894    -0.4039670124
| 17>  H       -2.4527764415    -1.3198743320    -2.3882948679
| 18>  H        0.3286480396    -2.1688294532    -2.5910189267
| 19>  H        1.6923939342    -0.1979898194    -1.5317996956
| 20> *
| 21>
| 22>                          ****END OF INPUT****

CARTESIAN COORDINATES (ANGSTROEM)
---------------------------------
  O      0.055507    1.424914    0.081098
  C      0.052387    0.004873    0.028359
  C     -1.356056   -0.643433   -0.019147
  C     -1.238188   -1.860223   -0.974029
  O     -2.370720   -2.081383   -1.803347
  C      0.039264   -1.574411   -1.730839
  C      0.732464   -0.572623   -1.192432
  H     -0.332185    1.744765   -0.741206
  H      0.585927   -0.293090    0.939510
  H     -1.746470   -0.903217    0.966878
  H     -2.054022    0.077628   -0.462162
  H     -1.143802   -2.792834   -0.403967
  H     -2.452776   -1.319874   -2.388295
  H      0.328648   -2.168829   -2.591019
  H      1.692394   -0.197990   -1.531800

 Total Charge           Charge          ....    0
 Multiplicity           Mult            ....    1
 Number of Electrons    NEL             ....   54
 Basis Dimension        Dim             ....  265

ORBITAL ENERGIES
----------------

  NO   OCC          E(Eh)            E(eV)
   0   2.0000     -20.560656      -559.4839
   1   2.0000     -20.560656      -559.4839
   2   2.0000     -11.290666      -307.2346
   3   2.0000     -11.290657      -307.2344
   4   2.0000     -11.239141      -305.8326
   5   2.0000     -11.237397      -305.7851
   6   2.0000     -11.229176      -305.5614
   7   2.0000      -1.368912       -37.2500
   8   2.0000      -1.364802       -37.1382
   9   2.0000      -1.129567       -30.7371
  10   2.0000      -0.979428       -26.6516
  11   2.0000      -0.940263       -25.5859
  12   2.0000      -0.816678       -22.2229
  13   2.0000      -0.765754       -20.8372
  14   2.0000      -0.714758       -19.4495
  15   2.0000      -0.658912       -17.9299
  16   2.0000      -0.656185       -17.8557
  17   2.0000      -0.630324       -17.1520
  18   2.0000      -0.600621       -16.3437
  19   2.0000      -0.570828       -15.5330
  20   2.0000      -0.556285       -15.1373
  21   2.0000      -0.536997       -14.6124
  22   2.0000      -0.506275       -13.7764
  23   2.0000      -0.480836       -13.0842
  24   2.0000      -0.458412       -12.4740
  25   2.0000      -0.429835       -11.6964
  26   2.0000      -0.375472       -10.2171
  27   0.0000       0.126274         3.4361
  28   0.0000       0.133511         3.6330
  29   0.0000       0.156338         4.2542
  30   0.0000       0.179211         4.8766
  31   0.0000       0.179968         4.8972

MULLIKEN ATOMIC CHARGES
-----------------------
   0 O :   -0.465402
   1 C :    0.148030
   2 C :   -0.294639
   3 C :    0.148030
   4 O :   -0.465402
   5 C :   -0.211716
   6 C :   -0.211714
   7 H :    0.306749
   8 H :    0.108587
   9 H :    0.131702
  10 H :    0.113673
  11 H :    0.108587
  12 H :    0.306749
  13 H :    0.138382
  14 H :    0.138382
Sum of atomic charges:    0.0000000

LOEWDIN ATOMIC CHARGES
----------------------
   0 O :   -0.024034
   1 C :   -0.324324
   2 C :   -0.209270
   3 C :   -0.324324
   4 O :   -0.024034
   5 C :   -0.146258
   6 C :   -0.146257
   7 H :    0.171528
   8 H :    0.148829
   9 H :    0.136327
  10 H :    0.140304
  11 H :    0.148829
  12 H :    0.171528
  13 H :    0.140577
  14 H :    0.140578

  Mayer bond orders larger than 0.1
B(  0-O ,  1-C ) :   0.9165 B(  0-O ,  7-H ) :   0.8429 B(  1-C ,  2-C ) :   0.9152
B(  1-C ,  6-C ) :   0.9384 B(  1-C ,  8-H ) :   0.9120 B(  2-C ,  3-C ) :   0.9152
B(  2-C ,  9-H ) :   0.9240 B(  2-C , 10-H ) :   0.9384 B(  3-C ,  4-O ) :   0.9165
B(  3-C ,  5-C ) :   0.9384 B(  3-C , 11-H ) :   0.9120 B(  4-O , 12-H ) :   0.8429
B(  5-C ,  6-C ) :   1.7042 B(  5-C , 13-H ) :   0.9247 B(  6-C , 14-H ) :   0.9247

MP2 TOTAL ENERGY:     -345.097278200 Eh
FINAL SINGLE POINT ENERGY      -345.097278200254

DIPOLE MOMENT
-------------
                                X             Y             Z
Electronic contribution:      0.24267       0.18682      -0.66004
Nuclear contribution   :     -0.06333      -0.06706       0.20629
                        -----------------------------------------
Total Dipole Moment    :      0.17934       0.11976      -0.45374
                        -----------------------------------------
Magnitude (a.u.)       :      0.50238
Magnitude (Debye)      :      1.27695

                             ****ORCA TERMINATED NORMALLY****
TOTAL RUN TIME: 0 days 0 hours 7 minutes 5 seconds 222 msec
