                         Program Version 3.0.3 - RELEASE   -
|  1> ! RI-MP2 RIJK def2-TZVP def2-TZVP/C def2-TZVP/JK TIGHTSCF
|  2> % maxcore 2000
|  3> % mp2 density relaxed end
|  4> *xyz 0 1
|  5>  C        0.2002281225     1.2612925254    -0.3711816189
|  6>  C        1.4703110209     1.8853015280     0.2648243310
|  7>  C        2.0909876053     0.7234781012     1.0261852455
|  8>  C        2.3205281139    -0.5583479630     0.2441522598
|  9>  C        3.0290133474    -1.7145887319     0.9519611807
| 10>  C        2.0843571566    -2.1017813273     2.0770013670
| 11>  C        0.9700389223    -1.3663976178     2.0787815579
| 12>  C        1.0181159451    -0.3389249596     1.0142591959
| 13>  O       -0.1558001217     0.1300951890     0.4248928398
| 14>  H       -0.6561347658     1.9401864639    -0.3952900636
| 15>  H        0.4064034222     0.9373690832    -1.4006214484
| 16>  H        2.1206362897     2.3249572440    -0.4982494045
| 17>  H        1.2044707267     2.6765953321     0.9730582044
| 18>  H        2.6749074742     0.9276255818     1.9183168242
| 19>  H        2.3642304115    -0.5026431476    -0.8381608569
| 20>  H        3.2033073597    -2.5560385481     0.2689706409
| 21>  H        4.0158132991    -1.4261095828     1.3389243931
| 22>  H        2.3338232923    -2.8618049088     2.8083414901
| 23>  H        0.1443015778    -1.4428559221     2.7753695120
| 24> *
| 25>
| 26>                          ****END OF INPUT****

CARTESIAN COORDINATES (ANGSTROEM)
---------------------------------
  C      0.200228    1.261293   -0.371182
  C      1.470311    1.885302    0.264824
  C      2.090988    0.723478    1.026185
  C      2.320528   -0.558348    0.244152
  C      3.029013   -1.714589    0.951961
  C      2.084357   -2.101781    2.077001
  C      0.970039   -1.366398    2.078782
  C      1.018116   -0.338925    1.014259
  O     -0.155800    0.130095    0.424893
  H     -0.656135    1.940186   -0.395290
  H      0.406403    0.937369   -1.400621
  H      2.120636    2.324957   -0.498249
  H      1.204471    2.676595    0.973058
  H      2.674907    0.927626    1.918317
  H      2.364230   -0.502643   -0.838161
  H      3.203307   -2.556039    0.268971
  H      4.015813   -1.426110    1.338924
  H      2.333823   -2.861805    2.808341
  H      0.144302   -1.442856    2.775370

 Total Charge           Charge          ....    0
 Multiplicity           Mult            ....    1
 Number of Electrons    NEL             ....   66
 Basis Dimension        Dim             ....  339

ORBITAL ENERGIES
----------------

  NO   OCC          E(Eh)            E(eV)
   0   2.0000     -20.557294      -559.3924
   1   2.0000     -11.281132      -306.9752
   2   2.0000     -11.275960      -306.8345
   3   2.0000     -11.231370      -305.6211
   4   2.0000     -11.230319      -305.5925
   5   2.0000     -11.228666      -305.5475
   6   2.0000     -11.227772      -305.5232
   7   2.0000     -11.226957      -305.5010
   8   2.0000     -11.225176      -305.4526
   9   2.0000      -1.388030       -37.7702
  10   2.0000      -1.171148       -31.8686
  11   2.0000      -1.065489       -28.9934
  12   2.0000      -0.996236       -27.1090
  13   2.0000      -0.960276       -26.1304
  14   2.0000      -0.856968       -23.3193
  15   2.0000      -0.800762       -21.7898
  16   2.0000      -0.757450       -20.6113
  17   2.0000      -0.737283       -20.0625
  18   2.0000      -0.687800       -18.7160
  19   2.0000      -0.654501       -17.8099
  20   2.0000      -0.633708       -17.2441
  21   2.0000      -0.604596       -16.4519
  22   2.0000      -0.581434       -15.8216
  23   2.0000      -0.564141       -15.3511
  24   2.0000      -0.538031       -14.6406
  25   2.0000      -0.534504       -14.5446
  26   2.0000      -0.518101       -14.0982
  27   2.0000      -0.495742       -13.4898
  28   2.0000      -0.476300       -12.9608
  29   2.0000      -0.470599       -12.8056
  30   2.0000      -0.412825       -11.2336
  31   2.0000      -0.384894       -10.4735
  32   2.0000      -0.321379        -8.7452
  33   0.0000       0.142779         3.8852
  34   0.0000       0.149065         4.0563
  35   0.0000       0.158100         4.3021
  36   0.0000       0.168292         4.5795
  37   0.0000       0.184471         5.0197

MULLIKEN ATOMIC CHARGES
-----------------------
   0 C :   -0.029404
   1 C :   -0.255777
   2 C :   -0.122337
   3 C :   -0.176325
   4 C :   -0.186302
   5 C :   -0.152368
   6 C :   -0.287569
   7 C :    0.298422
   8 O :   -0.301486
   9 H :    0.122063
  10 H :    0.092762
  11 H :    0.123702
  12 H :    0.119638
  13 H :    0.123530
  14 H :    0.128967
  15 H :    0.123521
  16 H :    0.122212
  17 H :    0.127518
  18 H :    0.129233
Sum of atomic charges:    0.0000000

LOEWDIN ATOMIC CHARGES
----------------------
   0 C :   -0.282404
   1 C :   -0.235154
   2 C :   -0.166676
   3 C :   -0.147541
   4 C :   -0.217973
   5 C :   -0.146055
   6 C :   -0.113724
   7 C :   -0.283262
   8 O :    0.207112
   9 H :    0.125351
  10 H :    0.119423
  11 H :    0.137917
  12 H :    0.141070
  13 H :    0.146370
  14 H :    0.146495
  15 H :    0.143933
  16 H :    0.144666
  17 H :    0.135701
  18 H :    0.144750

  Mayer bond orders larger than 0.1
B(  0-C ,  1-C ) :   0.9586 B(  0-C ,  8-O ) :   0.9113 B(  0-C ,  9-H ) :   0.9242
B(  0-C , 10-H ) :   0.9238 B(  1-C ,  2-C ) :   0.9363 B(  1-C , 11-H ) :   0.9277
B(  1-C , 12-H ) :   0.9278 B(  2-C ,  3-C ) :   0.8398 B(  2-C ,  7-C ) :   0.8439
B(  2-C , 13-H ) :   0.9070 B(  3-C ,  4-C ) :   0.9475 B(  3-C ,  7-C ) :   0.8268
B(  3-C , 14-H ) :   0.9029 B(  4-C ,  5-C ) :   0.9743 B(  4-C , 15-H ) :   0.9107
B(  4-C , 16-H ) :   0.9040 B(  5-C ,  6-C ) :   1.7644 B(  5-C , 17-H ) :   0.9283
B(  6-C ,  7-C ) :   0.9665 B(  6-C , 18-H ) :   0.9316 B(  7-C ,  8-O ) :   1.0252

MP2 TOTAL ENERGY:     -385.205746688 Eh
FINAL SINGLE POINT ENERGY      -385.205746687611

DIPOLE MOMENT
-------------
                                X             Y             Z
Electronic contribution:     -2.81434      -1.59829       1.17424
Nuclear contribution   :      3.33959       1.89835      -1.26556
                        -----------------------------------------
Total Dipole Moment    :      0.52525       0.30006      -0.09132
                        -----------------------------------------
Magnitude (a.u.)       :      0.61177
Magnitude (Debye)      :      1.55500

                             ****ORCA TERMINATED NORMALLY****
TOTAL RUN TIME: 0 days 0 hours 18 minutes 21 seconds 676 msec
