                         Program Version 3.0.3 - RELEASE   -
|  1> ! RI-MP2 RIJK def2-TZVP def2-TZVP/C def2-TZVP/JK TIGHTSCF
|  2> % maxcore 2000
|  3> % mp2 density relaxed end
|  4> *xyz 0 1
|  5>  O        0.0054295053     1.4073370089     0.0182648551
|  6>  C        0.0062144818     0.0151569834     0.0037132314
|  7>  C        0.4599339788    -0.7284908824    -1.2829963337
|  8>  C       -0.6784204983    -1.7592444016    -1.0765690340
|  9>  O       -0.3643372865    -2.7065399068    -0.0340748954
| 10>  C       -0.7310706298    -1.7810326462     1.0108680491
| 11>  C        0.3948863067    -0.7554696221     1.2958998110
| 12>  C       -1.3482692192    -0.7915095219    -0.0388637203
| 13>  O       -2.5739857078    -0.1789651801    -0.0634286381
| 14>  H        0.9201524613     1.7106495331     0.0387864031
| 15>  H        0.2432785774    -0.1005758116    -2.1533667939
| 16>  H        1.4796405124    -1.1188274916    -1.3383807086
| 17>  H       -1.1394689543    -2.2330161573    -1.9450290962
| 18>  H       -1.2351347713    -2.2726248232     1.8448339185
| 19>  H        1.4106887717    -1.1474368994     1.3945890324
| 20>  H        0.1343124895    -0.1455983764     2.1670451297
| 21>  H       -3.2596101077    -0.8568821047    -0.0877482101
| 22> *
| 23>
| 24>                          ****END OF INPUT****

CARTESIAN COORDINATES (ANGSTROEM)
---------------------------------
  O      0.005430    1.407337    0.018265
  C      0.006214    0.015157    0.003713
  C      0.459934   -0.728491   -1.282996
  C     -0.678420   -1.759244   -1.076569
  O     -0.364337   -2.706540   -0.034075
  C     -0.731071   -1.781033    1.010868
  C      0.394886   -0.755470    1.295900
  C     -1.348269   -0.791510   -0.038864
  O     -2.573986   -0.178965   -0.063429
  H      0.920152    1.710650    0.038786
  H      0.243279   -0.100576   -2.153367
  H      1.479641   -1.118827   -1.338381
  H     -1.139469   -2.233016   -1.945029
  H     -1.235135   -2.272625    1.844834
  H      1.410689   -1.147437    1.394589
  H      0.134312   -0.145598    2.167045
  H     -3.259610   -0.856882   -0.087748

 Total Charge           Charge          ....    0
 Multiplicity           Mult            ....    1
 Number of Electrons    NEL             ....   68
 Basis Dimension        Dim             ....  327

ORBITAL ENERGIES
----------------

  NO   OCC          E(Eh)            E(eV)
   0   2.0000     -20.580484      -560.0234
   1   2.0000     -20.565014      -559.6025
   2   2.0000     -20.554015      -559.3032
   3   2.0000     -11.295845      -307.3756
   4   2.0000     -11.293435      -307.3100
   5   2.0000     -11.285798      -307.1022
   6   2.0000     -11.285759      -307.1011
   7   2.0000     -11.228710      -305.5487
   8   2.0000     -11.228621      -305.5463
   9   2.0000      -1.407875       -38.3102
  10   2.0000      -1.377065       -37.4718
  11   2.0000      -1.372667       -37.3522
  12   2.0000      -1.130441       -30.7609
  13   2.0000      -1.025200       -27.8971
  14   2.0000      -0.909370       -24.7452
  15   2.0000      -0.839446       -22.8425
  16   2.0000      -0.838851       -22.8263
  17   2.0000      -0.753579       -20.5059
  18   2.0000      -0.729758       -19.8577
  19   2.0000      -0.663946       -18.0669
  20   2.0000      -0.662681       -18.0325
  21   2.0000      -0.640862       -17.4387
  22   2.0000      -0.611517       -16.6402
  23   2.0000      -0.594062       -16.1652
  24   2.0000      -0.587697       -15.9920
  25   2.0000      -0.576779       -15.6950
  26   2.0000      -0.560580       -15.2541
  27   2.0000      -0.552330       -15.0297
  28   2.0000      -0.506815       -13.7911
  29   2.0000      -0.482085       -13.1182
  30   2.0000      -0.433995       -11.8096
  31   2.0000      -0.412381       -11.2215
  32   2.0000      -0.410576       -11.1723
  33   2.0000      -0.380346       -10.3497
  34   0.0000       0.135169         3.6781
  35   0.0000       0.136854         3.7240
  36   0.0000       0.160340         4.3631
  37   0.0000       0.171671         4.6714
  38   0.0000       0.184090         5.0093

MULLIKEN ATOMIC CHARGES
-----------------------
   0 O :   -0.447593
   1 C :    0.261003
   2 C :   -0.267823
   3 C :    0.011162
   4 O :   -0.323655
   5 C :    0.011239
   6 C :   -0.267270
   7 C :    0.070411
   8 O :   -0.428037
   9 H :    0.321247
  10 H :    0.119481
  11 H :    0.119876
  12 H :    0.124379
  13 H :    0.124379
  14 H :    0.119800
  15 H :    0.119360
  16 H :    0.332042
Sum of atomic charges:    0.0000000

LOEWDIN ATOMIC CHARGES
----------------------
   0 O :    0.025531
   1 C :   -0.316536
   2 C :   -0.190635
   3 C :   -0.221921
   4 O :    0.158522
   5 C :   -0.221894
   6 C :   -0.190558
   7 C :   -0.271182
   8 O :    0.050928
   9 H :    0.183050
  10 H :    0.147296
  11 H :    0.128740
  12 H :    0.125986
  13 H :    0.125987
  14 H :    0.128720
  15 H :    0.147322
  16 H :    0.190645

  Mayer bond orders larger than 0.1
B(  0-O ,  1-C ) :   1.0522 B(  0-O ,  9-H ) :   0.8354 B(  1-C ,  2-C ) :   0.9534
B(  1-C ,  6-C ) :   0.9533 B(  1-C ,  7-C ) :   0.8871 B(  2-C ,  3-C ) :   0.8666
B(  2-C , 10-H ) :   0.9066 B(  2-C , 11-H ) :   0.9051 B(  3-C ,  4-O ) :   0.9529
B(  3-C ,  7-C ) :   0.9192 B(  3-C , 12-H ) :   0.9196 B(  4-O ,  5-C ) :   0.9527
B(  5-C ,  6-C ) :   0.8666 B(  5-C ,  7-C ) :   0.9194 B(  5-C , 13-H ) :   0.9196
B(  6-C , 14-H ) :   0.9051 B(  6-C , 15-H ) :   0.9066 B(  7-C ,  8-O ) :   1.0726
B(  8-O , 16-H ) :   0.8296

MP2 TOTAL ENERGY:     -458.173839142 Eh
FINAL SINGLE POINT ENERGY      -458.173839141810

DIPOLE MOMENT
-------------
                                X             Y             Z
Electronic contribution:     -2.57772      -0.18660      -0.06548
Nuclear contribution   :      2.79309       0.05987       0.06611
                        -----------------------------------------
Total Dipole Moment    :      0.21537      -0.12673       0.00063
                        -----------------------------------------
Magnitude (a.u.)       :      0.24989
Magnitude (Debye)      :      0.63516

                             ****ORCA TERMINATED NORMALLY****
TOTAL RUN TIME: 0 days 0 hours 15 minutes 34 seconds 194 msec
