                         Program Version 3.0.3 - RELEASE   -
|  1> ! RI-MP2 RIJK def2-TZVP def2-TZVP/C def2-TZVP/JK TIGHTSCF
|  2> % maxcore 2000
|  3> % mp2 density relaxed end
|  4> *xyz 0 1
|  5>  N        0.0912079703     1.1692087516     0.1922051579
|  6>  C        0.0566977988    -0.0860433048     0.0730716011
|  7>  C       -0.9955762889    -0.8801040822    -0.6713562048
|  8>  C       -0.8040910742    -2.3049910285    -0.1339841932
|  9>  C        0.6790073235    -2.3114300056     0.2860026471
| 10>  C        1.6246936359    -2.8173637987    -0.8205895264
| 11>  C        3.0309056924    -2.7675358403    -0.4446025676
| 12>  C        4.1869706374    -2.7375859496    -0.1196442171
| 13>  O        0.9806071780    -0.9430456165     0.6087602143
| 14>  H        0.9134398565     1.4549915301     0.7269452478
| 15>  H       -1.9887692322    -0.4634709374    -0.5033939411
| 16>  H       -0.7945295111    -0.8189334007    -1.7464940735
| 17>  H       -1.4353764582    -2.4711346182     0.7432293659
| 18>  H       -1.0332347162    -3.0847146684    -0.8636598701
| 19>  H        0.8548025057    -2.8931300245     1.1945871547
| 20>  H        1.3427386936    -3.8509947379    -1.0600122707
| 21>  H        1.4589905444    -2.2292993578    -1.7325585614
| 22>  H        5.2101449343    -2.7031248106     0.1619489969
| 23> *
| 24>
| 25>                          ****END OF INPUT****

CARTESIAN COORDINATES (ANGSTROEM)
---------------------------------
  N      0.091208    1.169209    0.192205
  C      0.056698   -0.086043    0.073072
  C     -0.995576   -0.880104   -0.671356
  C     -0.804091   -2.304991   -0.133984
  C      0.679007   -2.311430    0.286003
  C      1.624694   -2.817364   -0.820590
  C      3.030906   -2.767536   -0.444603
  C      4.186971   -2.737586   -0.119644
  O      0.980607   -0.943046    0.608760
  H      0.913440    1.454992    0.726945
  H     -1.988769   -0.463471   -0.503394
  H     -0.794530   -0.818933   -1.746494
  H     -1.435376   -2.471135    0.743229
  H     -1.033235   -3.084715   -0.863660
  H      0.854803   -2.893130    1.194587
  H      1.342739   -3.850995   -1.060012
  H      1.458991   -2.229299   -1.732559
  H      5.210145   -2.703125    0.161949

 Total Charge           Charge          ....    0
 Multiplicity           Mult            ....    1
 Number of Electrons    NEL             ....   66
 Basis Dimension        Dim             ....  333

ORBITAL ENERGIES
----------------

  NO   OCC          E(Eh)            E(eV)
   0   2.0000     -20.592416      -560.3481
   1   2.0000     -15.527547      -422.5260
   2   2.0000     -11.334776      -308.4349
   3   2.0000     -11.311177      -307.7928
   4   2.0000     -11.267450      -306.6029
   5   2.0000     -11.250242      -306.1347
   6   2.0000     -11.247936      -306.0719
   7   2.0000     -11.238126      -305.8049
   8   2.0000     -11.225572      -305.4634
   9   2.0000      -1.430617       -38.9291
  10   2.0000      -1.193729       -32.4830
  11   2.0000      -1.103818       -30.0364
  12   2.0000      -1.067085       -29.0368
  13   2.0000      -0.998849       -27.1801
  14   2.0000      -0.926564       -25.2131
  15   2.0000      -0.836428       -22.7604
  16   2.0000      -0.771172       -20.9847
  17   2.0000      -0.731022       -19.8921
  18   2.0000      -0.703679       -19.1481
  19   2.0000      -0.679271       -18.4839
  20   2.0000      -0.673335       -18.3224
  21   2.0000      -0.634307       -17.2604
  22   2.0000      -0.603343       -16.4178
  23   2.0000      -0.585075       -15.9207
  24   2.0000      -0.567278       -15.4364
  25   2.0000      -0.541702       -14.7404
  26   2.0000      -0.528832       -14.3903
  27   2.0000      -0.502331       -13.6691
  28   2.0000      -0.486993       -13.2518
  29   2.0000      -0.431736       -11.7481
  30   2.0000      -0.400172       -10.8892
  31   2.0000      -0.391491       -10.6530
  32   2.0000      -0.386432       -10.5154
  33   0.0000       0.119106         3.2410
  34   0.0000       0.149206         4.0601
  35   0.0000       0.154499         4.2041
  36   0.0000       0.165165         4.4944
  37   0.0000       0.171770         4.6741

MULLIKEN ATOMIC CHARGES
-----------------------
   0 N :   -0.372736
   1 C :    0.108217
   2 C :   -0.199546
   3 C :   -0.243862
   4 C :    0.130720
   5 C :   -0.428802
   6 C :   -0.008088
   7 C :   -0.119832
   8 O :   -0.253796
   9 H :    0.224575
  10 H :    0.145016
  11 H :    0.138332
  12 H :    0.136292
  13 H :    0.133053
  14 H :    0.118784
  15 H :    0.145199
  16 H :    0.154109
  17 H :    0.192365
Sum of atomic charges:   -0.0000000

LOEWDIN ATOMIC CHARGES
----------------------
   0 N :   -0.062414
   1 C :   -0.406296
   2 C :   -0.217853
   3 C :   -0.230201
   4 C :   -0.265667
   5 C :   -0.230795
   6 C :   -0.110464
   7 C :   -0.096193
   8 O :    0.262214
   9 H :    0.168952
  10 H :    0.151690
  11 H :    0.152082
  12 H :    0.144042
  13 H :    0.141026
  14 H :    0.148139
  15 H :    0.162447
  16 H :    0.162114
  17 H :    0.127177

  Mayer bond orders larger than 0.1
B(  0-N ,  1-C ) :   2.0713 B(  0-N ,  9-H ) :   0.8560 B(  1-C ,  2-C ) :   0.9100
B(  1-C ,  8-O ) :   1.0760 B(  2-C ,  3-C ) :   0.9441 B(  2-C , 10-H ) :   0.9182
B(  2-C , 11-H ) :   0.9197 B(  3-C ,  4-C ) :   0.8938 B(  3-C , 12-H ) :   0.9278
B(  3-C , 13-H ) :   0.9327 B(  4-C ,  5-C ) :   0.9212 B(  4-C ,  8-O ) :   0.8674
B(  4-C , 14-H ) :   0.9278 B(  5-C ,  6-C ) :   1.1321 B(  5-C ,  7-C ) :  -0.1160
B(  5-C , 15-H ) :   0.9188 B(  5-C , 16-H ) :   0.9160 B(  6-C ,  7-C ) :   2.6189
B(  7-C , 17-H ) :   0.8943

MP2 TOTAL ENERGY:     -401.239905200 Eh
FINAL SINGLE POINT ENERGY      -401.239905200183

DIPOLE MOMENT
-------------
                                X             Y             Z
Electronic contribution:      3.40384       2.22362       1.84798
Nuclear contribution   :     -3.63739      -3.44132      -2.00851
                        -----------------------------------------
Total Dipole Moment    :     -0.23355      -1.21771      -0.16054
                        -----------------------------------------
Magnitude (a.u.)       :      1.25025
Magnitude (Debye)      :      3.17788

                             ****ORCA TERMINATED NORMALLY****
TOTAL RUN TIME: 0 days 0 hours 16 minutes 39 seconds 316 msec
