                         Program Version 3.0.3 - RELEASE   -
|  1> ! RI-MP2 RIJK def2-TZVP def2-TZVP/C def2-TZVP/JK TIGHTSCF
|  2> % maxcore 2000
|  3> % mp2 density relaxed end
|  4> *xyz 0 1
|  5>  C       -0.0863655665     1.6825909093     0.0909195883
|  6>  C        0.1750067640     0.1981226761     0.0968825146
|  7>  C        0.5592216081    -0.5586409342    -1.1737043913
|  8>  N        1.5102478092    -0.2720227548    -0.1213022019
|  9>  C        2.1649071988    -1.2066739356     0.6834637424
| 10>  O        2.1674553966    -1.1634509650     1.8859600033
| 11>  C        0.0050121923    -1.9498319263    -1.3293830261
| 12>  C       -0.7385722081    -2.2217044161    -2.6197915133
| 13>  O        0.1410471114    -2.7831462668    -0.4615066390
| 14>  H        0.5430121792     2.1873288196    -0.6467191951
| 15>  H       -1.1362811896     1.8910928790    -0.1376315666
| 16>  H        0.1368641929     2.1049244559     1.0758134788
| 17>  H       -0.4061203367    -0.3913183063     0.8052977594
| 18>  H        0.6818714017     0.0163737210    -2.0892577526
| 19>  H        2.7654390010    -1.9163715468     0.0888098585
| 20>  H       -0.0436485566    -2.1679623805    -3.4662537199
| 21>  H       -1.1933372876    -3.2117452896    -2.5842817664
| 22>  H       -1.5071551600    -1.4598159187    -2.7913286430
| 23> *
| 24>
| 25>                          ****END OF INPUT****

CARTESIAN COORDINATES (ANGSTROEM)
---------------------------------
  C     -0.086366    1.682591    0.090920
  C      0.175007    0.198123    0.096883
  C      0.559222   -0.558641   -1.173704
  N      1.510248   -0.272023   -0.121302
  C      2.164907   -1.206674    0.683464
  O      2.167455   -1.163451    1.885960
  C      0.005012   -1.949832   -1.329383
  C     -0.738572   -2.221704   -2.619792
  O      0.141047   -2.783146   -0.461507
  H      0.543012    2.187329   -0.646719
  H     -1.136281    1.891093   -0.137632
  H      0.136864    2.104924    1.075813
  H     -0.406120   -0.391318    0.805298
  H      0.681871    0.016374   -2.089258
  H      2.765439   -1.916372    0.088810
  H     -0.043649   -2.167962   -3.466254
  H     -1.193337   -3.211745   -2.584282
  H     -1.507155   -1.459816   -2.791329

 Total Charge           Charge          ....    0
 Multiplicity           Mult            ....    1
 Number of Electrons    NEL             ....   68
 Basis Dimension        Dim             ....  333

ORBITAL ENERGIES
----------------

  NO   OCC          E(Eh)            E(eV)
   0   2.0000     -20.563160      -559.5520
   1   2.0000     -20.536261      -558.8201
   2   2.0000     -15.595985      -424.3883
   3   2.0000     -11.353840      -308.9537
   4   2.0000     -11.352466      -308.9163
   5   2.0000     -11.298107      -307.4371
   6   2.0000     -11.296764      -307.4006
   7   2.0000     -11.253155      -306.2139
   8   2.0000     -11.237571      -305.7899
   9   2.0000      -1.412710       -38.4418
  10   2.0000      -1.393692       -37.9243
  11   2.0000      -1.306255       -35.5450
  12   2.0000      -1.048352       -28.5271
  13   2.0000      -1.029517       -28.0146
  14   2.0000      -0.965125       -26.2624
  15   2.0000      -0.879433       -23.9306
  16   2.0000      -0.798553       -21.7297
  17   2.0000      -0.756147       -20.5758
  18   2.0000      -0.704565       -19.1722
  19   2.0000      -0.690299       -18.7840
  20   2.0000      -0.648953       -17.6589
  21   2.0000      -0.626404       -17.0453
  22   2.0000      -0.625074       -17.0091
  23   2.0000      -0.616458       -16.7747
  24   2.0000      -0.588497       -16.0138
  25   2.0000      -0.575106       -15.6494
  26   2.0000      -0.556680       -15.1480
  27   2.0000      -0.541935       -14.7468
  28   2.0000      -0.519010       -14.1230
  29   2.0000      -0.504614       -13.7312
  30   2.0000      -0.496013       -13.4972
  31   2.0000      -0.443764       -12.0754
  32   2.0000      -0.420058       -11.4304
  33   2.0000      -0.401605       -10.9282
  34   0.0000       0.112572         3.0632
  35   0.0000       0.118539         3.2256
  36   0.0000       0.146315         3.9814
  37   0.0000       0.159535         4.3412
  38   0.0000       0.178106         4.8465

MULLIKEN ATOMIC CHARGES
-----------------------
   0 C :   -0.386296
   1 C :    0.011574
   2 C :   -0.099566
   3 N :   -0.168363
   4 C :    0.179516
   5 O :   -0.300985
   6 C :    0.209491
   7 C :   -0.418871
   8 O :   -0.291250
   9 H :    0.138786
  10 H :    0.130011
  11 H :    0.151787
  12 H :    0.150551
  13 H :    0.140297
  14 H :    0.087559
  15 H :    0.152918
  16 H :    0.161846
  17 H :    0.150995
Sum of atomic charges:    0.0000000

LOEWDIN ATOMIC CHARGES
----------------------
   0 C :   -0.284639
   1 C :   -0.220900
   2 C :   -0.194719
   3 N :    0.191000
   4 C :   -0.381461
   5 O :    0.109128
   6 C :   -0.345368
   7 C :   -0.271721
   8 O :    0.166668
   9 H :    0.131139
  10 H :    0.128807
  11 H :    0.135568
  12 H :    0.154344
  13 H :    0.150976
  14 H :    0.114149
  15 H :    0.141298
  16 H :    0.136655
  17 H :    0.139075

  Mayer bond orders larger than 0.1
B(  0-C ,  1-C ) :   0.8914 B(  0-C ,  9-H ) :   0.9398 B(  0-C , 10-H ) :   0.9301
B(  0-C , 11-H ) :   0.9345 B(  1-C ,  2-C ) :   0.8785 B(  1-C ,  3-N ) :   0.8512
B(  1-C , 12-H ) :   0.9127 B(  2-C ,  3-N ) :   0.8983 B(  2-C ,  6-C ) :   0.8982
B(  2-C , 13-H ) :   0.8955 B(  3-N ,  4-C ) :   0.9976 B(  4-C ,  5-O ) :   1.9706
B(  4-C , 14-H ) :   0.9282 B(  6-C ,  7-C ) :   0.9203 B(  6-C ,  8-O ) :   1.9477
B(  7-C , 15-H ) :   0.9117 B(  7-C , 16-H ) :   0.9375 B(  7-C , 17-H ) :   0.9172

MP2 TOTAL ENERGY:     -438.373659203 Eh
FINAL SINGLE POINT ENERGY      -438.373659202636

DIPOLE MOMENT
-------------
                                X             Y             Z
Electronic contribution:      4.78786      -4.36859       4.70797
Nuclear contribution   :     -5.63536       5.08658      -6.46861
                        -----------------------------------------
Total Dipole Moment    :     -0.84750       0.71800      -1.76064
                        -----------------------------------------
Magnitude (a.u.)       :      2.08174
Magnitude (Debye)      :      5.29136

                             ****ORCA TERMINATED NORMALLY****
TOTAL RUN TIME: 0 days 0 hours 16 minutes 0 seconds 163 msec
