                         Program Version 3.0.3 - RELEASE   -
|  1> ! RI-MP2 RIJK def2-TZVP def2-TZVP/C def2-TZVP/JK TIGHTSCF
|  2> % maxcore 2000
|  3> % mp2 density relaxed end
|  4> *xyz 0 1
|  5>  O        0.1115986288     0.1033714123     0.0946247113
|  6>  C        0.0029609434     1.2928801444     0.0210963938
|  7>  C       -1.2453029608     2.1877588048     0.0612551715
|  8>  C       -0.4817399698     3.4939989420    -0.0775940274
|  9>  O        0.6240825610     3.3124669840     0.9411694208
| 10>  C        1.1334590720     2.3403245979    -0.1086213372
| 11>  C        2.1872933473     1.8824139842    -1.1477745962
| 12>  O        1.1852231464     2.3257557989    -2.1648622123
| 13>  C        0.6843262310     3.2709508121    -1.1307458703
| 14>  H       -1.9349948432     1.9614767001    -0.7568747486
| 15>  H       -1.7736451037     2.1141992827     1.0140229634
| 16>  H       -0.9874761682     4.4523787068     0.0250070452
| 17>  H        3.1005030178     2.4780572458    -1.2169111585
| 18>  H        2.3731889802     0.8086915603    -1.2074516708
| 19>  H        1.2661912178     4.1933944638    -1.1974674250
| 20> *
| 21>
| 22>                          ****END OF INPUT****

CARTESIAN COORDINATES (ANGSTROEM)
---------------------------------
  O      0.111599    0.103371    0.094625
  C      0.002961    1.292880    0.021096
  C     -1.245303    2.187759    0.061255
  C     -0.481740    3.493999   -0.077594
  O      0.624083    3.312467    0.941169
  C      1.133459    2.340325   -0.108621
  C      2.187293    1.882414   -1.147775
  O      1.185223    2.325756   -2.164862
  C      0.684326    3.270951   -1.130746
  H     -1.934995    1.961477   -0.756875
  H     -1.773645    2.114199    1.014023
  H     -0.987476    4.452379    0.025007
  H      3.100503    2.478057   -1.216911
  H      2.373189    0.808692   -1.207452
  H      1.266191    4.193394   -1.197467

 Total Charge           Charge          ....    0
 Multiplicity           Mult            ....    1
 Number of Electrons    NEL             ....   66
 Basis Dimension        Dim             ....  315

ORBITAL ENERGIES
----------------

  NO   OCC          E(Eh)            E(eV)
   0   2.0000     -20.596659      -560.4636
   1   2.0000     -20.588804      -560.2499
   2   2.0000     -20.566088      -559.6317
   3   2.0000     -11.347624      -308.7845
   4   2.0000     -11.337070      -308.4974
   5   2.0000     -11.323659      -308.1324
   6   2.0000     -11.313230      -307.8486
   7   2.0000     -11.308066      -307.7081
   8   2.0000     -11.258278      -306.3533
   9   2.0000      -1.432851       -38.9899
  10   2.0000      -1.402305       -38.1587
  11   2.0000      -1.371310       -37.3152
  12   2.0000      -1.091860       -29.7110
  13   2.0000      -1.023729       -27.8571
  14   2.0000      -0.967342       -26.3227
  15   2.0000      -0.904072       -24.6010
  16   2.0000      -0.814821       -22.1724
  17   2.0000      -0.730634       -19.8816
  18   2.0000      -0.712384       -19.3850
  19   2.0000      -0.674261       -18.3476
  20   2.0000      -0.667257       -18.1570
  21   2.0000      -0.647821       -17.6281
  22   2.0000      -0.628102       -17.0915
  23   2.0000      -0.605087       -16.4652
  24   2.0000      -0.589021       -16.0281
  25   2.0000      -0.565321       -15.3832
  26   2.0000      -0.536038       -14.5863
  27   2.0000      -0.520491       -14.1633
  28   2.0000      -0.515879       -14.0378
  29   2.0000      -0.493388       -13.4258
  30   2.0000      -0.456937       -12.4339
  31   2.0000      -0.422171       -11.4879
  32   2.0000      -0.403833       -10.9888
  33   0.0000       0.109602         2.9824
  34   0.0000       0.141585         3.8527
  35   0.0000       0.147680         4.0186
  36   0.0000       0.160394         4.3645
  37   0.0000       0.166705         4.5363

MULLIKEN ATOMIC CHARGES
-----------------------
   0 O :   -0.248783
   1 C :    0.052892
   2 C :   -0.182316
   3 C :   -0.002006
   4 O :   -0.295925
   5 C :    0.215333
   6 C :   -0.074842
   7 O :   -0.308881
   8 C :    0.011453
   9 H :    0.143936
  10 H :    0.146588
  11 H :    0.149795
  12 H :    0.133182
  13 H :    0.151052
  14 H :    0.108523
Sum of atomic charges:   -0.0000000

LOEWDIN ATOMIC CHARGES
----------------------
   0 O :    0.181404
   1 C :   -0.270024
   2 C :   -0.202616
   3 C :   -0.188385
   4 O :    0.145048
   5 C :   -0.243620
   6 C :   -0.186644
   7 O :    0.115119
   8 C :   -0.212749
   9 H :    0.154257
  10 H :    0.155880
  11 H :    0.136442
  12 H :    0.129253
  13 H :    0.134309
  14 H :    0.152324

  Mayer bond orders larger than 0.1
B(  0-O ,  1-C ) :   2.0489 B(  1-C ,  2-C ) :   0.9436 B(  1-C ,  5-C ) :   0.7933
B(  2-C ,  3-C ) :   0.9519 B(  2-C ,  5-C ) :  -0.1175 B(  2-C ,  9-H ) :   0.8882
B(  2-C , 10-H ) :   0.8928 B(  3-C ,  4-O ) :   0.8905 B(  3-C ,  8-C ) :   0.8826
B(  3-C , 11-H ) :   0.9012 B(  4-O ,  5-C ) :   0.8649 B(  5-C ,  6-C ) :   0.8944
B(  5-C ,  8-C ) :   0.9688 B(  6-C ,  7-O ) :   0.8849 B(  6-C , 12-H ) :   0.9219
B(  6-C , 13-H ) :   0.9013 B(  7-O ,  8-C ) :   0.9381 B(  8-C , 14-H ) :   0.9199

MP2 TOTAL ENERGY:     -456.897216907 Eh
FINAL SINGLE POINT ENERGY      -456.897216907294

DIPOLE MOMENT
-------------
                                X             Y             Z
Electronic contribution:      0.60697      -1.54170       0.78982
Nuclear contribution   :     -0.76197       2.42705      -0.89849
                        -----------------------------------------
Total Dipole Moment    :     -0.15499       0.88535      -0.10867
                        -----------------------------------------
Magnitude (a.u.)       :      0.90536
Magnitude (Debye)      :      2.30125

                             ****ORCA TERMINATED NORMALLY****
TOTAL RUN TIME: 0 days 0 hours 17 minutes 0 seconds 316 msec
