                         Program Version 3.0.3 - RELEASE   -
|  1> ! RI-MP2 RIJK def2-TZVP def2-TZVP/C def2-TZVP/JK TIGHTSCF
|  2> % maxcore 2000
|  3> % mp2 density relaxed end
|  4> *xyz 0 1
|  5>  C       -0.1650218394     1.0659346728     0.2628610027
|  6>  O        0.6853789976    -0.0627283353     0.1882334853
|  7>  C        0.8911006406    -0.5478687174    -1.1050490719
|  8>  C        1.4713827382    -1.9312432377    -1.1162796042
|  9>  O        1.6759931381    -2.5576663594     0.1154352637
| 10>  C        0.0559996641    -1.7136476299    -1.6269118706
| 11>  C       -1.1405817562    -2.2764162744    -0.8760082958
| 12>  C       -2.4549664906    -1.6750978399    -1.3963725743
| 13>  C       -1.1644977672    -3.8104966710    -0.9688329855
| 14>  H        0.2355884703     1.9025720554    -0.3275363137
| 15>  H       -1.1774680746     0.8384963406    -0.0935026176
| 16>  H       -0.2113807097     1.3633267665     1.3129597549
| 17>  H        1.2533454764     0.2034533654    -1.8073831577
| 18>  H        2.2527002318    -2.1685343702    -1.8335038151
| 19>  H        1.5369863376    -1.8843066442     0.7941136501
| 20>  H       -0.0443141803    -1.7410044652    -2.7113260834
| 21>  H       -1.0326079352    -2.0071652376     0.1804184337
| 22>  H       -2.6190209505    -1.9451526982    -2.4465835204
| 23>  H       -3.3101832920    -2.0480436341    -0.8228591306
| 24>  H       -2.4587188340    -0.5821067187    -1.3346632389
| 25>  H       -0.2548466216    -4.2337683077    -0.5371118016
| 26>  H       -2.0274082588    -4.2209714394    -0.4329468981
| 27>  H       -1.2364912544    -4.1389853705    -2.0127662712
| 28> *
| 29>
| 30>                          ****END OF INPUT****

CARTESIAN COORDINATES (ANGSTROEM)
---------------------------------
  C     -0.165022    1.065935    0.262861
  O      0.685379   -0.062728    0.188233
  C      0.891101   -0.547869   -1.105049
  C      1.471383   -1.931243   -1.116280
  O      1.675993   -2.557666    0.115435
  C      0.056000   -1.713648   -1.626912
  C     -1.140582   -2.276416   -0.876008
  C     -2.454966   -1.675098   -1.396373
  C     -1.164498   -3.810497   -0.968833
  H      0.235588    1.902572   -0.327536
  H     -1.177468    0.838496   -0.093503
  H     -0.211381    1.363327    1.312960
  H      1.253345    0.203453   -1.807383
  H      2.252700   -2.168534   -1.833504
  H      1.536986   -1.884307    0.794114
  H     -0.044314   -1.741004   -2.711326
  H     -1.032608   -2.007165    0.180418
  H     -2.619021   -1.945153   -2.446584
  H     -3.310183   -2.048044   -0.822859
  H     -2.458719   -0.582107   -1.334663
  H     -0.254847   -4.233768   -0.537112
  H     -2.027408   -4.220971   -0.432947
  H     -1.236491   -4.138985   -2.012766

 Total Charge           Charge          ....    0
 Multiplicity           Mult            ....    1
 Number of Electrons    NEL             ....   72
 Basis Dimension        Dim             ....  363

ORBITAL ENERGIES
----------------

  NO   OCC          E(Eh)            E(eV)
   0   2.0000     -20.574295      -559.8550
   1   2.0000     -20.550932      -559.2193
   2   2.0000     -11.283880      -307.0500
   3   2.0000     -11.281918      -306.9966
   4   2.0000     -11.276438      -306.8475
   5   2.0000     -11.226715      -305.4945
   6   2.0000     -11.225918      -305.4728
   7   2.0000     -11.211777      -305.0880
   8   2.0000     -11.201588      -304.8107
   9   2.0000      -1.401541       -38.1379
  10   2.0000      -1.356218       -36.9046
  11   2.0000      -1.129550       -30.7366
  12   2.0000      -1.048260       -28.5246
  13   2.0000      -0.943657       -25.6782
  14   2.0000      -0.922799       -25.1106
  15   2.0000      -0.845662       -23.0116
  16   2.0000      -0.810514       -22.0552
  17   2.0000      -0.754425       -20.5289
  18   2.0000      -0.721593       -19.6355
  19   2.0000      -0.682403       -18.5691
  20   2.0000      -0.653949       -17.7948
  21   2.0000      -0.631657       -17.1883
  22   2.0000      -0.603094       -16.4110
  23   2.0000      -0.593378       -16.1466
  24   2.0000      -0.582240       -15.8435
  25   2.0000      -0.567647       -15.4465
  26   2.0000      -0.553074       -15.0499
  27   2.0000      -0.529834       -14.4175
  28   2.0000      -0.523992       -14.2585
  29   2.0000      -0.504259       -13.7216
  30   2.0000      -0.488851       -13.3023
  31   2.0000      -0.481428       -13.1003
  32   2.0000      -0.468687       -12.7536
  33   2.0000      -0.456543       -12.4232
  34   2.0000      -0.390313       -10.6210
  35   2.0000      -0.374884       -10.2011
  36   0.0000       0.135990         3.7005
  37   0.0000       0.156384         4.2554
  38   0.0000       0.157995         4.2993
  39   0.0000       0.168892         4.5958
  40   0.0000       0.193879         5.2757

MULLIKEN ATOMIC CHARGES
-----------------------
   0 C :   -0.211060
   1 O :   -0.344297
   2 C :    0.012917
   3 C :    0.078341
   4 O :   -0.487622
   5 C :   -0.143912
   6 C :   -0.016255
   7 C :   -0.399531
   8 C :   -0.398452
   9 H :    0.122342
  10 H :    0.111894
  11 H :    0.142754
  12 H :    0.107212
  13 H :    0.122883
  14 H :    0.339517
  15 H :    0.112878
  16 H :    0.080733
  17 H :    0.121453
  18 H :    0.133417
  19 H :    0.120624
  20 H :    0.158216
  21 H :    0.123388
  22 H :    0.112561
Sum of atomic charges:   -0.0000000

LOEWDIN ATOMIC CHARGES
----------------------
   0 C :   -0.341314
   1 O :    0.156550
   2 C :   -0.289758
   3 C :   -0.292370
   4 O :    0.001994
   5 C :   -0.181897
   6 C :   -0.288345
   7 C :   -0.293302
   8 C :   -0.288057
   9 H :    0.106115
  10 H :    0.104052
  11 H :    0.114829
  12 H :    0.132824
  13 H :    0.135322
  14 H :    0.183490
  15 H :    0.152961
  16 H :    0.154087
  17 H :    0.122578
  18 H :    0.123044
  19 H :    0.115866
  20 H :    0.129455
  21 H :    0.120631
  22 H :    0.121243

  Mayer bond orders larger than 0.1
B(  0-C ,  1-O ) :   0.8968 B(  0-C ,  9-H ) :   0.9408 B(  0-C , 10-H ) :   0.9350
B(  0-C , 11-H ) :   0.9391 B(  1-O ,  2-C ) :   0.9133 B(  2-C ,  3-C ) :   0.8960
B(  2-C ,  5-C ) :   0.8838 B(  2-C , 12-H ) :   0.9299 B(  3-C ,  4-O ) :   0.9618
B(  3-C ,  5-C ) :   0.8391 B(  3-C , 13-H ) :   0.9503 B(  4-O , 14-H ) :   0.8176
B(  5-C ,  6-C ) :   0.9037 B(  5-C , 15-H ) :   0.9023 B(  6-C ,  7-C ) :   0.9161
B(  6-C ,  8-C ) :   0.9176 B(  6-C , 16-H ) :   0.9198 B(  7-C , 17-H ) :   0.9320
B(  7-C , 18-H ) :   0.9433 B(  7-C , 19-H ) :   0.9422 B(  8-C , 20-H ) :   0.9366
B(  8-C , 21-H ) :   0.9393 B(  8-C , 22-H ) :   0.9307

MP2 TOTAL ENERGY:     -424.691269586 Eh
FINAL SINGLE POINT ENERGY      -424.691269586322

DIPOLE MOMENT
-------------
                                X             Y             Z
Electronic contribution:      7.93239       0.75496       2.02684
Nuclear contribution   :     -8.34566       0.14624      -2.29161
                        -----------------------------------------
Total Dipole Moment    :     -0.41327       0.90120      -0.26477
                        -----------------------------------------
Magnitude (a.u.)       :      1.02619
Magnitude (Debye)      :      2.60836

                             ****ORCA TERMINATED NORMALLY****
TOTAL RUN TIME: 0 days 0 hours 19 minutes 6 seconds 526 msec
