                         Program Version 3.0.3 - RELEASE   -
|  1> ! RI-MP2 RIJK def2-TZVP def2-TZVP/C def2-TZVP/JK TIGHTSCF
|  2> % maxcore 2000
|  3> % mp2 density relaxed end
|  4> *xyz 0 1
|  5>  C       -1.2134465693     0.6825955370     0.2389179869
|  6>  C        0.1814096691     0.2896017752    -0.1836091128
|  7>  O        1.1927327105     0.7244389702     0.3118521330
|  8>  C        0.2571729816    -0.7103304382    -1.2987215112
|  9>  N       -0.7388424535    -1.2688500464    -1.9257222396
| 10>  C       -0.0864317524    -2.0761393962    -2.8280403334
| 11>  N       -0.7647366518    -2.8198462689    -3.7524055570
| 12>  N        1.2298596535    -2.0256642577    -2.7558345105
| 13>  O        1.4548276535    -1.0994035343    -1.7303833569
| 14>  H       -1.7582701905     1.1105445533    -0.6085429356
| 15>  H       -1.7765965499    -0.2010244704     0.5552888805
| 16>  H       -1.1505546354     1.4046012156     1.0531293990
| 17>  H       -1.7041032221    -3.0687052999    -3.4849102468
| 18>  H       -0.2371687432    -3.5652540993    -4.1803198854
| 19> *
| 20>
| 21>                          ****END OF INPUT****

CARTESIAN COORDINATES (ANGSTROEM)
---------------------------------
  C     -1.213447    0.682596    0.238918
  C      0.181410    0.289602   -0.183609
  O      1.192733    0.724439    0.311852
  C      0.257173   -0.710330   -1.298722
  N     -0.738842   -1.268850   -1.925722
  C     -0.086432   -2.076139   -2.828040
  N     -0.764737   -2.819846   -3.752406
  N      1.229860   -2.025664   -2.755835
  O      1.454828   -1.099404   -1.730383
  H     -1.758270    1.110545   -0.608543
  H     -1.776597   -0.201024    0.555289
  H     -1.150555    1.404601    1.053129
  H     -1.704103   -3.068705   -3.484910
  H     -0.237169   -3.565254   -4.180320

 Total Charge           Charge          ....    0
 Multiplicity           Mult            ....    1
 Number of Electrons    NEL             ....   66
 Basis Dimension        Dim             ....  309

ORBITAL ENERGIES
----------------

  NO   OCC          E(Eh)            E(eV)
   0   2.0000     -20.664132      -562.2996
   1   2.0000     -20.584559      -560.1343
   2   2.0000     -15.618884      -425.0114
   3   2.0000     -15.598339      -424.4524
   4   2.0000     -15.596815      -424.4109
   5   2.0000     -11.376736      -309.5767
   6   2.0000     -11.370514      -309.4074
   7   2.0000     -11.360614      -309.1380
   8   2.0000     -11.253033      -306.2106
   9   2.0000      -1.529908       -41.6309
  10   2.0000      -1.424158       -38.7533
  11   2.0000      -1.301210       -35.4077
  12   2.0000      -1.230448       -33.4822
  13   2.0000      -1.142140       -31.0792
  14   2.0000      -1.041936       -28.3525
  15   2.0000      -0.920373       -25.0446
  16   2.0000      -0.851674       -23.1752
  17   2.0000      -0.803725       -21.8705
  18   2.0000      -0.734944       -19.9988
  19   2.0000      -0.707864       -19.2620
  20   2.0000      -0.699111       -19.0238
  21   2.0000      -0.671895       -18.2832
  22   2.0000      -0.641014       -17.4429
  23   2.0000      -0.619490       -16.8572
  24   2.0000      -0.616448       -16.7744
  25   2.0000      -0.577421       -15.7124
  26   2.0000      -0.548022       -14.9124
  27   2.0000      -0.538759       -14.6604
  28   2.0000      -0.526266       -14.3204
  29   2.0000      -0.481363       -13.0986
  30   2.0000      -0.458045       -12.4640
  31   2.0000      -0.452407       -12.3106
  32   2.0000      -0.379659       -10.3310
  33   0.0000       0.052205         1.4206
  34   0.0000       0.123237         3.3534
  35   0.0000       0.136253         3.7076
  36   0.0000       0.180775         4.9191
  37   0.0000       0.184118         5.0101

MULLIKEN ATOMIC CHARGES
-----------------------
   0 C :   -0.378576
   1 C :    0.149969
   2 O :   -0.252733
   3 C :    0.231178
   4 N :   -0.308953
   5 C :    0.288727
   6 N :   -0.509402
   7 N :   -0.170063
   8 O :   -0.062496
   9 H :    0.156136
  10 H :    0.153622
  11 H :    0.159800
  12 H :    0.272274
  13 H :    0.270516
Sum of atomic charges:    0.0000000

LOEWDIN ATOMIC CHARGES
----------------------
   0 C :   -0.264401
   1 C :   -0.325008
   2 O :    0.182681
   3 C :   -0.350789
   4 N :    0.136777
   5 C :   -0.465951
   6 N :   -0.043290
   7 N :    0.025338
   8 O :    0.318654
   9 H :    0.145023
  10 H :    0.144168
  11 H :    0.136431
  12 H :    0.180487
  13 H :    0.179882

  Mayer bond orders larger than 0.1
B(  0-C ,  1-C ) :   0.9723 B(  0-C ,  9-H ) :   0.9050 B(  0-C , 10-H ) :   0.9056
B(  0-C , 11-H ) :   0.9335 B(  1-C ,  2-O ) :   2.0116 B(  1-C ,  3-C ) :   0.8424
B(  3-C ,  4-N ) :   1.5620 B(  3-C ,  7-N ) :   0.1040 B(  3-C ,  8-O ) :   1.1991
B(  4-N ,  5-C ) :   1.2086 B(  5-C ,  6-N ) :   1.1100 B(  5-C ,  7-N ) :   1.5574
B(  6-N , 12-H ) :   0.8639 B(  6-N , 13-H ) :   0.8673 B(  7-N ,  8-O ) :   0.8694

MP2 TOTAL ENERGY:     -469.267864383 Eh
FINAL SINGLE POINT ENERGY      -469.267864382885

DIPOLE MOMENT
-------------
                                X             Y             Z
Electronic contribution:      5.51659      -1.01077      -1.25092
Nuclear contribution   :     -6.98062       0.29786       1.00078
                        -----------------------------------------
Total Dipole Moment    :     -1.46403      -0.71291      -0.25014
                        -----------------------------------------
Magnitude (a.u.)       :      1.64748
Magnitude (Debye)      :      4.18757

                             ****ORCA TERMINATED NORMALLY****
TOTAL RUN TIME: 0 days 0 hours 13 minutes 0 seconds 176 msec
