                         Program Version 3.0.3 - RELEASE   -
|  1> ! RI-MP2 RIJK def2-TZVP def2-TZVP/C def2-TZVP/JK TIGHTSCF
|  2> % maxcore 2000
|  3> % mp2 density relaxed end
|  4> *xyz 0 1
|  5>  C       -0.0461620550     1.3737308587     0.0656477961
|  6>  O        0.0152156720    -0.0406834673    -0.0207557558
|  7>  C        0.6263766152    -0.5700677587    -1.0920854179
|  8>  C        1.1919422151     0.1231868915    -2.1019395632
|  9>  O        1.7937303082    -0.5124232246    -3.1550305992
| 10>  C        1.7937153505    -1.8574225457    -3.1339802064
| 11>  N        1.2964917480    -2.6184565557    -2.2437906679
| 12>  C        0.6545873782    -2.0547366000    -1.1187909533
| 13>  O        0.1680779186    -2.7356266268    -0.2487523018
| 14>  H        0.9591574811     1.8138885441     0.0995499028
| 15>  H       -0.5983764174     1.8001613347    -0.7821570000
| 16>  H       -0.5729885523     1.5993393586     0.9927720995
| 17>  H        1.2402613360     1.1963911895    -2.2040423800
| 18>  H        2.2955574718    -2.2494889983    -4.0142736329
| 19> *
| 20>
| 21>                          ****END OF INPUT****

CARTESIAN COORDINATES (ANGSTROEM)
---------------------------------
  C     -0.046162    1.373731    0.065648
  O      0.015216   -0.040683   -0.020756
  C      0.626377   -0.570068   -1.092085
  C      1.191942    0.123187   -2.101940
  O      1.793730   -0.512423   -3.155031
  C      1.793715   -1.857423   -3.133980
  N      1.296492   -2.618457   -2.243791
  C      0.654587   -2.054737   -1.118791
  O      0.168078   -2.735627   -0.248752
  H      0.959157    1.813889    0.099550
  H     -0.598376    1.800161   -0.782157
  H     -0.572989    1.599339    0.992772
  H      1.240261    1.196391   -2.204042
  H      2.295557   -2.249489   -4.014274

 Total Charge           Charge          ....    0
 Multiplicity           Mult            ....    1
 Number of Electrons    NEL             ....   66
 Basis Dimension        Dim             ....  309

ORBITAL ENERGIES
----------------

  NO   OCC          E(Eh)            E(eV)
   0   2.0000     -20.662868      -562.2652
   1   2.0000     -20.607178      -560.7498
   2   2.0000     -20.538475      -558.8803
   3   2.0000     -15.581003      -423.9806
   4   2.0000     -11.384567      -309.7898
   5   2.0000     -11.364316      -309.2388
   6   2.0000     -11.331710      -308.3515
   7   2.0000     -11.327791      -308.2449
   8   2.0000     -11.303306      -307.5786
   9   2.0000      -1.503314       -40.9073
  10   2.0000      -1.441113       -39.2147
  11   2.0000      -1.390770       -37.8448
  12   2.0000      -1.250140       -34.0180
  13   2.0000      -1.092902       -29.7394
  14   2.0000      -0.990819       -26.9616
  15   2.0000      -0.913755       -24.8645
  16   2.0000      -0.897437       -24.4205
  17   2.0000      -0.775602       -21.1052
  18   2.0000      -0.766777       -20.8651
  19   2.0000      -0.722546       -19.6615
  20   2.0000      -0.695639       -18.9293
  21   2.0000      -0.666368       -18.1328
  22   2.0000      -0.656093       -17.8532
  23   2.0000      -0.644088       -17.5265
  24   2.0000      -0.626505       -17.0481
  25   2.0000      -0.601204       -16.3596
  26   2.0000      -0.568677       -15.4745
  27   2.0000      -0.528417       -14.3789
  28   2.0000      -0.520396       -14.1607
  29   2.0000      -0.482411       -13.1271
  30   2.0000      -0.443811       -12.0767
  31   2.0000      -0.429093       -11.6762
  32   2.0000      -0.363066        -9.8795
  33   0.0000       0.091346         2.4857
  34   0.0000       0.121422         3.3041
  35   0.0000       0.125248         3.4082
  36   0.0000       0.164554         4.4778
  37   0.0000       0.171245         4.6598

MULLIKEN ATOMIC CHARGES
-----------------------
   0 C :   -0.255104
   1 O :   -0.223516
   2 C :    0.136168
   3 C :   -0.072659
   4 O :   -0.193686
   5 C :    0.132767
   6 N :   -0.213735
   7 C :    0.194163
   8 O :   -0.263980
   9 H :    0.135035
  10 H :    0.135035
  11 H :    0.164061
  12 H :    0.166373
  13 H :    0.159080
Sum of atomic charges:   -0.0000000

LOEWDIN ATOMIC CHARGES
----------------------
   0 C :   -0.318557
   1 O :    0.267127
   2 C :   -0.272960
   3 C :   -0.220250
   4 O :    0.318993
   5 C :   -0.302612
   6 N :    0.138915
   7 C :   -0.396777
   8 O :    0.155341
   9 H :    0.111255
  10 H :    0.111255
  11 H :    0.122601
  12 H :    0.144245
  13 H :    0.141426

  Mayer bond orders larger than 0.1
B(  0-C ,  1-O ) :   0.8679 B(  0-C ,  9-H ) :   0.9285 B(  0-C , 10-H ) :   0.9285
B(  0-C , 11-H ) :   0.9379 B(  1-O ,  2-C ) :   1.1196 B(  2-C ,  3-C ) :   1.5089
B(  2-C ,  7-C ) :   0.9601 B(  3-C ,  4-O ) :   0.9658 B(  3-C , 12-H ) :   0.9411
B(  4-O ,  5-C ) :   1.0658 B(  5-C ,  6-N ) :   1.7122 B(  5-C , 13-H ) :   0.9250
B(  6-N ,  7-C ) :   1.0872 B(  7-C ,  8-O ) :   2.0272

MP2 TOTAL ENERGY:     -473.081747179 Eh
FINAL SINGLE POINT ENERGY      -473.081747179223

DIPOLE MOMENT
-------------
                                X             Y             Z
Electronic contribution:      1.17056      -6.27499      -1.97003
Nuclear contribution   :     -0.71841       8.35166       1.13896
                        -----------------------------------------
Total Dipole Moment    :      0.45215       2.07667      -0.83107
                        -----------------------------------------
Magnitude (a.u.)       :      2.28203
Magnitude (Debye)      :      5.80047

                             ****ORCA TERMINATED NORMALLY****
TOTAL RUN TIME: 0 days 0 hours 13 minutes 19 seconds 409 msec
