                         Program Version 3.0.3 - RELEASE   -
|  1> ! RI-MP2 RIJK def2-TZVP def2-TZVP/C def2-TZVP/JK TIGHTSCF
|  2> % maxcore 2000
|  3> % mp2 density relaxed end
|  4> *xyz 0 1
|  5>  C       -0.1376181342     1.5445855831     0.2722979700
|  6>  C        0.0002360767     0.0488401060     0.0522468324
|  7>  C       -1.2209181128    -0.6125019982    -0.5742568172
|  8>  C       -1.4764123465    -0.1314634988    -1.9887169579
|  9>  O       -2.5353910023     0.2618879767    -2.4052720343
| 10>  C        1.3640557699    -0.4988198475    -0.3098798328
| 11>  C        0.7891197855    -0.7456658739     1.0644877597
| 12>  H        0.7662661705     1.9612373980     0.7265796273
| 13>  H       -0.3122471608     2.0773203726    -0.6698004255
| 14>  H       -0.9804084601     1.7675411434     0.9367928153
| 15>  H       -1.0576977407    -1.6981948383    -0.6306271329
| 16>  H       -2.1257008703    -0.4406414513     0.0183960225
| 17>  H       -0.5790847616    -0.1701077464    -2.6498268692
| 18>  H        1.4217296570    -1.3384313182    -0.9947961731
| 19>  H        2.1862076741     0.2024271571    -0.4034686205
| 20>  H        1.2214530033    -0.2086568331     1.9020055347
| 21>  H        0.4549776422    -1.7487564114     1.3075405513
| 22> *
| 23>
| 24>                          ****END OF INPUT****

CARTESIAN COORDINATES (ANGSTROEM)
---------------------------------
  C     -0.137618    1.544586    0.272298
  C      0.000236    0.048840    0.052247
  C     -1.220918   -0.612502   -0.574257
  C     -1.476412   -0.131463   -1.988717
  O     -2.535391    0.261888   -2.405272
  C      1.364056   -0.498820   -0.309880
  C      0.789120   -0.745666    1.064488
  H      0.766266    1.961237    0.726580
  H     -0.312247    2.077320   -0.669800
  H     -0.980408    1.767541    0.936793
  H     -1.057698   -1.698195   -0.630627
  H     -2.125701   -0.440641    0.018396
  H     -0.579085   -0.170108   -2.649827
  H      1.421730   -1.338431   -0.994796
  H      2.186208    0.202427   -0.403469
  H      1.221453   -0.208657    1.902006
  H      0.454978   -1.748756    1.307541

 Total Charge           Charge          ....    0
 Multiplicity           Mult            ....    1
 Number of Electrons    NEL             ....   54
 Basis Dimension        Dim             ....  277

ORBITAL ENERGIES
----------------

  NO   OCC          E(Eh)            E(eV)
   0   2.0000     -20.554854      -559.3260
   1   2.0000     -11.329183      -308.2827
   2   2.0000     -11.254534      -306.2514
   3   2.0000     -11.242566      -305.9258
   4   2.0000     -11.235424      -305.7314
   5   2.0000     -11.234181      -305.6976
   6   2.0000     -11.226762      -305.4957
   7   2.0000      -1.393514       -37.9194
   8   2.0000      -1.169506       -31.8239
   9   2.0000      -1.019789       -27.7499
  10   2.0000      -0.965593       -26.2751
  11   2.0000      -0.839092       -22.8329
  12   2.0000      -0.806153       -21.9365
  13   2.0000      -0.754398       -20.5282
  14   2.0000      -0.683146       -18.5893
  15   2.0000      -0.646743       -17.5988
  16   2.0000      -0.643709       -17.5162
  17   2.0000      -0.624662       -16.9979
  18   2.0000      -0.576397       -15.6846
  19   2.0000      -0.565774       -15.3955
  20   2.0000      -0.545183       -14.8352
  21   2.0000      -0.528268       -14.3749
  22   2.0000      -0.521260       -14.1842
  23   2.0000      -0.483486       -13.1563
  24   2.0000      -0.444281       -12.0895
  25   2.0000      -0.417806       -11.3691
  26   2.0000      -0.397924       -10.8281
  27   0.0000       0.128934         3.5085
  28   0.0000       0.140316         3.8182
  29   0.0000       0.156842         4.2679
  30   0.0000       0.158531         4.3139
  31   0.0000       0.177882         4.8404

MULLIKEN ATOMIC CHARGES
-----------------------
   0 C :   -0.414598
   1 C :    0.062376
   2 C :   -0.151431
   3 C :    0.072743
   4 O :   -0.261827
   5 C :   -0.300176
   6 C :   -0.279264
   7 H :    0.129532
   8 H :    0.141560
   9 H :    0.137056
  10 H :    0.128713
  11 H :    0.125431
  12 H :    0.081826
  13 H :    0.131471
  14 H :    0.133211
  15 H :    0.133194
  16 H :    0.130182
Sum of atomic charges:    0.0000000

LOEWDIN ATOMIC CHARGES
----------------------
   0 C :   -0.261404
   1 C :   -0.279656
   2 C :   -0.220935
   3 C :   -0.290370
   4 O :    0.130527
   5 C :   -0.212139
   6 C :   -0.208851
   7 H :    0.129313
   8 H :    0.129076
   9 H :    0.129900
  10 H :    0.158439
  11 H :    0.150117
  12 H :    0.111532
  13 H :    0.132691
  14 H :    0.134160
  15 H :    0.134529
  16 H :    0.133072

  Mayer bond orders larger than 0.1
B(  0-C ,  1-C ) :   0.9350 B(  0-C ,  7-H ) :   0.9306 B(  0-C ,  8-H ) :   0.9320
B(  0-C ,  9-H ) :   0.9357 B(  1-C ,  2-C ) :   0.8881 B(  1-C ,  5-C ) :   0.8695
B(  1-C ,  6-C ) :   0.8625 B(  2-C ,  3-C ) :   0.8732 B(  2-C , 10-H ) :   0.9065
B(  2-C , 11-H ) :   0.9094 B(  3-C ,  4-O ) :   2.0024 B(  3-C , 12-H ) :   0.9404
B(  5-C ,  6-C ) :   0.9028 B(  5-C , 13-H ) :   0.9285 B(  5-C , 14-H ) :   0.9279
B(  6-C , 15-H ) :   0.9319 B(  6-C , 16-H ) :   0.9256

MP2 TOTAL ENERGY:     -309.179434179 Eh
FINAL SINGLE POINT ENERGY      -309.179434178514

DIPOLE MOMENT
-------------
                                X             Y             Z
Electronic contribution:     -4.60004      -0.68768      -4.38998
Nuclear contribution   :      5.46775       0.39679       4.97026
                        -----------------------------------------
Total Dipole Moment    :      0.86771      -0.29089       0.58028
                        -----------------------------------------
Magnitude (a.u.)       :      1.08363
Magnitude (Debye)      :      2.75436

                             ****ORCA TERMINATED NORMALLY****
TOTAL RUN TIME: 0 days 0 hours 9 minutes 6 seconds 221 msec
