                         Program Version 3.0.3 - RELEASE   -
|  1> ! RI-MP2 RIJK def2-TZVP def2-TZVP/C def2-TZVP/JK TIGHTSCF
|  2> % maxcore 2000
|  3> % mp2 density relaxed end
|  4> *xyz 0 1
|  5>  C        0.0043216050     1.4382756370     0.1196567904
|  6>  C        1.2832144121     0.6990871649    -0.0276531789
|  7>  N       -0.0255776510    -0.0281742975     0.0354811001
|  8>  C       -0.3099457747    -0.5775113441    -1.3302941049
|  9>  C        0.9000452721    -0.3121682374    -2.2151552364
| 10>  C        1.2798027987     1.0801230297    -2.6348759256
| 11>  C        1.8960060469     0.5111537883    -1.3851502690
| 12>  C        3.0277344960    -0.4762566484    -1.7282872952
| 13>  C        2.0143089341    -1.3143160057    -2.5803045338
| 14>  H       -0.2823442790     1.8440085062     1.0876631225
| 15>  H       -0.3637219930     2.0232190164    -0.7193403768
| 16>  H        1.9349913260     0.5766743106     0.8332636437
| 17>  H       -0.4639398831    -1.6558057195    -1.2224746114
| 18>  H       -1.2448458417    -0.1509752554    -1.7105062691
| 19>  H        1.9070940021     1.2150670053    -3.5139595810
| 20>  H        0.5319345290     1.8542006590    -2.5176832026
| 21>  H        3.8901112845    -0.0521526715    -2.2526136800
| 22>  H        3.3892007220    -1.0237921464    -0.8546792336
| 23>  H        1.8418845952    -2.3089967716    -2.1625600873
| 24>  H        2.2323171790    -1.4210535500    -3.6481673111
| 25> *
| 26>
| 27>                          ****END OF INPUT****

CARTESIAN COORDINATES (ANGSTROEM)
---------------------------------
  C      0.004322    1.438276    0.119657
  C      1.283214    0.699087   -0.027653
  N     -0.025578   -0.028174    0.035481
  C     -0.309946   -0.577511   -1.330294
  C      0.900045   -0.312168   -2.215155
  C      1.279803    1.080123   -2.634876
  C      1.896006    0.511154   -1.385150
  C      3.027734   -0.476257   -1.728287
  C      2.014309   -1.314316   -2.580305
  H     -0.282344    1.844009    1.087663
  H     -0.363722    2.023219   -0.719340
  H      1.934991    0.576674    0.833264
  H     -0.463940   -1.655806   -1.222475
  H     -1.244846   -0.150975   -1.710506
  H      1.907094    1.215067   -3.513960
  H      0.531935    1.854201   -2.517683
  H      3.890111   -0.052153   -2.252614
  H      3.389201   -1.023792   -0.854679
  H      1.841885   -2.308997   -2.162560
  H      2.232317   -1.421054   -3.648167

 Total Charge           Charge          ....    0
 Multiplicity           Mult            ....    1
 Number of Electrons    NEL             ....   66
 Basis Dimension        Dim             ....  345

ORBITAL ENERGIES
----------------

  NO   OCC          E(Eh)            E(eV)
   0   2.0000     -15.550439      -423.1489
   1   2.0000     -11.258965      -306.3720
   2   2.0000     -11.251960      -306.1814
   3   2.0000     -11.250409      -306.1392
   4   2.0000     -11.238508      -305.8153
   5   2.0000     -11.231894      -305.6354
   6   2.0000     -11.231228      -305.6173
   7   2.0000     -11.230498      -305.5974
   8   2.0000     -11.228442      -305.5414
   9   2.0000      -1.276190       -34.7269
  10   2.0000      -1.182024       -32.1645
  11   2.0000      -1.001699       -27.2576
  12   2.0000      -0.989057       -26.9136
  13   2.0000      -0.896760       -24.4021
  14   2.0000      -0.856030       -23.2938
  15   2.0000      -0.822314       -22.3763
  16   2.0000      -0.770468       -20.9655
  17   2.0000      -0.708522       -19.2799
  18   2.0000      -0.683832       -18.6080
  19   2.0000      -0.637532       -17.3481
  20   2.0000      -0.603746       -16.4288
  21   2.0000      -0.596065       -16.2198
  22   2.0000      -0.587489       -15.9864
  23   2.0000      -0.554124       -15.0785
  24   2.0000      -0.540892       -14.7184
  25   2.0000      -0.521167       -14.1817
  26   2.0000      -0.518319       -14.1042
  27   2.0000      -0.471544       -12.8314
  28   2.0000      -0.455740       -12.4013
  29   2.0000      -0.438156       -11.9228
  30   2.0000      -0.405775       -11.0417
  31   2.0000      -0.384369       -10.4592
  32   2.0000      -0.326813        -8.8930
  33   0.0000       0.144353         3.9281
  34   0.0000       0.159412         4.3378
  35   0.0000       0.164115         4.4658
  36   0.0000       0.172132         4.6839
  37   0.0000       0.184658         5.0248

MULLIKEN ATOMIC CHARGES
-----------------------
   0 C :   -0.174663
   1 C :   -0.143101
   2 N :   -0.213510
   3 C :   -0.199851
   4 C :    0.047166
   5 C :   -0.264395
   6 C :    0.096376
   7 C :   -0.246771
   8 C :   -0.240693
   9 H :    0.125343
  10 H :    0.109373
  11 H :    0.125629
  12 H :    0.122538
  13 H :    0.127279
  14 H :    0.128313
  15 H :    0.128163
  16 H :    0.121925
  17 H :    0.116810
  18 H :    0.114880
  19 H :    0.119188
Sum of atomic charges:   -0.0000000

LOEWDIN ATOMIC CHARGES
----------------------
   0 C :   -0.246403
   1 C :   -0.206969
   2 N :    0.103306
   3 C :   -0.234484
   4 C :   -0.176449
   5 C :   -0.160665
   6 C :   -0.167712
   7 C :   -0.189694
   8 C :   -0.193855
   9 H :    0.124739
  10 H :    0.122045
  11 H :    0.144721
  12 H :    0.139214
  13 H :    0.134041
  14 H :    0.139164
  15 H :    0.139614
  16 H :    0.127870
  17 H :    0.137713
  18 H :    0.136427
  19 H :    0.127377

  Mayer bond orders larger than 0.1
B(  0-C ,  1-C ) :   0.9453 B(  0-C ,  2-N ) :   0.9059 B(  0-C ,  9-H ) :   0.9216
B(  0-C , 10-H ) :   0.9099 B(  1-C ,  2-N ) :   0.8877 B(  1-C ,  6-C ) :   0.9500
B(  1-C , 11-H ) :   0.9108 B(  2-N ,  3-C ) :   0.9166 B(  3-C ,  4-C ) :   0.9539
B(  3-C , 12-H ) :   0.9181 B(  3-C , 13-H ) :   0.9349 B(  4-C ,  5-C ) :   0.8822
B(  4-C ,  6-C ) :   0.7679 B(  4-C ,  8-C ) :   0.9303 B(  5-C ,  6-C ) :   0.8995
B(  5-C , 14-H ) :   0.9151 B(  5-C , 15-H ) :   0.9222 B(  6-C ,  7-C ) :   0.9302
B(  7-C ,  8-C ) :   0.9766 B(  7-C , 16-H ) :   0.9261 B(  7-C , 17-H ) :   0.9114
B(  8-C , 18-H ) :   0.9109 B(  8-C , 19-H ) :   0.9206

MP2 TOTAL ENERGY:     -365.283288913 Eh
FINAL SINGLE POINT ENERGY      -365.283288913088

DIPOLE MOMENT
-------------
                                X             Y             Z
Electronic contribution:     -0.85708       0.44936       1.78741
Nuclear contribution   :      1.09604      -0.27206      -2.20145
                        -----------------------------------------
Total Dipole Moment    :      0.23895       0.17730      -0.41404
                        -----------------------------------------
Magnitude (a.u.)       :      0.50986
Magnitude (Debye)      :      1.29597

                             ****ORCA TERMINATED NORMALLY****
TOTAL RUN TIME: 0 days 0 hours 22 minutes 9 seconds 117 msec
