                         Program Version 3.0.3 - RELEASE   -
|  1> ! RI-MP2 RIJK def2-TZVP def2-TZVP/C def2-TZVP/JK TIGHTSCF
|  2> % maxcore 2000
|  3> % mp2 density relaxed end
|  4> *xyz 0 1
|  5>  O        0.0084185569     1.3857414776     0.2041065998
|  6>  C       -0.0162700218    -0.0221365109     0.2079982186
|  7>  C       -1.3875016237    -0.5795334619    -0.1486697429
|  8>  C       -1.5088094658    -2.1224963096    -0.0559717715
|  9>  N       -2.4542658122    -2.3750590050     1.0436392371
| 10>  C       -2.8224201615    -1.2296989893     1.4463240499
| 11>  O       -2.3403452087    -0.1073976344     0.8589980404
| 12>  C       -3.7538185134    -1.0083505209     2.5179027062
| 13>  N       -4.4997176842    -0.8204581163     3.3793028654
| 14>  H       -0.6443932894     1.6847251556     0.8472482387
| 15>  H        0.7070146472    -0.3565588129    -0.5442695792
| 16>  H        0.2960995606    -0.4411634267     1.1790095868
| 17>  H       -1.7216389079    -0.1691798253    -1.1046819611
| 18>  H       -1.8907339714    -2.5771659968    -0.9746958478
| 19>  H       -0.5497397044    -2.6016062532     0.1723754296
| 20> *
| 21>
| 22>                          ****END OF INPUT****

CARTESIAN COORDINATES (ANGSTROEM)
---------------------------------
  O      0.008419    1.385741    0.204107
  C     -0.016270   -0.022137    0.207998
  C     -1.387502   -0.579533   -0.148670
  C     -1.508809   -2.122496   -0.055972
  N     -2.454266   -2.375059    1.043639
  C     -2.822420   -1.229699    1.446324
  O     -2.340345   -0.107398    0.858998
  C     -3.753819   -1.008351    2.517903
  N     -4.499718   -0.820458    3.379303
  H     -0.644393    1.684725    0.847248
  H      0.707015   -0.356559   -0.544270
  H      0.296100   -0.441163    1.179010
  H     -1.721639   -0.169180   -1.104682
  H     -1.890734   -2.577166   -0.974696
  H     -0.549740   -2.601606    0.172375

 Total Charge           Charge          ....    0
 Multiplicity           Mult            ....    1
 Number of Electrons    NEL             ....   66
 Basis Dimension        Dim             ....  315

ORBITAL ENERGIES
----------------

  NO   OCC          E(Eh)            E(eV)
   0   2.0000     -20.633971      -561.4789
   1   2.0000     -20.577779      -559.9498
   2   2.0000     -15.609360      -424.7523
   3   2.0000     -15.599844      -424.4933
   4   2.0000     -11.398360      -310.1652
   5   2.0000     -11.326018      -308.1966
   6   2.0000     -11.305745      -307.6450
   7   2.0000     -11.303559      -307.5855
   8   2.0000     -11.297145      -307.4110
   9   2.0000      -1.480073       -40.2748
  10   2.0000      -1.385318       -37.6964
  11   2.0000      -1.264666       -34.4133
  12   2.0000      -1.243848       -33.8468
  13   2.0000      -1.093786       -29.7634
  14   2.0000      -0.972208       -26.4551
  15   2.0000      -0.904700       -24.6181
  16   2.0000      -0.859531       -23.3890
  17   2.0000      -0.768639       -20.9157
  18   2.0000      -0.746802       -20.3215
  19   2.0000      -0.675265       -18.3749
  20   2.0000      -0.672077       -18.2882
  21   2.0000      -0.644174       -17.5289
  22   2.0000      -0.628186       -17.0938
  23   2.0000      -0.600635       -16.3441
  24   2.0000      -0.591275       -16.0894
  25   2.0000      -0.582821       -15.8594
  26   2.0000      -0.557063       -15.1585
  27   2.0000      -0.533070       -14.5056
  28   2.0000      -0.506346       -13.7784
  29   2.0000      -0.502393       -13.6708
  30   2.0000      -0.484101       -13.1731
  31   2.0000      -0.465659       -12.6712
  32   2.0000      -0.413560       -11.2535
  33   0.0000       0.078138         2.1262
  34   0.0000       0.122063         3.3215
  35   0.0000       0.144403         3.9294
  36   0.0000       0.156001         4.2450
  37   0.0000       0.162214         4.4141

MULLIKEN ATOMIC CHARGES
-----------------------
   0 O :   -0.465864
   1 C :   -0.061430
   2 C :    0.061894
   3 C :   -0.162416
   4 N :   -0.228919
   5 C :    0.328144
   6 O :   -0.283816
   7 C :   -0.140936
   8 N :   -0.032100
   9 H :    0.330262
  10 H :    0.125181
  11 H :    0.117524
  12 H :    0.126764
  13 H :    0.142189
  14 H :    0.143524
Sum of atomic charges:    0.0000000

LOEWDIN ATOMIC CHARGES
----------------------
   0 O :   -0.031359
   1 C :   -0.339424
   2 C :   -0.262048
   3 C :   -0.241681
   4 N :    0.132223
   5 C :   -0.383838
   6 O :    0.259813
   7 C :   -0.119759
   8 N :    0.110671
   9 H :    0.180848
  10 H :    0.138517
  11 H :    0.126047
  12 H :    0.147462
  13 H :    0.140027
  14 H :    0.142500

  Mayer bond orders larger than 0.1
B(  0-O ,  1-C ) :   0.9354 B(  0-O ,  9-H ) :   0.8340 B(  1-C ,  2-C ) :   0.9320
B(  1-C , 10-H ) :   0.9268 B(  1-C , 11-H ) :   0.9084 B(  2-C ,  3-C ) :   0.9043
B(  2-C ,  6-O ) :   0.7962 B(  2-C , 12-H ) :   0.9210 B(  3-C ,  4-N ) :   0.9104
B(  3-C , 13-H ) :   0.9203 B(  3-C , 14-H ) :   0.9219 B(  4-N ,  5-C ) :   1.7893
B(  5-C ,  6-O ) :   1.1001 B(  5-C ,  7-C ) :   0.9072 B(  7-C ,  8-N ) :   2.8186

MP2 TOTAL ENERGY:     -453.223572147 Eh
FINAL SINGLE POINT ENERGY      -453.223572147190

DIPOLE MOMENT
-------------
                                X             Y             Z
Electronic contribution:     -6.75166      -0.00528       4.90784
Nuclear contribution   :      7.71117      -0.20949      -6.03155
                        -----------------------------------------
Total Dipole Moment    :      0.95951      -0.21477      -1.12371
                        -----------------------------------------
Magnitude (a.u.)       :      1.49315
Magnitude (Debye)      :      3.79529

                             ****ORCA TERMINATED NORMALLY****
TOTAL RUN TIME: 0 days 0 hours 23 minutes 41 seconds 60 msec
