                         Program Version 3.0.3 - RELEASE   -
|  1> ! RI-MP2 RIJK def2-TZVP def2-TZVP/C def2-TZVP/JK TIGHTSCF
|  2> % maxcore 2000
|  3> % mp2 density relaxed end
|  4> *xyz 0 1
|  5>  C       -0.0869729703     1.5014376774     0.1078598864
|  6>  C        0.0152922374    -0.0027405071     0.0569433830
|  7>  C        0.8671177530    -0.7908063669    -0.9590075213
|  8>  N        0.8533157674    -1.9366566382     0.0154648400
|  9>  C       -0.6228264289    -2.1519423887     0.4216918345
| 10>  C       -0.2284122416    -1.8121327625     1.8733189423
| 11>  C        0.7574999348    -0.9035739974     1.1402419711
| 12>  C       -1.2847435963    -0.8291117728    -0.0523475270
| 13>  O       -2.3014558051    -0.3109055637     0.7871108493
| 14>  H        0.8966890221     1.9617957640     0.2484757546
| 15>  H       -0.5114859159     1.8974600526    -0.8221551573
| 16>  H       -0.7377904333     1.8185959466     0.9278722842
| 17>  H        0.4582097569    -0.9867889493    -1.9568294871
| 18>  H        1.8967264234    -0.4315649543    -1.0504945385
| 19>  H       -1.0766798297    -3.1010303221     0.1337923716
| 20>  H       -0.9868848646    -1.3776784391     2.5221860398
| 21>  H        0.2960441171    -2.6382021941     2.3576184687
| 22>  H        1.6864454416    -0.5231964953     1.5691437663
| 23>  H       -1.6445602812    -0.8787987859    -1.0892889577
| 24>  H       -3.0702218167    -0.8863431434     0.7224505573
| 25> *
| 26>
| 27>                          ****END OF INPUT****

CARTESIAN COORDINATES (ANGSTROEM)
---------------------------------
  C     -0.086973    1.501438    0.107860
  C      0.015292   -0.002741    0.056943
  C      0.867118   -0.790806   -0.959008
  N      0.853316   -1.936657    0.015465
  C     -0.622826   -2.151942    0.421692
  C     -0.228412   -1.812133    1.873319
  C      0.757500   -0.903574    1.140242
  C     -1.284744   -0.829112   -0.052348
  O     -2.301456   -0.310906    0.787111
  H      0.896689    1.961796    0.248476
  H     -0.511486    1.897460   -0.822155
  H     -0.737790    1.818596    0.927872
  H      0.458210   -0.986789   -1.956829
  H      1.896726   -0.431565   -1.050495
  H     -1.076680   -3.101030    0.133792
  H     -0.986885   -1.377678    2.522186
  H      0.296044   -2.638202    2.357618
  H      1.686445   -0.523196    1.569144
  H     -1.644560   -0.878799   -1.089289
  H     -3.070222   -0.886343    0.722451

 Total Charge           Charge          ....    0
 Multiplicity           Mult            ....    1
 Number of Electrons    NEL             ....   68
 Basis Dimension        Dim             ....  345

ORBITAL ENERGIES
----------------

  NO   OCC          E(Eh)            E(eV)
   0   2.0000     -20.562247      -559.5272
   1   2.0000     -15.550374      -423.1472
   2   2.0000     -11.281727      -306.9914
   3   2.0000     -11.258324      -306.3546
   4   2.0000     -11.258211      -306.3515
   5   2.0000     -11.246574      -306.0348
   6   2.0000     -11.238803      -305.8234
   7   2.0000     -11.219497      -305.2980
   8   2.0000     -11.213346      -305.1307
   9   2.0000      -1.371774       -37.3279
  10   2.0000      -1.284489       -34.9527
  11   2.0000      -1.044820       -28.4310
  12   2.0000      -1.016738       -27.6668
  13   2.0000      -0.952654       -25.9230
  14   2.0000      -0.896228       -24.3876
  15   2.0000      -0.846784       -23.0422
  16   2.0000      -0.760858       -20.7040
  17   2.0000      -0.728891       -19.8341
  18   2.0000      -0.693329       -18.8664
  19   2.0000      -0.666284       -18.1305
  20   2.0000      -0.646096       -17.5812
  21   2.0000      -0.616733       -16.7822
  22   2.0000      -0.576830       -15.6963
  23   2.0000      -0.563672       -15.3383
  24   2.0000      -0.560194       -15.2437
  25   2.0000      -0.538189       -14.6449
  26   2.0000      -0.528300       -14.3758
  27   2.0000      -0.486393       -13.2354
  28   2.0000      -0.468301       -12.7431
  29   2.0000      -0.461270       -12.5518
  30   2.0000      -0.453057       -12.3283
  31   2.0000      -0.422369       -11.4932
  32   2.0000      -0.418483       -11.3875
  33   2.0000      -0.363171        -9.8824
  34   0.0000       0.128841         3.5059
  35   0.0000       0.149078         4.0566
  36   0.0000       0.162050         4.4096
  37   0.0000       0.173084         4.7099
  38   0.0000       0.187142         5.0924

MULLIKEN ATOMIC CHARGES
-----------------------
   0 C :   -0.405173
   1 C :    0.108523
   2 C :   -0.189926
   3 N :   -0.201612
   4 C :   -0.052344
   5 C :   -0.198203
   6 C :   -0.147518
   7 C :   -0.009694
   8 O :   -0.466573
   9 H :    0.132208
  10 H :    0.128183
  11 H :    0.151923
  12 H :    0.113658
  13 H :    0.118111
  14 H :    0.131178
  15 H :    0.127686
  16 H :    0.122789
  17 H :    0.122515
  18 H :    0.097438
  19 H :    0.316830
Sum of atomic charges:   -0.0000000

LOEWDIN ATOMIC CHARGES
----------------------
   0 C :   -0.276149
   1 C :   -0.238278
   2 C :   -0.222419
   3 N :    0.123181
   4 C :   -0.206086
   5 C :   -0.213625
   6 C :   -0.165742
   7 C :   -0.286219
   8 O :   -0.006432
   9 H :    0.126599
  10 H :    0.130262
  11 H :    0.134000
  12 H :    0.121353
  13 H :    0.134873
  14 H :    0.126929
  15 H :    0.131095
  16 H :    0.142620
  17 H :    0.132564
  18 H :    0.133932
  19 H :    0.177541

  Mayer bond orders larger than 0.1
B(  0-C ,  1-C ) :   0.8542 B(  0-C ,  9-H ) :   0.9438 B(  0-C , 10-H ) :   0.9324
B(  0-C , 11-H ) :   0.9374 B(  1-C ,  2-C ) :   0.9220 B(  1-C ,  6-C ) :   0.9054
B(  1-C ,  7-C ) :   0.8764 B(  2-C ,  3-N ) :   0.9341 B(  2-C , 12-H ) :   0.9186
B(  2-C , 13-H ) :   0.9248 B(  3-N ,  4-C ) :   0.9402 B(  3-N ,  6-C ) :   0.9553
B(  4-C ,  5-C ) :   0.9482 B(  4-C ,  7-C ) :   0.9335 B(  4-C , 14-H ) :   0.9052
B(  5-C ,  6-C ) :   0.9773 B(  5-C , 15-H ) :   0.8999 B(  5-C , 16-H ) :   0.9186
B(  6-C , 17-H ) :   0.8967 B(  7-C ,  8-O ) :   1.0773 B(  7-C , 18-H ) :   0.9693
B(  8-O , 19-H ) :   0.8435

MP2 TOTAL ENERGY:     -402.416084310 Eh
FINAL SINGLE POINT ENERGY      -402.416084309707

DIPOLE MOMENT
-------------
                                X             Y             Z
Electronic contribution:     -0.76081      -3.07871       0.40336
Nuclear contribution   :      0.21535       3.18746      -0.56917
                        -----------------------------------------
Total Dipole Moment    :     -0.54546       0.10875      -0.16581
                        -----------------------------------------
Magnitude (a.u.)       :      0.58039
Magnitude (Debye)      :      1.47523

                             ****ORCA TERMINATED NORMALLY****
TOTAL RUN TIME: 0 days 0 hours 21 minutes 13 seconds 34 msec
