                         Program Version 3.0.3 - RELEASE   -
|  1> ! RI-MP2 RIJK def2-TZVP def2-TZVP/C def2-TZVP/JK TIGHTSCF
|  2> % maxcore 2000
|  3> % mp2 density relaxed end
|  4> *xyz 0 1
|  5>  C       -0.0729327151     1.5804202841    -0.0059038608
|  6>  C        0.0385229069     0.0521819341     0.0343816993
|  7>  C        0.6552259357    -0.4895812558    -1.2598565773
|  8>  N        0.5995701040    -1.9386896396    -1.3419616299
|  9>  C        1.3021295734    -2.8243021364    -0.5914571352
| 10>  O        1.4078390257    -3.9971739777    -0.8256518039
| 11>  O        1.9667725849    -2.3018910706     0.5120280840
| 12>  C        1.5633775712    -1.2841314918     1.3522239427
| 13>  N        0.7727442924    -0.3176070343     1.2333156641
| 14>  H        0.9142831381     2.0371485372    -0.1323993324
| 15>  H       -0.7143690807     1.9072022856    -0.8304159448
| 16>  H       -0.4924222293     1.9460158793     0.9334968924
| 17>  H       -0.9715287508    -0.3699211942     0.1252723343
| 18>  H        0.1024213594    -0.1005793264    -2.1185862091
| 19>  H        1.6890723799    -0.1299844466    -1.3494127007
| 20>  H        0.1810973879    -2.3623802629    -2.1542516876
| 21>  H        2.1025697565    -1.4249811341     2.2875209948
| 22> *
| 23>
| 24>                          ****END OF INPUT****

CARTESIAN COORDINATES (ANGSTROEM)
---------------------------------
  C     -0.072933    1.580420   -0.005904
  C      0.038523    0.052182    0.034382
  C      0.655226   -0.489581   -1.259857
  N      0.599570   -1.938690   -1.341962
  C      1.302130   -2.824302   -0.591457
  O      1.407839   -3.997174   -0.825652
  O      1.966773   -2.301891    0.512028
  C      1.563378   -1.284131    1.352224
  N      0.772744   -0.317607    1.233316
  H      0.914283    2.037149   -0.132399
  H     -0.714369    1.907202   -0.830416
  H     -0.492422    1.946016    0.933497
  H     -0.971529   -0.369921    0.125272
  H      0.102421   -0.100579   -2.118586
  H      1.689072   -0.129984   -1.349413
  H      0.181097   -2.362380   -2.154252
  H      2.102570   -1.424981    2.287521

 Total Charge           Charge          ....    0
 Multiplicity           Mult            ....    1
 Number of Electrons    NEL             ....   68
 Basis Dimension        Dim             ....  327

ORBITAL ENERGIES
----------------

  NO   OCC          E(Eh)            E(eV)
   0   2.0000     -20.623533      -561.1949
   1   2.0000     -20.534549      -558.7735
   2   2.0000     -15.604884      -424.6305
   3   2.0000     -15.566799      -423.5941
   4   2.0000     -11.419115      -310.7299
   5   2.0000     -11.357255      -309.0466
   6   2.0000     -11.291276      -307.2512
   7   2.0000     -11.282225      -307.0050
   8   2.0000     -11.229037      -305.5576
   9   2.0000      -1.478873       -40.2422
  10   2.0000      -1.381048       -37.5802
  11   2.0000      -1.263412       -34.3792
  12   2.0000      -1.239061       -33.7166
  13   2.0000      -1.065144       -28.9840
  14   2.0000      -0.968170       -26.3452
  15   2.0000      -0.928964       -25.2784
  16   2.0000      -0.843324       -22.9480
  17   2.0000      -0.792641       -21.5688
  18   2.0000      -0.734635       -19.9904
  19   2.0000      -0.710899       -19.3445
  20   2.0000      -0.687396       -18.7050
  21   2.0000      -0.663919       -18.0661
  22   2.0000      -0.633281       -17.2325
  23   2.0000      -0.625131       -17.0107
  24   2.0000      -0.586744       -15.9661
  25   2.0000      -0.578960       -15.7543
  26   2.0000      -0.553633       -15.0651
  27   2.0000      -0.543144       -14.7797
  28   2.0000      -0.529769       -14.4157
  29   2.0000      -0.513106       -13.9623
  30   2.0000      -0.472811       -12.8658
  31   2.0000      -0.437750       -11.9118
  32   2.0000      -0.415329       -11.3017
  33   2.0000      -0.404291       -11.0013
  34   0.0000       0.115250         3.1361
  35   0.0000       0.141813         3.8589
  36   0.0000       0.150200         4.0871
  37   0.0000       0.164951         4.4885
  38   0.0000       0.175750         4.7824

MULLIKEN ATOMIC CHARGES
-----------------------
   0 C :   -0.367721
   1 C :    0.054043
   2 C :   -0.177484
   3 N :   -0.330753
   4 C :    0.343415
   5 O :   -0.316313
   6 O :   -0.229731
   7 C :    0.080314
   8 N :   -0.252795
   9 H :    0.125378
  10 H :    0.122065
  11 H :    0.148696
  12 H :    0.103942
  13 H :    0.144047
  14 H :    0.145848
  15 H :    0.257584
  16 H :    0.149467
Sum of atomic charges:   -0.0000000

LOEWDIN ATOMIC CHARGES
----------------------
   0 C :   -0.287094
   1 C :   -0.322748
   2 C :   -0.261429
   3 N :    0.107650
   4 C :   -0.564691
   5 O :    0.109515
   6 O :    0.271926
   7 C :   -0.330779
   8 N :    0.116954
   9 H :    0.125951
  10 H :    0.122664
  11 H :    0.130822
  12 H :    0.154881
  13 H :    0.145084
  14 H :    0.141931
  15 H :    0.199661
  16 H :    0.139702

  Mayer bond orders larger than 0.1
B(  0-C ,  1-C ) :   0.9313 B(  0-C ,  9-H ) :   0.9259 B(  0-C , 10-H ) :   0.9349
B(  0-C , 11-H ) :   0.9352 B(  1-C ,  2-C ) :   0.8922 B(  1-C ,  8-N ) :   0.9046
B(  1-C , 12-H ) :   0.9184 B(  2-C ,  3-N ) :   0.8832 B(  2-C , 13-H ) :   0.9245
B(  2-C , 14-H ) :   0.9339 B(  3-N ,  4-C ) :   1.1775 B(  3-N , 15-H ) :   0.8638
B(  4-C ,  5-O ) :   2.0158 B(  4-C ,  6-O ) :   0.9799 B(  6-O ,  7-C ) :   0.9779
B(  7-C ,  8-N ) :   1.8884 B(  7-C , 16-H ) :   0.9265

MP2 TOTAL ENERGY:     -454.450934400 Eh
FINAL SINGLE POINT ENERGY      -454.450934400169

DIPOLE MOMENT
-------------
                                X             Y             Z
Electronic contribution:      3.64968      -9.77922       1.38835
Nuclear contribution   :     -4.24987      11.10887      -2.13349
                        -----------------------------------------
Total Dipole Moment    :     -0.60019       1.32965      -0.74514
                        -----------------------------------------
Magnitude (a.u.)       :      1.63812
Magnitude (Debye)      :      4.16377

                             ****ORCA TERMINATED NORMALLY****
TOTAL RUN TIME: 0 days 0 hours 16 minutes 6 seconds 223 msec
