                         Program Version 3.0.3 - RELEASE   -
|  1> ! RI-MP2 RIJK def2-TZVP def2-TZVP/C def2-TZVP/JK TIGHTSCF
|  2> % maxcore 2000
|  3> % mp2 density relaxed end
|  4> *xyz 0 1
|  5>  O        0.3673767625     1.4259733922     0.1782626127
|  6>  C        0.1255036076     0.0475592012     0.0345151218
|  7>  C        0.6790792693    -0.5285456288    -1.2438962377
|  8>  C       -0.3228025826    -0.8759489870    -2.0656781253
|  9>  C       -1.7224091482    -0.7825407220    -1.4391442504
| 10>  C       -1.3147317351    -0.5543358987    -0.0048637531
| 11>  C       -1.5886356530     0.0032355228     1.4103766159
| 12>  C       -0.1672597701    -0.6704431166     1.3819076609
| 13>  O       -0.7504935886    -1.7816177855     0.6330441419
| 14>  H        0.3597151189     1.8204721801    -0.7008611707
| 15>  H        1.7300105320    -0.5305511822    -1.5108271083
| 16>  H       -0.1861072295    -1.2357036216    -3.0804863121
| 17>  H       -2.3127008925     0.0374508240    -1.8657482662
| 18>  H       -2.2958821856    -1.7059836749    -1.5691145626
| 19>  H       -1.6447979945     1.0854007397     1.5267291123
| 20>  H       -2.3252091195    -0.5444750048     1.9987934493
| 21>  H        0.4884386389    -0.9066396479     2.2217712316
| 22> *
| 23>
| 24>                          ****END OF INPUT****

CARTESIAN COORDINATES (ANGSTROEM)
---------------------------------
  O      0.367377    1.425973    0.178263
  C      0.125504    0.047559    0.034515
  C      0.679079   -0.528546   -1.243896
  C     -0.322803   -0.875949   -2.065678
  C     -1.722409   -0.782541   -1.439144
  C     -1.314732   -0.554336   -0.004864
  C     -1.588636    0.003236    1.410377
  C     -0.167260   -0.670443    1.381908
  O     -0.750494   -1.781618    0.633044
  H      0.359715    1.820472   -0.700861
  H      1.730011   -0.530551   -1.510827
  H     -0.186107   -1.235704   -3.080486
  H     -2.312701    0.037451   -1.865748
  H     -2.295882   -1.705984   -1.569115
  H     -1.644798    1.085401    1.526729
  H     -2.325209   -0.544475    1.998793
  H      0.488439   -0.906640    2.221771

 Total Charge           Charge          ....    0
 Multiplicity           Mult            ....    1
 Number of Electrons    NEL             ....   66
 Basis Dimension        Dim             ....  327

ORBITAL ENERGIES
----------------

  NO   OCC          E(Eh)            E(eV)
   0   2.0000     -20.568436      -559.6956
   1   2.0000     -20.543826      -559.0259
   2   2.0000     -11.300265      -307.4959
   3   2.0000     -11.295231      -307.3589
   4   2.0000     -11.293759      -307.3188
   5   2.0000     -11.247059      -306.0480
   6   2.0000     -11.245813      -306.0141
   7   2.0000     -11.240352      -305.8655
   8   2.0000     -11.235628      -305.7370
   9   2.0000      -1.408416       -38.3249
  10   2.0000      -1.367603       -37.2144
  11   2.0000      -1.121909       -30.5287
  12   2.0000      -1.048163       -28.5220
  13   2.0000      -0.978493       -26.6262
  14   2.0000      -0.898968       -24.4622
  15   2.0000      -0.851597       -23.1731
  16   2.0000      -0.769480       -20.9386
  17   2.0000      -0.740858       -20.1598
  18   2.0000      -0.692588       -18.8463
  19   2.0000      -0.663824       -18.0636
  20   2.0000      -0.641924       -17.4676
  21   2.0000      -0.626908       -17.0590
  22   2.0000      -0.607298       -16.5254
  23   2.0000      -0.576303       -15.6820
  24   2.0000      -0.537807       -14.6345
  25   2.0000      -0.533712       -14.5231
  26   2.0000      -0.516040       -14.0422
  27   2.0000      -0.502713       -13.6795
  28   2.0000      -0.481268       -13.0960
  29   2.0000      -0.457435       -12.4474
  30   2.0000      -0.421955       -11.4820
  31   2.0000      -0.389316       -10.5938
  32   2.0000      -0.362336        -9.8597
  33   0.0000       0.128676         3.5014
  34   0.0000       0.144918         3.9434
  35   0.0000       0.165000         4.4899
  36   0.0000       0.171810         4.6752
  37   0.0000       0.184071         5.0088

MULLIKEN ATOMIC CHARGES
-----------------------
   0 O :   -0.465401
   1 C :    0.292240
   2 C :   -0.288036
   3 C :   -0.128079
   4 C :   -0.203630
   5 C :    0.009004
   6 C :   -0.099986
   7 C :   -0.043380
   8 O :   -0.314600
   9 H :    0.320696
  10 H :    0.136760
  11 H :    0.133645
  12 H :    0.126102
  13 H :    0.142161
  14 H :    0.124964
  15 H :    0.121637
  16 H :    0.135904
Sum of atomic charges:    0.0000000

LOEWDIN ATOMIC CHARGES
----------------------
   0 O :    0.025770
   1 C :   -0.289914
   2 C :   -0.131306
   3 C :   -0.121829
   4 C :   -0.206183
   5 C :   -0.224712
   6 C :   -0.172822
   7 C :   -0.194786
   8 O :    0.166972
   9 H :    0.180931
  10 H :    0.140351
  11 H :    0.137193
  12 H :    0.147977
  13 H :    0.152620
  14 H :    0.133409
  15 H :    0.132834
  16 H :    0.123496

  Mayer bond orders larger than 0.1
B(  0-O ,  1-C ) :   1.0448 B(  0-O ,  9-H ) :   0.8340 B(  1-C ,  2-C ) :   0.9642
B(  1-C ,  5-C ) :   0.8057 B(  1-C ,  7-C ) :   0.9016 B(  2-C ,  3-C ) :   1.7449
B(  2-C , 10-H ) :   0.9335 B(  3-C ,  4-C ) :   0.9614 B(  3-C , 11-H ) :   0.9263
B(  4-C ,  5-C ) :   0.9388 B(  4-C , 12-H ) :   0.8924 B(  4-C , 13-H ) :   0.9132
B(  5-C ,  6-C ) :   0.8846 B(  5-C ,  8-O ) :   0.9043 B(  6-C ,  7-C ) :   0.9536
B(  6-C , 14-H ) :   0.8955 B(  6-C , 15-H ) :   0.9233 B(  7-C ,  8-O ) :   0.9311
B(  7-C , 16-H ) :   0.8795

MP2 TOTAL ENERGY:     -421.038919475 Eh
FINAL SINGLE POINT ENERGY      -421.038919475131

DIPOLE MOMENT
-------------
                                X             Y             Z
Electronic contribution:      1.73419      -0.56189       1.30004
Nuclear contribution   :     -1.91607       1.05397      -1.98437
                        -----------------------------------------
Total Dipole Moment    :     -0.18188       0.49208      -0.68434
                        -----------------------------------------
Magnitude (a.u.)       :      0.86229
Magnitude (Debye)      :      2.19176

                             ****ORCA TERMINATED NORMALLY****
TOTAL RUN TIME: 0 days 0 hours 19 minutes 10 seconds 486 msec
