                         Program Version 3.0.3 - RELEASE   -
|  1> ! RI-MP2 RIJK def2-TZVP def2-TZVP/C def2-TZVP/JK TIGHTSCF
|  2> % maxcore 2000
|  3> % mp2 density relaxed end
|  4> *xyz 0 1
|  5>  C       -0.1299353271     1.5678180060    -0.0226792611
|  6>  C        0.0534730218     0.0560711484     0.0229861106
|  7>  N        0.8235675703    -0.4767460649    -1.1074749461
|  8>  C        1.3915112522    -1.7698323106    -0.7041243163
|  9>  C        1.8440086302    -1.5015098875     0.7451615253
| 10>  C        0.8743920085    -0.4181010037     1.2291946075
| 11>  O        0.7758322653    -0.0051154293     2.3522277283
| 12>  C        0.4145296249    -2.8805936890    -0.7721919812
| 13>  N       -0.3773005313    -3.7189512996    -0.8581305640
| 14>  H        0.8331306042     2.0638377237    -0.1702778921
| 15>  H       -0.7984227162     1.8601395525    -0.8376092860
| 16>  H       -0.5620899838     1.9086769933     0.9217617776
| 17>  H       -0.9356035795    -0.4287038138     0.1277002359
| 18>  H        0.2796588192    -0.5462320772    -1.9595746545
| 19>  H        2.2305781569    -2.0286616994    -1.3564924569
| 20>  H        1.8302043520    -2.3758569685     1.3964240140
| 21>  H        2.8559077724    -1.0843905102     0.7494361990
| 22> *
| 23>
| 24>                          ****END OF INPUT****

CARTESIAN COORDINATES (ANGSTROEM)
---------------------------------
  C     -0.129935    1.567818   -0.022679
  C      0.053473    0.056071    0.022986
  N      0.823568   -0.476746   -1.107475
  C      1.391511   -1.769832   -0.704124
  C      1.844009   -1.501510    0.745162
  C      0.874392   -0.418101    1.229195
  O      0.775832   -0.005115    2.352228
  C      0.414530   -2.880594   -0.772192
  N     -0.377301   -3.718951   -0.858131
  H      0.833131    2.063838   -0.170278
  H     -0.798423    1.860140   -0.837609
  H     -0.562090    1.908677    0.921762
  H     -0.935604   -0.428704    0.127700
  H      0.279659   -0.546232   -1.959575
  H      2.230578   -2.028662   -1.356492
  H      1.830204   -2.375857    1.396424
  H      2.855908   -1.084391    0.749436

 Total Charge           Charge          ....    0
 Multiplicity           Mult            ....    1
 Number of Electrons    NEL             ....   66
 Basis Dimension        Dim             ....  327

ORBITAL ENERGIES
----------------

  NO   OCC          E(Eh)            E(eV)
   0   2.0000     -20.566171      -559.6340
   1   2.0000     -15.588873      -424.1948
   2   2.0000     -15.586307      -424.1250
   3   2.0000     -11.349615      -308.8387
   4   2.0000     -11.332674      -308.3777
   5   2.0000     -11.288918      -307.1871
   6   2.0000     -11.284053      -307.0547
   7   2.0000     -11.270287      -306.6801
   8   2.0000     -11.234083      -305.6949
   9   2.0000      -1.412253       -38.4293
  10   2.0000      -1.278732       -34.7961
  11   2.0000      -1.226645       -33.3787
  12   2.0000      -1.076633       -29.2967
  13   2.0000      -1.040510       -28.3137
  14   2.0000      -0.947808       -25.7912
  15   2.0000      -0.873309       -23.7639
  16   2.0000      -0.763486       -20.7755
  17   2.0000      -0.742348       -20.2003
  18   2.0000      -0.711569       -19.3628
  19   2.0000      -0.665967       -18.1219
  20   2.0000      -0.642149       -17.4738
  21   2.0000      -0.624669       -16.9981
  22   2.0000      -0.608145       -16.5485
  23   2.0000      -0.578342       -15.7375
  24   2.0000      -0.572797       -15.5866
  25   2.0000      -0.560157       -15.2426
  26   2.0000      -0.541733       -14.7413
  27   2.0000      -0.539475       -14.6798
  28   2.0000      -0.510338       -13.8870
  29   2.0000      -0.482201       -13.1214
  30   2.0000      -0.475419       -12.9368
  31   2.0000      -0.422913       -11.5080
  32   2.0000      -0.416513       -11.3339
  33   0.0000       0.105928         2.8824
  34   0.0000       0.112997         3.0748
  35   0.0000       0.142955         3.8900
  36   0.0000       0.149950         4.0803
  37   0.0000       0.167275         4.5518

MULLIKEN ATOMIC CHARGES
-----------------------
   0 C :   -0.390458
   1 C :    0.006650
   2 N :   -0.368068
   3 C :    0.197953
   4 C :   -0.231253
   5 C :    0.113637
   6 O :   -0.258025
   7 C :   -0.264299
   8 N :   -0.050937
   9 H :    0.131502
  10 H :    0.136094
  11 H :    0.150864
  12 H :    0.128684
  13 H :    0.224224
  14 H :    0.152707
  15 H :    0.166201
  16 H :    0.154525
Sum of atomic charges:   -0.0000000

LOEWDIN ATOMIC CHARGES
----------------------
   0 C :   -0.283279
   1 C :   -0.291440
   2 N :    0.049449
   3 C :   -0.280343
   4 C :   -0.180158
   5 C :   -0.287847
   6 O :    0.174473
   7 C :   -0.178082
   8 N :    0.065514
   9 H :    0.129041
  10 H :    0.125096
  11 H :    0.135677
  12 H :    0.156750
  13 H :    0.176178
  14 H :    0.168401
  15 H :    0.158209
  16 H :    0.162362

  Mayer bond orders larger than 0.1
B(  0-C ,  1-C ) :   0.9064 B(  0-C ,  9-H ) :   0.9331 B(  0-C , 10-H ) :   0.9376
B(  0-C , 11-H ) :   0.9311 B(  1-C ,  2-N ) :   0.9486 B(  1-C ,  5-C ) :   0.8793
B(  1-C , 12-H ) :   0.9009 B(  2-N ,  3-C ) :   0.9150 B(  2-N , 13-H ) :   0.8791
B(  3-C ,  4-C ) :   0.8839 B(  3-C ,  7-C ) :   0.9123 B(  3-C , 14-H ) :   0.9118
B(  4-C ,  5-C ) :   0.9176 B(  4-C , 15-H ) :   0.9134 B(  4-C , 16-H ) :   0.8968
B(  5-C ,  6-O ) :   2.0439 B(  7-C ,  8-N ) :   2.8525

MP2 TOTAL ENERGY:     -417.337003134 Eh
FINAL SINGLE POINT ENERGY      -417.337003133796

DIPOLE MOMENT
-------------
                                X             Y             Z
Electronic contribution:     -0.00216      -5.95610       1.20489
Nuclear contribution   :      0.66897       6.59752      -1.94178
                        -----------------------------------------
Total Dipole Moment    :      0.66681       0.64142      -0.73689
                        -----------------------------------------
Magnitude (a.u.)       :      1.18282
Magnitude (Debye)      :      3.00649

                             ****ORCA TERMINATED NORMALLY****
TOTAL RUN TIME: 0 days 0 hours 16 minutes 38 seconds 365 msec
