                         Program Version 3.0.3 - RELEASE   -
|  1> ! RI-MP2 RIJK def2-TZVP def2-TZVP/C def2-TZVP/JK TIGHTSCF
|  2> % maxcore 2000
|  3> % mp2 density relaxed end
|  4> *xyz 0 1
|  5>  C        0.0163929372     1.5245198364     0.0312004785
|  6>  C        1.3067866670     0.7176235360     0.0257562024
|  7>  C       -0.0161082600     0.0229026705    -0.0215506052
|  8>  O       -0.4189650137    -0.6817123888     1.1448220204
|  9>  C       -1.4206028284    -1.5961034641     0.7232872690
| 10>  C       -2.6524322427    -0.8641044660     0.0925524418
| 11>  C       -2.0058781359    -1.0837013051    -1.2765741315
| 12>  C       -1.0233725354    -2.0897811996    -0.6937809938
| 13>  C       -0.5144351419    -0.7741526669    -1.2000954485
| 14>  H       -0.2716735309     1.9911232247     0.9664920255
| 15>  H       -0.2533832563     2.0805305943    -0.8610280709
| 16>  H        1.9256110886     0.7257401556    -0.8656154696
| 17>  H        1.8551911884     0.6515269670     0.9588881521
| 18>  H       -1.6002520436    -2.3077429599     1.5271947003
| 19>  H       -3.5664206806    -1.4547121487     0.2027167654
| 20>  H       -2.8323760090     0.1595329542     0.4349951676
| 21>  H       -2.5165800370    -1.1197313601    -2.2317133331
| 22>  H       -0.7089280430    -3.0722050644    -1.0178239515
| 23>  H        0.0292888071    -0.7330659354    -2.1361400089
| 24> *
| 25>
| 26>                          ****END OF INPUT****

CARTESIAN COORDINATES (ANGSTROEM)
---------------------------------
  C      0.016393    1.524520    0.031200
  C      1.306787    0.717624    0.025756
  C     -0.016108    0.022903   -0.021551
  O     -0.418965   -0.681712    1.144822
  C     -1.420603   -1.596103    0.723287
  C     -2.652432   -0.864104    0.092552
  C     -2.005878   -1.083701   -1.276574
  C     -1.023373   -2.089781   -0.693781
  C     -0.514435   -0.774153   -1.200095
  H     -0.271674    1.991123    0.966492
  H     -0.253383    2.080531   -0.861028
  H      1.925611    0.725740   -0.865615
  H      1.855191    0.651527    0.958888
  H     -1.600252   -2.307743    1.527195
  H     -3.566421   -1.454712    0.202717
  H     -2.832376    0.159533    0.434995
  H     -2.516580   -1.119731   -2.231713
  H     -0.708928   -3.072205   -1.017824
  H      0.029289   -0.733066   -2.136140

 Total Charge           Charge          ....    0
 Multiplicity           Mult            ....    1
 Number of Electrons    NEL             ....   66
 Basis Dimension        Dim             ....  339

ORBITAL ENERGIES
----------------

  NO   OCC          E(Eh)            E(eV)
   0   2.0000     -20.550795      -559.2156
   1   2.0000     -11.283771      -307.0470
   2   2.0000     -11.282906      -307.0235
   3   2.0000     -11.239093      -305.8313
   4   2.0000     -11.238359      -305.8113
   5   2.0000     -11.231027      -305.6118
   6   2.0000     -11.224427      -305.4322
   7   2.0000     -11.219584      -305.3004
   8   2.0000     -11.218033      -305.2582
   9   2.0000      -1.385619       -37.7046
  10   2.0000      -1.184137       -32.2220
  11   2.0000      -1.129042       -30.7228
  12   2.0000      -0.982548       -26.7365
  13   2.0000      -0.886673       -24.1276
  14   2.0000      -0.838337       -22.8123
  15   2.0000      -0.824549       -22.4371
  16   2.0000      -0.779455       -21.2100
  17   2.0000      -0.722471       -19.6594
  18   2.0000      -0.703568       -19.1451
  19   2.0000      -0.652646       -17.7594
  20   2.0000      -0.629836       -17.1387
  21   2.0000      -0.609453       -16.5841
  22   2.0000      -0.589464       -16.0401
  23   2.0000      -0.562345       -15.3022
  24   2.0000      -0.545047       -14.8315
  25   2.0000      -0.526789       -14.3347
  26   2.0000      -0.513050       -13.9608
  27   2.0000      -0.469446       -12.7743
  28   2.0000      -0.452195       -12.3048
  29   2.0000      -0.430621       -11.7178
  30   2.0000      -0.422154       -11.4874
  31   2.0000      -0.384600       -10.4655
  32   2.0000      -0.352486        -9.5916
  33   0.0000       0.146910         3.9976
  34   0.0000       0.162566         4.4236
  35   0.0000       0.163977         4.4620
  36   0.0000       0.177401         4.8273
  37   0.0000       0.190818         5.1924

MULLIKEN ATOMIC CHARGES
-----------------------
   0 C :   -0.279767
   1 C :   -0.304991
   2 C :    0.175579
   3 O :   -0.291883
   4 C :    0.057075
   5 C :   -0.196340
   6 C :   -0.152797
   7 C :   -0.180436
   8 C :   -0.098145
   9 H :    0.128265
  10 H :    0.122405
  11 H :    0.124613
  12 H :    0.133303
  13 H :    0.126885
  14 H :    0.115486
  15 H :    0.113257
  16 H :    0.127727
  17 H :    0.143607
  18 H :    0.136157
Sum of atomic charges:    0.0000000

LOEWDIN ATOMIC CHARGES
----------------------
   0 C :   -0.207346
   1 C :   -0.204113
   2 C :   -0.297748
   3 O :    0.223047
   4 C :   -0.244010
   5 C :   -0.196433
   6 C :   -0.160004
   7 C :   -0.136088
   8 C :   -0.145541
   9 H :    0.136590
  10 H :    0.132148
  11 H :    0.132246
  12 H :    0.139146
  13 H :    0.135589
  14 H :    0.137999
  15 H :    0.128808
  16 H :    0.134421
  17 H :    0.134663
  18 H :    0.156627

  Mayer bond orders larger than 0.1
B(  0-C ,  1-C ) :   0.9414 B(  0-C ,  2-C ) :   0.8718 B(  0-C ,  9-H ) :   0.9177
B(  0-C , 10-H ) :   0.9136 B(  1-C ,  2-C ) :   0.8752 B(  1-C , 11-H ) :   0.9170
B(  1-C , 12-H ) :   0.9158 B(  2-C ,  3-O ) :   0.9711 B(  2-C ,  8-C ) :   0.9014
B(  3-O ,  4-C ) :   0.9813 B(  4-C ,  5-C ) :   0.9063 B(  4-C ,  7-C ) :   0.9242
B(  4-C , 13-H ) :   0.9315 B(  5-C ,  6-C ) :   0.9796 B(  5-C , 14-H ) :   0.9222
B(  5-C , 15-H ) :   0.9154 B(  6-C ,  7-C ) :   0.8564 B(  6-C ,  8-C ) :   0.8597
B(  6-C , 16-H ) :   0.9301 B(  7-C ,  8-C ) :   0.8889 B(  7-C , 17-H ) :   0.9188
B(  8-C , 18-H ) :   0.9151

MP2 TOTAL ENERGY:     -385.163809757 Eh
FINAL SINGLE POINT ENERGY      -385.163809756985

DIPOLE MOMENT
-------------
                                X             Y             Z
Electronic contribution:      0.26891      -2.18938       1.29332
Nuclear contribution   :     -0.49468       2.00614      -1.85020
                        -----------------------------------------
Total Dipole Moment    :     -0.22576      -0.18324      -0.55688
                        -----------------------------------------
Magnitude (a.u.)       :      0.62822
Magnitude (Debye)      :      1.59680

                             ****ORCA TERMINATED NORMALLY****
TOTAL RUN TIME: 0 days 0 hours 17 minutes 52 seconds 704 msec
