                         Program Version 3.0.3 - RELEASE   -
|  1> ! RI-MP2 RIJK def2-TZVP def2-TZVP/C def2-TZVP/JK TIGHTSCF
|  2> % maxcore 2000
|  3> % mp2 density relaxed end
|  4> *xyz 0 1
|  5>  C       -1.0741457234     1.3013694024     0.9208832809
|  6>  C        0.0095041613     0.4946321648     0.1856034930
|  7>  N        0.9134601702    -0.1279012441     1.1498797346
|  8>  C        2.3272865474    -0.3587673519     0.7736844378
|  9>  C        3.0859120350     0.9551154015     0.4848118910
| 10>  C        2.9676412785    -1.0592178456     1.9824083164
| 11>  C        2.3978426504    -1.2861825916    -0.4489280674
| 12>  C       -0.6444985419    -0.5321598113    -0.6554903076
| 13>  N       -1.1760798470    -1.3105282797    -1.3240379399
| 14>  H       -0.6110856359     2.1369552399     1.4544823690
| 15>  H       -1.8076483256     1.7012277905     0.2177625486
| 16>  H       -1.5934166514     0.6635897601     1.6412503142
| 17>  H        0.5263898178     1.1770670973    -0.5080004209
| 18>  H        0.8867891003     0.4110192576     2.0082229977
| 19>  H        3.0594191720     1.6199279490     1.3557011382
| 20>  H        4.1365095840     0.7560361474     0.2493006867
| 21>  H        2.6625495943     1.4953377343    -0.3682714775
| 22>  H        2.4436960767    -1.9923198394     2.2049935211
| 23>  H        4.0206061670    -1.2835363477     1.7880783370
| 24>  H        2.9240118079    -0.4228393367     2.8743781002
| 25>  H        1.9918108598    -0.8150254035    -1.3489022896
| 26>  H        3.4399797467    -1.5454553004    -0.6586018165
| 27>  H        1.8383551460    -2.2077863829    -0.2700131471
| 28> *
| 29>
| 30>                          ****END OF INPUT****

CARTESIAN COORDINATES (ANGSTROEM)
---------------------------------
  C     -1.074146    1.301369    0.920883
  C      0.009504    0.494632    0.185603
  N      0.913460   -0.127901    1.149880
  C      2.327287   -0.358767    0.773684
  C      3.085912    0.955115    0.484812
  C      2.967641   -1.059218    1.982408
  C      2.397843   -1.286183   -0.448928
  C     -0.644499   -0.532160   -0.655490
  N     -1.176080   -1.310528   -1.324038
  H     -0.611086    2.136955    1.454482
  H     -1.807648    1.701228    0.217763
  H     -1.593417    0.663590    1.641250
  H      0.526390    1.177067   -0.508000
  H      0.886789    0.411019    2.008223
  H      3.059419    1.619928    1.355701
  H      4.136510    0.756036    0.249301
  H      2.662550    1.495338   -0.368271
  H      2.443696   -1.992320    2.204994
  H      4.020606   -1.283536    1.788078
  H      2.924012   -0.422839    2.874378
  H      1.991811   -0.815025   -1.348902
  H      3.439980   -1.545455   -0.658602
  H      1.838355   -2.207786   -0.270013

 Total Charge           Charge          ....    0
 Multiplicity           Mult            ....    1
 Number of Electrons    NEL             ....   70
 Basis Dimension        Dim             ....  363

ORBITAL ENERGIES
----------------

  NO   OCC          E(Eh)            E(eV)
   0   2.0000     -15.561175      -423.4411
   1   2.0000     -15.560936      -423.4346
   2   2.0000     -11.312048      -307.8165
   3   2.0000     -11.276066      -306.8374
   4   2.0000     -11.262462      -306.4672
   5   2.0000     -11.246597      -306.0355
   6   2.0000     -11.224591      -305.4366
   7   2.0000     -11.220016      -305.3122
   8   2.0000     -11.215755      -305.1962
   9   2.0000      -1.244414       -33.8622
  10   2.0000      -1.203830       -32.7579
  11   2.0000      -1.090082       -29.6626
  12   2.0000      -1.009119       -27.4595
  13   2.0000      -0.944331       -25.6966
  14   2.0000      -0.943163       -25.6648
  15   2.0000      -0.896763       -24.4022
  16   2.0000      -0.771788       -21.0014
  17   2.0000      -0.704917       -19.1818
  18   2.0000      -0.666493       -18.1362
  19   2.0000      -0.660598       -17.9758
  20   2.0000      -0.612375       -16.6636
  21   2.0000      -0.594453       -16.1759
  22   2.0000      -0.584119       -15.8947
  23   2.0000      -0.576274       -15.6812
  24   2.0000      -0.556155       -15.1337
  25   2.0000      -0.548411       -14.9230
  26   2.0000      -0.537745       -14.6328
  27   2.0000      -0.534804       -14.5528
  28   2.0000      -0.522972       -14.2308
  29   2.0000      -0.506793       -13.7905
  30   2.0000      -0.487541       -13.2667
  31   2.0000      -0.477888       -13.0040
  32   2.0000      -0.453435       -12.3386
  33   2.0000      -0.447220       -12.1695
  34   2.0000      -0.391357       -10.6494
  35   0.0000       0.113168         3.0794
  36   0.0000       0.143377         3.9015
  37   0.0000       0.153819         4.1856
  38   0.0000       0.171558         4.6683
  39   0.0000       0.180351         4.9076

MULLIKEN ATOMIC CHARGES
-----------------------
   0 C :   -0.423558
   1 C :    0.152197
   2 N :   -0.336399
   3 C :    0.086365
   4 C :   -0.400166
   5 C :   -0.388347
   6 C :   -0.399740
   7 C :   -0.190299
   8 N :   -0.060093
   9 H :    0.140981
  10 H :    0.152398
  11 H :    0.154181
  12 H :    0.108557
  13 H :    0.201448
  14 H :    0.122176
  15 H :    0.135260
  16 H :    0.128262
  17 H :    0.145075
  18 H :    0.126997
  19 H :    0.121544
  20 H :    0.136798
  21 H :    0.132367
  22 H :    0.153997
Sum of atomic charges:   -0.0000000

LOEWDIN ATOMIC CHARGES
----------------------
   0 C :   -0.272137
   1 C :   -0.319496
   2 N :    0.054482
   3 C :   -0.398758
   4 C :   -0.282056
   5 C :   -0.273160
   6 C :   -0.264559
   7 C :   -0.172705
   8 N :    0.057245
   9 H :    0.125673
  10 H :    0.134388
  11 H :    0.133893
  12 H :    0.158183
  13 H :    0.177391
  14 H :    0.122012
  15 H :    0.128817
  16 H :    0.120529
  17 H :    0.129711
  18 H :    0.127011
  19 H :    0.121922
  20 H :    0.128393
  21 H :    0.128826
  22 H :    0.134396

  Mayer bond orders larger than 0.1
B(  0-C ,  1-C ) :   0.8770 B(  0-C ,  9-H ) :   0.9347 B(  0-C , 10-H ) :   0.9326
B(  0-C , 11-H ) :   0.9342 B(  1-C ,  2-N ) :   0.9375 B(  1-C ,  7-C ) :   0.9091
B(  1-C , 12-H ) :   0.9145 B(  2-N ,  3-C ) :   0.9233 B(  2-N , 13-H ) :   0.8786
B(  3-C ,  4-C ) :   0.9383 B(  3-C ,  5-C ) :   0.9089 B(  3-C ,  6-C ) :   0.9199
B(  4-C , 14-H ) :   0.9317 B(  4-C , 15-H ) :   0.9317 B(  4-C , 16-H ) :   0.9284
B(  5-C , 17-H ) :   0.9386 B(  5-C , 18-H ) :   0.9367 B(  5-C , 19-H ) :   0.9272
B(  6-C , 20-H ) :   0.9258 B(  6-C , 21-H ) :   0.9292 B(  6-C , 22-H ) :   0.9337
B(  7-C ,  8-N ) :   2.8898

MP2 TOTAL ENERGY:     -383.814133302 Eh
FINAL SINGLE POINT ENERGY      -383.814133302053

DIPOLE MOMENT
-------------
                                X             Y             Z
Electronic contribution:     -8.06042      -2.82748      -4.17835
Nuclear contribution   :      8.96298       4.10935       5.06128
                        -----------------------------------------
Total Dipole Moment    :      0.90256       1.28187       0.88293
                        -----------------------------------------
Magnitude (a.u.)       :      1.79927
Magnitude (Debye)      :      4.57338

                             ****ORCA TERMINATED NORMALLY****
TOTAL RUN TIME: 0 days 0 hours 22 minutes 53 seconds 141 msec
