                         Program Version 3.0.3 - RELEASE   -
|  1> ! RI-MP2 RIJK def2-TZVP def2-TZVP/C def2-TZVP/JK TIGHTSCF
|  2> % maxcore 2000
|  3> % mp2 density relaxed end
|  4> *xyz 0 1
|  5>  C       -0.1776450657     1.4920716764     0.0516768287
|  6>  C        0.0357107825    -0.0378230941    -0.0183365988
|  7>  C        0.7636404818    -0.4531748968    -1.2720631975
|  8>  C        1.9405980090    -1.0777746668    -1.2918049970
|  9>  C        2.7249880803    -1.4369466067    -0.0558304385
| 10>  O        4.1274713169    -1.3298470175    -0.2686737172
| 11>  C        2.2655448635    -0.5968682804     1.1531070671
| 12>  C        0.7507414299    -0.5196152288     1.2461606662
| 13>  O        0.1405475629    -0.7990819650     2.2507821426
| 14>  H        0.7776299843     2.0254087511     0.0875593737
| 15>  H       -0.7208937511     1.8410170252    -0.8319205290
| 16>  H       -0.7580100689     1.7543133555     0.9403190940
| 17>  H       -0.9575502643    -0.5046642158    -0.0028738078
| 18>  H        0.2546259396    -0.2349361411    -2.2090344879
| 19>  H        2.3958469436    -1.3761811666    -2.2329129493
| 20>  H        2.5753599253    -2.5001611744     0.1742108703
| 21>  H        4.3092019075    -0.4289773721    -0.5601119531
| 22>  H        2.6735689982    -0.9813034246     2.0891884910
| 23>  H        2.6416779346     0.4257818726     1.0052939825
| 24> *
| 25>
| 26>                          ****END OF INPUT****

CARTESIAN COORDINATES (ANGSTROEM)
---------------------------------
  C     -0.177645    1.492072    0.051677
  C      0.035711   -0.037823   -0.018337
  C      0.763640   -0.453175   -1.272063
  C      1.940598   -1.077775   -1.291805
  C      2.724988   -1.436947   -0.055830
  O      4.127471   -1.329847   -0.268674
  C      2.265545   -0.596868    1.153107
  C      0.750741   -0.519615    1.246161
  O      0.140548   -0.799082    2.250782
  H      0.777630    2.025409    0.087559
  H     -0.720894    1.841017   -0.831921
  H     -0.758010    1.754313    0.940319
  H     -0.957550   -0.504664   -0.002874
  H      0.254626   -0.234936   -2.209034
  H      2.395847   -1.376181   -2.232913
  H      2.575360   -2.500161    0.174211
  H      4.309202   -0.428977   -0.560112
  H      2.673569   -0.981303    2.089188
  H      2.641678    0.425782    1.005294

 Total Charge           Charge          ....    0
 Multiplicity           Mult            ....    1
 Number of Electrons    NEL             ....   68
 Basis Dimension        Dim             ....  339

ORBITAL ENERGIES
----------------

  NO   OCC          E(Eh)            E(eV)
   0   2.0000     -20.569173      -559.7157
   1   2.0000     -20.550009      -559.1942
   2   2.0000     -11.333435      -308.3984
   3   2.0000     -11.302786      -307.5644
   4   2.0000     -11.254516      -306.2510
   5   2.0000     -11.251146      -306.1592
   6   2.0000     -11.242421      -305.9218
   7   2.0000     -11.242284      -305.9181
   8   2.0000     -11.238123      -305.8049
   9   2.0000      -1.393784       -37.9268
  10   2.0000      -1.375842       -37.4386
  11   2.0000      -1.135101       -30.8877
  12   2.0000      -1.047089       -28.4927
  13   2.0000      -1.014309       -27.6008
  14   2.0000      -0.919723       -25.0269
  15   2.0000      -0.859069       -23.3764
  16   2.0000      -0.801502       -21.8100
  17   2.0000      -0.724181       -19.7060
  18   2.0000      -0.693042       -18.8586
  19   2.0000      -0.668575       -18.1928
  20   2.0000      -0.654844       -17.8192
  21   2.0000      -0.644433       -17.5359
  22   2.0000      -0.606775       -16.5112
  23   2.0000      -0.590479       -16.0677
  24   2.0000      -0.576810       -15.6958
  25   2.0000      -0.570739       -15.5306
  26   2.0000      -0.559357       -15.2209
  27   2.0000      -0.533646       -14.5213
  28   2.0000      -0.514425       -13.9982
  29   2.0000      -0.505195       -13.7470
  30   2.0000      -0.486502       -13.2384
  31   2.0000      -0.454219       -12.3599
  32   2.0000      -0.406899       -11.0723
  33   2.0000      -0.374208       -10.1827
  34   0.0000       0.119588         3.2542
  35   0.0000       0.128405         3.4941
  36   0.0000       0.132850         3.6150
  37   0.0000       0.155207         4.2234
  38   0.0000       0.168590         4.5876

MULLIKEN ATOMIC CHARGES
-----------------------
   0 C :   -0.432945
   1 C :    0.041496
   2 C :   -0.178678
   3 C :   -0.270527
   4 C :    0.154806
   5 O :   -0.460440
   6 C :   -0.238703
   7 C :    0.155023
   8 O :   -0.269541
   9 H :    0.128092
  10 H :    0.138700
  11 H :    0.154036
  12 H :    0.117428
  13 H :    0.131299
  14 H :    0.135297
  15 H :    0.120021
  16 H :    0.311156
  17 H :    0.144451
  18 H :    0.119030
Sum of atomic charges:   -0.0000000

LOEWDIN ATOMIC CHARGES
----------------------
   0 C :   -0.272953
   1 C :   -0.234914
   2 C :   -0.135111
   3 C :   -0.161541
   4 C :   -0.328024
   5 O :   -0.015184
   6 C :   -0.201697
   7 C :   -0.293615
   8 O :    0.159796
   9 H :    0.123481
  10 H :    0.127192
  11 H :    0.131088
  12 H :    0.169893
  13 H :    0.148365
  14 H :    0.149083
  15 H :    0.155927
  16 H :    0.174312
  17 H :    0.149818
  18 H :    0.154083

  Mayer bond orders larger than 0.1
B(  0-C ,  1-C ) :   0.8803 B(  0-C ,  9-H ) :   0.9299 B(  0-C , 10-H ) :   0.9341
B(  0-C , 11-H ) :   0.9342 B(  1-C ,  2-C ) :   0.9042 B(  1-C ,  7-C ) :   0.8781
B(  1-C , 12-H ) :   0.9099 B(  2-C ,  3-C ) :   1.7626 B(  2-C , 13-H ) :   0.9157
B(  3-C ,  4-C ) :   0.9499 B(  3-C , 14-H ) :   0.9311 B(  4-C ,  5-O ) :   0.9014
B(  4-C ,  6-C ) :   0.9102 B(  4-C , 15-H ) :   0.9005 B(  5-O , 16-H ) :   0.8411
B(  6-C ,  7-C ) :   0.9060 B(  6-C , 17-H ) :   0.9190 B(  6-C , 18-H ) :   0.9038
B(  7-C ,  8-O ) :   2.0323

MP2 TOTAL ENERGY:     -422.348343998 Eh
FINAL SINGLE POINT ENERGY      -422.348343997790

DIPOLE MOMENT
-------------
                                X             Y             Z
Electronic contribution:      1.09085      -4.11117       2.54326
Nuclear contribution   :     -1.08734       4.88371      -3.49802
                        -----------------------------------------
Total Dipole Moment    :      0.00350       0.77254      -0.95475
                        -----------------------------------------
Magnitude (a.u.)       :      1.22816
Magnitude (Debye)      :      3.12174

                             ****ORCA TERMINATED NORMALLY****
TOTAL RUN TIME: 0 days 0 hours 17 minutes 24 seconds 613 msec
