                         Program Version 3.0.3 - RELEASE   -
|  1> ! RI-MP2 RIJK def2-TZVP def2-TZVP/C def2-TZVP/JK TIGHTSCF
|  2> % maxcore 2000
|  3> % mp2 density relaxed end
|  4> *xyz 0 1
|  5>  C        0.0736493595     1.5645613253     0.0776116865
|  6>  C        0.0657111155     0.0384541683     0.0345979342
|  7>  C        0.8542126037    -0.5768882744    -1.1600045190
|  8>  N        1.4648684364    -1.8258489352    -0.6832673891
|  9>  C        1.3836729329    -1.8283138113     0.5804127518
| 10>  C        0.7151431321    -0.6580483175     1.2524096627
| 11>  O        1.8702936904    -2.8107827531     1.3953483579
| 12>  C        2.7066392338    -3.7658068242     0.8607353231
| 13>  O        3.0871283272    -4.6758600952     1.5260849517
| 14>  H        1.0959705194     1.9492699349     0.1679869942
| 15>  H       -0.3619077921     1.9863508320    -0.8342660573
| 16>  H       -0.5035959232     1.9450309799     0.9264065070
| 17>  H       -0.9718274053    -0.3079893653    -0.0366162434
| 18>  H        0.2166404986    -0.7818671225    -2.0253501734
| 19>  H        1.6520095417     0.0948136781    -1.5062531628
| 20>  H        1.4730856694    -0.0315831219     1.7416464100
| 21>  H        0.0100697753    -0.9701440912     2.0272666990
| 22>  H        2.9532328048    -3.5642932265    -0.1893240530
| 23> *
| 24>
| 25>                          ****END OF INPUT****

CARTESIAN COORDINATES (ANGSTROEM)
---------------------------------
  C      0.073649    1.564561    0.077612
  C      0.065711    0.038454    0.034598
  C      0.854213   -0.576888   -1.160005
  N      1.464868   -1.825849   -0.683267
  C      1.383673   -1.828314    0.580413
  C      0.715143   -0.658048    1.252410
  O      1.870294   -2.810783    1.395348
  C      2.706639   -3.765807    0.860735
  O      3.087128   -4.675860    1.526085
  H      1.095971    1.949270    0.167987
  H     -0.361908    1.986351   -0.834266
  H     -0.503596    1.945031    0.926407
  H     -0.971827   -0.307989   -0.036616
  H      0.216640   -0.781867   -2.025350
  H      1.652010    0.094814   -1.506253
  H      1.473086   -0.031583    1.741646
  H      0.010070   -0.970144    2.027267
  H      2.953233   -3.564293   -0.189324

 Total Charge           Charge          ....    0
 Multiplicity           Mult            ....    1
 Number of Electrons    NEL             ....   68
 Basis Dimension        Dim             ....  333

ORBITAL ENERGIES
----------------

  NO   OCC          E(Eh)            E(eV)
   0   2.0000     -20.631622      -561.4150
   1   2.0000     -20.564601      -559.5912
   2   2.0000     -15.561842      -423.4593
   3   2.0000     -11.390010      -309.9379
   4   2.0000     -11.354115      -308.9612
   5   2.0000     -11.265079      -306.5384
   6   2.0000     -11.254025      -306.2376
   7   2.0000     -11.250545      -306.1429
   8   2.0000     -11.232763      -305.6590
   9   2.0000      -1.486429       -40.4478
  10   2.0000      -1.396311       -37.9955
  11   2.0000      -1.261298       -34.3217
  12   2.0000      -1.081834       -29.4382
  13   2.0000      -1.007632       -27.4191
  14   2.0000      -0.939234       -25.5579
  15   2.0000      -0.891402       -24.2563
  16   2.0000      -0.805059       -21.9068
  17   2.0000      -0.795344       -21.6424
  18   2.0000      -0.703704       -19.1488
  19   2.0000      -0.690307       -18.7842
  20   2.0000      -0.665524       -18.1098
  21   2.0000      -0.648993       -17.6600
  22   2.0000      -0.641249       -17.4493
  23   2.0000      -0.588985       -16.0271
  24   2.0000      -0.582055       -15.8385
  25   2.0000      -0.577468       -15.7137
  26   2.0000      -0.563222       -15.3261
  27   2.0000      -0.523014       -14.2319
  28   2.0000      -0.520348       -14.1594
  29   2.0000      -0.494385       -13.4529
  30   2.0000      -0.488407       -13.2902
  31   2.0000      -0.475014       -12.9258
  32   2.0000      -0.426622       -11.6090
  33   2.0000      -0.403008       -10.9664
  34   0.0000       0.120636         3.2827
  35   0.0000       0.128781         3.5043
  36   0.0000       0.157265         4.2794
  37   0.0000       0.160637         4.3712
  38   0.0000       0.171989         4.6801

MULLIKEN ATOMIC CHARGES
-----------------------
   0 C :   -0.422067
   1 C :   -0.050096
   2 C :   -0.133827
   3 N :   -0.258311
   4 C :    0.197068
   5 C :   -0.236428
   6 O :   -0.214442
   7 C :    0.193593
   8 O :   -0.246048
   9 H :    0.127391
  10 H :    0.139524
  11 H :    0.139312
  12 H :    0.103514
  13 H :    0.129830
  14 H :    0.115318
  15 H :    0.131377
  16 H :    0.149275
  17 H :    0.135018
Sum of atomic charges:   -0.0000000

LOEWDIN ATOMIC CHARGES
----------------------
   0 C :   -0.297625
   1 C :   -0.260720
   2 C :   -0.247694
   3 N :    0.095907
   4 C :   -0.354504
   5 C :   -0.197489
   6 O :    0.289853
   7 C :   -0.389000
   8 O :    0.143694
   9 H :    0.123948
  10 H :    0.126698
  11 H :    0.125665
  12 H :    0.153677
  13 H :    0.131426
  14 H :    0.134256
  15 H :    0.153572
  16 H :    0.148647
  17 H :    0.119689

  Mayer bond orders larger than 0.1
B(  0-C ,  1-C ) :   0.9168 B(  0-C ,  9-H ) :   0.9307 B(  0-C , 10-H ) :   0.9414
B(  0-C , 11-H ) :   0.9380 B(  1-C ,  2-C ) :   0.9333 B(  1-C ,  5-C ) :   0.9410
B(  1-C , 12-H ) :   0.9244 B(  2-C ,  3-N ) :   0.9245 B(  2-C , 13-H ) :   0.9294
B(  2-C , 14-H ) :   0.9176 B(  3-N ,  4-C ) :   1.7851 B(  4-C ,  5-C ) :   0.9430
B(  4-C ,  6-O ) :   1.0256 B(  5-C , 15-H ) :   0.8905 B(  5-C , 16-H ) :   0.9185
B(  6-O ,  7-C ) :   0.9571 B(  7-C ,  8-O ) :   2.0486 B(  7-C , 17-H ) :   0.9141

MP2 TOTAL ENERGY:     -438.405926150 Eh
FINAL SINGLE POINT ENERGY      -438.405926149822

DIPOLE MOMENT
-------------
                                X             Y             Z
Electronic contribution:      5.69943     -12.52269       3.11309
Nuclear contribution   :     -6.37515      14.03652      -3.52098
                        -----------------------------------------
Total Dipole Moment    :     -0.67571       1.51382      -0.40789
                        -----------------------------------------
Magnitude (a.u.)       :      1.70723
Magnitude (Debye)      :      4.33943

                             ****ORCA TERMINATED NORMALLY****
TOTAL RUN TIME: 0 days 0 hours 15 minutes 39 seconds 504 msec
