                         Program Version 3.0.3 - RELEASE   -
|  1> ! RI-MP2 RIJK def2-TZVP def2-TZVP/C def2-TZVP/JK TIGHTSCF
|  2> % maxcore 2000
|  3> % mp2 density relaxed end
|  4> *xyz 0 1
|  5>  O       -0.0769403578     0.2016068101    -0.8093000402
|  6>  C       -0.0330107519     1.2081173797    -0.1481146195
|  7>  C       -1.3056835393     1.8840806472     0.3423501892
|  8>  O       -1.1135989271     2.8137922248     1.4086758912
|  9>  C        0.0365959504     3.5496732443     1.3664250833
| 10>  N        1.1342846068     3.2348513067     0.8121751233
| 11>  C        1.2612439147     1.9192745628     0.2132118570
| 12>  C       -0.1059187789     4.7848233046     2.0783872733
| 13>  C       -0.2341922298     5.8150994128     2.6828818672
| 14>  H       -1.7583272944     2.4027258034    -0.5155475195
| 15>  H       -2.0134467931     1.1312953221     0.6947288959
| 16>  H        1.8101574731     1.2654810130     0.9075259371
| 17>  H        1.8869061345     1.9785900503    -0.6845317826
| 18>  H       -0.3378959872     6.7294593481     3.2140288144
| 19> *
| 20>
| 21>                          ****END OF INPUT****

CARTESIAN COORDINATES (ANGSTROEM)
---------------------------------
  O     -0.076940    0.201607   -0.809300
  C     -0.033011    1.208117   -0.148115
  C     -1.305684    1.884081    0.342350
  O     -1.113599    2.813792    1.408676
  C      0.036596    3.549673    1.366425
  N      1.134285    3.234851    0.812175
  C      1.261244    1.919275    0.213212
  C     -0.105919    4.784823    2.078387
  C     -0.234192    5.815099    2.682882
  H     -1.758327    2.402726   -0.515548
  H     -2.013447    1.131295    0.694729
  H      1.810157    1.265481    0.907526
  H      1.886906    1.978590   -0.684532
  H     -0.337896    6.729459    3.214029

 Total Charge           Charge          ....    0
 Multiplicity           Mult            ....    1
 Number of Electrons    NEL             ....   64
 Basis Dimension        Dim             ....  309

ORBITAL ENERGIES
----------------

  NO   OCC          E(Eh)            E(eV)
   0   2.0000     -20.622601      -561.1695
   1   2.0000     -20.569216      -559.7168
   2   2.0000     -15.578649      -423.9166
   3   2.0000     -11.381643      -309.7102
   4   2.0000     -11.354793      -308.9796
   5   2.0000     -11.320997      -308.0600
   6   2.0000     -11.285922      -307.1056
   7   2.0000     -11.260404      -306.4112
   8   2.0000     -11.256059      -306.2929
   9   2.0000      -1.458826       -39.6967
  10   2.0000      -1.413435       -38.4615
  11   2.0000      -1.252073       -34.0706
  12   2.0000      -1.089683       -29.6518
  13   2.0000      -1.033292       -28.1173
  14   2.0000      -0.974701       -26.5230
  15   2.0000      -0.890567       -24.2335
  16   2.0000      -0.799388       -21.7525
  17   2.0000      -0.741184       -20.1686
  18   2.0000      -0.726081       -19.7577
  19   2.0000      -0.711796       -19.3690
  20   2.0000      -0.684639       -18.6300
  21   2.0000      -0.645751       -17.5718
  22   2.0000      -0.621635       -16.9156
  23   2.0000      -0.611666       -16.6443
  24   2.0000      -0.589174       -16.0322
  25   2.0000      -0.572534       -15.5794
  26   2.0000      -0.513475       -13.9724
  27   2.0000      -0.486535       -13.2393
  28   2.0000      -0.457283       -12.4433
  29   2.0000      -0.427778       -11.6404
  30   2.0000      -0.406193       -11.0531
  31   2.0000      -0.388374       -10.5682
  32   0.0000       0.092027         2.5042
  33   0.0000       0.113477         3.0879
  34   0.0000       0.129312         3.5187
  35   0.0000       0.154951         4.2164
  36   0.0000       0.162613         4.4249

MULLIKEN ATOMIC CHARGES
-----------------------
   0 O :   -0.265885
   1 C :    0.115268
   2 C :   -0.040281
   3 O :   -0.259943
   4 C :   -0.006193
   5 N :   -0.250408
   6 C :   -0.123670
   7 C :    0.062398
   8 C :   -0.052398
   9 H :    0.139506
  10 H :    0.159434
  11 H :    0.156056
  12 H :    0.161936
  13 H :    0.204179
Sum of atomic charges:   -0.0000000

LOEWDIN ATOMIC CHARGES
----------------------
   0 O :    0.168055
   1 C :   -0.331873
   2 C :   -0.247622
   3 O :    0.255073
   4 C :   -0.368903
   5 N :    0.128456
   6 C :   -0.258745
   7 C :   -0.050363
   8 C :   -0.042359
   9 H :    0.148340
  10 H :    0.149460
  11 H :    0.162306
  12 H :    0.156028
  13 H :    0.132145

  Mayer bond orders larger than 0.1
B(  0-O ,  1-C ) :   1.9952 B(  1-C ,  2-C ) :   0.9050 B(  1-C ,  6-C ) :   0.9114
B(  2-C ,  3-O ) :   0.8644 B(  2-C ,  9-H ) :   0.9096 B(  2-C , 10-H ) :   0.9171
B(  3-O ,  4-C ) :   1.0835 B(  4-C ,  5-N ) :   1.8582 B(  4-C ,  7-C ) :   1.1709
B(  4-C ,  8-C ) :  -0.1552 B(  5-N ,  6-C ) :   0.9088 B(  6-C , 11-H ) :   0.8951
B(  6-C , 12-H ) :   0.9173 B(  7-C ,  8-C ) :   2.6020 B(  8-C , 13-H ) :   0.8772

MP2 TOTAL ENERGY:     -435.928123300 Eh
FINAL SINGLE POINT ENERGY      -435.928123299939

DIPOLE MOMENT
-------------
                                X             Y             Z
Electronic contribution:     -0.27977       0.58702       0.80756
Nuclear contribution   :     -0.08555      -0.21385      -0.55198
                        -----------------------------------------
Total Dipole Moment    :     -0.36532       0.37317       0.25558
                        -----------------------------------------
Magnitude (a.u.)       :      0.58141
Magnitude (Debye)      :      1.47782

                             ****ORCA TERMINATED NORMALLY****
TOTAL RUN TIME: 0 days 0 hours 14 minutes 4 seconds 321 msec
