                         Program Version 3.0.3 - RELEASE   -
|  1> ! RI-MP2 RIJK def2-TZVP def2-TZVP/C def2-TZVP/JK TIGHTSCF
|  2> % maxcore 2000
|  3> % mp2 density relaxed end
|  4> *xyz 0 1
|  5>  N        0.1195476340    -1.1599455344    -0.2979511594
|  6>  C       -0.0018265765    -0.0215348898    -0.1388888488
|  7>  C       -0.1083642259     1.4103962059     0.0866025798
|  8>  N       -1.2308565826     1.9595929539    -0.1316882961
|  9>  C       -1.4502307422     3.3647026476     0.1362032564
| 10>  C       -0.3713099896     4.3331780227    -0.3987193925
| 11>  N        0.8830453857     4.3525528851     0.3238284725
| 12>  C        1.4683316534     3.2915801061     0.6812694058
| 13>  N        1.0958024915     1.9517168373     0.5379937369
| 14>  H       -2.4146214453     3.6355819575    -0.3049411163
| 15>  H       -1.5439880900     3.5147595494     1.2202825854
| 16>  H       -0.1840998812     4.0960295803    -1.4542538796
| 17>  H       -0.7841981945     5.3474269164    -0.3758444387
| 18>  H        2.4338117502     3.3688769658     1.1832744713
| 19>  H        1.8057295231     1.2766098161     0.7848841535
| 20> *
| 21>
| 22>                          ****END OF INPUT****

CARTESIAN COORDINATES (ANGSTROEM)
---------------------------------
  N      0.119548   -1.159946   -0.297951
  C     -0.001827   -0.021535   -0.138889
  C     -0.108364    1.410396    0.086603
  N     -1.230857    1.959593   -0.131688
  C     -1.450231    3.364703    0.136203
  C     -0.371310    4.333178   -0.398719
  N      0.883045    4.352553    0.323828
  C      1.468332    3.291580    0.681269
  N      1.095802    1.951717    0.537994
  H     -2.414621    3.635582   -0.304941
  H     -1.543988    3.514760    1.220283
  H     -0.184100    4.096030   -1.454254
  H     -0.784198    5.347427   -0.375844
  H      2.433812    3.368877    1.183274
  H      1.805730    1.276610    0.784884

 Total Charge           Charge          ....    0
 Multiplicity           Mult            ....    1
 Number of Electrons    NEL             ....   64
 Basis Dimension        Dim             ....  315

ORBITAL ENERGIES
----------------

  NO   OCC          E(Eh)            E(eV)
   0   2.0000     -15.638787      -425.5530
   1   2.0000     -15.601115      -424.5279
   2   2.0000     -15.586305      -424.1249
   3   2.0000     -15.563955      -423.5168
   4   2.0000     -11.382074      -309.7220
   5   2.0000     -11.341261      -308.6114
   6   2.0000     -11.297425      -307.4186
   7   2.0000     -11.275548      -306.8233
   8   2.0000     -11.270653      -306.6901
   9   2.0000      -1.345317       -36.6079
  10   2.0000      -1.256417       -34.1888
  11   2.0000      -1.234380       -33.5892
  12   2.0000      -1.216914       -33.1139
  13   2.0000      -1.029150       -28.0046
  14   2.0000      -0.989319       -26.9207
  15   2.0000      -0.857761       -23.3409
  16   2.0000      -0.825642       -22.4669
  17   2.0000      -0.782025       -21.2800
  18   2.0000      -0.702256       -19.1093
  19   2.0000      -0.688548       -18.7363
  20   2.0000      -0.643988       -17.5238
  21   2.0000      -0.620816       -16.8933
  22   2.0000      -0.607539       -16.5320
  23   2.0000      -0.584928       -15.9167
  24   2.0000      -0.574776       -15.6404
  25   2.0000      -0.550103       -14.9691
  26   2.0000      -0.507954       -13.8221
  27   2.0000      -0.497852       -13.5472
  28   2.0000      -0.459845       -12.5130
  29   2.0000      -0.437714       -11.9108
  30   2.0000      -0.409601       -11.1458
  31   2.0000      -0.378819       -10.3082
  32   0.0000       0.074966         2.0399
  33   0.0000       0.109137         2.9698
  34   0.0000       0.145249         3.9524
  35   0.0000       0.156374         4.2552
  36   0.0000       0.167643         4.5618

MULLIKEN ATOMIC CHARGES
-----------------------
   0 N :   -0.041797
   1 C :   -0.170021
   2 C :    0.303696
   3 N :   -0.233895
   4 C :   -0.150908
   5 C :   -0.146207
   6 N :   -0.252784
   7 C :    0.044685
   8 N :   -0.315239
   9 H :    0.143615
  10 H :    0.139873
  11 H :    0.137788
  12 H :    0.139720
  13 H :    0.143993
  14 H :    0.257480
Sum of atomic charges:   -0.0000000

LOEWDIN ATOMIC CHARGES
----------------------
   0 N :    0.090262
   1 C :   -0.138588
   2 C :   -0.334692
   3 N :    0.142411
   4 C :   -0.291449
   5 C :   -0.297957
   6 N :    0.085153
   7 C :   -0.317719
   8 N :    0.144494
   9 H :    0.140369
  10 H :    0.145610
  11 H :    0.142899
  12 H :    0.139427
  13 H :    0.141065
  14 H :    0.208715

  Mayer bond orders larger than 0.1
B(  0-N ,  1-C ) :   2.8339 B(  1-C ,  2-C ) :   0.8947 B(  2-C ,  3-N ) :   1.8366
B(  2-C ,  8-N ) :   1.0456 B(  3-N ,  4-C ) :   0.9055 B(  4-C ,  5-C ) :   0.8761
B(  4-C ,  9-H ) :   0.9291 B(  4-C , 10-H ) :   0.9214 B(  5-C ,  6-N ) :   0.9157
B(  5-C , 11-H ) :   0.9226 B(  5-C , 12-H ) :   0.9299 B(  6-N ,  7-C ) :   1.8765
B(  7-C ,  8-N ) :   1.0008 B(  7-C , 13-H ) :   0.9172 B(  8-N , 14-H ) :   0.8583

MP2 TOTAL ENERGY:     -412.293077916 Eh
FINAL SINGLE POINT ENERGY      -412.293077915946

DIPOLE MOMENT
-------------
                                X             Y             Z
Electronic contribution:      1.42808      -6.60468      -0.02703
Nuclear contribution   :     -0.91276       7.49121       0.45775
                        -----------------------------------------
Total Dipole Moment    :      0.51532       0.88653       0.43073
                        -----------------------------------------
Magnitude (a.u.)       :      1.11221
Magnitude (Debye)      :      2.82702

                             ****ORCA TERMINATED NORMALLY****
TOTAL RUN TIME: 0 days 0 hours 15 minutes 23 seconds 385 msec
