                         Program Version 3.0.3 - RELEASE   -
|  1> ! RI-MP2 RIJK def2-TZVP def2-TZVP/C def2-TZVP/JK TIGHTSCF
|  2> % maxcore 2000
|  3> % mp2 density relaxed end
|  4> *xyz 0 1
|  5>  C       -0.0187789154     1.6124158774    -0.0031690689
|  6>  C       -0.0095094306     0.0804975109     0.0164499569
|  7>  C        0.7503078163    -0.5307825801    -1.1628237497
|  8>  C        2.2657215511    -0.2050214963    -1.2287097065
|  9>  C        2.8592321004    -1.4219435245    -1.8918763989
| 10>  C        2.0126866089    -2.4471060820    -1.9271683413
| 11>  C        0.6827343707    -2.0963214840    -1.2750250086
| 12>  C        0.5415197824    -2.7841549188     0.0154236918
| 13>  N        0.4373444939    -3.3336229887     1.0276280303
| 14>  H        0.9942943616     2.0226381218     0.0619486248
| 15>  H       -0.4736147112     1.9961619403    -0.9234843250
| 16>  H       -0.5902187612     2.0097338129     0.8407493780
| 17>  H        0.4299200459    -0.2766920807     0.9553474503
| 18>  H       -1.0427861420    -0.2884391231     0.0074672758
| 19>  H        0.3007458619    -0.1623815934    -2.0930720975
| 20>  H        2.4635678720     0.7199878154    -1.7801404296
| 21>  H        2.6937173325    -0.0654537214    -0.2251861061
| 22>  H        3.8762734611    -1.4479880920    -2.2670381853
| 23>  H        2.2165406780    -3.4389689508    -2.3110811359
| 24>  H       -0.1744952463    -2.4000935028    -1.8875237548
| 25> *
| 26>
| 27>                          ****END OF INPUT****

CARTESIAN COORDINATES (ANGSTROEM)
---------------------------------
  C     -0.018779    1.612416   -0.003169
  C     -0.009509    0.080498    0.016450
  C      0.750308   -0.530783   -1.162824
  C      2.265722   -0.205021   -1.228710
  C      2.859232   -1.421944   -1.891876
  C      2.012687   -2.447106   -1.927168
  C      0.682734   -2.096321   -1.275025
  C      0.541520   -2.784155    0.015424
  N      0.437344   -3.333623    1.027628
  H      0.994294    2.022638    0.061949
  H     -0.473615    1.996162   -0.923484
  H     -0.590219    2.009734    0.840749
  H      0.429920   -0.276692    0.955347
  H     -1.042786   -0.288439    0.007467
  H      0.300746   -0.162382   -2.093072
  H      2.463568    0.719988   -1.780140
  H      2.693717   -0.065454   -0.225186
  H      3.876273   -1.447988   -2.267038
  H      2.216541   -3.438969   -2.311081
  H     -0.174495   -2.400094   -1.887524

 Total Charge           Charge          ....    0
 Multiplicity           Mult            ....    1
 Number of Electrons    NEL             ....   66
 Basis Dimension        Dim             ....  345

ORBITAL ENERGIES
----------------

  NO   OCC          E(Eh)            E(eV)
   0   2.0000     -15.562117      -423.4667
   1   2.0000     -11.284298      -307.0613
   2   2.0000     -11.266229      -306.5697
   3   2.0000     -11.254101      -306.2397
   4   2.0000     -11.247637      -306.0638
   5   2.0000     -11.245822      -306.0144
   6   2.0000     -11.241018      -305.8837
   7   2.0000     -11.230689      -305.6026
   8   2.0000     -11.222593      -305.3823
   9   2.0000      -1.215305       -33.0701
  10   2.0000      -1.163010       -31.6471
  11   2.0000      -1.058970       -28.8160
  12   2.0000      -1.009358       -27.4660
  13   2.0000      -0.965218       -26.2649
  14   2.0000      -0.868206       -23.6251
  15   2.0000      -0.807003       -21.9597
  16   2.0000      -0.756695       -20.5907
  17   2.0000      -0.701716       -19.0947
  18   2.0000      -0.681985       -18.5578
  19   2.0000      -0.627182       -17.0665
  20   2.0000      -0.597885       -16.2693
  21   2.0000      -0.588630       -16.0174
  22   2.0000      -0.575445       -15.6587
  23   2.0000      -0.553696       -15.0668
  24   2.0000      -0.543140       -14.7796
  25   2.0000      -0.529206       -14.4004
  26   2.0000      -0.519196       -14.1280
  27   2.0000      -0.492625       -13.4050
  28   2.0000      -0.481038       -13.0897
  29   2.0000      -0.473376       -12.8812
  30   2.0000      -0.449204       -12.2235
  31   2.0000      -0.440384       -11.9835
  32   2.0000      -0.373390       -10.1605
  33   0.0000       0.120027         3.2661
  34   0.0000       0.136013         3.7011
  35   0.0000       0.145157         3.9499
  36   0.0000       0.155486         4.2310
  37   0.0000       0.164452         4.4750

MULLIKEN ATOMIC CHARGES
-----------------------
   0 C :   -0.396963
   1 C :   -0.211852
   2 C :   -0.123722
   3 C :   -0.219537
   4 C :   -0.161858
   5 C :   -0.185557
   6 C :    0.165834
   7 C :   -0.247905
   8 N :   -0.055354
   9 H :    0.131249
  10 H :    0.124327
  11 H :    0.142196
  12 H :    0.133546
  13 H :    0.121970
  14 H :    0.103140
  15 H :    0.134310
  16 H :    0.125336
  17 H :    0.135188
  18 H :    0.143849
  19 H :    0.141802
Sum of atomic charges:   -0.0000000

LOEWDIN ATOMIC CHARGES
----------------------
   0 C :   -0.313376
   1 C :   -0.271488
   2 C :   -0.195014
   3 C :   -0.215273
   4 C :   -0.141284
   5 C :   -0.123406
   6 C :   -0.194956
   7 C :   -0.168184
   8 N :    0.057607
   9 H :    0.121644
  10 H :    0.121496
  11 H :    0.123965
  12 H :    0.145635
  13 H :    0.142749
  14 H :    0.160373
  15 H :    0.141115
  16 H :    0.148855
  17 H :    0.140792
  18 H :    0.143167
  19 H :    0.175584

  Mayer bond orders larger than 0.1
B(  0-C ,  1-C ) :   0.9103 B(  0-C ,  9-H ) :   0.9386 B(  0-C , 10-H ) :   0.9375
B(  0-C , 11-H ) :   0.9419 B(  1-C ,  2-C ) :   0.9336 B(  1-C , 12-H ) :   0.9192
B(  1-C , 13-H ) :   0.9394 B(  2-C ,  3-C ) :   0.9509 B(  2-C ,  6-C ) :   0.8727
B(  2-C , 14-H ) :   0.9257 B(  3-C ,  4-C ) :   0.9489 B(  3-C , 15-H ) :   0.9278
B(  3-C , 16-H ) :   0.8946 B(  4-C ,  5-C ) :   1.7990 B(  4-C , 17-H ) :   0.9276
B(  5-C ,  6-C ) :   0.8866 B(  5-C , 18-H ) :   0.9208 B(  6-C ,  7-C ) :   0.8910
B(  6-C , 19-H ) :   0.9063 B(  7-C ,  8-N ) :   2.8751

MP2 TOTAL ENERGY:     -365.379344841 Eh
FINAL SINGLE POINT ENERGY      -365.379344840929

DIPOLE MOMENT
-------------
                                X             Y             Z
Electronic contribution:      0.92231      -9.83581       0.57727
Nuclear contribution   :     -0.70171      10.80019      -1.79012
                        -----------------------------------------
Total Dipole Moment    :      0.22060       0.96438      -1.21285
                        -----------------------------------------
Magnitude (a.u.)       :      1.56515
Magnitude (Debye)      :      3.97829

                             ****ORCA TERMINATED NORMALLY****
TOTAL RUN TIME: 0 days 0 hours 32 minutes 39 seconds 648 msec
