                         Program Version 3.0.3 - RELEASE   -
|  1> ! RI-MP2 RIJK def2-TZVP def2-TZVP/C def2-TZVP/JK TIGHTSCF
|  2> % maxcore 2000
|  3> % mp2 density relaxed end
|  4> *xyz 0 1
|  5>  C       -0.0066545306     1.5362011611     0.1191211098
|  6>  C        0.0005317141     0.0529788922    -0.0273738206
|  7>  C       -0.0489804586    -0.7033924355    -1.1472848259
|  8>  O       -0.0167267001    -2.0343549261    -0.7728345911
|  9>  C        0.0507876007    -1.9846024395     0.5629717206
| 10>  N        0.0998398683    -3.1441344224     1.3013671131
| 11>  C        0.0927080026    -4.4649246140     0.8941344458
| 12>  N        0.0345910722    -4.8386280063    -0.3177385332
| 13>  N        0.0653832491    -0.7928765853     1.0818181055
| 14>  H        0.8985896950     1.8824632724     0.6291436568
| 15>  H       -0.0618115326     2.0265968659    -0.8560281908
| 16>  H       -0.8613276393     1.8649286836     0.7199093063
| 17>  H       -0.1047490784    -0.5119103224    -2.2040195381
| 18>  H        0.1489291778    -2.9630670813     2.2909928464
| 19>  H        0.1441672883    -5.1259862770     1.7675152307
| 20>  H        0.0426504515    -5.8551280952    -0.3654073954
| 21> *
| 22>
| 23>                          ****END OF INPUT****

CARTESIAN COORDINATES (ANGSTROEM)
---------------------------------
  C     -0.006655    1.536201    0.119121
  C      0.000532    0.052979   -0.027374
  C     -0.048980   -0.703392   -1.147285
  O     -0.016727   -2.034355   -0.772835
  C      0.050788   -1.984602    0.562972
  N      0.099840   -3.144134    1.301367
  C      0.092708   -4.464925    0.894134
  N      0.034591   -4.838628   -0.317739
  N      0.065383   -0.792877    1.081818
  H      0.898590    1.882463    0.629144
  H     -0.061812    2.026597   -0.856028
  H     -0.861328    1.864929    0.719909
  H     -0.104749   -0.511910   -2.204020
  H      0.148929   -2.963067    2.290993
  H      0.144167   -5.125986    1.767515
  H      0.042650   -5.855128   -0.365407

 Total Charge           Charge          ....    0
 Multiplicity           Mult            ....    1
 Number of Electrons    NEL             ....   66
 Basis Dimension        Dim             ....  321

ORBITAL ENERGIES
----------------

  NO   OCC          E(Eh)            E(eV)
   0   2.0000     -20.626195      -561.2673
   1   2.0000     -15.615560      -424.9210
   2   2.0000     -15.544825      -422.9962
   3   2.0000     -15.542940      -422.9449
   4   2.0000     -11.375663      -309.5475
   5   2.0000     -11.334010      -308.4141
   6   2.0000     -11.270836      -306.6950
   7   2.0000     -11.262016      -306.4550
   8   2.0000     -11.226024      -305.4756
   9   2.0000      -1.484493       -40.3951
  10   2.0000      -1.301031       -35.4028
  11   2.0000      -1.229354       -33.4524
  12   2.0000      -1.179671       -32.1005
  13   2.0000      -1.041790       -28.3486
  14   2.0000      -0.955429       -25.9985
  15   2.0000      -0.885098       -24.0847
  16   2.0000      -0.825360       -22.4592
  17   2.0000      -0.764775       -20.8106
  18   2.0000      -0.752203       -20.4685
  19   2.0000      -0.689837       -18.7714
  20   2.0000      -0.671885       -18.2829
  21   2.0000      -0.650845       -17.7104
  22   2.0000      -0.632089       -17.2000
  23   2.0000      -0.597176       -16.2500
  24   2.0000      -0.573667       -15.6103
  25   2.0000      -0.554778       -15.0963
  26   2.0000      -0.550439       -14.9782
  27   2.0000      -0.534467       -14.5436
  28   2.0000      -0.454768       -12.3749
  29   2.0000      -0.449249       -12.2247
  30   2.0000      -0.437248       -11.8981
  31   2.0000      -0.399759       -10.8780
  32   2.0000      -0.306755        -8.3472
  33   0.0000       0.126829         3.4512
  34   0.0000       0.137034         3.7289
  35   0.0000       0.152457         4.1486
  36   0.0000       0.163776         4.4566
  37   0.0000       0.185945         5.0598

MULLIKEN ATOMIC CHARGES
-----------------------
   0 C :   -0.412562
   1 C :    0.093786
   2 C :   -0.083441
   3 O :   -0.172133
   4 C :    0.387915
   5 N :   -0.305687
   6 C :    0.037806
   7 N :   -0.375981
   8 N :   -0.331331
   9 H :    0.144679
  10 H :    0.133335
  11 H :    0.144693
  12 H :    0.154459
  13 H :    0.261795
  14 H :    0.102236
  15 H :    0.220430
Sum of atomic charges:   -0.0000000

LOEWDIN ATOMIC CHARGES
----------------------
   0 C :   -0.270436
   1 C :   -0.287849
   2 C :   -0.223146
   3 O :    0.364283
   4 C :   -0.419019
   5 N :    0.138773
   6 C :   -0.351295
   7 N :   -0.091505
   8 N :    0.112874
   9 H :    0.133850
  10 H :    0.131584
  11 H :    0.133855
  12 H :    0.135660
  13 H :    0.208339
  14 H :    0.118688
  15 H :    0.165346

  Mayer bond orders larger than 0.1
B(  0-C ,  1-C ) :   0.8782 B(  0-C ,  9-H ) :   0.9341 B(  0-C , 10-H ) :   0.9484
B(  0-C , 11-H ) :   0.9342 B(  1-C ,  2-C ) :   1.5991 B(  1-C ,  8-N ) :   1.1559
B(  2-C ,  3-O ) :   0.9845 B(  2-C , 12-H ) :   0.9297 B(  3-O ,  4-C ) :   1.1443
B(  4-C ,  5-N ) :   1.0238 B(  4-C ,  8-N ) :   1.6358 B(  5-N ,  6-C ) :   1.0356
B(  5-N , 13-H ) :   0.8628 B(  6-C ,  7-N ) :   1.9441 B(  6-C , 14-H ) :   0.9223
B(  7-N , 15-H ) :   0.8578

MP2 TOTAL ENERGY:     -433.373752217 Eh
FINAL SINGLE POINT ENERGY      -433.373752216745

DIPOLE MOMENT
-------------
                                X             Y             Z
Electronic contribution:      0.03599      -4.25299      -0.10547
Nuclear contribution   :     -0.00590       3.96000       0.62622
                        -----------------------------------------
Total Dipole Moment    :      0.03009      -0.29300       0.52075
                        -----------------------------------------
Magnitude (a.u.)       :      0.59828
Magnitude (Debye)      :      1.52070

                             ****ORCA TERMINATED NORMALLY****
TOTAL RUN TIME: 0 days 0 hours 13 minutes 47 seconds 347 msec
