                         Program Version 3.0.3 - RELEASE   -
|  1> ! RI-MP2 RIJK def2-TZVP def2-TZVP/C def2-TZVP/JK TIGHTSCF
|  2> % maxcore 2000
|  3> % mp2 density relaxed end
|  4> *xyz 0 1
|  5>  C       -0.0917612318     1.5426893766     0.2475792729
|  6>  C        0.0103375437     0.0246283837     0.2534121462
|  7>  C        0.6555360772    -0.6915787197    -0.9949551452
|  8>  C        1.7162685773    -1.2835953966    -0.0510836165
|  9>  O        2.3784977457    -0.1779822255     0.5724225176
| 10>  C        1.1201740739    -0.6074974839     1.1150380793
| 11>  C        2.4472968996    -2.5703781512    -0.1648934184
| 12>  C        3.9152643281    -2.6340995143    -0.0952268650
| 13>  O        3.1055045760    -3.0317662108     1.0127673243
| 14>  H        0.8912497709     1.9879218248     0.0704265688
| 15>  H       -0.7718071070     1.8887306482    -0.5379428761
| 16>  H       -0.4697869991     1.9176972932     1.2050231875
| 17>  H       -0.9565161659    -0.4328464425     0.4864822182
| 18>  H       -0.0041266897    -1.4408615343    -1.4397461708
| 19>  H        1.0532496677    -0.0415699377    -1.7785112744
| 20>  H        1.1124186944    -0.8934992930     2.1606340511
| 21>  H        1.9169775318    -3.3427788685    -0.7237225459
| 22>  H        4.4451760096    -3.4396621675    -0.6014958962
| 23>  H        4.4679791475    -1.7087733509     0.0480479025
| 24> *
| 25>
| 26>                          ****END OF INPUT****

CARTESIAN COORDINATES (ANGSTROEM)
---------------------------------
  C     -0.091761    1.542689    0.247579
  C      0.010338    0.024628    0.253412
  C      0.655536   -0.691579   -0.994955
  C      1.716269   -1.283595   -0.051084
  O      2.378498   -0.177982    0.572423
  C      1.120174   -0.607497    1.115038
  C      2.447297   -2.570378   -0.164893
  C      3.915264   -2.634100   -0.095227
  O      3.105505   -3.031766    1.012767
  H      0.891250    1.987922    0.070427
  H     -0.771807    1.888731   -0.537943
  H     -0.469787    1.917697    1.205023
  H     -0.956516   -0.432846    0.486482
  H     -0.004127   -1.440862   -1.439746
  H      1.053250   -0.041570   -1.778511
  H      1.112419   -0.893499    2.160634
  H      1.916978   -3.342779   -0.723723
  H      4.445176   -3.439662   -0.601496
  H      4.467979   -1.708773    0.048048

 Total Charge           Charge          ....    0
 Multiplicity           Mult            ....    1
 Number of Electrons    NEL             ....   68
 Basis Dimension        Dim             ....  339

ORBITAL ENERGIES
----------------

  NO   OCC          E(Eh)            E(eV)
   0   2.0000     -20.571200      -559.7708
   1   2.0000     -20.566804      -559.6512
   2   2.0000     -11.295674      -307.3709
   3   2.0000     -11.292473      -307.2838
   4   2.0000     -11.284244      -307.0599
   5   2.0000     -11.283383      -307.0365
   6   2.0000     -11.242982      -305.9371
   7   2.0000     -11.237205      -305.7799
   8   2.0000     -11.214885      -305.1725
   9   2.0000      -1.427941       -38.8563
  10   2.0000      -1.406381       -38.2696
  11   2.0000      -1.097581       -29.8667
  12   2.0000      -0.997434       -27.1416
  13   2.0000      -0.944389       -25.6981
  14   2.0000      -0.892498       -24.2861
  15   2.0000      -0.890648       -24.2358
  16   2.0000      -0.795030       -21.6339
  17   2.0000      -0.749693       -20.4002
  18   2.0000      -0.726221       -19.7615
  19   2.0000      -0.680194       -18.5090
  20   2.0000      -0.646144       -17.5825
  21   2.0000      -0.610903       -16.6235
  22   2.0000      -0.602648       -16.3989
  23   2.0000      -0.569335       -15.4924
  24   2.0000      -0.558995       -15.2110
  25   2.0000      -0.556533       -15.1440
  26   2.0000      -0.529800       -14.4166
  27   2.0000      -0.501142       -13.6368
  28   2.0000      -0.490119       -13.3368
  29   2.0000      -0.472377       -12.8540
  30   2.0000      -0.464822       -12.6485
  31   2.0000      -0.453202       -12.3322
  32   2.0000      -0.431962       -11.7543
  33   2.0000      -0.383933       -10.4473
  34   0.0000       0.139131         3.7859
  35   0.0000       0.152932         4.1615
  36   0.0000       0.165240         4.4964
  37   0.0000       0.180041         4.8992
  38   0.0000       0.190459         5.1827

MULLIKEN ATOMIC CHARGES
-----------------------
   0 C :   -0.448984
   1 C :    0.046933
   2 C :   -0.282366
   3 C :    0.219171
   4 O :   -0.337942
   5 C :   -0.051424
   6 C :   -0.042459
   7 C :   -0.065954
   8 O :   -0.325354
   9 H :    0.149046
  10 H :    0.129884
  11 H :    0.129766
  12 H :    0.102724
  13 H :    0.128366
  14 H :    0.117583
  15 H :    0.142539
  16 H :    0.135376
  17 H :    0.116223
  18 H :    0.136874
Sum of atomic charges:   -0.0000000

LOEWDIN ATOMIC CHARGES
----------------------
   0 C :   -0.298891
   1 C :   -0.230647
   2 C :   -0.167994
   3 C :   -0.274079
   4 O :    0.199228
   5 C :   -0.193466
   6 C :   -0.267235
   7 C :   -0.250527
   8 O :    0.158584
   9 H :    0.129694
  10 H :    0.123926
  11 H :    0.124829
  12 H :    0.150097
  13 H :    0.136707
  14 H :    0.135058
  15 H :    0.134626
  16 H :    0.144611
  17 H :    0.118401
  18 H :    0.127077

  Mayer bond orders larger than 0.1
B(  0-C ,  1-C ) :   0.8902 B(  0-C ,  9-H ) :   0.9377 B(  0-C , 10-H ) :   0.9374
B(  0-C , 11-H ) :   0.9383 B(  1-C ,  2-C ) :   0.9690 B(  1-C ,  5-C ) :   0.8888
B(  1-C , 12-H ) :   0.9083 B(  2-C ,  3-C ) :   0.9163 B(  2-C , 13-H ) :   0.9231
B(  2-C , 14-H ) :   0.8956 B(  3-C ,  4-O ) :   0.8702 B(  3-C ,  5-C ) :   0.8777
B(  3-C ,  6-C ) :   0.9158 B(  4-O ,  5-C ) :   0.9100 B(  5-C , 15-H ) :   0.9145
B(  6-C ,  7-C ) :   0.9846 B(  6-C ,  8-O ) :   0.9163 B(  6-C , 16-H ) :   0.9165
B(  7-C ,  8-O ) :   0.9068 B(  7-C , 17-H ) :   0.9236 B(  7-C , 18-H ) :   0.9038

MP2 TOTAL ENERGY:     -422.254765219 Eh
FINAL SINGLE POINT ENERGY      -422.254765218862

DIPOLE MOMENT
-------------
                                X             Y             Z
Electronic contribution:      4.57066      -4.71430       2.44750
Nuclear contribution   :     -5.13766       4.60547      -3.10481
                        -----------------------------------------
Total Dipole Moment    :     -0.56700      -0.10883      -0.65731
                        -----------------------------------------
Magnitude (a.u.)       :      0.87487
Magnitude (Debye)      :      2.22373

                             ****ORCA TERMINATED NORMALLY****
TOTAL RUN TIME: 0 days 0 hours 17 minutes 6 seconds 11 msec
