                         Program Version 3.0.3 - RELEASE   -
|  1> ! RI-MP2 RIJK def2-TZVP def2-TZVP/C def2-TZVP/JK TIGHTSCF
|  2> % maxcore 2000
|  3> % mp2 density relaxed end
|  4> *xyz 0 1
|  5>  C       -0.1307522191     1.5053688229    -0.0114265017
|  6>  C        0.0118033226    -0.0195571760    -0.1049629204
|  7>  C        0.7986658145    -0.4259610891    -1.3509928672
|  8>  O        0.0922957928     0.0256700333    -2.4993657593
|  9>  C        0.6668486686    -0.5988786903     1.1514714926
| 10>  C       -0.0967711390    -0.5204444678     2.5219399644
| 11>  C        0.0703549391    -2.0363045076     2.6841896668
| 12>  C       -0.5844791816    -2.7512282532     1.5383292405
| 13>  C        0.7684757947    -2.1257333586     1.3260115633
| 14>  H        0.8501440438     1.9811734222     0.1130094258
| 15>  H       -0.5854711540     1.9053038600    -0.9203203261
| 16>  H       -0.7510724044     1.7951302695     0.8424285610
| 17>  H       -0.9920404474    -0.4518595629    -0.2136214711
| 18>  H        1.8085204259     0.0175370281    -1.3081100288
| 19>  H        0.9189256015    -1.5201067677    -1.3697995377
| 20>  H        0.6015730856    -0.2134133235    -3.2787530815
| 21>  H        1.6595863292    -0.1482848835     1.2703282053
| 22>  H        0.4403241369     0.0670145576     3.2694426846
| 23>  H       -1.1325000019    -0.1646968597     2.4807443262
| 24>  H        0.3192913311    -2.5439882351     3.6080349250
| 25>  H       -0.5801226193    -3.8349224005     1.6001742192
| 26>  H       -1.4758016514    -2.3408113446     1.0697098248
| 27>  H        1.6247914817    -2.7284566636     1.0460309043
| 28> *
| 29>
| 30>                          ****END OF INPUT****

CARTESIAN COORDINATES (ANGSTROEM)
---------------------------------
  C     -0.130752    1.505369   -0.011427
  C      0.011803   -0.019557   -0.104963
  C      0.798666   -0.425961   -1.350993
  O      0.092296    0.025670   -2.499366
  C      0.666849   -0.598879    1.151471
  C     -0.096771   -0.520444    2.521940
  C      0.070355   -2.036305    2.684190
  C     -0.584479   -2.751228    1.538329
  C      0.768476   -2.125733    1.326012
  H      0.850144    1.981173    0.113009
  H     -0.585471    1.905304   -0.920320
  H     -0.751072    1.795130    0.842429
  H     -0.992040   -0.451860   -0.213621
  H      1.808520    0.017537   -1.308110
  H      0.918926   -1.520107   -1.369800
  H      0.601573   -0.213413   -3.278753
  H      1.659586   -0.148285    1.270328
  H      0.440324    0.067015    3.269443
  H     -1.132500   -0.164697    2.480744
  H      0.319291   -2.543988    3.608035
  H     -0.580123   -3.834922    1.600174
  H     -1.475802   -2.340811    1.069710
  H      1.624791   -2.728457    1.046031

 Total Charge           Charge          ....    0
 Multiplicity           Mult            ....    1
 Number of Electrons    NEL             ....   70
 Basis Dimension        Dim             ....  363

ORBITAL ENERGIES
----------------

  NO   OCC          E(Eh)            E(eV)
   0   2.0000     -20.550984      -559.2207
   1   2.0000     -11.268446      -306.6300
   2   2.0000     -11.227783      -305.5235
   3   2.0000     -11.227499      -305.5158
   4   2.0000     -11.226785      -305.4963
   5   2.0000     -11.222905      -305.3908
   6   2.0000     -11.220995      -305.3388
   7   2.0000     -11.217607      -305.2466
   8   2.0000     -11.202246      -304.8286
   9   2.0000      -1.354871       -36.8679
  10   2.0000      -1.185776       -32.2666
  11   2.0000      -1.064207       -28.9585
  12   2.0000      -0.967573       -26.3290
  13   2.0000      -0.917547       -24.9677
  14   2.0000      -0.880442       -23.9580
  15   2.0000      -0.810262       -22.0483
  16   2.0000      -0.767749       -20.8915
  17   2.0000      -0.725332       -19.7373
  18   2.0000      -0.690702       -18.7950
  19   2.0000      -0.684047       -18.6139
  20   2.0000      -0.637153       -17.3378
  21   2.0000      -0.607106       -16.5202
  22   2.0000      -0.586318       -15.9545
  23   2.0000      -0.583591       -15.8803
  24   2.0000      -0.547494       -14.8981
  25   2.0000      -0.529996       -14.4219
  26   2.0000      -0.526862       -14.3367
  27   2.0000      -0.515599       -14.0302
  28   2.0000      -0.485341       -13.2068
  29   2.0000      -0.470785       -12.8107
  30   2.0000      -0.450924       -12.2703
  31   2.0000      -0.437239       -11.8979
  32   2.0000      -0.432592       -11.7714
  33   2.0000      -0.403234       -10.9726
  34   2.0000      -0.371063       -10.0971
  35   0.0000       0.136552         3.7158
  36   0.0000       0.151236         4.1153
  37   0.0000       0.156518         4.2591
  38   0.0000       0.167361         4.5541
  39   0.0000       0.171788         4.6746

MULLIKEN ATOMIC CHARGES
-----------------------
   0 C :   -0.400982
   1 C :   -0.019410
   2 C :   -0.092841
   3 O :   -0.468188
   4 C :   -0.087830
   5 C :   -0.241721
   6 C :   -0.106094
   7 C :   -0.275547
   8 C :   -0.134939
   9 H :    0.111359
  10 H :    0.156353
  11 H :    0.129185
  12 H :    0.069142
  13 H :    0.090013
  14 H :    0.108918
  15 H :    0.314148
  16 H :    0.096817
  17 H :    0.122786
  18 H :    0.112424
  19 H :    0.127132
  20 H :    0.128067
  21 H :    0.132758
  22 H :    0.128450
Sum of atomic charges:    0.0000000

LOEWDIN ATOMIC CHARGES
----------------------
   0 C :   -0.288984
   1 C :   -0.273661
   2 C :   -0.324997
   3 O :   -0.048505
   4 C :   -0.188872
   5 C :   -0.192613
   6 C :   -0.185685
   7 C :   -0.211474
   8 C :   -0.172745
   9 H :    0.122024
  10 H :    0.128767
  11 H :    0.122193
  12 H :    0.155182
  13 H :    0.116486
  14 H :    0.120490
  15 H :    0.171225
  16 H :    0.154161
  17 H :    0.133441
  18 H :    0.130143
  19 H :    0.132493
  20 H :    0.138842
  21 H :    0.129775
  22 H :    0.132313

  Mayer bond orders larger than 0.1
B(  0-C ,  1-C ) :   0.9166 B(  0-C ,  9-H ) :   0.9305 B(  0-C , 10-H ) :   0.9367
B(  0-C , 11-H ) :   0.9393 B(  1-C ,  2-C ) :   0.9302 B(  1-C ,  4-C ) :   0.9083
B(  1-C , 12-H ) :   0.9066 B(  2-C ,  3-O ) :   1.0230 B(  2-C , 13-H ) :   0.9219
B(  2-C , 14-H ) :   0.9327 B(  3-O , 15-H ) :   0.8489 B(  4-C ,  5-C ) :   0.9631
B(  4-C ,  8-C ) :   0.9266 B(  4-C , 16-H ) :   0.9157 B(  5-C ,  6-C ) :   0.9442
B(  5-C , 17-H ) :   0.9297 B(  5-C , 18-H ) :   0.9171 B(  6-C ,  7-C ) :   0.8874
B(  6-C ,  8-C ) :   0.8450 B(  6-C , 19-H ) :   0.9295 B(  7-C ,  8-C ) :   0.8780
B(  7-C , 20-H ) :   0.9315 B(  7-C , 21-H ) :   0.9238 B(  8-C , 22-H ) :   0.9243

MP2 TOTAL ENERGY:     -387.584656448 Eh
FINAL SINGLE POINT ENERGY      -387.584656447785

DIPOLE MOMENT
-------------
                                X             Y             Z
Electronic contribution:      0.34863      -2.18951      -1.26437
Nuclear contribution   :      0.21972       1.86837       1.26438
                        -----------------------------------------
Total Dipole Moment    :      0.56834      -0.32114       0.00001
                        -----------------------------------------
Magnitude (a.u.)       :      0.65280
Magnitude (Debye)      :      1.65928

                             ****ORCA TERMINATED NORMALLY****
TOTAL RUN TIME: 0 days 0 hours 19 minutes 25 seconds 849 msec
