                         Program Version 3.0.3 - RELEASE   -
|  1> ! RI-MP2 RIJK def2-TZVP def2-TZVP/C def2-TZVP/JK TIGHTSCF
|  2> % maxcore 2000
|  3> % mp2 density relaxed end
|  4> *xyz 0 1
|  5>  C        0.0467899405     1.3934210701    -0.3874272793
|  6>  N        1.4216014802     1.4045287277     0.2007840417
|  7>  C        1.3446977160     0.0718569423     0.6138636451
|  8>  N        1.9824221912    -0.6761841768     1.4081084099
|  9>  C        1.3514278032    -2.0107279092     1.4831508004
| 10>  C       -0.2046535543    -2.0011559185     1.5598043733
| 11>  C       -0.8564615094    -1.1294002433     0.5018270684
| 12>  O       -0.3262813532    -1.2292130447    -0.8384401053
| 13>  C        0.0265360036    -0.1079146222    -0.0580278043
| 14>  H       -0.6860329524     2.0006540978     0.1544870726
| 15>  H        0.0274690009     1.6443051348    -1.4511000353
| 16>  H        1.7768378322     2.1502862260     0.7838084554
| 17>  H        1.6582046202    -2.6116093594     0.6184290290
| 18>  H        1.7354791986    -2.5178669755     2.3724924883
| 19>  H       -0.5707698968    -3.0317156012     1.4899409216
| 20>  H       -0.5224216706    -1.6146215883     2.5373143398
| 21>  H       -1.9323696999    -0.9723216794     0.5468318589
| 22> *
| 23>
| 24>                          ****END OF INPUT****

CARTESIAN COORDINATES (ANGSTROEM)
---------------------------------
  C      0.046790    1.393421   -0.387427
  N      1.421601    1.404529    0.200784
  C      1.344698    0.071857    0.613864
  N      1.982422   -0.676184    1.408108
  C      1.351428   -2.010728    1.483151
  C     -0.204654   -2.001156    1.559804
  C     -0.856462   -1.129400    0.501827
  O     -0.326281   -1.229213   -0.838440
  C      0.026536   -0.107915   -0.058028
  H     -0.686033    2.000654    0.154487
  H      0.027469    1.644305   -1.451100
  H      1.776838    2.150286    0.783808
  H      1.658205   -2.611609    0.618429
  H      1.735479   -2.517867    2.372492
  H     -0.570770   -3.031716    1.489941
  H     -0.522422   -1.614622    2.537314
  H     -1.932370   -0.972322    0.546832

 Total Charge           Charge          ....    0
 Multiplicity           Mult            ....    1
 Number of Electrons    NEL             ....   66
 Basis Dimension        Dim             ....  327

ORBITAL ENERGIES
----------------

  NO   OCC          E(Eh)            E(eV)
   0   2.0000     -20.585539      -560.1610
   1   2.0000     -15.580964      -423.9796
   2   2.0000     -15.534139      -422.7054
   3   2.0000     -11.305104      -307.6275
   4   2.0000     -11.302969      -307.5694
   5   2.0000     -11.302149      -307.5471
   6   2.0000     -11.287676      -307.1533
   7   2.0000     -11.251724      -306.1750
   8   2.0000     -11.238791      -305.8230
   9   2.0000      -1.432489       -38.9800
  10   2.0000      -1.291384       -35.1404
  11   2.0000      -1.198150       -32.6033
  12   2.0000      -1.039813       -28.2947
  13   2.0000      -0.979490       -26.6533
  14   2.0000      -0.936470       -25.4826
  15   2.0000      -0.868142       -23.6233
  16   2.0000      -0.826237       -22.4831
  17   2.0000      -0.741849       -20.1867
  18   2.0000      -0.696162       -18.9435
  19   2.0000      -0.666264       -18.1300
  20   2.0000      -0.655276       -17.8310
  21   2.0000      -0.624826       -17.0024
  22   2.0000      -0.599339       -16.3089
  23   2.0000      -0.585078       -15.9208
  24   2.0000      -0.554654       -15.0929
  25   2.0000      -0.551925       -15.0187
  26   2.0000      -0.526620       -14.3301
  27   2.0000      -0.508656       -13.8412
  28   2.0000      -0.477551       -12.9948
  29   2.0000      -0.461782       -12.5657
  30   2.0000      -0.445461       -12.1216
  31   2.0000      -0.388948       -10.5838
  32   2.0000      -0.352980        -9.6051
  33   0.0000       0.132989         3.6188
  34   0.0000       0.145288         3.9535
  35   0.0000       0.151344         4.1183
  36   0.0000       0.171229         4.6594
  37   0.0000       0.180762         4.9188

MULLIKEN ATOMIC CHARGES
-----------------------
   0 C :   -0.071748
   1 N :   -0.320908
   2 C :    0.046272
   3 N :   -0.211295
   4 C :   -0.122257
   5 C :   -0.211517
   6 C :   -0.026272
   7 O :   -0.324471
   8 C :    0.121065
   9 H :    0.126973
  10 H :    0.125714
  11 H :    0.231301
  12 H :    0.123797
  13 H :    0.132977
  14 H :    0.128899
  15 H :    0.116309
  16 H :    0.135160
Sum of atomic charges:    0.0000000

LOEWDIN ATOMIC CHARGES
----------------------
   0 C :   -0.191635
   1 N :    0.095960
   2 C :   -0.316098
   3 N :    0.085420
   4 C :   -0.270988
   5 C :   -0.240874
   6 C :   -0.225304
   7 O :    0.202718
   8 C :   -0.269460
   9 H :    0.127264
  10 H :    0.130856
  11 H :    0.169766
  12 H :    0.135393
  13 H :    0.132087
  14 H :    0.146034
  15 H :    0.148084
  16 H :    0.140778

  Mayer bond orders larger than 0.1
B(  0-C ,  1-N ) :   0.9427 B(  0-C ,  8-C ) :   0.9106 B(  0-C ,  9-H ) :   0.9117
B(  0-C , 10-H ) :   0.9112 B(  1-N ,  2-C ) :   1.1480 B(  1-N , 11-H ) :   0.8614
B(  2-C ,  3-N ) :   1.8888 B(  2-C ,  8-C ) :   0.9016 B(  3-N ,  4-C ) :   0.8887
B(  4-C ,  5-C ) :   0.9265 B(  4-C , 12-H ) :   0.9269 B(  4-C , 13-H ) :   0.9358
B(  5-C ,  6-C ) :   0.9279 B(  5-C , 14-H ) :   0.9177 B(  5-C , 15-H ) :   0.9060
B(  6-C ,  7-O ) :   0.8935 B(  6-C ,  8-C ) :   0.9136 B(  6-C , 16-H ) :   0.9214
B(  7-O ,  8-C ) :   0.9198

MP2 TOTAL ENERGY:     -417.266792701 Eh
FINAL SINGLE POINT ENERGY      -417.266792700614

DIPOLE MOMENT
-------------
                                X             Y             Z
Electronic contribution:      1.46247       1.60314      -2.54137
Nuclear contribution   :     -2.50312      -1.02665       2.92242
                        -----------------------------------------
Total Dipole Moment    :     -1.04065       0.57649       0.38105
                        -----------------------------------------
Magnitude (a.u.)       :      1.24919
Magnitude (Debye)      :      3.17520

                             ****ORCA TERMINATED NORMALLY****
TOTAL RUN TIME: 0 days 0 hours 19 minutes 24 seconds 620 msec
