                         Program Version 3.0.3 - RELEASE   -
|  1> ! RI-MP2 RIJK def2-TZVP def2-TZVP/C def2-TZVP/JK TIGHTSCF
|  2> % maxcore 2000
|  3> % mp2 density relaxed end
|  4> *xyz 0 1
|  5>  C       -0.0886795526     1.4554704630     0.1082700012
|  6>  C        0.0573408797    -0.0495200709    -0.0093221321
|  7>  O        0.5803809557    -0.5314163232     1.2354434381
|  8>  C        0.7762641916    -1.8469469281     1.3163996460
|  9>  N        0.5189965850    -2.6997748318     0.3342460800
| 10>  N        0.8846274118    -3.8800679282     0.9182507882
| 11>  C        1.3260374728    -3.6784900327     2.1752462900
| 12>  C        1.7985159177    -4.7669606078     3.0772839752
| 13>  N        1.2699044354    -2.3878715366     2.4621314730
| 14>  H        0.8786517686     1.9245875838     0.3083935823
| 15>  H       -0.4868395309     1.8650789726    -0.8247881662
| 16>  H       -0.7717535767     1.7165657566     0.9213438722
| 17>  H       -0.9040715497    -0.5372416305    -0.2097360199
| 18>  H        0.7399527921    -0.3300209538    -0.8203168216
| 19>  H        0.8006818613    -4.7387806269     0.4008453065
| 20>  H        1.7377500256    -5.7433108408     2.5891990380
| 21>  H        2.8361274787    -4.5920541724     3.3758247903
| 22>  H        1.1948325141    -4.7962734322     3.9888739189
| 23> *
| 24>
| 25>                          ****END OF INPUT****

CARTESIAN COORDINATES (ANGSTROEM)
---------------------------------
  C     -0.088680    1.455470    0.108270
  C      0.057341   -0.049520   -0.009322
  O      0.580381   -0.531416    1.235443
  C      0.776264   -1.846947    1.316400
  N      0.518997   -2.699775    0.334246
  N      0.884627   -3.880068    0.918251
  C      1.326037   -3.678490    2.175246
  C      1.798516   -4.766961    3.077284
  N      1.269904   -2.387872    2.462131
  H      0.878652    1.924588    0.308394
  H     -0.486840    1.865079   -0.824788
  H     -0.771754    1.716566    0.921344
  H     -0.904072   -0.537242   -0.209736
  H      0.739953   -0.330021   -0.820317
  H      0.800682   -4.738781    0.400845
  H      1.737750   -5.743311    2.589199
  H      2.836127   -4.592054    3.375825
  H      1.194833   -4.796273    3.988874

 Total Charge           Charge          ....    0
 Multiplicity           Mult            ....    1
 Number of Electrons    NEL             ....   68
 Basis Dimension        Dim             ....  333

ORBITAL ENERGIES
----------------

  NO   OCC          E(Eh)            E(eV)
   0   2.0000     -20.583001      -560.0919
   1   2.0000     -15.637588      -425.5204
   2   2.0000     -15.571844      -423.7314
   3   2.0000     -15.542641      -422.9368
   4   2.0000     -11.339591      -308.5660
   5   2.0000     -11.324524      -308.1560
   6   2.0000     -11.278702      -306.9091
   7   2.0000     -11.252192      -306.1877
   8   2.0000     -11.215505      -305.1894
   9   2.0000      -1.437314       -39.1113
  10   2.0000      -1.381324       -37.5877
  11   2.0000      -1.191353       -32.4184
  12   2.0000      -1.115156       -30.3449
  13   2.0000      -1.023505       -27.8510
  14   2.0000      -0.995851       -27.0985
  15   2.0000      -0.871960       -23.7272
  16   2.0000      -0.825412       -22.4606
  17   2.0000      -0.793333       -21.5877
  18   2.0000      -0.735184       -20.0054
  19   2.0000      -0.677820       -18.4444
  20   2.0000      -0.672448       -18.2982
  21   2.0000      -0.635488       -17.2925
  22   2.0000      -0.613863       -16.7041
  23   2.0000      -0.580534       -15.7971
  24   2.0000      -0.580202       -15.7881
  25   2.0000      -0.557010       -15.1570
  26   2.0000      -0.541338       -14.7305
  27   2.0000      -0.534846       -14.5539
  28   2.0000      -0.507819       -13.8185
  29   2.0000      -0.490358       -13.3433
  30   2.0000      -0.476219       -12.9586
  31   2.0000      -0.438828       -11.9411
  32   2.0000      -0.400022       -10.8852
  33   2.0000      -0.345516        -9.4020
  34   0.0000       0.121807         3.3145
  35   0.0000       0.148310         4.0357
  36   0.0000       0.160305         4.3621
  37   0.0000       0.160959         4.3799
  38   0.0000       0.192020         5.2251

MULLIKEN ATOMIC CHARGES
-----------------------
   0 C :   -0.361076
   1 C :   -0.054307
   2 O :   -0.248757
   3 C :    0.284099
   4 N :   -0.268162
   5 N :   -0.164515
   6 C :    0.211415
   7 C :   -0.425780
   8 N :   -0.299021
   9 H :    0.133436
  10 H :    0.126490
  11 H :    0.133437
  12 H :    0.113343
  13 H :    0.113344
  14 H :    0.256654
  15 H :    0.128296
  16 H :    0.160506
  17 H :    0.160596
Sum of atomic charges:   -0.0000000

LOEWDIN ATOMIC CHARGES
----------------------
   0 C :   -0.315037
   1 C :   -0.313338
   2 O :    0.261175
   3 C :   -0.490174
   4 N :    0.003048
   5 N :    0.134067
   6 C :   -0.356841
   7 C :   -0.269075
   8 N :    0.117769
   9 H :    0.125529
  10 H :    0.126387
  11 H :    0.125529
  12 H :    0.125109
  13 H :    0.125109
  14 H :    0.189135
  15 H :    0.129394
  16 H :    0.141092
  17 H :    0.141120

  Mayer bond orders larger than 0.1
B(  0-C ,  1-C ) :   0.9417 B(  0-C ,  9-H ) :   0.9348 B(  0-C , 10-H ) :   0.9347
B(  0-C , 11-H ) :   0.9348 B(  1-C ,  2-O ) :   0.8424 B(  1-C , 12-H ) :   0.9268
B(  1-C , 13-H ) :   0.9268 B(  2-O ,  3-C ) :   1.1408 B(  3-C ,  4-N ) :   1.5002
B(  3-C ,  8-N ) :   1.3335 B(  4-N ,  5-N ) :   0.9997 B(  5-N ,  6-C ) :   1.2440
B(  5-N , 14-H ) :   0.8647 B(  6-C ,  7-C ) :   0.8705 B(  6-C ,  8-N ) :   1.4819
B(  7-C , 15-H ) :   0.9512 B(  7-C , 16-H ) :   0.9313 B(  7-C , 17-H ) :   0.9315

MP2 TOTAL ENERGY:     -434.578205475 Eh
FINAL SINGLE POINT ENERGY      -434.578205474566

DIPOLE MOMENT
-------------
                                X             Y             Z
Electronic contribution:      0.89295      -3.86435       1.09448
Nuclear contribution   :     -0.94154       2.72990      -1.61063
                        -----------------------------------------
Total Dipole Moment    :     -0.04859      -1.13445      -0.51615
                        -----------------------------------------
Magnitude (a.u.)       :      1.24729
Magnitude (Debye)      :      3.17037

                             ****ORCA TERMINATED NORMALLY****
TOTAL RUN TIME: 0 days 0 hours 15 minutes 46 seconds 392 msec
