                         Program Version 3.0.3 - RELEASE   -
|  1> ! RI-MP2 RIJK def2-TZVP def2-TZVP/C def2-TZVP/JK TIGHTSCF
|  2> % maxcore 2000
|  3> % mp2 density relaxed end
|  4> *xyz 0 1
|  5>  O        0.3630524814     0.0972938973     0.1859621840
|  6>  C        0.1593689250     1.2414542353    -0.0621795042
|  7>  O       -0.9844866182     1.8053933736    -0.5686722394
|  8>  C       -0.4104424669     3.1518984211    -0.5075932845
|  9>  C        0.9101796034     2.5760695778     0.0441436742
| 10>  C        1.3699467632     2.9654065298     1.4388843819
| 11>  C        2.6331700849     2.2228431954     1.9351606250
| 12>  O        3.4312472314     3.4206229497     1.8214097630
| 13>  C        2.2706184793     4.2203748995     1.5295061765
| 14>  H       -0.3735584098     3.6016767468    -1.5012913194
| 15>  H       -0.9817658642     3.7814244944     0.1787747510
| 16>  H        1.7435681484     2.6300671437    -0.6633032296
| 17>  H        0.5273254083     2.9511646316     2.1349520961
| 18>  H        2.5752152964     1.8638655691     2.9699421252
| 19>  H        3.0013541313     1.4125778860     1.2968012600
| 20>  H        2.3904668236     4.8038420670     0.6077745364
| 21>  H        2.0222930125     4.9037449518     2.3522352439
| 22> *
| 23>
| 24>                          ****END OF INPUT****

CARTESIAN COORDINATES (ANGSTROEM)
---------------------------------
  O      0.363052    0.097294    0.185962
  C      0.159369    1.241454   -0.062180
  O     -0.984487    1.805393   -0.568672
  C     -0.410442    3.151898   -0.507593
  C      0.910180    2.576070    0.044144
  C      1.369947    2.965407    1.438884
  C      2.633170    2.222843    1.935161
  O      3.431247    3.420623    1.821410
  C      2.270618    4.220375    1.529506
  H     -0.373558    3.601677   -1.501291
  H     -0.981766    3.781424    0.178775
  H      1.743568    2.630067   -0.663303
  H      0.527325    2.951165    2.134952
  H      2.575215    1.863866    2.969942
  H      3.001354    1.412578    1.296801
  H      2.390467    4.803842    0.607775
  H      2.022293    4.903745    2.352235

 Total Charge           Charge          ....    0
 Multiplicity           Mult            ....    1
 Number of Electrons    NEL             ....   68
 Basis Dimension        Dim             ....  327

ORBITAL ENERGIES
----------------

  NO   OCC          E(Eh)            E(eV)
   0   2.0000     -20.610150      -560.8307
   1   2.0000     -20.561711      -559.5126
   2   2.0000     -20.560696      -559.4850
   3   2.0000     -11.390520      -309.9518
   4   2.0000     -11.318211      -307.9842
   5   2.0000     -11.297734      -307.4270
   6   2.0000     -11.292063      -307.2727
   7   2.0000     -11.277349      -306.8723
   8   2.0000     -11.264497      -306.5226
   9   2.0000      -1.471825       -40.0504
  10   2.0000      -1.392840       -37.9011
  11   2.0000      -1.387789       -37.7637
  12   2.0000      -1.105451       -30.0809
  13   2.0000      -0.995500       -27.0889
  14   2.0000      -0.950941       -25.8764
  15   2.0000      -0.921612       -25.0783
  16   2.0000      -0.796954       -21.6862
  17   2.0000      -0.763471       -20.7751
  18   2.0000      -0.714295       -19.4370
  19   2.0000      -0.707160       -19.2428
  20   2.0000      -0.689405       -18.7597
  21   2.0000      -0.684698       -18.6316
  22   2.0000      -0.648740       -17.6531
  23   2.0000      -0.615257       -16.7420
  24   2.0000      -0.584919       -15.9165
  25   2.0000      -0.577232       -15.7073
  26   2.0000      -0.564962       -15.3734
  27   2.0000      -0.543264       -14.7830
  28   2.0000      -0.536855       -14.6086
  29   2.0000      -0.494744       -13.4627
  30   2.0000      -0.470727       -12.8091
  31   2.0000      -0.466768       -12.7014
  32   2.0000      -0.442073       -12.0294
  33   2.0000      -0.426413       -11.6033
  34   0.0000       0.123569         3.3625
  35   0.0000       0.137583         3.7438
  36   0.0000       0.147612         4.0167
  37   0.0000       0.159176         4.3314
  38   0.0000       0.167184         4.5493

MULLIKEN ATOMIC CHARGES
-----------------------
   0 O :   -0.263455
   1 C :    0.265473
   2 O :   -0.231772
   3 C :   -0.026980
   4 C :   -0.205485
   5 C :   -0.121489
   6 C :   -0.032137
   7 O :   -0.326999
   8 C :   -0.011372
   9 H :    0.125322
  10 H :    0.121869
  11 H :    0.154573
  12 H :    0.130162
  13 H :    0.103716
  14 H :    0.119890
  15 H :    0.098912
  16 H :    0.099774
Sum of atomic charges:    0.0000000

LOEWDIN ATOMIC CHARGES
----------------------
   0 O :    0.158561
   1 C :   -0.441822
   2 O :    0.233066
   3 C :   -0.210803
   4 C :   -0.196399
   5 C :   -0.218444
   6 C :   -0.240227
   7 O :    0.112678
   8 C :   -0.251831
   9 H :    0.124824
  10 H :    0.126306
  11 H :    0.169016
  12 H :    0.151533
  13 H :    0.121001
  14 H :    0.125325
  15 H :    0.118430
  16 H :    0.118785

  Mayer bond orders larger than 0.1
B(  0-O ,  1-C ) :   2.0364 B(  1-C ,  2-O ) :   1.1022 B(  1-C ,  4-C ) :   0.9009
B(  2-O ,  3-C ) :   0.8918 B(  3-C ,  4-C ) :   0.9384 B(  3-C ,  9-H ) :   0.9175
B(  3-C , 10-H ) :   0.9150 B(  4-C ,  5-C ) :   0.9072 B(  4-C , 11-H ) :   0.8960
B(  5-C ,  6-C ) :   0.9425 B(  5-C ,  8-C ) :   0.9425 B(  5-C , 12-H ) :   0.9113
B(  6-C ,  7-O ) :   0.9438 B(  6-C , 13-H ) :   0.9146 B(  6-C , 14-H ) :   0.9118
B(  7-O ,  8-C ) :   0.9603 B(  8-C , 15-H ) :   0.9091 B(  8-C , 16-H ) :   0.9130

MP2 TOTAL ENERGY:     -458.219080644 Eh
FINAL SINGLE POINT ENERGY      -458.219080643856

DIPOLE MOMENT
-------------
                                X             Y             Z
Electronic contribution:     -2.31083      -4.89743      -2.09695
Nuclear contribution   :      2.06904       6.27185       2.04834
                        -----------------------------------------
Total Dipole Moment    :     -0.24179       1.37442      -0.04861
                        -----------------------------------------
Magnitude (a.u.)       :      1.39637
Magnitude (Debye)      :      3.54929

                             ****ORCA TERMINATED NORMALLY****
TOTAL RUN TIME: 0 days 0 hours 15 minutes 51 seconds 404 msec
