                         Program Version 3.0.3 - RELEASE   -
|  1> ! RI-MP2 RIJK def2-TZVP def2-TZVP/C def2-TZVP/JK TIGHTSCF
|  2> % maxcore 2000
|  3> % mp2 density relaxed end
|  4> *xyz 0 1
|  5>  C        0.0993207152     1.5929986585     0.2092262137
|  6>  C        0.0985122632     0.1379212971     0.1790183288
|  7>  C        0.1015993328    -1.0671675085     0.1569423693
|  8>  C        0.1591246084    -2.5052986535     0.0909673571
|  9>  C        1.3319000498    -3.0932594158    -0.6884313090
| 10>  O        1.1465561162    -2.9569053894    -2.0810291825
| 11>  C       -0.4650144478    -3.3134299306     1.1918417715
| 12>  N       -1.0766924167    -3.2957939626    -0.1280676267
| 13>  C       -2.3463979895    -2.5895235573    -0.2561105402
| 14>  H        1.0961393374     1.9889344506    -0.0140138859
| 15>  H       -0.5933694553     2.0076238785    -0.5315378605
| 16>  H       -0.1966955099     1.9747101612     1.1927042892
| 17>  H        2.2568906394    -2.5655276059    -0.4388260357
| 18>  H        1.4476245651    -4.1489341411    -0.3995845618
| 19>  H        0.3008893755    -3.3802393438    -2.2726815726
| 20>  H       -0.0077529091    -4.2508862125     1.4994959831
| 21>  H       -0.9553566611    -2.7563265518     1.9879487770
| 22>  H       -2.4251996217    -1.7016385941     0.3868592209
| 23>  H       -2.4792953626    -2.2708157421    -1.2943285694
| 24>  H       -3.1545784493    -3.2825877967    -0.0026621662
| 25> *
| 26>
| 27>                          ****END OF INPUT****

CARTESIAN COORDINATES (ANGSTROEM)
---------------------------------
  C      0.099321    1.592999    0.209226
  C      0.098512    0.137921    0.179018
  C      0.101599   -1.067168    0.156942
  C      0.159125   -2.505299    0.090967
  C      1.331900   -3.093259   -0.688431
  O      1.146556   -2.956905   -2.081029
  C     -0.465014   -3.313430    1.191842
  N     -1.076692   -3.295794   -0.128068
  C     -2.346398   -2.589524   -0.256111
  H      1.096139    1.988934   -0.014014
  H     -0.593369    2.007624   -0.531538
  H     -0.196696    1.974710    1.192704
  H      2.256891   -2.565528   -0.438826
  H      1.447625   -4.148934   -0.399585
  H      0.300889   -3.380239   -2.272682
  H     -0.007753   -4.250886    1.499496
  H     -0.955357   -2.756327    1.987949
  H     -2.425200   -1.701639    0.386859
  H     -2.479295   -2.270816   -1.294329
  H     -3.154578   -3.282588   -0.002662

 Total Charge           Charge          ....    0
 Multiplicity           Mult            ....    1
 Number of Electrons    NEL             ....   68
 Basis Dimension        Dim             ....  345

ORBITAL ENERGIES
----------------

  NO   OCC          E(Eh)            E(eV)
   0   2.0000     -20.548012      -559.1398
   1   2.0000     -15.572169      -423.7403
   2   2.0000     -11.286241      -307.1142
   3   2.0000     -11.276297      -306.8436
   4   2.0000     -11.266190      -306.5686
   5   2.0000     -11.249221      -306.1069
   6   2.0000     -11.248916      -306.0986
   7   2.0000     -11.229678      -305.5751
   8   2.0000     -11.220809      -305.3337
   9   2.0000      -1.357747       -36.9462
  10   2.0000      -1.283604       -34.9286
  11   2.0000      -1.064482       -28.9660
  12   2.0000      -1.020850       -27.7787
  13   2.0000      -0.966437       -26.2981
  14   2.0000      -0.931817       -25.3560
  15   2.0000      -0.841022       -22.8854
  16   2.0000      -0.825887       -22.4735
  17   2.0000      -0.719270       -19.5723
  18   2.0000      -0.667558       -18.1652
  19   2.0000      -0.644753       -17.5446
  20   2.0000      -0.633027       -17.2255
  21   2.0000      -0.611723       -16.6458
  22   2.0000      -0.596729       -16.2378
  23   2.0000      -0.589318       -16.0362
  24   2.0000      -0.587520       -15.9872
  25   2.0000      -0.580467       -15.7953
  26   2.0000      -0.557159       -15.1611
  27   2.0000      -0.512472       -13.9451
  28   2.0000      -0.482668       -13.1341
  29   2.0000      -0.460747       -12.5376
  30   2.0000      -0.453505       -12.3405
  31   2.0000      -0.413671       -11.2566
  32   2.0000      -0.372541       -10.1373
  33   2.0000      -0.346771        -9.4361
  34   0.0000       0.131790         3.5862
  35   0.0000       0.156233         4.2513
  36   0.0000       0.162198         4.4136
  37   0.0000       0.168466         4.5842
  38   0.0000       0.183401         4.9906

MULLIKEN ATOMIC CHARGES
-----------------------
   0 C :   -0.486688
   1 C :    0.103048
   2 C :    0.090241
   3 C :   -0.221434
   4 C :   -0.005330
   5 O :   -0.470977
   6 C :   -0.158248
   7 N :   -0.233749
   8 C :   -0.298622
   9 H :    0.166498
  10 H :    0.164131
  11 H :    0.161999
  12 H :    0.112384
  13 H :    0.098448
  14 H :    0.322184
  15 H :    0.128471
  16 H :    0.124607
  17 H :    0.124325
  18 H :    0.136726
  19 H :    0.141987
Sum of atomic charges:   -0.0000000

LOEWDIN ATOMIC CHARGES
----------------------
   0 C :   -0.293712
   1 C :   -0.086983
   2 C :   -0.051866
   3 C :   -0.286796
   4 C :   -0.293415
   5 O :   -0.035816
   6 C :   -0.207477
   7 N :    0.106168
   8 C :   -0.322628
   9 H :    0.143375
  10 H :    0.141656
  11 H :    0.140524
  12 H :    0.134842
  13 H :    0.123468
  14 H :    0.178391
  15 H :    0.127131
  16 H :    0.130978
  17 H :    0.113158
  18 H :    0.119653
  19 H :    0.119348

  Mayer bond orders larger than 0.1
B(  0-C ,  1-C ) :   0.8375 B(  0-C ,  9-H ) :   0.9497 B(  0-C , 10-H ) :   0.9452
B(  0-C , 11-H ) :   0.9498 B(  1-C ,  2-C ) :   2.6328 B(  1-C ,  3-C ) :  -0.1898
B(  2-C ,  3-C ) :   1.1638 B(  3-C ,  4-C ) :   0.9641 B(  3-C ,  5-O ) :   0.1330
B(  3-C ,  6-C ) :   0.9316 B(  3-C ,  7-N ) :   0.8254 B(  4-C ,  5-O ) :   0.9391
B(  4-C , 12-H ) :   0.9283 B(  4-C , 13-H ) :   0.9035 B(  5-O , 14-H ) :   0.8341
B(  6-C ,  7-N ) :   0.9225 B(  6-C , 15-H ) :   0.9022 B(  6-C , 16-H ) :   0.9190
B(  7-N ,  8-C ) :   0.8758 B(  8-C , 17-H ) :   0.9286 B(  8-C , 18-H ) :   0.9385
B(  8-C , 19-H ) :   0.9349

MP2 TOTAL ENERGY:     -402.392410776 Eh
FINAL SINGLE POINT ENERGY      -402.392410776374

DIPOLE MOMENT
-------------
                                X             Y             Z
Electronic contribution:      2.72839      -2.33986      -1.36733
Nuclear contribution   :     -3.27269       2.69506       2.08746
                        -----------------------------------------
Total Dipole Moment    :     -0.54430       0.35520       0.72013
                        -----------------------------------------
Magnitude (a.u.)       :      0.97006
Magnitude (Debye)      :      2.46571

                             ****ORCA TERMINATED NORMALLY****
TOTAL RUN TIME: 0 days 0 hours 17 minutes 42 seconds 503 msec
