                         Program Version 3.0.3 - RELEASE   -
|  1> ! RI-MP2 RIJK def2-TZVP def2-TZVP/C def2-TZVP/JK TIGHTSCF
|  2> % maxcore 2000
|  3> % mp2 density relaxed end
|  4> *xyz 0 1
|  5>  N       -0.4808625671     1.4194475193    -0.2238931854
|  6>  C       -0.0410201002     0.0347664091    -0.0243865955
|  7>  C       -1.2724945971    -0.7888808599     0.3960267679
|  8>  O       -1.9144640283    -0.1720185115     1.4833379267
|  9>  C        0.6824144768    -0.5188939287    -1.2551425585
| 10>  C        0.4360267263    -1.8479222932    -1.8548670291
| 11>  O       -0.1149931616    -0.6685745469    -2.4376727318
| 12>  C        1.9801943784     0.0989675970    -1.4914440927
| 13>  N        3.0061556925     0.6136656938    -1.6271782076
| 14>  H        0.3001743589     2.0661880868    -0.1982667989
| 15>  H       -0.9278102310     1.5141122994    -1.1324184704
| 16>  H        0.6641443934     0.0328897487     0.8137735584
| 17>  H       -1.9449103937    -0.9000843125    -0.4716585637
| 18>  H       -0.9683293991    -1.7898748008     0.7186811892
| 19>  H       -1.8831041654     0.7758498787     1.2823919194
| 20>  H        1.2292440731    -2.3247541014    -2.4265625693
| 21>  H       -0.2794156960    -2.5175886378    -1.3852544787
| 22> *
| 23>
| 24>                          ****END OF INPUT****

CARTESIAN COORDINATES (ANGSTROEM)
---------------------------------
  N     -0.480863    1.419448   -0.223893
  C     -0.041020    0.034766   -0.024387
  C     -1.272495   -0.788881    0.396027
  O     -1.914464   -0.172019    1.483338
  C      0.682414   -0.518894   -1.255143
  C      0.436027   -1.847922   -1.854867
  O     -0.114993   -0.668575   -2.437673
  C      1.980194    0.098968   -1.491444
  N      3.006156    0.613666   -1.627178
  H      0.300174    2.066188   -0.198267
  H     -0.927810    1.514112   -1.132418
  H      0.664144    0.032890    0.813774
  H     -1.944910   -0.900084   -0.471659
  H     -0.968329   -1.789875    0.718681
  H     -1.883104    0.775850    1.282392
  H      1.229244   -2.324754   -2.426563
  H     -0.279416   -2.517589   -1.385254

 Total Charge           Charge          ....    0
 Multiplicity           Mult            ....    1
 Number of Electrons    NEL             ....   68
 Basis Dimension        Dim             ....  327

ORBITAL ENERGIES
----------------

  NO   OCC          E(Eh)            E(eV)
   0   2.0000     -20.618350      -561.0538
   1   2.0000     -20.556528      -559.3716
   2   2.0000     -15.595594      -424.3777
   3   2.0000     -15.574885      -423.8142
   4   2.0000     -11.360626      -309.1384
   5   2.0000     -11.332152      -308.3635
   6   2.0000     -11.299426      -307.4730
   7   2.0000     -11.293326      -307.3070
   8   2.0000     -11.291965      -307.2700
   9   2.0000      -1.465049       -39.8660
  10   2.0000      -1.369790       -37.2739
  11   2.0000      -1.240626       -33.7592
  12   2.0000      -1.217119       -33.1195
  13   2.0000      -1.044689       -28.4274
  14   2.0000      -0.970777       -26.4162
  15   2.0000      -0.939732       -25.5714
  16   2.0000      -0.843476       -22.9522
  17   2.0000      -0.771135       -20.9837
  18   2.0000      -0.726403       -19.7664
  19   2.0000      -0.718862       -19.5612
  20   2.0000      -0.664655       -18.0862
  21   2.0000      -0.644315       -17.5327
  22   2.0000      -0.633212       -17.2306
  23   2.0000      -0.615579       -16.7507
  24   2.0000      -0.589405       -16.0385
  25   2.0000      -0.576977       -15.7003
  26   2.0000      -0.553112       -15.0509
  27   2.0000      -0.543872       -14.7995
  28   2.0000      -0.511698       -13.9240
  29   2.0000      -0.498642       -13.5687
  30   2.0000      -0.487112       -13.2550
  31   2.0000      -0.466008       -12.6807
  32   2.0000      -0.451065       -12.2741
  33   2.0000      -0.429268       -11.6810
  34   0.0000       0.123662         3.3650
  35   0.0000       0.129023         3.5109
  36   0.0000       0.143709         3.9105
  37   0.0000       0.156103         4.2478
  38   0.0000       0.160144         4.3578

MULLIKEN ATOMIC CHARGES
-----------------------
   0 N :   -0.598808
   1 C :    0.029863
   2 C :   -0.029294
   3 O :   -0.474449
   4 C :    0.245570
   5 C :   -0.067403
   6 O :   -0.316957
   7 C :   -0.239117
   8 N :   -0.033036
   9 H :    0.254897
  10 H :    0.251473
  11 H :    0.132202
  12 H :    0.110936
  13 H :    0.110521
  14 H :    0.338806
  15 H :    0.145636
  16 H :    0.139159
Sum of atomic charges:   -0.0000000

LOEWDIN ATOMIC CHARGES
----------------------
   0 N :   -0.128344
   1 C :   -0.296265
   2 C :   -0.335917
   3 O :   -0.038719
   4 C :   -0.307670
   5 C :   -0.206713
   6 O :    0.192710
   7 C :   -0.147676
   8 N :    0.084624
   9 H :    0.163358
  10 H :    0.165839
  11 H :    0.163991
  12 H :    0.122790
  13 H :    0.128752
  14 H :    0.176933
  15 H :    0.132742
  16 H :    0.129565

  Mayer bond orders larger than 0.1
B(  0-N ,  1-C ) :   0.8826 B(  0-N ,  9-H ) :   0.8911 B(  0-N , 10-H ) :   0.8813
B(  1-C ,  2-C ) :   0.9293 B(  1-C ,  4-C ) :   0.9113 B(  1-C , 11-H ) :   0.9253
B(  2-C ,  3-O ) :   0.9703 B(  2-C , 12-H ) :   0.9048 B(  2-C , 13-H ) :   0.9335
B(  3-O , 14-H ) :   0.8101 B(  4-C ,  5-C ) :   0.9534 B(  4-C ,  6-O ) :   0.8050
B(  4-C ,  7-C ) :   0.8853 B(  5-C ,  6-O ) :   0.9020 B(  5-C , 15-H ) :   0.9102
B(  5-C , 16-H ) :   0.9018 B(  7-C ,  8-N ) :   2.8572

MP2 TOTAL ENERGY:     -454.391451771 Eh
FINAL SINGLE POINT ENERGY      -454.391451771164

DIPOLE MOMENT
-------------
                                X             Y             Z
Electronic contribution:      4.51138       0.91836      -3.15431
Nuclear contribution   :     -4.79805      -1.51106       2.93380
                        -----------------------------------------
Total Dipole Moment    :     -0.28667      -0.59270      -0.22050
                        -----------------------------------------
Magnitude (a.u.)       :      0.69433
Magnitude (Debye)      :      1.76485

                             ****ORCA TERMINATED NORMALLY****
TOTAL RUN TIME: 0 days 0 hours 15 minutes 33 seconds 504 msec
