                         Program Version 3.0.3 - RELEASE   -
|  1> ! RI-MP2 RIJK def2-TZVP def2-TZVP/C def2-TZVP/JK TIGHTSCF
|  2> % maxcore 2000
|  3> % mp2 density relaxed end
|  4> *xyz 0 1
|  5>  C       -0.0531570203     1.4510921883    -0.2592107629
|  6>  N       -0.1589445236     0.0072354873    -0.3558029426
|  7>  C       -1.2124599115    -0.6783391742     0.1478999581
|  8>  O       -2.1591780830    -0.1654064288     0.7214060902
|  9>  C       -1.1673525211    -2.1867950794    -0.0382590440
| 10>  C       -1.8193432468    -3.0045303058     1.0817256366
| 11>  C       -2.5296356493    -2.8657814739    -0.2150612284
| 12>  C       -0.0347819074    -2.7471980217    -0.7186157332
| 13>  N        0.9001500086    -3.1466252208    -1.2734319122
| 14>  H        0.8411785486     1.7432951569     0.3011669691
| 15>  H       -0.0108734311     1.9097276440    -1.2527485890
| 16>  H       -0.9381639714     1.8125175820     0.2647493083
| 17>  H        0.5780507291    -0.5054120262    -0.8144552206
| 18>  H       -1.3521531560    -3.9503475571     1.3270610972
| 19>  H       -2.1722789286    -2.4080477216     1.9138790352
| 20>  H       -3.3629898731    -2.1756111963    -0.2598859892
| 21>  H       -2.5654488031    -3.7133441027    -0.8884036527
| 22> *
| 23>
| 24>                          ****END OF INPUT****

CARTESIAN COORDINATES (ANGSTROEM)
---------------------------------
  C     -0.053157    1.451092   -0.259211
  N     -0.158945    0.007235   -0.355803
  C     -1.212460   -0.678339    0.147900
  O     -2.159178   -0.165406    0.721406
  C     -1.167353   -2.186795   -0.038259
  C     -1.819343   -3.004530    1.081726
  C     -2.529636   -2.865781   -0.215061
  C     -0.034782   -2.747198   -0.718616
  N      0.900150   -3.146625   -1.273432
  H      0.841179    1.743295    0.301167
  H     -0.010873    1.909728   -1.252749
  H     -0.938164    1.812518    0.264749
  H      0.578051   -0.505412   -0.814455
  H     -1.352153   -3.950348    1.327061
  H     -2.172279   -2.408048    1.913879
  H     -3.362990   -2.175611   -0.259886
  H     -2.565449   -3.713344   -0.888404

 Total Charge           Charge          ....    0
 Multiplicity           Mult            ....    1
 Number of Electrons    NEL             ....   66
 Basis Dimension        Dim             ....  327

ORBITAL ENERGIES
----------------

  NO   OCC          E(Eh)            E(eV)
   0   2.0000     -20.528467      -558.6080
   1   2.0000     -15.599280      -424.4780
   2   2.0000     -15.584420      -424.0736
   3   2.0000     -11.372650      -309.4655
   4   2.0000     -11.303027      -307.5710
   5   2.0000     -11.290134      -307.2202
   6   2.0000     -11.270576      -306.6880
   7   2.0000     -11.269825      -306.6675
   8   2.0000     -11.267909      -306.6154
   9   2.0000      -1.398783       -38.0628
  10   2.0000      -1.251202       -34.0469
  11   2.0000      -1.234285       -33.5866
  12   2.0000      -1.185104       -32.2483
  13   2.0000      -0.993017       -27.0214
  14   2.0000      -0.917759       -24.9735
  15   2.0000      -0.860556       -23.4169
  16   2.0000      -0.816232       -22.2108
  17   2.0000      -0.779490       -21.2110
  18   2.0000      -0.697699       -18.9854
  19   2.0000      -0.653959       -17.7951
  20   2.0000      -0.647637       -17.6231
  21   2.0000      -0.637808       -17.3556
  22   2.0000      -0.597875       -16.2690
  23   2.0000      -0.572166       -15.5694
  24   2.0000      -0.568314       -15.4646
  25   2.0000      -0.557991       -15.1837
  26   2.0000      -0.554228       -15.0813
  27   2.0000      -0.515824       -14.0363
  28   2.0000      -0.509055       -13.8521
  29   2.0000      -0.478002       -13.0071
  30   2.0000      -0.433189       -11.7877
  31   2.0000      -0.422917       -11.5082
  32   2.0000      -0.406725       -11.0675
  33   0.0000       0.131640         3.5821
  34   0.0000       0.145419         3.9570
  35   0.0000       0.150305         4.0900
  36   0.0000       0.159143         4.3305
  37   0.0000       0.177882         4.8404

MULLIKEN ATOMIC CHARGES
-----------------------
   0 C :   -0.294166
   1 N :   -0.304294
   2 C :    0.221334
   3 O :   -0.394419
   4 C :    0.221124
   5 C :   -0.267012
   6 C :   -0.267003
   7 C :   -0.239914
   8 N :   -0.053757
   9 H :    0.142264
  10 H :    0.142262
  11 H :    0.178957
  12 H :    0.260113
  13 H :    0.157618
  14 H :    0.169642
  15 H :    0.169642
  16 H :    0.157609
Sum of atomic charges:   -0.0000000

LOEWDIN ATOMIC CHARGES
----------------------
   0 C :   -0.303096
   1 N :    0.105142
   2 C :   -0.418738
   3 O :    0.082350
   4 C :   -0.198804
   5 C :   -0.158634
   6 C :   -0.158638
   7 C :   -0.168557
   8 N :    0.061896
   9 H :    0.118419
  10 H :    0.118416
  11 H :    0.135477
  12 H :    0.196315
  13 H :    0.143404
  14 H :    0.150822
  15 H :    0.150815
  16 H :    0.143412

  Mayer bond orders larger than 0.1
B(  0-C ,  1-N ) :   0.8451 B(  0-C ,  9-H ) :   0.9345 B(  0-C , 10-H ) :   0.9345
B(  0-C , 11-H ) :   0.9263 B(  1-N ,  2-C ) :   1.2384 B(  1-N , 12-H ) :   0.8571
B(  2-C ,  3-O ) :   1.8683 B(  2-C ,  4-C ) :   0.9105 B(  4-C ,  5-C ) :   0.7944
B(  4-C ,  6-C ) :   0.7944 B(  4-C ,  7-C ) :   0.8939 B(  5-C ,  6-C ) :   0.9527
B(  5-C , 13-H ) :   0.9235 B(  5-C , 14-H ) :   0.9151 B(  6-C , 15-H ) :   0.9151
B(  6-C , 16-H ) :   0.9235 B(  7-C ,  8-N ) :   2.8637

MP2 TOTAL ENERGY:     -417.337787102 Eh
FINAL SINGLE POINT ENERGY      -417.337787101640

DIPOLE MOMENT
-------------
                                X             Y             Z
Electronic contribution:      1.36024      -3.41162      -1.11024
Nuclear contribution   :     -1.47300       3.72694       1.20569
                        -----------------------------------------
Total Dipole Moment    :     -0.11276       0.31533       0.09545
                        -----------------------------------------
Magnitude (a.u.)       :      0.34822
Magnitude (Debye)      :      0.88510

                             ****ORCA TERMINATED NORMALLY****
TOTAL RUN TIME: 0 days 0 hours 17 minutes 12 seconds 616 msec
