                         Program Version 3.0.3 - RELEASE   -
|  1> ! RI-MP2 RIJK def2-TZVP def2-TZVP/C def2-TZVP/JK TIGHTSCF
|  2> % maxcore 2000
|  3> % mp2 density relaxed end
|  4> *xyz 0 1
|  5>  C        0.0379010113     1.4682810331    -0.4859702645
|  6>  C       -0.0641631618    -0.0139871705    -0.1845590342
|  7>  C       -0.2959789482    -0.4804271723     1.2297820237
|  8>  C       -1.3876191983    -0.6267105501     0.1979043117
|  9>  C        1.3992718525     2.0389279970    -0.1609953821
| 10>  C        1.5850542908     3.4252150492     0.2833292607
| 11>  O        1.6582470566     2.3425240583     1.2132207726
| 12>  H       -0.1785273618     1.6506634408    -1.5478812868
| 13>  H       -0.7151075465     2.0173571708     0.0921040579
| 14>  H        0.5898398098    -0.6378195976    -0.7896267904
| 15>  H        0.2145019556    -1.3746010090     1.5696384366
| 16>  H       -0.4096941457     0.2817973395     1.9924012664
| 17>  H       -2.2480546722     0.0310565244     0.2702696722
| 18>  H       -1.6218127152    -1.6198894174    -0.1693097716
| 19>  H        2.2396158846     1.5569345189    -0.6657184231
| 20>  H        2.5246821137     3.9403765638     0.0877319759
| 21>  H        0.7160725949     4.0741780911     0.3895183850
| 22> *
| 23>
| 24>                          ****END OF INPUT****

CARTESIAN COORDINATES (ANGSTROEM)
---------------------------------
  C      0.037901    1.468281   -0.485970
  C     -0.064163   -0.013987   -0.184559
  C     -0.295979   -0.480427    1.229782
  C     -1.387619   -0.626711    0.197904
  C      1.399272    2.038928   -0.160995
  C      1.585054    3.425215    0.283329
  O      1.658247    2.342524    1.213221
  H     -0.178527    1.650663   -1.547881
  H     -0.715108    2.017357    0.092104
  H      0.589840   -0.637820   -0.789627
  H      0.214502   -1.374601    1.569638
  H     -0.409694    0.281797    1.992401
  H     -2.248055    0.031057    0.270270
  H     -1.621813   -1.619889   -0.169310
  H      2.239616    1.556935   -0.665718
  H      2.524682    3.940377    0.087732
  H      0.716073    4.074178    0.389518

 Total Charge           Charge          ....    0
 Multiplicity           Mult            ....    1
 Number of Electrons    NEL             ....   54
 Basis Dimension        Dim             ....  277

ORBITAL ENERGIES
----------------

  NO   OCC          E(Eh)            E(eV)
   0   2.0000     -20.562644      -559.5380
   1   2.0000     -11.283965      -307.0523
   2   2.0000     -11.278989      -306.9169
   3   2.0000     -11.231227      -305.6172
   4   2.0000     -11.229852      -305.5798
   5   2.0000     -11.221565      -305.3543
   6   2.0000     -11.217892      -305.2544
   7   2.0000      -1.405976       -38.2586
   8   2.0000      -1.142535       -31.0900
   9   2.0000      -1.011902       -27.5353
  10   2.0000      -0.909619       -24.7520
  11   2.0000      -0.828766       -22.5519
  12   2.0000      -0.816028       -22.2052
  13   2.0000      -0.778413       -21.1817
  14   2.0000      -0.689299       -18.7568
  15   2.0000      -0.668811       -18.1993
  16   2.0000      -0.639824       -17.4105
  17   2.0000      -0.614582       -16.7236
  18   2.0000      -0.576642       -15.6912
  19   2.0000      -0.532943       -14.5021
  20   2.0000      -0.518070       -14.0974
  21   2.0000      -0.508415       -13.8347
  22   2.0000      -0.502752       -13.6806
  23   2.0000      -0.451801       -12.2941
  24   2.0000      -0.436405       -11.8752
  25   2.0000      -0.407941       -11.1006
  26   2.0000      -0.401912       -10.9366
  27   0.0000       0.148799         4.0490
  28   0.0000       0.156188         4.2501
  29   0.0000       0.169241         4.6053
  30   0.0000       0.179655         4.8887
  31   0.0000       0.189933         5.1683

MULLIKEN ATOMIC CHARGES
-----------------------
   0 C :   -0.246308
   1 C :   -0.087100
   2 C :   -0.263952
   3 C :   -0.266740
   4 C :    0.054873
   5 C :   -0.079750
   6 O :   -0.337111
   7 H :    0.118511
   8 H :    0.123249
   9 H :    0.117845
  10 H :    0.126921
  11 H :    0.138642
  12 H :    0.125990
  13 H :    0.127568
  14 H :    0.120229
  15 H :    0.113852
  16 H :    0.113279
Sum of atomic charges:   -0.0000000

LOEWDIN ATOMIC CHARGES
----------------------
   0 C :   -0.237455
   1 C :   -0.231855
   2 C :   -0.225771
   3 C :   -0.232686
   4 C :   -0.288425
   5 C :   -0.271122
   6 O :    0.141027
   7 H :    0.147681
   8 H :    0.151060
   9 H :    0.146228
  10 H :    0.130345
  11 H :    0.135829
  12 H :    0.131033
  13 H :    0.129878
  14 H :    0.137234
  15 H :    0.118090
  16 H :    0.118910

  Mayer bond orders larger than 0.1
B(  0-C ,  1-C ) :   0.9267 B(  0-C ,  4-C ) :   0.9192 B(  0-C ,  7-H ) :   0.9233
B(  0-C ,  8-H ) :   0.9327 B(  1-C ,  2-C ) :   0.8941 B(  1-C ,  3-C ) :   0.8971
B(  1-C ,  9-H ) :   0.9256 B(  2-C ,  3-C ) :   0.9024 B(  2-C , 10-H ) :   0.9312
B(  2-C , 11-H ) :   0.9274 B(  3-C , 12-H ) :   0.9288 B(  3-C , 13-H ) :   0.9310
B(  4-C ,  5-C ) :   0.9815 B(  4-C ,  6-O ) :   0.8695 B(  4-C , 14-H ) :   0.9191
B(  5-C ,  6-O ) :   0.9201 B(  5-C , 15-H ) :   0.9196 B(  5-C , 16-H ) :   0.9097

MP2 TOTAL ENERGY:     -309.141538275 Eh
FINAL SINGLE POINT ENERGY      -309.141538275400

DIPOLE MOMENT
-------------
                                X             Y             Z
Electronic contribution:      2.91141       2.05257       1.13801
Nuclear contribution   :     -3.04557      -1.88687      -1.81728
                        -----------------------------------------
Total Dipole Moment    :     -0.13416       0.16569      -0.67927
                        -----------------------------------------
Magnitude (a.u.)       :      0.71195
Magnitude (Debye)      :      1.80963

                             ****ORCA TERMINATED NORMALLY****
TOTAL RUN TIME: 0 days 0 hours 7 minutes 31 seconds 648 msec
