                         Program Version 3.0.3 - RELEASE   -
|  1> ! RI-MP2 RIJK def2-TZVP def2-TZVP/C def2-TZVP/JK TIGHTSCF
|  2> % maxcore 2000
|  3> % mp2 density relaxed end
|  4> *xyz 0 1
|  5>  O        0.7970207349    -0.3395120750     1.2084387092
|  6>  C        0.0297902882     0.1263715271     0.1163510732
|  7>  C       -1.3405679223    -0.5342410225    -0.0149809205
|  8>  C       -1.8735737318    -1.1903935751    -1.2675814769
|  9>  C       -0.9176916893    -1.7020294214    -2.3566598678
| 10>  C       -0.1286093291    -2.8493539346    -1.7359859209
| 11>  O        0.7315962209    -2.4975863705    -0.6371264105
| 12>  C       -0.5719406360    -3.0381214246    -0.3450243032
| 13>  C       -1.6386388453    -2.0256979355    -0.0144734562
| 14>  H        1.1323923417    -1.1994970177     0.9293706135
| 15>  H       -0.1331479600     1.1951497819     0.2947384551
| 16>  H        0.5901449925     0.0398113547    -0.8215886305
| 17>  H       -2.1128210963     0.0084651588     0.5257950018
| 18>  H       -2.8777418080    -0.9305877532    -1.5854927184
| 19>  H       -1.5019698010    -2.0988371960    -3.1942661389
| 20>  H       -0.2589392732    -0.9288082882    -2.7668073067
| 21>  H        0.2586454001    -3.6486187916    -2.3636300572
| 22>  H       -0.5633400559    -3.9990719837     0.1610350922
| 23>  H       -2.4600602302    -2.3736658828     0.6012100726
| 24> *
| 25>
| 26>                          ****END OF INPUT****

CARTESIAN COORDINATES (ANGSTROEM)
---------------------------------
  O      0.797021   -0.339512    1.208439
  C      0.029790    0.126372    0.116351
  C     -1.340568   -0.534241   -0.014981
  C     -1.873574   -1.190394   -1.267581
  C     -0.917692   -1.702029   -2.356660
  C     -0.128609   -2.849354   -1.735986
  O      0.731596   -2.497586   -0.637126
  C     -0.571941   -3.038121   -0.345024
  C     -1.638639   -2.025698   -0.014473
  H      1.132392   -1.199497    0.929371
  H     -0.133148    1.195150    0.294738
  H      0.590145    0.039811   -0.821589
  H     -2.112821    0.008465    0.525795
  H     -2.877742   -0.930588   -1.585493
  H     -1.501970   -2.098837   -3.194266
  H     -0.258939   -0.928808   -2.766807
  H      0.258645   -3.648619   -2.363630
  H     -0.563340   -3.999072    0.161035
  H     -2.460060   -2.373666    0.601210

 Total Charge           Charge          ....    0
 Multiplicity           Mult            ....    1
 Number of Electrons    NEL             ....   68
 Basis Dimension        Dim             ....  339

ORBITAL ENERGIES
----------------

  NO   OCC          E(Eh)            E(eV)
   0   2.0000     -20.575601      -559.8906
   1   2.0000     -20.531132      -558.6805
   2   2.0000     -11.295098      -307.3552
   3   2.0000     -11.293430      -307.3099
   4   2.0000     -11.264447      -306.5212
   5   2.0000     -11.242198      -305.9158
   6   2.0000     -11.241345      -305.8925
   7   2.0000     -11.240503      -305.8696
   8   2.0000     -11.237058      -305.7759
   9   2.0000      -1.420563       -38.6555
  10   2.0000      -1.339165       -36.4405
  11   2.0000      -1.166748       -31.7488
  12   2.0000      -1.020036       -27.7566
  13   2.0000      -0.960476       -26.1359
  14   2.0000      -0.919747       -25.0276
  15   2.0000      -0.831726       -22.6324
  16   2.0000      -0.782905       -21.3039
  17   2.0000      -0.752097       -20.4656
  18   2.0000      -0.733222       -19.9520
  19   2.0000      -0.682155       -18.5624
  20   2.0000      -0.640562       -17.4306
  21   2.0000      -0.624818       -17.0022
  22   2.0000      -0.601342       -16.3634
  23   2.0000      -0.593001       -16.1364
  24   2.0000      -0.575332       -15.6556
  25   2.0000      -0.554042       -15.0762
  26   2.0000      -0.523226       -14.2377
  27   2.0000      -0.510243       -13.8844
  28   2.0000      -0.495898       -13.4941
  29   2.0000      -0.466908       -12.7052
  30   2.0000      -0.443532       -12.0691
  31   2.0000      -0.431367       -11.7381
  32   2.0000      -0.407746       -11.0953
  33   2.0000      -0.387740       -10.5509
  34   0.0000       0.136884         3.7248
  35   0.0000       0.159054         4.3281
  36   0.0000       0.167558         4.5595
  37   0.0000       0.173954         4.7335
  38   0.0000       0.187320         5.0972

MULLIKEN ATOMIC CHARGES
-----------------------
   0 O :   -0.488451
   1 C :    0.002106
   2 C :   -0.174367
   3 C :   -0.112446
   4 C :   -0.231184
   5 C :    0.014119
   6 O :   -0.355318
   7 C :   -0.089159
   8 C :   -0.014571
   9 H :    0.330476
  10 H :    0.110048
  11 H :    0.103084
  12 H :    0.115433
  13 H :    0.129949
  14 H :    0.128864
  15 H :    0.131284
  16 H :    0.131744
  17 H :    0.135886
  18 H :    0.132503
Sum of atomic charges:   -0.0000000

LOEWDIN ATOMIC CHARGES
----------------------
   0 O :   -0.046080
   1 C :   -0.336867
   2 C :   -0.181960
   3 C :   -0.168148
   4 C :   -0.213888
   5 C :   -0.243230
   6 O :    0.152357
   7 C :   -0.235249
   8 C :   -0.164272
   9 H :    0.171033
  10 H :    0.129850
  11 H :    0.119023
  12 H :    0.155393
  13 H :    0.142891
  14 H :    0.150622
  15 H :    0.144769
  16 H :    0.135446
  17 H :    0.139394
  18 H :    0.148915

  Mayer bond orders larger than 0.1
B(  0-O ,  1-C ) :   0.9328 B(  0-O ,  9-H ) :   0.8316 B(  1-C ,  2-C ) :   0.9277
B(  1-C , 10-H ) :   0.9280 B(  1-C , 11-H ) :   0.9388 B(  2-C ,  3-C ) :   0.8841
B(  2-C ,  8-C ) :   0.8616 B(  2-C , 12-H ) :   0.9300 B(  3-C ,  4-C ) :   0.9472
B(  3-C ,  8-C ) :   0.8406 B(  3-C , 13-H ) :   0.9208 B(  4-C ,  5-C ) :   0.9396
B(  4-C , 14-H ) :   0.9128 B(  4-C , 15-H ) :   0.9145 B(  5-C ,  6-O ) :   0.9115
B(  5-C ,  7-C ) :   0.9470 B(  5-C , 16-H ) :   0.9310 B(  6-O ,  7-C ) :   0.8190
B(  7-C ,  8-C ) :   0.9234 B(  7-C , 17-H ) :   0.9310 B(  8-C , 18-H ) :   0.9227

MP2 TOTAL ENERGY:     -422.289732552 Eh
FINAL SINGLE POINT ENERGY      -422.289732551897

DIPOLE MOMENT
-------------
                                X             Y             Z
Electronic contribution:      1.97078      -1.98138       1.78093
Nuclear contribution   :     -2.87097       1.36577      -2.73255
                        -----------------------------------------
Total Dipole Moment    :     -0.90019      -0.61560      -0.95162
                        -----------------------------------------
Magnitude (a.u.)       :      1.44737
Magnitude (Debye)      :      3.67892

                             ****ORCA TERMINATED NORMALLY****
TOTAL RUN TIME: 0 days 0 hours 31 minutes 10 seconds 541 msec
