                         Program Version 3.0.3 - RELEASE   -
|  1> ! RI-MP2 RIJK def2-TZVP def2-TZVP/C def2-TZVP/JK TIGHTSCF
|  2> % maxcore 2000
|  3> % mp2 density relaxed end
|  4> *xyz 0 1
|  5>  C        0.2271593409     1.4393526190     0.2539179342
|  6>  C       -0.1562902262     0.0039732471    -0.1274500521
|  7>  C        0.5608096951    -0.5035792351    -1.3585730944
|  8>  C        1.9782036252    -1.0354548489    -1.2143848873
|  9>  C        0.8493660881    -1.9823000969    -1.5647564944
| 10>  O        0.4157258014    -2.9327258260    -0.6379044648
| 11>  C        0.6539579383    -2.2344516142    -3.0259172828
| 12>  C        0.3186047752    -1.1169557963    -3.6719748722
| 13>  C        0.1879088308     0.0647366381    -2.7329957738
| 14>  H        1.3009169484     1.5195758292     0.4543706149
| 15>  H       -0.0122861306     2.1444678719    -0.5494468965
| 16>  H       -0.3086323565     1.7650182389     1.1511089094
| 17>  H        0.0521399239    -0.6743465489     0.7068926275
| 18>  H       -1.2396507274    -0.0519408273    -0.2978458463
| 19>  H        2.7261272756    -0.8116675679    -1.9690929928
| 20>  H        2.3536325881    -1.0891933035    -0.1957800923
| 21>  H        1.1554456992    -3.5143477332    -0.4353869661
| 22>  H        0.8011545301    -3.2131443400    -3.4689157757
| 23>  H        0.1777886723    -1.0265132888    -4.7430957852
| 24>  H       -0.8353466972     0.4666298718    -2.7361938374
| 25>  H        0.8429024952     0.8941891511    -3.0297501521
| 26> *
| 27>
| 28>                          ****END OF INPUT****

CARTESIAN COORDINATES (ANGSTROEM)
---------------------------------
  C      0.227159    1.439353    0.253918
  C     -0.156290    0.003973   -0.127450
  C      0.560810   -0.503579   -1.358573
  C      1.978204   -1.035455   -1.214385
  C      0.849366   -1.982300   -1.564756
  O      0.415726   -2.932726   -0.637904
  C      0.653958   -2.234452   -3.025917
  C      0.318605   -1.116956   -3.671975
  C      0.187909    0.064737   -2.732996
  H      1.300917    1.519576    0.454371
  H     -0.012286    2.144468   -0.549447
  H     -0.308632    1.765018    1.151109
  H      0.052140   -0.674347    0.706893
  H     -1.239651   -0.051941   -0.297846
  H      2.726127   -0.811668   -1.969093
  H      2.353633   -1.089193   -0.195780
  H      1.155446   -3.514348   -0.435387
  H      0.801155   -3.213144   -3.468916
  H      0.177789   -1.026513   -4.743096
  H     -0.835347    0.466630   -2.736194
  H      0.842902    0.894189   -3.029750

 Total Charge           Charge          ....    0
 Multiplicity           Mult            ....    1
 Number of Electrons    NEL             ....   68
 Basis Dimension        Dim             ....  351

ORBITAL ENERGIES
----------------

  NO   OCC          E(Eh)            E(eV)
   0   2.0000     -20.562429      -559.5321
   1   2.0000     -11.282651      -307.0165
   2   2.0000     -11.230923      -305.6090
   3   2.0000     -11.226683      -305.4936
   4   2.0000     -11.225389      -305.4584
   5   2.0000     -11.223233      -305.3997
   6   2.0000     -11.223085      -305.3957
   7   2.0000     -11.217363      -305.2400
   8   2.0000     -11.210009      -305.0398
   9   2.0000      -1.372677       -37.3525
  10   2.0000      -1.174805       -31.9681
  11   2.0000      -1.049763       -28.5655
  12   2.0000      -1.012915       -27.5628
  13   2.0000      -0.947477       -25.7822
  14   2.0000      -0.860606       -23.4183
  15   2.0000      -0.825241       -22.4559
  16   2.0000      -0.749094       -20.3839
  17   2.0000      -0.737211       -20.0605
  18   2.0000      -0.681763       -18.5517
  19   2.0000      -0.650205       -17.6930
  20   2.0000      -0.613620       -16.6975
  21   2.0000      -0.607252       -16.5242
  22   2.0000      -0.597105       -16.2481
  23   2.0000      -0.573498       -15.6057
  24   2.0000      -0.547986       -14.9114
  25   2.0000      -0.541253       -14.7282
  26   2.0000      -0.516255       -14.0480
  27   2.0000      -0.510604       -13.8942
  28   2.0000      -0.489427       -13.3180
  29   2.0000      -0.477626       -12.9969
  30   2.0000      -0.458449       -12.4750
  31   2.0000      -0.421400       -11.4669
  32   2.0000      -0.384841       -10.4720
  33   2.0000      -0.332633        -9.0514
  34   0.0000       0.134908         3.6710
  35   0.0000       0.145087         3.9480
  36   0.0000       0.155703         4.2369
  37   0.0000       0.169722         4.6184
  38   0.0000       0.185553         5.0492

MULLIKEN ATOMIC CHARGES
-----------------------
   0 C :   -0.401475
   1 C :   -0.237314
   2 C :    0.134564
   3 C :   -0.392892
   4 C :    0.243159
   5 O :   -0.463744
   6 C :   -0.219544
   7 C :   -0.186391
   8 C :   -0.187122
   9 H :    0.126316
  10 H :    0.125171
  11 H :    0.133558
  12 H :    0.125889
  13 H :    0.115402
  14 H :    0.127298
  15 H :    0.140834
  16 H :    0.328305
  17 H :    0.116092
  18 H :    0.126226
  19 H :    0.118937
  20 H :    0.126730
Sum of atomic charges:    0.0000000

LOEWDIN ATOMIC CHARGES
----------------------
   0 C :   -0.311983
   1 C :   -0.247344
   2 C :   -0.192310
   3 C :   -0.171510
   4 C :   -0.314304
   5 O :    0.027557
   6 C :   -0.122856
   7 C :   -0.147521
   8 C :   -0.194182
   9 H :    0.121151
  10 H :    0.120217
  11 H :    0.120004
  12 H :    0.145409
  13 H :    0.142689
  14 H :    0.136281
  15 H :    0.139960
  16 H :    0.182183
  17 H :    0.139092
  18 H :    0.135544
  19 H :    0.146132
  20 H :    0.145790

  Mayer bond orders larger than 0.1
B(  0-C ,  1-C ) :   0.9174 B(  0-C ,  9-H ) :   0.9399 B(  0-C , 10-H ) :   0.9366
B(  0-C , 11-H ) :   0.9425 B(  1-C ,  2-C ) :   0.8982 B(  1-C , 12-H ) :   0.9352
B(  1-C , 13-H ) :   0.9317 B(  2-C ,  3-C ) :   0.8555 B(  2-C ,  4-C ) :   0.7963
B(  2-C ,  5-O ) :  -0.1117 B(  2-C ,  8-C ) :   0.9329 B(  3-C ,  4-C ) :   0.9162
B(  3-C , 14-H ) :   0.8990 B(  3-C , 15-H ) :   0.9262 B(  4-C ,  5-O ) :   1.0255
B(  4-C ,  6-C ) :   0.9655 B(  5-O , 16-H ) :   0.8367 B(  6-C ,  7-C ) :   1.8038
B(  6-C , 17-H ) :   0.9256 B(  7-C ,  8-C ) :   0.9646 B(  7-C , 18-H ) :   0.9301
B(  8-C , 19-H ) :   0.9054 B(  8-C , 20-H ) :   0.9073

MP2 TOTAL ENERGY:     -386.411252066 Eh
FINAL SINGLE POINT ENERGY      -386.411252065557

DIPOLE MOMENT
-------------
                                X             Y             Z
Electronic contribution:      0.19590      -6.96163      -2.87062
Nuclear contribution   :      0.30415       7.02449       2.77731
                        -----------------------------------------
Total Dipole Moment    :      0.50005       0.06287      -0.09330
                        -----------------------------------------
Magnitude (a.u.)       :      0.51255
Magnitude (Debye)      :      1.30280

                             ****ORCA TERMINATED NORMALLY****
TOTAL RUN TIME: 0 days 0 hours 18 minutes 53 seconds 6 msec
