                         Program Version 3.0.3 - RELEASE   -
|  1> ! RI-MP2 RIJK def2-TZVP def2-TZVP/C def2-TZVP/JK TIGHTSCF
|  2> % maxcore 2000
|  3> % mp2 density relaxed end
|  4> *xyz 0 1
|  5>  C       -0.0119221632     1.4791181008     0.1145971769
|  6>  N       -0.1263644276     0.0519638302    -0.1657836449
|  7>  C        0.6679514126    -0.4461119965    -1.2735917047
|  8>  C        0.2490651964     0.1880271803    -2.5912472189
|  9>  C        2.2120822645    -0.5603890905    -1.0017721826
| 10>  N        1.9959271448    -1.9517001319    -0.5426134603
| 11>  C        0.7028942328    -2.0208304718    -1.2523532150
| 12>  C       -0.3574432254    -2.7476885108    -0.5532939321
| 13>  N       -1.1870888283    -3.3372353483    -0.0058827967
| 14>  H        1.0247810459     1.8460266466     0.2116740739
| 15>  H       -0.5021001181     2.0642021006    -0.6693253674
| 16>  H       -0.5317323055     1.6918083559     1.0522137429
| 17>  H        0.0998472804    -0.4770797691     0.6699594276
| 18>  H        0.5000702453     1.2526785599    -2.6158616930
| 19>  H        0.7606352534    -0.2874128547    -3.4325990924
| 20>  H       -0.8313566834     0.0889560364    -2.7323703013
| 21>  H        2.8095669434    -0.4689100735    -1.9193879102
| 22>  H        2.6303423891     0.1017819709    -0.2373037122
| 23>  H        2.6855355623    -2.6377692584    -0.8282308123
| 24>  H        0.7637989605    -2.4113154761    -2.2781741375
| 25> *
| 26>
| 27>                          ****END OF INPUT****

CARTESIAN COORDINATES (ANGSTROEM)
---------------------------------
  C     -0.011922    1.479118    0.114597
  N     -0.126364    0.051964   -0.165784
  C      0.667951   -0.446112   -1.273592
  C      0.249065    0.188027   -2.591247
  C      2.212082   -0.560389   -1.001772
  N      1.995927   -1.951700   -0.542613
  C      0.702894   -2.020830   -1.252353
  C     -0.357443   -2.747689   -0.553294
  N     -1.187089   -3.337235   -0.005883
  H      1.024781    1.846027    0.211674
  H     -0.502100    2.064202   -0.669325
  H     -0.531732    1.691808    1.052214
  H      0.099847   -0.477080    0.669959
  H      0.500070    1.252679   -2.615862
  H      0.760635   -0.287413   -3.432599
  H     -0.831357    0.088956   -2.732370
  H      2.809567   -0.468910   -1.919388
  H      2.630342    0.101782   -0.237304
  H      2.685536   -2.637769   -0.828231
  H      0.763799   -2.411315   -2.278174

 Total Charge           Charge          ....    0
 Multiplicity           Mult            ....    1
 Number of Electrons    NEL             ....   68
 Basis Dimension        Dim             ....  345

ORBITAL ENERGIES
----------------

  NO   OCC          E(Eh)            E(eV)
   0   2.0000     -15.571936      -423.7339
   1   2.0000     -15.564573      -423.5336
   2   2.0000     -15.553935      -423.2441
   3   2.0000     -11.308496      -307.7198
   4   2.0000     -11.293141      -307.3020
   5   2.0000     -11.269049      -306.6464
   6   2.0000     -11.264364      -306.5189
   7   2.0000     -11.253084      -306.2120
   8   2.0000     -11.231904      -305.6356
   9   2.0000      -1.281666       -34.8759
  10   2.0000      -1.208678       -32.8898
  11   2.0000      -1.200099       -32.6563
  12   2.0000      -1.032074       -28.0842
  13   2.0000      -0.982079       -26.7237
  14   2.0000      -0.933617       -25.4050
  15   2.0000      -0.895971       -24.3806
  16   2.0000      -0.783374       -21.3167
  17   2.0000      -0.725277       -19.7358
  18   2.0000      -0.710251       -19.3269
  19   2.0000      -0.642073       -17.4717
  20   2.0000      -0.629448       -17.1281
  21   2.0000      -0.617476       -16.8024
  22   2.0000      -0.585868       -15.9423
  23   2.0000      -0.570794       -15.5321
  24   2.0000      -0.565737       -15.3945
  25   2.0000      -0.556971       -15.1560
  26   2.0000      -0.544659       -14.8209
  27   2.0000      -0.513195       -13.9647
  28   2.0000      -0.503493       -13.7007
  29   2.0000      -0.499885       -13.6026
  30   2.0000      -0.456433       -12.4202
  31   2.0000      -0.438263       -11.9257
  32   2.0000      -0.410316       -11.1653
  33   2.0000      -0.375709       -10.2236
  34   0.0000       0.115803         3.1512
  35   0.0000       0.129678         3.5287
  36   0.0000       0.151346         4.1183
  37   0.0000       0.169989         4.6256
  38   0.0000       0.171596         4.6694

MULLIKEN ATOMIC CHARGES
-----------------------
   0 C :   -0.325855
   1 N :   -0.310529
   2 C :    0.155784
   3 C :   -0.458108
   4 C :   -0.164279
   5 N :   -0.329423
   6 C :    0.044895
   7 C :   -0.191803
   8 N :   -0.041680
   9 H :    0.107810
  10 H :    0.138977
  11 H :    0.146996
  12 H :    0.222157
  13 H :    0.144985
  14 H :    0.130011
  15 H :    0.155817
  16 H :    0.115172
  17 H :    0.113857
  18 H :    0.213171
  19 H :    0.132045
Sum of atomic charges:   -0.0000000

LOEWDIN ATOMIC CHARGES
----------------------
   0 C :   -0.342930
   1 N :    0.012538
   2 C :   -0.311748
   3 C :   -0.270581
   4 C :   -0.237695
   5 N :    0.011831
   6 C :   -0.234616
   7 C :   -0.172615
   8 N :    0.068970
   9 H :    0.100031
  10 H :    0.115646
  11 H :    0.120640
  12 H :    0.183314
  13 H :    0.130045
  14 H :    0.126699
  15 H :    0.136021
  16 H :    0.121420
  17 H :    0.121883
  18 H :    0.160367
  19 H :    0.160781

  Mayer bond orders larger than 0.1
B(  0-C ,  1-N ) :   0.9146 B(  0-C ,  9-H ) :   0.9219 B(  0-C , 10-H ) :   0.9421
B(  0-C , 11-H ) :   0.9383 B(  1-N ,  2-C ) :   1.0093 B(  1-N , 12-H ) :   0.8714
B(  2-C ,  3-C ) :   0.9046 B(  2-C ,  4-C ) :   0.9253 B(  2-C ,  6-C ) :   0.8323
B(  3-C , 13-H ) :   0.9323 B(  3-C , 14-H ) :   0.9295 B(  3-C , 15-H ) :   0.9360
B(  4-C ,  5-N ) :   0.9358 B(  4-C , 16-H ) :   0.9180 B(  4-C , 17-H ) :   0.9150
B(  5-N ,  6-C ) :   1.0162 B(  5-N , 18-H ) :   0.8758 B(  6-C ,  7-C ) :   0.9366
B(  6-C , 19-H ) :   0.8995 B(  7-C ,  8-N ) :   2.8730

MP2 TOTAL ENERGY:     -398.618547929 Eh
FINAL SINGLE POINT ENERGY      -398.618547928852

DIPOLE MOMENT
-------------
                                X             Y             Z
Electronic contribution:     -2.41183      -9.67955       2.63861
Nuclear contribution   :      3.82453      10.75504      -3.59936
                        -----------------------------------------
Total Dipole Moment    :      1.41270       1.07549      -0.96075
                        -----------------------------------------
Magnitude (a.u.)       :      2.01877
Magnitude (Debye)      :      5.13132

                             ****ORCA TERMINATED NORMALLY****
TOTAL RUN TIME: 0 days 0 hours 19 minutes 57 seconds 272 msec
