                         Program Version 3.0.3 - RELEASE   -
|  1> ! RI-MP2 RIJK def2-TZVP def2-TZVP/C def2-TZVP/JK TIGHTSCF
|  2> % maxcore 2000
|  3> % mp2 density relaxed end
|  4> *xyz 0 1
|  5>  C        0.2153287364     1.4937065480    -0.3893861645
|  6>  C        0.1007547197     0.0073517758    -0.1256891220
|  7>  C        1.3790699180    -0.8219375613     0.0378868397
|  8>  C        0.5397261357    -0.5420406242     1.2359123533
|  9>  O        0.9427994682     0.3973675608     2.1822331107
| 10>  C       -1.0430206796    -0.7531439885    -0.7180241193
| 11>  O       -1.1563954893    -1.9603137391    -0.5995273112
| 12>  C       -2.0456763745     0.0107712019    -1.4426083683
| 13>  C       -2.8870669406     0.6197552238    -2.0513526907
| 14>  H        1.0126273282     1.9205250025     0.2208245432
| 15>  H        0.4333933284     1.6940079059    -1.4430622001
| 16>  H       -0.7128080099     2.0131047412    -0.1344757434
| 17>  H        1.3609668772    -1.8255535336    -0.3712280978
| 18>  H        2.3084709872    -0.2718765601    -0.0653547816
| 19>  H       -0.0703515185    -1.3600754111     1.6150668222
| 20>  H        1.7409552413     0.0677276054     2.6079700884
| 21>  H       -3.6359692478     1.1484499426    -2.5894618685
| 22> *
| 23>
| 24>                          ****END OF INPUT****

CARTESIAN COORDINATES (ANGSTROEM)
---------------------------------
  C      0.215329    1.493707   -0.389386
  C      0.100755    0.007352   -0.125689
  C      1.379070   -0.821938    0.037887
  C      0.539726   -0.542041    1.235912
  O      0.942799    0.397368    2.182233
  C     -1.043021   -0.753144   -0.718024
  O     -1.156395   -1.960314   -0.599527
  C     -2.045676    0.010771   -1.442608
  C     -2.887067    0.619755   -2.051353
  H      1.012627    1.920525    0.220825
  H      0.433393    1.694008   -1.443062
  H     -0.712808    2.013105   -0.134476
  H      1.360967   -1.825554   -0.371228
  H      2.308471   -0.271877   -0.065355
  H     -0.070352   -1.360075    1.615067
  H      1.740955    0.067728    2.607970
  H     -3.635969    1.148450   -2.589462

 Total Charge           Charge          ....    0
 Multiplicity           Mult            ....    1
 Number of Electrons    NEL             ....   66
 Basis Dimension        Dim             ....  327

ORBITAL ENERGIES
----------------

  NO   OCC          E(Eh)            E(eV)
   0   2.0000     -20.576237      -559.9079
   1   2.0000     -20.554626      -559.3198
   2   2.0000     -11.359805      -309.1160
   3   2.0000     -11.300768      -307.5095
   4   2.0000     -11.261014      -306.4278
   5   2.0000     -11.257494      -306.3320
   6   2.0000     -11.252193      -306.1877
   7   2.0000     -11.242764      -305.9312
   8   2.0000     -11.224800      -305.4423
   9   2.0000      -1.399498       -38.0823
  10   2.0000      -1.386975       -37.7415
  11   2.0000      -1.158422       -31.5223
  12   2.0000      -1.063108       -28.9286
  13   2.0000      -0.983462       -26.7614
  14   2.0000      -0.913779       -24.8652
  15   2.0000      -0.841924       -22.9099
  16   2.0000      -0.798504       -21.7284
  17   2.0000      -0.728252       -19.8167
  18   2.0000      -0.722075       -19.6487
  19   2.0000      -0.685978       -18.6664
  20   2.0000      -0.662612       -18.0306
  21   2.0000      -0.623323       -16.9615
  22   2.0000      -0.595079       -16.1929
  23   2.0000      -0.589933       -16.0529
  24   2.0000      -0.557579       -15.1725
  25   2.0000      -0.550419       -14.9777
  26   2.0000      -0.533382       -14.5141
  27   2.0000      -0.505104       -13.7446
  28   2.0000      -0.455075       -12.3832
  29   2.0000      -0.423716       -11.5299
  30   2.0000      -0.417138       -11.3509
  31   2.0000      -0.414997       -11.2926
  32   2.0000      -0.403709       -10.9855
  33   0.0000       0.077738         2.1154
  34   0.0000       0.133934         3.6445
  35   0.0000       0.150410         4.0929
  36   0.0000       0.159616         4.3434
  37   0.0000       0.167777         4.5655

MULLIKEN ATOMIC CHARGES
-----------------------
   0 C :   -0.423644
   1 C :    0.042425
   2 C :   -0.307217
   3 C :    0.033686
   4 O :   -0.467528
   5 C :    0.025117
   6 O :   -0.294470
   7 C :    0.078681
   8 C :   -0.092237
   9 H :    0.151289
  10 H :    0.140840
  11 H :    0.143728
  12 H :    0.152015
  13 H :    0.149957
  14 H :    0.134478
  15 H :    0.331586
  16 H :    0.201295
Sum of atomic charges:    0.0000000

LOEWDIN ATOMIC CHARGES
----------------------
   0 C :   -0.257883
   1 C :   -0.212368
   2 C :   -0.177639
   3 C :   -0.287745
   4 O :    0.007426
   5 C :   -0.292612
   6 O :    0.167524
   7 C :   -0.050236
   8 C :   -0.043406
   9 H :    0.134766
  10 H :    0.130543
  11 H :    0.134711
  12 H :    0.145018
  13 H :    0.141735
  14 H :    0.143204
  15 H :    0.184956
  16 H :    0.132003

  Mayer bond orders larger than 0.1
B(  0-C ,  1-C ) :   0.9153 B(  0-C ,  9-H ) :   0.9262 B(  0-C , 10-H ) :   0.9375
B(  0-C , 11-H ) :   0.9299 B(  1-C ,  2-C ) :   0.8193 B(  1-C ,  3-C ) :   0.7942
B(  1-C ,  5-C ) :   1.0485 B(  1-C ,  7-C ) :  -0.1530 B(  2-C ,  3-C ) :   0.9392
B(  2-C , 12-H ) :   0.9035 B(  2-C , 13-H ) :   0.9310 B(  3-C ,  4-O ) :   1.0275
B(  3-C , 14-H ) :   0.9402 B(  4-O , 15-H ) :   0.8358 B(  5-C ,  6-O ) :   1.9332
B(  5-C ,  7-C ) :   1.0243 B(  5-C ,  8-C ) :  -0.1086 B(  7-C ,  8-C ) :   2.6061
B(  8-C , 16-H ) :   0.8921

MP2 TOTAL ENERGY:     -421.072892711 Eh
FINAL SINGLE POINT ENERGY      -421.072892711466

DIPOLE MOMENT
-------------
                                X             Y             Z
Electronic contribution:     -4.45592      -3.81181      -0.90516
Nuclear contribution   :      5.06902       4.45390       0.86393
                        -----------------------------------------
Total Dipole Moment    :      0.61309       0.64209      -0.04122
                        -----------------------------------------
Magnitude (a.u.)       :      0.88874
Magnitude (Debye)      :      2.25900

                             ****ORCA TERMINATED NORMALLY****
TOTAL RUN TIME: 0 days 0 hours 16 minutes 30 seconds 296 msec
