                         Program Version 3.0.3 - RELEASE   -
|  1> ! RI-MP2 RIJK def2-TZVP def2-TZVP/C def2-TZVP/JK TIGHTSCF
|  2> % maxcore 2000
|  3> % mp2 density relaxed end
|  4> *xyz 0 1
|  5>  C       -0.3264516099     1.3433749290     0.0102838914
|  6>  O       -0.2519761551    -0.0504844632    -0.1702395894
|  7>  C        0.8453628162    -0.4372211950    -0.9708271950
|  8>  C        0.8378913126    -1.9393207535    -1.0627723012
|  9>  O        0.0545736038    -2.5815513232    -2.0885898078
| 10>  C        1.4812391443    -2.7285627568    -2.1230052828
| 11>  C        2.1577074641    -2.1625797143    -3.3722747100
| 12>  C        2.4078217386    -3.2755168570    -4.3962677659
| 13>  O        1.3864626268    -1.1174136396    -3.9384869625
| 14>  H        0.5695351892     1.7387120125     0.5159064224
| 15>  H       -0.4396492676     1.8749879787    -0.9475576287
| 16>  H       -1.2012739580     1.5458427021     0.6327272472
| 17>  H        0.8046450118     0.0177620672    -1.9675145589
| 18>  H        1.7946248523    -0.1210212920    -0.4999319085
| 19>  H        0.7255187232    -2.4195678287    -0.0895295081
| 20>  H        1.8308761140    -3.7246703901    -1.8452921045
| 21>  H        3.1205711030    -1.7200309136    -3.0847483682
| 22>  H        1.4669711506    -3.7664074307    -4.6679315820
| 23>  H        2.8488419267    -2.8510540355    -5.3012860305
| 24>  H        3.0895805316    -4.0354625221    -3.9991318134
| 25>  H        0.4632896120    -1.3734767041    -3.7995917833
| 26> *
| 27>
| 28>                          ****END OF INPUT****

CARTESIAN COORDINATES (ANGSTROEM)
---------------------------------
  C     -0.326452    1.343375    0.010284
  O     -0.251976   -0.050484   -0.170240
  C      0.845363   -0.437221   -0.970827
  C      0.837891   -1.939321   -1.062772
  O      0.054574   -2.581551   -2.088590
  C      1.481239   -2.728563   -2.123005
  C      2.157707   -2.162580   -3.372275
  C      2.407822   -3.275517   -4.396268
  O      1.386463   -1.117414   -3.938487
  H      0.569535    1.738712    0.515906
  H     -0.439649    1.874988   -0.947558
  H     -1.201274    1.545843    0.632727
  H      0.804645    0.017762   -1.967515
  H      1.794625   -0.121021   -0.499932
  H      0.725519   -2.419568   -0.089530
  H      1.830876   -3.724670   -1.845292
  H      3.120571   -1.720031   -3.084748
  H      1.466971   -3.766407   -4.667932
  H      2.848842   -2.851054   -5.301286
  H      3.089581   -4.035463   -3.999132
  H      0.463290   -1.373477   -3.799592

 Total Charge           Charge          ....    0
 Multiplicity           Mult            ....    1
 Number of Electrons    NEL             ....   72
 Basis Dimension        Dim             ....  351

ORBITAL ENERGIES
----------------

  NO   OCC          E(Eh)            E(eV)
   0   2.0000     -20.576057      -559.9030
   1   2.0000     -20.559582      -559.4547
   2   2.0000     -20.553903      -559.3001
   3   2.0000     -11.294696      -307.3443
   4   2.0000     -11.292534      -307.2855
   5   2.0000     -11.292256      -307.2779
   6   2.0000     -11.281437      -306.9835
   7   2.0000     -11.272997      -306.7538
   8   2.0000     -11.221149      -305.3430
   9   2.0000      -1.422391       -38.7052
  10   2.0000      -1.379714       -37.5439
  11   2.0000      -1.360432       -37.0192
  12   2.0000      -1.037881       -28.2422
  13   2.0000      -1.016888       -27.6709
  14   2.0000      -0.930794       -25.3282
  15   2.0000      -0.895418       -24.3656
  16   2.0000      -0.840982       -22.8843
  17   2.0000      -0.799526       -21.7562
  18   2.0000      -0.715201       -19.4616
  19   2.0000      -0.698980       -19.0202
  20   2.0000      -0.667166       -18.1545
  21   2.0000      -0.652623       -17.7588
  22   2.0000      -0.635282       -17.2869
  23   2.0000      -0.625241       -17.0137
  24   2.0000      -0.592058       -16.1107
  25   2.0000      -0.575402       -15.6575
  26   2.0000      -0.555746       -15.1226
  27   2.0000      -0.554283       -15.0828
  28   2.0000      -0.533243       -14.5103
  29   2.0000      -0.523999       -14.2587
  30   2.0000      -0.496964       -13.5231
  31   2.0000      -0.481796       -13.1103
  32   2.0000      -0.467125       -12.7111
  33   2.0000      -0.452156       -12.3038
  34   2.0000      -0.426874       -11.6158
  35   2.0000      -0.425647       -11.5824
  36   0.0000       0.139829         3.8049
  37   0.0000       0.149022         4.0551
  38   0.0000       0.162921         4.4333
  39   0.0000       0.172132         4.6840
  40   0.0000       0.185739         5.0542

MULLIKEN ATOMIC CHARGES
-----------------------
   0 C :   -0.216192
   1 O :   -0.299048
   2 C :   -0.089132
   3 C :    0.097583
   4 O :   -0.355058
   5 C :   -0.070277
   6 C :    0.141609
   7 C :   -0.386671
   8 O :   -0.486391
   9 H :    0.109111
  10 H :    0.115602
  11 H :    0.140877
  12 H :    0.135784
  13 H :    0.090688
  14 H :    0.123503
  15 H :    0.122199
  16 H :    0.095939
  17 H :    0.130779
  18 H :    0.145682
  19 H :    0.120972
  20 H :    0.332439
Sum of atomic charges:   -0.0000000

LOEWDIN ATOMIC CHARGES
----------------------
   0 C :   -0.360236
   1 O :    0.135893
   2 C :   -0.314974
   3 C :   -0.254995
   4 O :    0.153100
   5 C :   -0.254125
   6 C :   -0.363595
   7 C :   -0.297367
   8 O :   -0.012780
   9 H :    0.100807
  10 H :    0.102844
  11 H :    0.114153
  12 H :    0.132035
  13 H :    0.127783
  14 H :    0.145408
  15 H :    0.144025
  16 H :    0.146762
  17 H :    0.126599
  18 H :    0.127523
  19 H :    0.123332
  20 H :    0.177808

  Mayer bond orders larger than 0.1
B(  0-C ,  1-O ) :   0.9195 B(  0-C ,  9-H ) :   0.9365 B(  0-C , 10-H ) :   0.9368
B(  0-C , 11-H ) :   0.9389 B(  1-O ,  2-C ) :   0.9382 B(  2-C ,  3-C ) :   0.9174
B(  2-C , 12-H ) :   0.9202 B(  2-C , 13-H ) :   0.9074 B(  3-C ,  4-O ) :   0.8407
B(  3-C ,  5-C ) :   0.9560 B(  3-C , 14-H ) :   0.9302 B(  4-O ,  5-C ) :   0.9183
B(  5-C ,  6-C ) :   0.9302 B(  5-C , 15-H ) :   0.9064 B(  6-C ,  7-C ) :   0.9230
B(  6-C ,  8-O ) :   0.9315 B(  6-C , 16-H ) :   0.9236 B(  7-C , 17-H ) :   0.9283
B(  7-C , 18-H ) :   0.9408 B(  7-C , 19-H ) :   0.9291 B(  8-O , 20-H ) :   0.8124

MP2 TOTAL ENERGY:     -460.592236494 Eh
FINAL SINGLE POINT ENERGY      -460.592236493527

DIPOLE MOMENT
-------------
                                X             Y             Z
Electronic contribution:     -2.90792      -1.88490       1.05398
Nuclear contribution   :      3.62787       1.88642      -0.71827
                        -----------------------------------------
Total Dipole Moment    :      0.71995       0.00152       0.33572
                        -----------------------------------------
Magnitude (a.u.)       :      0.79437
Magnitude (Debye)      :      2.01914

                             ****ORCA TERMINATED NORMALLY****
TOTAL RUN TIME: 0 days 0 hours 14 minutes 57 seconds 397 msec
