                         Program Version 3.0.3 - RELEASE   -
|  1> ! RI-MP2 RIJK def2-TZVP def2-TZVP/C def2-TZVP/JK TIGHTSCF
|  2> % maxcore 2000
|  3> % mp2 density relaxed end
|  4> *xyz 0 1
|  5>  C       -0.3210990564     1.4529189464     0.0726749382
|  6>  C        0.0375814827    -0.0283974816    -0.0083685031
|  7>  C        0.7360010740    -0.3749684869    -1.3303188449
|  8>  C        0.7949669439    -1.8655427559    -1.6751569695
|  9>  C        1.5607195209    -2.7603646385    -0.7255488748
| 10>  O        2.7213416020    -2.2432901348    -0.0582369995
| 11>  C        1.6061707487    -2.6434467285     0.7385512416
| 12>  C        0.9063919847    -1.6031903946     1.5961157496
| 13>  O        0.8825313569    -0.2903697270     1.1081533765
| 14>  H        0.5803006636     2.0658026875    -0.0277147862
| 15>  H       -1.0188384969     1.7299551816    -0.7228925841
| 16>  H       -0.7808719312     1.6791312052     1.0380244270
| 17>  H       -0.8839208080    -0.6293274712     0.0893789450
| 18>  H        0.2143516512     0.1369325327    -2.1477218671
| 19>  H        1.7496304175     0.0365091284    -1.2849401719
| 20>  H       -0.2230637620    -2.2720458764    -1.7631182878
| 21>  H        1.2440559676    -1.9757578206    -2.6706172677
| 22>  H        1.7101322822    -3.7682935441    -1.1220465212
| 23>  H        1.7658467301    -3.5734064559     1.2940189218
| 24>  H       -0.1131681186    -1.9733750397     1.8101332978
| 25>  H        1.4350255171    -1.5469186362     2.5550769106
| 26> *
| 27>
| 28>                          ****END OF INPUT****

CARTESIAN COORDINATES (ANGSTROEM)
---------------------------------
  C     -0.321099    1.452919    0.072675
  C      0.037581   -0.028397   -0.008369
  C      0.736001   -0.374968   -1.330319
  C      0.794967   -1.865543   -1.675157
  C      1.560720   -2.760365   -0.725549
  O      2.721342   -2.243290   -0.058237
  C      1.606171   -2.643447    0.738551
  C      0.906392   -1.603190    1.596116
  O      0.882531   -0.290370    1.108153
  H      0.580301    2.065803   -0.027715
  H     -1.018838    1.729955   -0.722893
  H     -0.780872    1.679131    1.038024
  H     -0.883921   -0.629327    0.089379
  H      0.214352    0.136933   -2.147722
  H      1.749630    0.036509   -1.284940
  H     -0.223064   -2.272046   -1.763118
  H      1.244056   -1.975758   -2.670617
  H      1.710132   -3.768294   -1.122047
  H      1.765847   -3.573406    1.294019
  H     -0.113168   -1.973375    1.810133
  H      1.435026   -1.546919    2.555077

 Total Charge           Charge          ....    0
 Multiplicity           Mult            ....    1
 Number of Electrons    NEL             ....   70
 Basis Dimension        Dim             ....  351

ORBITAL ENERGIES
----------------

  NO   OCC          E(Eh)            E(eV)
   0   2.0000     -20.561258      -559.5003
   1   2.0000     -20.551337      -559.2303
   2   2.0000     -11.284805      -307.0752
   3   2.0000     -11.283555      -307.0411
   4   2.0000     -11.282292      -307.0068
   5   2.0000     -11.280311      -306.9529
   6   2.0000     -11.232785      -305.6596
   7   2.0000     -11.220374      -305.3219
   8   2.0000     -11.212190      -305.0992
   9   2.0000      -1.409129       -38.3443
  10   2.0000      -1.373052       -37.3626
  11   2.0000      -1.080034       -29.3892
  12   2.0000      -1.025905       -27.9163
  13   2.0000      -0.970330       -26.4040
  14   2.0000      -0.918523       -24.9943
  15   2.0000      -0.864899       -23.5351
  16   2.0000      -0.785067       -21.3627
  17   2.0000      -0.767927       -20.8964
  18   2.0000      -0.707806       -19.2604
  19   2.0000      -0.684317       -18.6212
  20   2.0000      -0.651653       -17.7324
  21   2.0000      -0.624318       -16.9886
  22   2.0000      -0.598842       -16.2953
  23   2.0000      -0.583280       -15.8718
  24   2.0000      -0.565788       -15.3959
  25   2.0000      -0.554485       -15.0883
  26   2.0000      -0.549264       -14.9462
  27   2.0000      -0.528374       -14.3778
  28   2.0000      -0.508955       -13.8494
  29   2.0000      -0.482877       -13.1398
  30   2.0000      -0.475135       -12.9291
  31   2.0000      -0.466779       -12.7017
  32   2.0000      -0.439303       -11.9541
  33   2.0000      -0.421288       -11.4638
  34   2.0000      -0.408956       -11.1283
  35   0.0000       0.132995         3.6190
  36   0.0000       0.154439         4.2025
  37   0.0000       0.159342         4.3359
  38   0.0000       0.168864         4.5950
  39   0.0000       0.189211         5.1487

MULLIKEN ATOMIC CHARGES
-----------------------
   0 C :   -0.367478
   1 C :    0.057758
   2 C :   -0.215331
   3 C :   -0.193431
   4 C :    0.004535
   5 O :   -0.338722
   6 C :    0.025971
   7 C :   -0.064687
   8 O :   -0.291884
   9 H :    0.132737
  10 H :    0.121198
  11 H :    0.134655
  12 H :    0.069224
  13 H :    0.121445
  14 H :    0.123815
  15 H :    0.110039
  16 H :    0.130588
  17 H :    0.109578
  18 H :    0.104156
  19 H :    0.095027
  20 H :    0.130807
Sum of atomic charges:   -0.0000000

LOEWDIN ATOMIC CHARGES
----------------------
   0 C :   -0.291738
   1 C :   -0.340244
   2 C :   -0.245978
   3 C :   -0.256488
   4 C :   -0.270403
   5 O :    0.166256
   6 C :   -0.279574
   7 C :   -0.322266
   8 O :    0.193477
   9 H :    0.128698
  10 H :    0.123514
  11 H :    0.125088
  12 H :    0.134624
  13 H :    0.144782
  14 H :    0.150663
  15 H :    0.146810
  16 H :    0.147401
  17 H :    0.138629
  18 H :    0.140326
  19 H :    0.127404
  20 H :    0.139019

  Mayer bond orders larger than 0.1
B(  0-C ,  1-C ) :   0.9152 B(  0-C ,  9-H ) :   0.9350 B(  0-C , 10-H ) :   0.9361
B(  0-C , 11-H ) :   0.9402 B(  1-C ,  2-C ) :   0.9220 B(  1-C ,  8-O ) :   0.9109
B(  1-C , 12-H ) :   0.9298 B(  2-C ,  3-C ) :   0.9325 B(  2-C , 13-H ) :   0.9247
B(  2-C , 14-H ) :   0.9102 B(  3-C ,  4-C ) :   0.9284 B(  3-C , 15-H ) :   0.9183
B(  3-C , 16-H ) :   0.9238 B(  4-C ,  5-O ) :   0.9093 B(  4-C ,  6-C ) :   0.9898
B(  4-C , 17-H ) :   0.9271 B(  5-O ,  6-C ) :   0.8831 B(  6-C ,  7-C ) :   0.9065
B(  6-C , 18-H ) :   0.9099 B(  7-C ,  8-O ) :   0.9791 B(  7-C , 19-H ) :   0.9328
B(  7-C , 20-H ) :   0.9229

MP2 TOTAL ENERGY:     -423.508976750 Eh
FINAL SINGLE POINT ENERGY      -423.508976749639

DIPOLE MOMENT
-------------
                                X             Y             Z
Electronic contribution:      4.89678      -3.67315       2.30938
Nuclear contribution   :     -5.82851       3.23626      -2.56258
                        -----------------------------------------
Total Dipole Moment    :     -0.93173      -0.43689      -0.25320
                        -----------------------------------------
Magnitude (a.u.)       :      1.05977
Magnitude (Debye)      :      2.69371

                             ****ORCA TERMINATED NORMALLY****
TOTAL RUN TIME: 0 days 0 hours 18 minutes 28 seconds 357 msec
