                         Program Version 3.0.3 - RELEASE   -
|  1> ! RI-MP2 RIJK def2-TZVP def2-TZVP/C def2-TZVP/JK TIGHTSCF
|  2> % maxcore 2000
|  3> % mp2 density relaxed end
|  4> *xyz 0 1
|  5>  C       -0.0091250089     1.4169240864    -0.0931997874
|  6>  O       -0.0236752869     0.0253192776     0.1148687510
|  7>  C       -1.3095994332    -0.5809044472     0.0376151755
|  8>  C       -1.7701252408    -0.7445968361    -1.4138421518
|  9>  C       -1.2069065759    -1.9257722835     0.7600512126
| 10>  C       -0.8692222473    -1.7926447917     2.2470030181
| 11>  C       -0.7261721650    -3.1393922804     2.9420182028
| 12>  O       -0.4333309308    -2.8988828621     4.3110136674
| 13>  H        1.0139228094     1.7584487477     0.0850222967
| 14>  H       -0.2933586937     1.6984887510    -1.1179750192
| 15>  H       -0.6820387001     1.9399794544     0.6047573297
| 16>  H       -2.0349683919     0.0558749307     0.5746083517
| 17>  H       -1.0677860222    -1.3782636354    -1.9649055042
| 18>  H       -2.7606241913    -1.2091337868    -1.4526267999
| 19>  H       -1.8367480342     0.2184784681    -1.9279415203
| 20>  H       -2.1576139498    -2.4594383117     0.6343974854
| 21>  H       -0.4393822013    -2.5249584970     0.2522980154
| 22>  H        0.0626023749    -1.2313803068     2.3617528010
| 23>  H       -1.6512829119    -1.2198174773     2.7614066923
| 24>  H       -1.6584170108    -3.7189200452     2.8318133542
| 25>  H        0.0756802458    -3.7228632010     2.4598022390
| 26>  H       -0.3283111843    -3.7482624936     4.7491056498
| 27> *
| 28>
| 29>                          ****END OF INPUT****

CARTESIAN COORDINATES (ANGSTROEM)
---------------------------------
  C     -0.009125    1.416924   -0.093200
  O     -0.023675    0.025319    0.114869
  C     -1.309599   -0.580904    0.037615
  C     -1.770125   -0.744597   -1.413842
  C     -1.206907   -1.925772    0.760051
  C     -0.869222   -1.792645    2.247003
  C     -0.726172   -3.139392    2.942018
  O     -0.433331   -2.898883    4.311014
  H      1.013923    1.758449    0.085022
  H     -0.293359    1.698489   -1.117975
  H     -0.682039    1.939979    0.604757
  H     -2.034968    0.055875    0.574608
  H     -1.067786   -1.378264   -1.964906
  H     -2.760624   -1.209134   -1.452627
  H     -1.836748    0.218478   -1.927942
  H     -2.157614   -2.459438    0.634397
  H     -0.439382   -2.524958    0.252298
  H      0.062602   -1.231380    2.361753
  H     -1.651283   -1.219817    2.761407
  H     -1.658417   -3.718920    2.831813
  H      0.075680   -3.722863    2.459802
  H     -0.328311   -3.748262    4.749106

 Total Charge           Charge          ....    0
 Multiplicity           Mult            ....    1
 Number of Electrons    NEL             ....   66
 Basis Dimension        Dim             ....  332

ORBITAL ENERGIES
----------------

  NO   OCC          E(Eh)            E(eV)
   0   2.0000     -20.549323      -559.1755
   1   2.0000     -20.548011      -559.1398
   2   2.0000     -11.277292      -306.8707
   3   2.0000     -11.269010      -306.6454
   4   2.0000     -11.266720      -306.5830
   5   2.0000     -11.217260      -305.2372
   6   2.0000     -11.213959      -305.1473
   7   2.0000     -11.208827      -305.0077
   8   2.0000      -1.369292       -37.2603
   9   2.0000      -1.352935       -36.8152
  10   2.0000      -1.073877       -29.2217
  11   2.0000      -1.009232       -27.4626
  12   2.0000      -0.929985       -25.3062
  13   2.0000      -0.902693       -24.5635
  14   2.0000      -0.810421       -22.0527
  15   2.0000      -0.785051       -21.3623
  16   2.0000      -0.689140       -18.7524
  17   2.0000      -0.673712       -18.3326
  18   2.0000      -0.648419       -17.6444
  19   2.0000      -0.633752       -17.2453
  20   2.0000      -0.625033       -17.0080
  21   2.0000      -0.577391       -15.7116
  22   2.0000      -0.568281       -15.4637
  23   2.0000      -0.558583       -15.1998
  24   2.0000      -0.544989       -14.8299
  25   2.0000      -0.529688       -14.4135
  26   2.0000      -0.497764       -13.5448
  27   2.0000      -0.483664       -13.1612
  28   2.0000      -0.479297       -13.0423
  29   2.0000      -0.470062       -12.7910
  30   2.0000      -0.451149       -12.2764
  31   2.0000      -0.437627       -11.9084
  32   2.0000      -0.413269       -11.2456
  33   0.0000       0.138788         3.7766
  34   0.0000       0.142653         3.8818
  35   0.0000       0.160127         4.3573
  36   0.0000       0.169079         4.6009
  37   0.0000       0.181990         4.9522

MULLIKEN ATOMIC CHARGES
-----------------------
   0 C :   -0.220531
   1 O :   -0.312384
   2 C :    0.088121
   3 C :   -0.388524
   4 C :   -0.224190
   5 C :   -0.172342
   6 C :   -0.061063
   7 O :   -0.465501
   8 H :    0.139487
   9 H :    0.109006
  10 H :    0.112631
  11 H :    0.068870
  12 H :    0.129212
  13 H :    0.127154
  14 H :    0.130556
  15 H :    0.107794
  16 H :    0.108517
  17 H :    0.130507
  18 H :    0.101586
  19 H :    0.085861
  20 H :    0.091984
  21 H :    0.313249
Sum of atomic charges:    0.0000000

LOEWDIN ATOMIC CHARGES
----------------------
   0 C :   -0.362916
   1 O :    0.155116
   2 C :   -0.352183
   3 C :   -0.298307
   4 C :   -0.248285
   5 C :   -0.270076
   6 C :   -0.354392
   7 O :   -0.054060
   8 H :    0.113788
   9 H :    0.099570
  10 H :    0.101612
  11 H :    0.134774
  12 H :    0.126364
  13 H :    0.125473
  14 H :    0.120661
  15 H :    0.141034
  16 H :    0.142998
  17 H :    0.144200
  18 H :    0.138472
  19 H :    0.111931
  20 H :    0.113786
  21 H :    0.170437

  Mayer bond orders larger than 0.1
B(  0-C ,  1-O ) :   0.9222 B(  0-C ,  8-H ) :   0.9409 B(  0-C ,  9-H ) :   0.9332
B(  0-C , 10-H ) :   0.9369 B(  1-O ,  2-C ) :   0.9241 B(  2-C ,  3-C ) :   0.9174
B(  2-C ,  4-C ) :   0.9328 B(  2-C , 11-H ) :   0.9367 B(  3-C , 12-H ) :   0.9345
B(  3-C , 13-H ) :   0.9359 B(  3-C , 14-H ) :   0.9386 B(  4-C ,  5-C ) :   0.9241
B(  4-C , 15-H ) :   0.9231 B(  4-C , 16-H ) :   0.9171 B(  5-C ,  6-C ) :   0.9375
B(  5-C , 17-H ) :   0.9236 B(  5-C , 18-H ) :   0.9214 B(  6-C ,  7-O ) :   1.0215
B(  6-C , 19-H ) :   0.9310 B(  6-C , 20-H ) :   0.9335 B(  7-O , 21-H ) :   0.8506

MP2 TOTAL ENERGY:     -386.699439720 Eh
FINAL SINGLE POINT ENERGY      -386.699439720072

DIPOLE MOMENT
-------------
                                X             Y             Z
Electronic contribution:      2.25989      -1.57108       4.48232
Nuclear contribution   :     -2.67312       1.29599      -4.85365
                        -----------------------------------------
Total Dipole Moment    :     -0.41323      -0.27509      -0.37133
                        -----------------------------------------
Magnitude (a.u.)       :      0.61993
Magnitude (Debye)      :      1.57574

                             ****ORCA TERMINATED NORMALLY****
TOTAL RUN TIME: 0 days 0 hours 11 minutes 58 seconds 790 msec
