                         Program Version 3.0.3 - RELEASE   -
|  1> ! RI-MP2 RIJK def2-TZVP def2-TZVP/C def2-TZVP/JK TIGHTSCF
|  2> % maxcore 2000
|  3> % mp2 density relaxed end
|  4> *xyz 0 1
|  5>  C       -0.7111412583     0.4716811211     0.4740175788
|  6>  O       -0.4582208714     0.5828380556    -0.9178451602
|  7>  C        0.4410132085    -0.3170575488    -1.4184791255
|  8>  C        0.1955095387    -1.8158381454    -1.5918570552
|  9>  O        1.5989709784    -2.1075799888    -1.3429459982
| 10>  C        1.8746509283    -0.7309207239    -1.0774276814
| 11>  C        1.5925491739     0.1297846938    -2.2971324354
| 12>  C        1.8368307913    -0.3311796922    -3.7134685222
| 13>  O        1.8468302226     1.4889022533    -2.0553088572
| 14>  H       -1.1623859116    -0.4946594322     0.7368982342
| 15>  H        0.2119180456     0.5996117503     1.0538059689
| 16>  H       -1.4125808097     1.2688747024     0.7282721271
| 17>  H       -0.4307337516    -2.2476828368    -0.8027946575
| 18>  H       -0.1450193933    -2.1738263660    -2.5695228558
| 19>  H        2.5817073010    -0.4760663516    -0.2958848640
| 20>  H        1.7329894517    -1.4147133843    -3.7992486542
| 21>  H        1.1460479400     0.1554335374    -4.4087015933
| 22>  H        2.8596638678    -0.0772901501    -4.0184524175
| 23>  H        2.7856639280     1.6374117263    -2.2162555813
| 24> *
| 25>
| 26>                          ****END OF INPUT****

CARTESIAN COORDINATES (ANGSTROEM)
---------------------------------
  C     -0.711141    0.471681    0.474018
  O     -0.458221    0.582838   -0.917845
  C      0.441013   -0.317058   -1.418479
  C      0.195510   -1.815838   -1.591857
  O      1.598971   -2.107580   -1.342946
  C      1.874651   -0.730921   -1.077428
  C      1.592549    0.129785   -2.297132
  C      1.836831   -0.331180   -3.713469
  O      1.846830    1.488902   -2.055309
  H     -1.162386   -0.494659    0.736898
  H      0.211918    0.599612    1.053806
  H     -1.412581    1.268875    0.728272
  H     -0.430734   -2.247683   -0.802795
  H     -0.145019   -2.173826   -2.569523
  H      2.581707   -0.476066   -0.295885
  H      1.732989   -1.414713   -3.799249
  H      1.146048    0.155434   -4.408702
  H      2.859664   -0.077290   -4.018452
  H      2.785664    1.637412   -2.216256

 Total Charge           Charge          ....    0
 Multiplicity           Mult            ....    1
 Number of Electrons    NEL             ....   70
 Basis Dimension        Dim             ....  339

ORBITAL ENERGIES
----------------

  NO   OCC          E(Eh)            E(eV)
   0   2.0000     -20.570401      -559.7491
   1   2.0000     -20.567846      -559.6795
   2   2.0000     -20.561770      -559.5142
   3   2.0000     -11.296078      -307.3819
   4   2.0000     -11.294151      -307.3295
   5   2.0000     -11.287576      -307.1506
   6   2.0000     -11.285889      -307.1047
   7   2.0000     -11.276766      -306.8564
   8   2.0000     -11.221703      -305.3581
   9   2.0000      -1.416166       -38.5358
  10   2.0000      -1.380880       -37.5757
  11   2.0000      -1.372266       -37.3413
  12   2.0000      -1.102400       -29.9978
  13   2.0000      -0.981909       -26.7191
  14   2.0000      -0.954451       -25.9719
  15   2.0000      -0.932612       -25.3777
  16   2.0000      -0.798016       -21.7151
  17   2.0000      -0.752898       -20.4874
  18   2.0000      -0.726625       -19.7725
  19   2.0000      -0.676419       -18.4063
  20   2.0000      -0.674205       -18.3461
  21   2.0000      -0.652104       -17.7447
  22   2.0000      -0.619988       -16.8707
  23   2.0000      -0.616443       -16.7743
  24   2.0000      -0.584813       -15.9136
  25   2.0000      -0.576876       -15.6976
  26   2.0000      -0.556596       -15.1458
  27   2.0000      -0.541814       -14.7435
  28   2.0000      -0.537844       -14.6355
  29   2.0000      -0.508139       -13.8272
  30   2.0000      -0.499211       -13.5842
  31   2.0000      -0.482599       -13.1322
  32   2.0000      -0.445690       -12.1278
  33   2.0000      -0.389917       -10.6102
  34   2.0000      -0.361687        -9.8420
  35   0.0000       0.130591         3.5536
  36   0.0000       0.146893         3.9971
  37   0.0000       0.163609         4.4520
  38   0.0000       0.176075         4.7913
  39   0.0000       0.194045         5.2802

MULLIKEN ATOMIC CHARGES
-----------------------
   0 C :   -0.201620
   1 O :   -0.296916
   2 C :    0.094729
   3 C :   -0.027849
   4 O :   -0.334238
   5 C :   -0.047102
   6 C :    0.194901
   7 C :   -0.419070
   8 O :   -0.446778
   9 H :    0.110533
  10 H :    0.120320
  11 H :    0.144322
  12 H :    0.108769
  13 H :    0.119498
  14 H :    0.145085
  15 H :    0.150615
  16 H :    0.147130
  17 H :    0.115864
  18 H :    0.321806
Sum of atomic charges:    0.0000000

LOEWDIN ATOMIC CHARGES
----------------------
   0 C :   -0.330914
   1 O :    0.213528
   2 C :   -0.302171
   3 C :   -0.219205
   4 O :    0.147091
   5 C :   -0.216779
   6 C :   -0.341820
   7 C :   -0.272595
   8 O :    0.041845
   9 H :    0.102102
  10 H :    0.106312
  11 H :    0.115381
  12 H :    0.126212
  13 H :    0.121332
  14 H :    0.132207
  15 H :    0.136652
  16 H :    0.131566
  17 H :    0.126325
  18 H :    0.182930

  Mayer bond orders larger than 0.1
B(  0-C ,  1-O ) :   0.8837 B(  0-C ,  9-H ) :   0.9355 B(  0-C , 10-H ) :   0.9349
B(  0-C , 11-H ) :   0.9395 B(  1-O ,  2-C ) :   1.0435 B(  2-C ,  3-C ) :   0.9878
B(  2-C ,  5-C ) :   0.8853 B(  2-C ,  6-C ) :   0.8433 B(  3-C ,  4-O ) :   0.9134
B(  3-C , 12-H ) :   0.8966 B(  3-C , 13-H ) :   0.9262 B(  4-O ,  5-C ) :   0.9388
B(  5-C ,  6-C ) :   0.8243 B(  5-C , 14-H ) :   0.9096 B(  6-C ,  7-C ) :   0.9275
B(  6-C ,  8-O ) :   1.0240 B(  7-C , 15-H ) :   0.9230 B(  7-C , 16-H ) :   0.9425
B(  7-C , 17-H ) :   0.9219 B(  8-O , 18-H ) :   0.8384

MP2 TOTAL ENERGY:     -459.354617818 Eh
FINAL SINGLE POINT ENERGY      -459.354617818389

DIPOLE MOMENT
-------------
                                X             Y             Z
Electronic contribution:      1.08321       0.45214       0.38920
Nuclear contribution   :     -0.90104      -0.49113      -0.17931
                        -----------------------------------------
Total Dipole Moment    :      0.18217      -0.03899       0.20989
                        -----------------------------------------
Magnitude (a.u.)       :      0.28064
Magnitude (Debye)      :      0.71333

                             ****ORCA TERMINATED NORMALLY****
TOTAL RUN TIME: 0 days 0 hours 18 minutes 27 seconds 909 msec
