                         Program Version 3.0.3 - RELEASE   -
|  1> ! RI-MP2 RIJK def2-TZVP def2-TZVP/C def2-TZVP/JK TIGHTSCF
|  2> % maxcore 2000
|  3> % mp2 density relaxed end
|  4> *xyz 0 1
|  5>  N       -0.0072329085     1.3614316821     0.0097441367
|  6>  C       -0.0472733379     0.0188281961     0.0018090044
|  7>  C       -1.2522560079    -0.6773101100     0.0053131779
|  8>  N       -1.5198536958    -1.9860576466    -0.0004692831
|  9>  C       -0.6650289254    -2.9796480018    -0.0106186131
| 10>  N        0.6876705143    -3.0226111462    -0.0177220215
| 11>  C        1.5094386710    -2.0156905520    -0.0172131519
| 12>  C        1.3117039166    -0.5709743026    -0.0099122213
| 13>  O        2.2795716502     0.1924587492    -0.0129041215
| 14>  H        0.9172261978     1.7719996277     0.0028102652
| 15>  H       -0.8345318964     1.9305715100     0.0135786848
| 16>  H       -2.1472090062    -0.0511884490     0.0142215957
| 17>  H       -1.1209782067    -3.9677570654    -0.0138363317
| 18>  H        2.5726827050    -2.2647389616    -0.0239186907
| 19> *
| 20>
| 21>                          ****END OF INPUT****

CARTESIAN COORDINATES (ANGSTROEM)
---------------------------------
  N     -0.007233    1.361432    0.009744
  C     -0.047273    0.018828    0.001809
  C     -1.252256   -0.677310    0.005313
  N     -1.519854   -1.986058   -0.000469
  C     -0.665029   -2.979648   -0.010619
  N      0.687671   -3.022611   -0.017722
  C      1.509439   -2.015691   -0.017213
  C      1.311704   -0.570974   -0.009912
  O      2.279572    0.192459   -0.012904
  H      0.917226    1.772000    0.002810
  H     -0.834532    1.930572    0.013579
  H     -2.147209   -0.051188    0.014222
  H     -1.120978   -3.967757   -0.013836
  H      2.572683   -2.264739   -0.023919

 Total Charge           Charge          ....    0
 Multiplicity           Mult            ....    1
 Number of Electrons    NEL             ....   64
 Basis Dimension        Dim             ....  309

ORBITAL ENERGIES
----------------

  NO   OCC          E(Eh)            E(eV)
   0   2.0000     -20.553865      -559.2991
   1   2.0000     -15.603232      -424.5855
   2   2.0000     -15.593528      -424.3215
   3   2.0000     -15.592200      -424.2853
   4   2.0000     -11.353808      -308.9528
   5   2.0000     -11.323474      -308.1274
   6   2.0000     -11.319616      -308.0224
   7   2.0000     -11.316197      -307.9294
   8   2.0000     -11.294292      -307.3333
   9   2.0000      -1.400151       -38.1001
  10   2.0000      -1.305865       -35.5344
  11   2.0000      -1.259961       -34.2853
  12   2.0000      -1.219001       -33.1707
  13   2.0000      -1.055513       -28.7220
  14   2.0000      -0.954529       -25.9741
  15   2.0000      -0.939072       -25.5534
  16   2.0000      -0.823666       -22.4131
  17   2.0000      -0.796912       -21.6851
  18   2.0000      -0.733208       -19.9516
  19   2.0000      -0.696383       -18.9495
  20   2.0000      -0.675652       -18.3854
  21   2.0000      -0.644100       -17.5269
  22   2.0000      -0.633647       -17.2424
  23   2.0000      -0.608922       -16.5696
  24   2.0000      -0.567614       -15.4456
  25   2.0000      -0.540597       -14.7104
  26   2.0000      -0.516154       -14.0453
  27   2.0000      -0.502454       -13.6725
  28   2.0000      -0.447307       -12.1718
  29   2.0000      -0.437207       -11.8970
  30   2.0000      -0.421087       -11.4584
  31   2.0000      -0.301157        -8.1949
  32   0.0000       0.030180         0.8212
  33   0.0000       0.053957         1.4682
  34   0.0000       0.127170         3.4605
  35   0.0000       0.163909         4.4602
  36   0.0000       0.175495         4.7755

MULLIKEN ATOMIC CHARGES
-----------------------
   0 N :   -0.440415
   1 C :    0.127890
   2 C :   -0.079126
   3 N :   -0.240446
   4 C :    0.076536
   5 N :   -0.221339
   6 C :   -0.057868
   7 C :    0.266650
   8 O :   -0.388760
   9 H :    0.291373
  10 H :    0.259433
  11 H :    0.119522
  12 H :    0.140891
  13 H :    0.145659
Sum of atomic charges:    0.0000000

LOEWDIN ATOMIC CHARGES
----------------------
   0 N :    0.043982
   1 C :   -0.202353
   2 C :   -0.202992
   3 N :    0.139265
   4 C :   -0.300112
   5 N :    0.138274
   6 C :   -0.166698
   7 C :   -0.345208
   8 O :    0.092748
   9 H :    0.190661
  10 H :    0.176938
  11 H :    0.145976
  12 H :    0.137957
  13 H :    0.151563

  Mayer bond orders larger than 0.1
B(  0-N ,  1-C ) :   1.2454 B(  0-N ,  9-H ) :   0.8217 B(  0-N , 10-H ) :   0.8677
B(  1-C ,  2-C ) :   1.1838 B(  1-C ,  7-C ) :   0.9798 B(  2-C ,  3-N ) :   1.3904
B(  2-C , 11-H ) :   0.9779 B(  3-N ,  4-C ) :   1.4279 B(  4-C ,  5-N ) :   1.2351
B(  4-C , 12-H ) :   0.9408 B(  5-N ,  6-C ) :   1.5513 B(  6-C ,  7-C ) :   1.0613
B(  6-C , 13-H ) :   0.9417 B(  7-C ,  8-O ) :   1.6786

MP2 TOTAL ENERGY:     -432.157377160 Eh
FINAL SINGLE POINT ENERGY      -432.157377160495

DIPOLE MOMENT
-------------
                                X             Y             Z
Electronic contribution:      1.07257      -1.21840      -0.01241
Nuclear contribution   :     -1.86466       2.37012       0.01990
                        -----------------------------------------
Total Dipole Moment    :     -0.79209       1.15171       0.00749
                        -----------------------------------------
Magnitude (a.u.)       :      1.39782
Magnitude (Debye)      :      3.55298

                             ****ORCA TERMINATED NORMALLY****
TOTAL RUN TIME: 0 days 0 hours 16 minutes 4 seconds 872 msec
