                         Program Version 3.0.3 - RELEASE   -
|  1> ! RI-MP2 RIJK def2-TZVP def2-TZVP/C def2-TZVP/JK TIGHTSCF
|  2> % maxcore 2000
|  3> % mp2 density relaxed end
|  4> *xyz 0 1
|  5>  C        0.0543328424    -1.1885605309    -0.0040311231
|  6>  C        0.0204435566     0.0146022726     0.0027308098
|  7>  C       -0.0035615448     1.4264374892     0.0108024588
|  8>  C       -1.1221737088     2.2348071820     0.0292655009
|  9>  N       -0.7062862392     3.5392846459     0.0312136382
| 10>  C        0.6546604468     3.6061853246     0.0145330622
| 11>  C        1.1363715872     2.3121792187     0.0013939709
| 12>  C        2.5009276627     1.9371826100    -0.0177641475
| 13>  N        3.6185644812     1.6337649178    -0.0334280421
| 14>  H        0.0924930979    -2.2495927084    -0.0098925118
| 15>  H       -2.1664808157     1.9720819071     0.0409038482
| 16>  H       -1.3187470145     4.3368526267     0.0432892171
| 17>  H        1.1820997981     4.5452097347     0.0130766284
| 18> *
| 19>
| 20>                          ****END OF INPUT****

CARTESIAN COORDINATES (ANGSTROEM)
---------------------------------
  C      0.054333   -1.188561   -0.004031
  C      0.020444    0.014602    0.002731
  C     -0.003562    1.426437    0.010802
  C     -1.122174    2.234807    0.029266
  N     -0.706286    3.539285    0.031214
  C      0.654660    3.606185    0.014533
  C      1.136372    2.312179    0.001394
  C      2.500928    1.937183   -0.017764
  N      3.618564    1.633765   -0.033428
  H      0.092493   -2.249593   -0.009893
  H     -2.166481    1.972082    0.040904
  H     -1.318747    4.336853    0.043289
  H      1.182100    4.545210    0.013077

 Total Charge           Charge          ....    0
 Multiplicity           Mult            ....    1
 Number of Electrons    NEL             ....   60
 Basis Dimension        Dim             ....  303

ORBITAL ENERGIES
----------------

  NO   OCC          E(Eh)            E(eV)
   0   2.0000     -15.651679      -425.9038
   1   2.0000     -15.563255      -423.4977
   2   2.0000     -11.306386      -307.6624
   3   2.0000     -11.297085      -307.4093
   4   2.0000     -11.276371      -306.8457
   5   2.0000     -11.273831      -306.7765
   6   2.0000     -11.270338      -306.6815
   7   2.0000     -11.244417      -305.9761
   8   2.0000     -11.233893      -305.6898
   9   2.0000      -1.341027       -36.4912
  10   2.0000      -1.210803       -32.9476
  11   2.0000      -1.116963       -30.3941
  12   2.0000      -1.052602       -28.6428
  13   2.0000      -1.009876       -27.4801
  14   2.0000      -0.883400       -24.0385
  15   2.0000      -0.861823       -23.4514
  16   2.0000      -0.789984       -21.4966
  17   2.0000      -0.721638       -19.6368
  18   2.0000      -0.684487       -18.6258
  19   2.0000      -0.651227       -17.7208
  20   2.0000      -0.625663       -17.0252
  21   2.0000      -0.621213       -16.9041
  22   2.0000      -0.610547       -16.6138
  23   2.0000      -0.549998       -14.9662
  24   2.0000      -0.499780       -13.5997
  25   2.0000      -0.457826       -12.4581
  26   2.0000      -0.456761       -12.4291
  27   2.0000      -0.402212       -10.9447
  28   2.0000      -0.356915        -9.7122
  29   2.0000      -0.325546        -8.8586
  30   0.0000       0.106398         2.8952
  31   0.0000       0.110131         2.9968
  32   0.0000       0.118413         3.2222
  33   0.0000       0.157941         4.2978
  34   0.0000       0.161832         4.4037

MULLIKEN ATOMIC CHARGES
-----------------------
   0 C :   -0.148495
   1 C :    0.096834
   2 C :   -0.190369
   3 C :   -0.071910
   4 N :   -0.251778
   5 C :   -0.077242
   6 C :    0.105417
   7 C :   -0.216500
   8 N :   -0.042982
   9 H :    0.194747
  10 H :    0.168738
  11 H :    0.258431
  12 H :    0.175108
Sum of atomic charges:   -0.0000000

LOEWDIN ATOMIC CHARGES
----------------------
   0 C :   -0.066021
   1 C :   -0.067257
   2 C :   -0.137884
   3 C :   -0.161690
   4 N :    0.204198
   5 C :   -0.165256
   6 C :   -0.147793
   7 C :   -0.149395
   8 N :    0.071436
   9 H :    0.129284
  10 H :    0.144134
  11 H :    0.200743
  12 H :    0.145502

  Mayer bond orders larger than 0.1
B(  0-C ,  1-C ) :   2.6286 B(  0-C ,  2-C ) :  -0.1357 B(  0-C ,  9-H ) :   0.8680
B(  1-C ,  2-C ) :   1.1544 B(  2-C ,  3-C ) :   1.4694 B(  2-C ,  6-C ) :   1.2254
B(  3-C ,  4-N ) :   1.1420 B(  3-C , 10-H ) :   0.8963 B(  4-N ,  5-C ) :   1.1752
B(  4-N , 11-H ) :   0.8732 B(  5-C ,  6-C ) :   1.4374 B(  5-C , 12-H ) :   0.8962
B(  6-C ,  7-C ) :   0.8901 B(  7-C ,  8-N ) :   2.8689

MP2 TOTAL ENERGY:     -377.804009629 Eh
FINAL SINGLE POINT ENERGY      -377.804009629223

DIPOLE MOMENT
-------------
                                X             Y             Z
Electronic contribution:      2.40596      -0.17898      -0.03149
Nuclear contribution   :     -4.56955       1.44505       0.06574
                        -----------------------------------------
Total Dipole Moment    :     -2.16358       1.26607       0.03425
                        -----------------------------------------
Magnitude (a.u.)       :      2.50703
Magnitude (Debye)      :      6.37237

                             ****ORCA TERMINATED NORMALLY****
TOTAL RUN TIME: 0 days 0 hours 13 minutes 23 seconds 90 msec
