                         Program Version 3.0.3 - RELEASE   -
|  1> ! RI-MP2 RIJK def2-TZVP def2-TZVP/C def2-TZVP/JK TIGHTSCF
|  2> % maxcore 2000
|  3> % mp2 density relaxed end
|  4> *xyz 0 1
|  5>  O       -0.3088384693     0.1066011187    -0.1187227738
|  6>  C       -0.0733066401     1.2740866862     0.0523681806
|  7>  C        1.3104499443     1.8941525076     0.0721296056
|  8>  C        1.4945334416     2.7135585326    -1.2334413084
|  9>  C        2.7187307537     3.6265840970    -1.1973829591
| 10>  C        2.5452305724     5.1060559487    -0.9470018936
| 11>  C        3.1182586748     4.2119086653     0.1351281970
| 12>  C        2.3068653868     3.8225827431     1.3129143996
| 13>  C        1.4877137078     2.7703531174     1.2961872384
| 14>  H       -0.8987272453     2.0133544258     0.1931843944
| 15>  H        2.0276017777     1.0636237822     0.0917824309
| 16>  H        1.5622661999     2.0253591746    -2.0812855826
| 17>  H        0.5890682563     3.3125358788    -1.3917820454
| 18>  H        3.5273770005     3.3406056474    -1.8615839244
| 19>  H        3.2166818484     5.7996246474    -1.4417257183
| 20>  H        1.5333690727     5.4742804742    -0.8106447677
| 21>  H        4.1808888176     4.3342832721     0.3283948922
| 22>  H        2.4160451229     4.4127738657     2.2198617697
| 23>  H        0.9305697671     2.5008038451     2.1900713247
| 24> *
| 25>
| 26>                          ****END OF INPUT****

CARTESIAN COORDINATES (ANGSTROEM)
---------------------------------
  O     -0.308838    0.106601   -0.118723
  C     -0.073307    1.274087    0.052368
  C      1.310450    1.894153    0.072130
  C      1.494533    2.713559   -1.233441
  C      2.718731    3.626584   -1.197383
  C      2.545231    5.106056   -0.947002
  C      3.118259    4.211909    0.135128
  C      2.306865    3.822583    1.312914
  C      1.487714    2.770353    1.296187
  H     -0.898727    2.013354    0.193184
  H      2.027602    1.063624    0.091782
  H      1.562266    2.025359   -2.081286
  H      0.589068    3.312536   -1.391782
  H      3.527377    3.340606   -1.861584
  H      3.216682    5.799625   -1.441726
  H      1.533369    5.474280   -0.810645
  H      4.180889    4.334283    0.328395
  H      2.416045    4.412774    2.219862
  H      0.930570    2.500804    2.190071

 Total Charge           Charge          ....    0
 Multiplicity           Mult            ....    1
 Number of Electrons    NEL             ....   66
 Basis Dimension        Dim             ....  339

ORBITAL ENERGIES
----------------

  NO   OCC          E(Eh)            E(eV)
   0   2.0000     -20.557231      -559.3907
   1   2.0000     -11.329567      -308.2932
   2   2.0000     -11.248104      -306.0765
   3   2.0000     -11.243129      -305.9411
   4   2.0000     -11.242312      -305.9189
   5   2.0000     -11.241495      -305.8966
   6   2.0000     -11.241136      -305.8869
   7   2.0000     -11.238862      -305.8250
   8   2.0000     -11.235732      -305.7398
   9   2.0000      -1.395984       -37.9866
  10   2.0000      -1.178303       -32.0633
  11   2.0000      -1.088722       -29.6256
  12   2.0000      -1.027823       -27.9685
  13   2.0000      -0.918771       -25.0010
  14   2.0000      -0.852628       -23.2012
  15   2.0000      -0.806970       -21.9588
  16   2.0000      -0.793167       -21.5832
  17   2.0000      -0.715784       -19.4775
  18   2.0000      -0.696824       -18.9616
  19   2.0000      -0.656779       -17.8719
  20   2.0000      -0.647535       -17.6203
  21   2.0000      -0.628645       -17.1063
  22   2.0000      -0.606115       -16.4932
  23   2.0000      -0.577799       -15.7227
  24   2.0000      -0.548865       -14.9354
  25   2.0000      -0.534849       -14.5540
  26   2.0000      -0.523168       -14.2361
  27   2.0000      -0.509931       -13.8759
  28   2.0000      -0.479196       -13.0396
  29   2.0000      -0.442223       -12.0335
  30   2.0000      -0.422737       -11.5033
  31   2.0000      -0.405786       -11.0420
  32   2.0000      -0.352121        -9.5817
  33   0.0000       0.128572         3.4986
  34   0.0000       0.138854         3.7784
  35   0.0000       0.141194         3.8421
  36   0.0000       0.154822         4.2129
  37   0.0000       0.165329         4.4988

MULLIKEN ATOMIC CHARGES
-----------------------
   0 O :   -0.255467
   1 C :    0.036727
   2 C :    0.171340
   3 C :   -0.362227
   4 C :   -0.025566
   5 C :   -0.311458
   6 C :   -0.059900
   7 C :   -0.177467
   8 C :   -0.265352
   9 H :    0.080064
  10 H :    0.108683
  11 H :    0.140605
  12 H :    0.133931
  13 H :    0.129583
  14 H :    0.132649
  15 H :    0.136050
  16 H :    0.129832
  17 H :    0.127898
  18 H :    0.130075
Sum of atomic charges:   -0.0000000

LOEWDIN ATOMIC CHARGES
----------------------
   0 O :    0.137113
   1 C :   -0.275345
   2 C :   -0.229816
   3 C :   -0.201029
   4 C :   -0.192411
   5 C :   -0.194532
   6 C :   -0.194655
   7 C :   -0.143162
   8 C :   -0.142385
   9 H :    0.113495
  10 H :    0.166190
  11 H :    0.146517
  12 H :    0.146694
  13 H :    0.147727
  14 H :    0.132271
  15 H :    0.135377
  16 H :    0.154028
  17 H :    0.147073
  18 H :    0.146850

  Mayer bond orders larger than 0.1
B(  0-O ,  1-C ) :   2.0082 B(  1-C ,  2-C ) :   0.8271 B(  1-C ,  9-H ) :   0.9424
B(  2-C ,  3-C ) :   0.9044 B(  2-C ,  8-C ) :   0.8549 B(  2-C , 10-H ) :   0.8844
B(  3-C ,  4-C ) :   0.8868 B(  3-C , 11-H ) :   0.9330 B(  3-C , 12-H ) :   0.9279
B(  4-C ,  5-C ) :   0.8854 B(  4-C ,  6-C ) :   0.8699 B(  4-C , 13-H ) :   0.9292
B(  5-C ,  6-C ) :   0.8645 B(  5-C , 14-H ) :   0.9281 B(  5-C , 15-H ) :   0.9247
B(  6-C ,  7-C ) :   0.9553 B(  6-C , 16-H ) :   0.9273 B(  7-C ,  8-C ) :   1.7775
B(  7-C , 17-H ) :   0.9299 B(  8-C , 18-H ) :   0.9305

MP2 TOTAL ENERGY:     -385.210298884 Eh
FINAL SINGLE POINT ENERGY      -385.210298883594

DIPOLE MOMENT
-------------
                                X             Y             Z
Electronic contribution:     -2.47687      -4.86934       1.56733
Nuclear contribution   :      3.02807       5.88776      -1.59180
                        -----------------------------------------
Total Dipole Moment    :      0.55120       1.01842      -0.02447
                        -----------------------------------------
Magnitude (a.u.)       :      1.15827
Magnitude (Debye)      :      2.94409

                             ****ORCA TERMINATED NORMALLY****
TOTAL RUN TIME: 0 days 0 hours 17 minutes 49 seconds 650 msec
