                         Program Version 3.0.3 - RELEASE   -
|  1> ! RI-MP2 RIJK def2-TZVP def2-TZVP/C def2-TZVP/JK TIGHTSCF
|  2> % maxcore 2000
|  3> % mp2 density relaxed end
|  4> *xyz 0 1
|  5>  C       -0.0444805042     1.6462825424    -0.0671116621
|  6>  C        1.5029640616     1.4782000569     0.0719943370
|  7>  C        1.1224947752     0.2362331218     0.9807194795
|  8>  C       -0.0581766915     0.0712530525    -0.0362257989
|  9>  C        0.6984932124    -0.1677195978    -1.3426790722
| 10>  C        1.4150578304    -1.0291492251    -2.4207048250
| 11>  C        1.7199326559     0.5030901669    -2.6566589720
| 12>  O        0.3050536450     0.7642371018    -2.4663987490
| 13>  C        2.0026245991     0.6303826617    -1.1229667558
| 14>  H       -0.4689806166     2.0441720171     0.8582967063
| 15>  H       -0.4531438748     2.1543146128    -0.9338102958
| 16>  H        2.1265948939     2.2832416050     0.4593076643
| 17>  H        1.8481587479    -0.5765169876     1.0775572339
| 18>  H        0.7656474541     0.5381500577     1.9675885073
| 19>  H       -0.9601656281    -0.4922615018     0.1955612481
| 20>  H        2.2196242378    -1.6921607626    -2.0932983900
| 21>  H        0.7741700979    -1.4720984198    -3.1841261702
| 22>  H        2.2081387875     0.9629833046    -3.5185405541
| 23>  H        2.8746664464     0.0431845935    -0.8202213414
| 24> *
| 25>
| 26>                          ****END OF INPUT****

CARTESIAN COORDINATES (ANGSTROEM)
---------------------------------
  C     -0.044481    1.646283   -0.067112
  C      1.502964    1.478200    0.071994
  C      1.122495    0.236233    0.980719
  C     -0.058177    0.071253   -0.036226
  C      0.698493   -0.167720   -1.342679
  C      1.415058   -1.029149   -2.420705
  C      1.719933    0.503090   -2.656659
  O      0.305054    0.764237   -2.466399
  C      2.002625    0.630383   -1.122967
  H     -0.468981    2.044172    0.858297
  H     -0.453144    2.154315   -0.933810
  H      2.126595    2.283242    0.459308
  H      1.848159   -0.576517    1.077557
  H      0.765647    0.538150    1.967589
  H     -0.960166   -0.492262    0.195561
  H      2.219624   -1.692161   -2.093298
  H      0.774170   -1.472098   -3.184126
  H      2.208139    0.962983   -3.518541
  H      2.874666    0.043185   -0.820221

 Total Charge           Charge          ....    0
 Multiplicity           Mult            ....    1
 Number of Electrons    NEL             ....   66
 Basis Dimension        Dim             ....  339

ORBITAL ENERGIES
----------------

  NO   OCC          E(Eh)            E(eV)
   0   2.0000     -20.534378      -558.7688
   1   2.0000     -11.301898      -307.5403
   2   2.0000     -11.295993      -307.3796
   3   2.0000     -11.244952      -305.9907
   4   2.0000     -11.244840      -305.9877
   5   2.0000     -11.243233      -305.9439
   6   2.0000     -11.234375      -305.7029
   7   2.0000     -11.229776      -305.5777
   8   2.0000     -11.222555      -305.3813
   9   2.0000      -1.391094       -37.8536
  10   2.0000      -1.174170       -31.9508
  11   2.0000      -1.060495       -28.8575
  12   2.0000      -0.942475       -25.6460
  13   2.0000      -0.902891       -24.5689
  14   2.0000      -0.893943       -24.3254
  15   2.0000      -0.839086       -22.8327
  16   2.0000      -0.755653       -20.5624
  17   2.0000      -0.720074       -19.5942
  18   2.0000      -0.680668       -18.5219
  19   2.0000      -0.650712       -17.7068
  20   2.0000      -0.622903       -16.9501
  21   2.0000      -0.600939       -16.3524
  22   2.0000      -0.577208       -15.7066
  23   2.0000      -0.544095       -14.8056
  24   2.0000      -0.512337       -13.9414
  25   2.0000      -0.494408       -13.4535
  26   2.0000      -0.488486       -13.2924
  27   2.0000      -0.463029       -12.5997
  28   2.0000      -0.459267       -12.4973
  29   2.0000      -0.448259       -12.1977
  30   2.0000      -0.433092       -11.7850
  31   2.0000      -0.400404       -10.8955
  32   2.0000      -0.376759       -10.2521
  33   0.0000       0.145248         3.9524
  34   0.0000       0.157578         4.2879
  35   0.0000       0.159836         4.3494
  36   0.0000       0.176539         4.8039
  37   0.0000       0.191778         5.2185

MULLIKEN ATOMIC CHARGES
-----------------------
   0 C :   -0.259432
   1 C :   -0.042477
   2 C :   -0.286931
   3 C :   -0.087386
   4 C :    0.025605
   5 C :   -0.111854
   6 C :   -0.034515
   7 O :   -0.324640
   8 C :   -0.128250
   9 H :    0.116150
  10 H :    0.151015
  11 H :    0.130406
  12 H :    0.118910
  13 H :    0.126008
  14 H :    0.138106
  15 H :    0.114060
  16 H :    0.119984
  17 H :    0.133225
  18 H :    0.102014
Sum of atomic charges:   -0.0000000

LOEWDIN ATOMIC CHARGES
----------------------
   0 C :   -0.188623
   1 C :   -0.174116
   2 C :   -0.184217
   3 C :   -0.168500
   4 C :   -0.200370
   5 C :   -0.175520
   6 C :   -0.230396
   7 O :    0.147068
   8 C :   -0.152687
   9 H :    0.136449
  10 H :    0.132530
  11 H :    0.131139
  12 H :    0.125855
  13 H :    0.137025
  14 H :    0.135185
  15 H :    0.126967
  16 H :    0.131541
  17 H :    0.120970
  18 H :    0.149700

  Mayer bond orders larger than 0.1
B(  0-C ,  1-C ) :   0.9317 B(  0-C ,  3-C ) :   0.9185 B(  0-C ,  9-H ) :   0.9276
B(  0-C , 10-H ) :   0.9078 B(  1-C ,  2-C ) :   0.8767 B(  1-C ,  8-C ) :   0.8911
B(  1-C , 11-H ) :   0.9173 B(  2-C ,  3-C ) :   0.8888 B(  2-C , 12-H ) :   0.9280
B(  2-C , 13-H ) :   0.9205 B(  3-C ,  4-C ) :   0.9012 B(  3-C , 14-H ) :   0.9056
B(  4-C ,  5-C ) :   0.8658 B(  4-C ,  7-O ) :   0.8467 B(  4-C ,  8-C ) :   0.9021
B(  5-C ,  6-C ) :   0.9175 B(  5-C , 15-H ) :   0.9105 B(  5-C , 16-H ) :   0.9196
B(  6-C ,  7-O ) :   0.9226 B(  6-C ,  8-C ) :   0.8776 B(  6-C , 17-H ) :   0.8888
B(  8-C , 18-H ) :   0.9567

MP2 TOTAL ENERGY:     -385.093321075 Eh
FINAL SINGLE POINT ENERGY      -385.093321074802

DIPOLE MOMENT
-------------
                                X             Y             Z
Electronic contribution:     -0.83158       0.46794      -3.44566
Nuclear contribution   :      1.31779      -0.77671       3.93331
                        -----------------------------------------
Total Dipole Moment    :      0.48621      -0.30877       0.48765
                        -----------------------------------------
Magnitude (a.u.)       :      0.75468
Magnitude (Debye)      :      1.91824

                             ****ORCA TERMINATED NORMALLY****
TOTAL RUN TIME: 0 days 0 hours 20 minutes 59 seconds 214 msec
