                         Program Version 3.0.3 - RELEASE   -
|  1> ! RI-MP2 RIJK def2-TZVP def2-TZVP/C def2-TZVP/JK TIGHTSCF
|  2> % maxcore 2000
|  3> % mp2 density relaxed end
|  4> *xyz 0 1
|  5>  C       -0.0785923467     1.5786582937     0.0159725557
|  6>  C        0.0193332088     0.0428398685     0.0211917520
|  7>  C        0.8644799768    -0.5386030483    -1.1125826476
|  8>  C        1.8684363919    -1.2800120266    -0.6251360917
|  9>  N        1.7825383480    -1.2633740015     0.7796284580
| 10>  N        2.4783729120    -1.7827793985     1.8118316644
| 11>  C        1.7864340689    -1.2997538454     2.8423436745
| 12>  N        0.7070602356    -0.5134125449     2.5323884107
| 13>  C        0.7419285921    -0.5187317699     1.2145295983
| 14>  H        0.9163214557     2.0306864689     0.0467110538
| 15>  H       -0.5893900576     1.9273140133    -0.8860897756
| 16>  H       -0.6399361435     1.9224362038     0.8884658771
| 17>  H       -0.9963362715    -0.3729374199    -0.0278904527
| 18>  H        0.6641491113    -0.3593806988    -2.1585592555
| 19>  H        2.6531678502    -1.8339606559    -1.1160697081
| 20>  H        2.0713054878    -1.5234762683     3.8595689266
| 21> *
| 22>
| 23>                          ****END OF INPUT****

CARTESIAN COORDINATES (ANGSTROEM)
---------------------------------
  C     -0.078592    1.578658    0.015973
  C      0.019333    0.042840    0.021192
  C      0.864480   -0.538603   -1.112583
  C      1.868436   -1.280012   -0.625136
  N      1.782538   -1.263374    0.779628
  N      2.478373   -1.782779    1.811832
  C      1.786434   -1.299754    2.842344
  N      0.707060   -0.513413    2.532388
  C      0.741929   -0.518732    1.214530
  H      0.916321    2.030686    0.046711
  H     -0.589390    1.927314   -0.886090
  H     -0.639936    1.922436    0.888466
  H     -0.996336   -0.372937   -0.027890
  H      0.664149   -0.359381   -2.158559
  H      2.653168   -1.833961   -1.116070
  H      2.071305   -1.523476    3.859569

 Total Charge           Charge          ....    0
 Multiplicity           Mult            ....    1
 Number of Electrons    NEL             ....   64
 Basis Dimension        Dim             ....  321

ORBITAL ENERGIES
----------------

  NO   OCC          E(Eh)            E(eV)
   0   2.0000     -15.649128      -425.8344
   1   2.0000     -15.594065      -424.3361
   2   2.0000     -15.556440      -423.3122
   3   2.0000     -11.310723      -307.7804
   4   2.0000     -11.298521      -307.4484
   5   2.0000     -11.288188      -307.1672
   6   2.0000     -11.272647      -306.7443
   7   2.0000     -11.252611      -306.1991
   8   2.0000     -11.239090      -305.8312
   9   2.0000      -1.422608       -38.7111
  10   2.0000      -1.220582       -33.2137
  11   2.0000      -1.180975       -32.1360
  12   2.0000      -1.057423       -28.7739
  13   2.0000      -1.009708       -27.4755
  14   2.0000      -0.918954       -25.0060
  15   2.0000      -0.840811       -22.8796
  16   2.0000      -0.811858       -22.0918
  17   2.0000      -0.773350       -21.0439
  18   2.0000      -0.689012       -18.7490
  19   2.0000      -0.664318       -18.0770
  20   2.0000      -0.645710       -17.5707
  21   2.0000      -0.630002       -17.1432
  22   2.0000      -0.611192       -16.6314
  23   2.0000      -0.575822       -15.6689
  24   2.0000      -0.551403       -15.0044
  25   2.0000      -0.532626       -14.4935
  26   2.0000      -0.509758       -13.8712
  27   2.0000      -0.482391       -13.1265
  28   2.0000      -0.464913       -12.6509
  29   2.0000      -0.450600       -12.2615
  30   2.0000      -0.379616       -10.3299
  31   2.0000      -0.330542        -8.9945
  32   0.0000       0.102941         2.8012
  33   0.0000       0.140636         3.8269
  34   0.0000       0.167263         4.5515
  35   0.0000       0.169853         4.6219
  36   0.0000       0.176550         4.8042

MULLIKEN ATOMIC CHARGES
-----------------------
   0 C :   -0.404030
   1 C :    0.090636
   2 C :   -0.231056
   3 C :   -0.089464
   4 N :    0.137684
   5 N :   -0.287603
   6 C :    0.046740
   7 N :   -0.288657
   8 C :   -0.002456
   9 H :    0.140029
  10 H :    0.136701
  11 H :    0.155105
  12 H :    0.133759
  13 H :    0.152532
  14 H :    0.167642
  15 H :    0.142439
Sum of atomic charges:   -0.0000000

LOEWDIN ATOMIC CHARGES
----------------------
   0 C :   -0.268315
   1 C :   -0.212451
   2 C :   -0.124324
   3 C :   -0.150196
   4 N :    0.233489
   5 N :    0.036012
   6 C :   -0.331735
   7 N :    0.097088
   8 C :   -0.267448
   9 H :    0.130573
  10 H :    0.125727
  11 H :    0.133536
  12 H :    0.176296
  13 H :    0.145334
  14 H :    0.146711
  15 H :    0.129703

  Mayer bond orders larger than 0.1
B(  0-C ,  1-C ) :   0.8699 B(  0-C ,  9-H ) :   0.9288 B(  0-C , 10-H ) :   0.9354
B(  0-C , 11-H ) :   0.9320 B(  1-C ,  2-C ) :   0.9276 B(  1-C ,  8-C ) :   0.9902
B(  1-C , 12-H ) :   0.8969 B(  2-C ,  3-C ) :   1.7212 B(  2-C , 13-H ) :   0.9199
B(  3-C ,  4-N ) :   0.9783 B(  3-C , 14-H ) :   0.9206 B(  4-N ,  5-N ) :   1.0148
B(  4-N ,  8-C ) :   1.1791 B(  5-N ,  6-C ) :   1.4688 B(  6-C ,  7-N ) :   1.2757
B(  6-C , 15-H ) :   0.9355 B(  7-N ,  8-C ) :   1.5825

MP2 TOTAL ENERGY:     -396.264818991 Eh
FINAL SINGLE POINT ENERGY      -396.264818991429

DIPOLE MOMENT
-------------
                                X             Y             Z
Electronic contribution:      3.25282      -5.27931       3.58333
Nuclear contribution   :     -3.54651       5.58766      -4.87491
                        -----------------------------------------
Total Dipole Moment    :     -0.29369       0.30835      -1.29158
                        -----------------------------------------
Magnitude (a.u.)       :      1.35997
Magnitude (Debye)      :      3.45676

                             ****ORCA TERMINATED NORMALLY****
TOTAL RUN TIME: 0 days 0 hours 16 minutes 23 seconds 31 msec
