                         Program Version 3.0.3 - RELEASE   -
|  1> ! RI-MP2 RIJK def2-TZVP def2-TZVP/C def2-TZVP/JK TIGHTSCF
|  2> % maxcore 2000
|  3> % mp2 density relaxed end
|  4> *xyz 0 1
|  5>  C       -0.4525583826     1.3854112085     0.1737516079
|  6>  C        0.3745109032     0.1215023483    -0.1255461012
|  7>  C        0.9851749824    -0.4651208180     1.0625282488
|  8>  C        1.4744852805    -0.9309694657     2.0619443654
|  9>  C        2.0995178934    -1.4689462015     3.2400419683
| 10>  O        3.4354773406    -1.0936452464     3.4597639902
| 11>  C        1.2520573092    -1.7714919930     4.4752142121
| 12>  C        1.8017135629    -2.8972119596     3.6504037669
| 13>  O        0.8843187513    -3.6524708654     2.9299842081
| 14>  H        0.1729811202     2.1616404603     0.6228195292
| 15>  H       -0.8880302248     1.7836099514    -0.7476079608
| 16>  H       -1.2645574498     1.1616864485     0.8708029829
| 17>  H       -0.2646221489    -0.6283743176    -0.6094882950
| 18>  H        1.1596700183     0.3596560174    -0.8547629155
| 19>  H        3.4460306641    -0.1445911768     3.6287583675
| 20>  H        1.7134837184    -1.5701675249     5.4352104266
| 21>  H        0.1859795516    -1.5924455456     4.4029150336
| 22>  H        2.6614331215    -3.4357929943     4.0482782244
| 23>  H        1.2026597385    -3.7252365957     2.0231995903
| 24> *
| 25>
| 26>                          ****END OF INPUT****

CARTESIAN COORDINATES (ANGSTROEM)
---------------------------------
  C     -0.452558    1.385411    0.173752
  C      0.374511    0.121502   -0.125546
  C      0.985175   -0.465121    1.062528
  C      1.474485   -0.930969    2.061944
  C      2.099518   -1.468946    3.240042
  O      3.435477   -1.093645    3.459764
  C      1.252057   -1.771492    4.475214
  C      1.801714   -2.897212    3.650404
  O      0.884319   -3.652471    2.929984
  H      0.172981    2.161640    0.622820
  H     -0.888030    1.783610   -0.747608
  H     -1.264557    1.161686    0.870803
  H     -0.264622   -0.628374   -0.609488
  H      1.159670    0.359656   -0.854763
  H      3.446031   -0.144591    3.628758
  H      1.713484   -1.570168    5.435210
  H      0.185980   -1.592446    4.402915
  H      2.661433   -3.435793    4.048278
  H      1.202660   -3.725237    2.023200

 Total Charge           Charge          ....    0
 Multiplicity           Mult            ....    1
 Number of Electrons    NEL             ....   68
 Basis Dimension        Dim             ....  339

ORBITAL ENERGIES
----------------

  NO   OCC          E(Eh)            E(eV)
   0   2.0000     -20.571326      -559.7742
   1   2.0000     -20.565070      -559.6040
   2   2.0000     -11.310903      -307.7853
   3   2.0000     -11.289785      -307.2107
   4   2.0000     -11.254824      -306.2593
   5   2.0000     -11.233276      -305.6730
   6   2.0000     -11.230607      -305.6004
   7   2.0000     -11.227366      -305.5122
   8   2.0000     -11.223133      -305.3970
   9   2.0000      -1.388494       -37.7828
  10   2.0000      -1.370682       -37.2982
  11   2.0000      -1.130222       -30.7549
  12   2.0000      -1.079231       -29.3674
  13   2.0000      -1.002056       -27.2673
  14   2.0000      -0.889187       -24.1960
  15   2.0000      -0.844778       -22.9876
  16   2.0000      -0.827848       -22.5269
  17   2.0000      -0.748528       -20.3685
  18   2.0000      -0.692519       -18.8444
  19   2.0000      -0.669517       -18.2185
  20   2.0000      -0.649309       -17.6686
  21   2.0000      -0.630656       -17.1610
  22   2.0000      -0.626668       -17.0525
  23   2.0000      -0.580985       -15.8094
  24   2.0000      -0.556228       -15.1357
  25   2.0000      -0.551942       -15.0191
  26   2.0000      -0.541726       -14.7411
  27   2.0000      -0.525652       -14.3037
  28   2.0000      -0.515030       -14.0147
  29   2.0000      -0.494035       -13.4434
  30   2.0000      -0.440266       -11.9802
  31   2.0000      -0.426973       -11.6185
  32   2.0000      -0.378813       -10.3080
  33   2.0000      -0.347459        -9.4548
  34   0.0000       0.126770         3.4496
  35   0.0000       0.146857         3.9962
  36   0.0000       0.155282         4.2254
  37   0.0000       0.172121         4.6837
  38   0.0000       0.177079         4.8186

MULLIKEN ATOMIC CHARGES
-----------------------
   0 C :   -0.360575
   1 C :   -0.309864
   2 C :    0.032818
   3 C :   -0.082574
   4 C :    0.115272
   5 O :   -0.460121
   6 C :   -0.260390
   7 C :    0.042286
   8 O :   -0.456748
   9 H :    0.128728
  10 H :    0.133330
  11 H :    0.132451
  12 H :    0.143564
  13 H :    0.145178
  14 H :    0.326113
  15 H :    0.140017
  16 H :    0.139836
  17 H :    0.118558
  18 H :    0.332121
Sum of atomic charges:    0.0000000

LOEWDIN ATOMIC CHARGES
----------------------
   0 C :   -0.299548
   1 C :   -0.277772
   2 C :   -0.063587
   3 C :   -0.053608
   4 C :   -0.350593
   5 O :    0.031117
   6 C :   -0.175580
   7 C :   -0.295801
   8 O :    0.011602
   9 H :    0.123667
  10 H :    0.121401
  11 H :    0.124671
  12 H :    0.154569
  13 H :    0.154555
  14 H :    0.184476
  15 H :    0.138707
  16 H :    0.144899
  17 H :    0.139433
  18 H :    0.187394

  Mayer bond orders larger than 0.1
B(  0-C ,  1-C ) :   0.9395 B(  0-C ,  9-H ) :   0.9354 B(  0-C , 10-H ) :   0.9390
B(  0-C , 11-H ) :   0.9354 B(  1-C ,  2-C ) :   0.9427 B(  1-C , 12-H ) :   0.9421
B(  1-C , 13-H ) :   0.9410 B(  2-C ,  3-C ) :   2.6712 B(  3-C ,  4-C ) :   1.0618
B(  4-C ,  5-O ) :   0.9412 B(  4-C ,  6-C ) :   0.8740 B(  4-C ,  7-C ) :   0.8518
B(  5-O , 14-H ) :   0.8378 B(  6-C ,  7-C ) :   0.8853 B(  6-C , 15-H ) :   0.9146
B(  6-C , 16-H ) :   0.9104 B(  7-C ,  8-O ) :   1.0603 B(  7-C , 17-H ) :   0.9573
B(  8-O , 18-H ) :   0.8344

MP2 TOTAL ENERGY:     -422.265163263 Eh
FINAL SINGLE POINT ENERGY      -422.265163262735

DIPOLE MOMENT
-------------
                                X             Y             Z
Electronic contribution:      4.72427      -5.42140       3.93233
Nuclear contribution   :     -4.83183       6.13621      -4.31751
                        -----------------------------------------
Total Dipole Moment    :     -0.10756       0.71481      -0.38519
                        -----------------------------------------
Magnitude (a.u.)       :      0.81908
Magnitude (Debye)      :      2.08195

                             ****ORCA TERMINATED NORMALLY****
TOTAL RUN TIME: 0 days 0 hours 15 minutes 33 seconds 640 msec
