                         Program Version 3.0.3 - RELEASE   -
|  1> ! RI-MP2 RIJK def2-TZVP def2-TZVP/C def2-TZVP/JK TIGHTSCF
|  2> % maxcore 2000
|  3> % mp2 density relaxed end
|  4> *xyz 0 1
|  5>  C       -0.0669922168     1.5215670977    -0.0132210659
|  6>  C        0.0241032120     0.0071059892     0.0639486817
|  7>  N        1.1141289107    -0.5631051853    -0.8261955718
|  8>  C        2.0431568892    -0.4841983255     0.3608823389
|  9>  C        0.7876971925    -0.6082773193     1.2671651175
| 10>  O        0.6821365636     0.0553859996     2.4969216300
| 11>  C        0.4276964249    -2.0857096761     1.3050845981
| 12>  C        0.4453452375    -2.7553671708     0.1534388202
| 13>  C        0.8148220527    -1.9839722227    -1.1020152963
| 14>  H        0.8954909106     2.0085954731     0.1612639543
| 15>  H       -0.4221885179     1.8201836754    -1.0043656643
| 16>  H       -0.7708350126     1.8933626511     0.7375741362
| 17>  H       -0.9590613151    -0.4358852108    -0.1250151042
| 18>  H        2.7967068424    -1.2739316892     0.4185271788
| 19>  H        2.5241457603     0.4957358462     0.4011143398
| 20>  H        1.1671749483    -0.4461166608     3.1613714956
| 21>  H        0.1559629942    -2.5325065741     2.2575828514
| 22>  H        0.2023292746    -3.8120117570     0.0809218859
| 23>  H       -0.0021069321    -2.0282071246    -1.8346781710
| 24>  H        1.6873655609    -2.4354588263    -1.5929761649
| 25> *
| 26>
| 27>                          ****END OF INPUT****

CARTESIAN COORDINATES (ANGSTROEM)
---------------------------------
  C     -0.066992    1.521567   -0.013221
  C      0.024103    0.007106    0.063949
  N      1.114129   -0.563105   -0.826196
  C      2.043157   -0.484198    0.360882
  C      0.787697   -0.608277    1.267165
  O      0.682137    0.055386    2.496922
  C      0.427696   -2.085710    1.305085
  C      0.445345   -2.755367    0.153439
  C      0.814822   -1.983972   -1.102015
  H      0.895491    2.008595    0.161264
  H     -0.422189    1.820184   -1.004366
  H     -0.770835    1.893363    0.737574
  H     -0.959061   -0.435885   -0.125015
  H      2.796707   -1.273932    0.418527
  H      2.524146    0.495736    0.401114
  H      1.167175   -0.446117    3.161371
  H      0.155963   -2.532507    2.257583
  H      0.202329   -3.812012    0.080922
  H     -0.002107   -2.028207   -1.834678
  H      1.687366   -2.435459   -1.592976

 Total Charge           Charge          ....    0
 Multiplicity           Mult            ....    1
 Number of Electrons    NEL             ....   68
 Basis Dimension        Dim             ....  345

ORBITAL ENERGIES
----------------

  NO   OCC          E(Eh)            E(eV)
   0   2.0000     -20.564991      -559.6018
   1   2.0000     -15.550471      -423.1498
   2   2.0000     -11.290554      -307.2316
   3   2.0000     -11.255551      -306.2791
   4   2.0000     -11.253443      -306.2217
   5   2.0000     -11.247338      -306.0556
   6   2.0000     -11.232349      -305.6478
   7   2.0000     -11.230562      -305.5991
   8   2.0000     -11.207252      -304.9648
   9   2.0000      -1.376301       -37.4510
  10   2.0000      -1.255726       -34.1700
  11   2.0000      -1.061747       -28.8916
  12   2.0000      -1.024422       -27.8759
  13   2.0000      -0.977522       -26.5997
  14   2.0000      -0.877010       -23.8647
  15   2.0000      -0.846197       -23.0262
  16   2.0000      -0.794414       -21.6171
  17   2.0000      -0.725846       -19.7513
  18   2.0000      -0.696849       -18.9622
  19   2.0000      -0.663300       -18.0493
  20   2.0000      -0.626624       -17.0513
  21   2.0000      -0.618003       -16.8167
  22   2.0000      -0.590536       -16.0693
  23   2.0000      -0.576865       -15.6973
  24   2.0000      -0.556299       -15.1377
  25   2.0000      -0.539613       -14.6836
  26   2.0000      -0.535312       -14.5666
  27   2.0000      -0.521763       -14.1979
  28   2.0000      -0.484848       -13.1934
  29   2.0000      -0.478119       -13.0103
  30   2.0000      -0.468528       -12.7493
  31   2.0000      -0.436320       -11.8729
  32   2.0000      -0.354203        -9.6384
  33   2.0000      -0.348249        -9.4763
  34   0.0000       0.132174         3.5966
  35   0.0000       0.145071         3.9476
  36   0.0000       0.155010         4.2180
  37   0.0000       0.165347         4.4993
  38   0.0000       0.180348         4.9075

MULLIKEN ATOMIC CHARGES
-----------------------
   0 C :   -0.399351
   1 C :   -0.038099
   2 N :   -0.166023
   3 C :   -0.241964
   4 C :    0.387551
   5 O :   -0.463804
   6 C :   -0.344492
   7 C :   -0.155122
   8 C :   -0.149992
   9 H :    0.125623
  10 H :    0.131980
  11 H :    0.133598
  12 H :    0.107280
  13 H :    0.117778
  14 H :    0.125264
  15 H :    0.315818
  16 H :    0.124065
  17 H :    0.124775
  18 H :    0.132193
  19 H :    0.132923
Sum of atomic charges:    0.0000000

LOEWDIN ATOMIC CHARGES
----------------------
   0 C :   -0.285986
   1 C :   -0.221658
   2 N :    0.106028
   3 C :   -0.205563
   4 C :   -0.348684
   5 O :    0.020127
   6 C :   -0.140427
   7 C :   -0.168087
   8 C :   -0.277260
   9 H :    0.126228
  10 H :    0.127254
  11 H :    0.129458
  12 H :    0.145083
  13 H :    0.125989
  14 H :    0.129277
  15 H :    0.177765
  16 H :    0.141426
  17 H :    0.139519
  18 H :    0.140251
  19 H :    0.139260

  Mayer bond orders larger than 0.1
B(  0-C ,  1-C ) :   0.9185 B(  0-C ,  9-H ) :   0.9285 B(  0-C , 10-H ) :   0.9392
B(  0-C , 11-H ) :   0.9362 B(  1-C ,  2-N ) :   0.8590 B(  1-C ,  4-C ) :   0.8497
B(  1-C , 12-H ) :   0.9307 B(  2-N ,  3-C ) :   0.9022 B(  2-N ,  8-C ) :   0.9538
B(  3-C ,  4-C ) :   0.8881 B(  3-C , 13-H ) :   0.9212 B(  3-C , 14-H ) :   0.9109
B(  4-C ,  5-O ) :   1.0004 B(  4-C ,  6-C ) :   0.9108 B(  5-O , 15-H ) :   0.8377
B(  6-C ,  7-C ) :   1.7827 B(  6-C , 16-H ) :   0.9297 B(  7-C ,  8-C ) :   0.9488
B(  7-C , 17-H ) :   0.9189 B(  8-C , 18-H ) :   0.9197 B(  8-C , 19-H ) :   0.9214

MP2 TOTAL ENERGY:     -402.432854697 Eh
FINAL SINGLE POINT ENERGY      -402.432854696983

DIPOLE MOMENT
-------------
                                X             Y             Z
Electronic contribution:      0.54472      -1.83906       2.38539
Nuclear contribution   :     -0.39604       1.14780      -2.05597
                        -----------------------------------------
Total Dipole Moment    :      0.14868      -0.69126       0.32942
                        -----------------------------------------
Magnitude (a.u.)       :      0.78004
Magnitude (Debye)      :      1.98271

                             ****ORCA TERMINATED NORMALLY****
TOTAL RUN TIME: 0 days 0 hours 21 minutes 11 seconds 539 msec
