                         Program Version 3.0.3 - RELEASE   -
|  1> ! RI-MP2 RIJK def2-TZVP def2-TZVP/C def2-TZVP/JK TIGHTSCF
|  2> % maxcore 2000
|  3> % mp2 density relaxed end
|  4> *xyz 0 1
|  5>  C        0.0582407796     1.5634394776     0.2208656402
|  6>  C        0.2333970021     0.0478467919     0.0959578896
|  7>  C        0.5687162746    -0.6277169131     1.4327949659
|  8>  C        0.7201206197    -2.1311779735     1.3273983208
|  9>  O       -0.4625002228    -2.8343620756     1.0355281805
| 10>  C        2.0196507800    -2.7206097558     0.7981029310
| 11>  C        1.6496127104    -2.8810900908     2.2456407453
| 12>  O        2.4391477724    -2.2057527985     3.1710320854
| 13>  C        1.8121364491    -2.0725404004     4.4332336257
| 14>  H        0.9734332875     2.0371297732     0.5931182254
| 15>  H       -0.1843065933     2.0193164039    -0.7441720929
| 16>  H       -0.7486232894     1.8118127783     0.9191575058
| 17>  H       -0.6897570781    -0.3887151059    -0.3083771528
| 18>  H        1.0254018469    -0.1748072595    -0.6306522229
| 19>  H        1.4938694061    -0.2082229000     1.8424006438
| 20>  H       -0.2289674060    -0.4104816024     2.1555343299
| 21>  H       -0.6497688359    -2.7243178205     0.0969234051
| 22>  H        1.9666992195    -3.5988925235     0.1644378611
| 23>  H        2.8301800832    -2.0338767033     0.5780682769
| 24>  H        1.2987491458    -3.8627460729     2.5676993527
| 25>  H        0.8832201059    -1.4894192438     4.3695493922
| 26>  H        1.5754649977    -3.0548925345     4.8686160977
| 27>  H        2.5167214851    -1.5552077110     5.0885989836
| 28> *
| 29>
| 30>                          ****END OF INPUT****

CARTESIAN COORDINATES (ANGSTROEM)
---------------------------------
  C      0.058241    1.563439    0.220866
  C      0.233397    0.047847    0.095958
  C      0.568716   -0.627717    1.432795
  C      0.720121   -2.131178    1.327398
  O     -0.462500   -2.834362    1.035528
  C      2.019651   -2.720610    0.798103
  C      1.649613   -2.881090    2.245641
  O      2.439148   -2.205753    3.171032
  C      1.812136   -2.072540    4.433234
  H      0.973433    2.037130    0.593118
  H     -0.184307    2.019316   -0.744172
  H     -0.748623    1.811813    0.919158
  H     -0.689757   -0.388715   -0.308377
  H      1.025402   -0.174807   -0.630652
  H      1.493869   -0.208223    1.842401
  H     -0.228967   -0.410482    2.155534
  H     -0.649769   -2.724318    0.096923
  H      1.966699   -3.598893    0.164438
  H      2.830180   -2.033877    0.578068
  H      1.298749   -3.862746    2.567699
  H      0.883220   -1.489419    4.369549
  H      1.575465   -3.054893    4.868616
  H      2.516721   -1.555208    5.088599

 Total Charge           Charge          ....    0
 Multiplicity           Mult            ....    1
 Number of Electrons    NEL             ....   72
 Basis Dimension        Dim             ....  363

ORBITAL ENERGIES
----------------

  NO   OCC          E(Eh)            E(eV)
   0   2.0000     -20.560660      -559.4840
   1   2.0000     -20.560319      -559.4747
   2   2.0000     -11.282736      -307.0188
   3   2.0000     -11.276412      -306.8468
   4   2.0000     -11.270542      -306.6870
   5   2.0000     -11.223065      -305.3951
   6   2.0000     -11.221162      -305.3433
   7   2.0000     -11.220084      -305.3140
   8   2.0000     -11.214805      -305.1704
   9   2.0000      -1.386232       -37.7213
  10   2.0000      -1.367132       -37.2016
  11   2.0000      -1.124148       -30.5896
  12   2.0000      -1.056512       -28.7491
  13   2.0000      -0.949323       -25.8324
  14   2.0000      -0.924948       -25.1691
  15   2.0000      -0.835166       -22.7260
  16   2.0000      -0.808982       -22.0135
  17   2.0000      -0.765240       -20.8232
  18   2.0000      -0.700562       -19.0633
  19   2.0000      -0.669267       -18.2117
  20   2.0000      -0.651693       -17.7335
  21   2.0000      -0.632081       -17.1998
  22   2.0000      -0.628035       -17.0897
  23   2.0000      -0.599318       -16.3083
  24   2.0000      -0.588734       -16.0203
  25   2.0000      -0.564660       -15.3652
  26   2.0000      -0.543683       -14.7944
  27   2.0000      -0.530302       -14.4302
  28   2.0000      -0.512915       -13.9571
  29   2.0000      -0.504051       -13.7159
  30   2.0000      -0.487107       -13.2548
  31   2.0000      -0.478933       -13.0324
  32   2.0000      -0.474230       -12.9045
  33   2.0000      -0.458871       -12.4865
  34   2.0000      -0.400027       -10.8853
  35   2.0000      -0.375477       -10.2173
  36   0.0000       0.133790         3.6406
  37   0.0000       0.150578         4.0974
  38   0.0000       0.156469         4.2577
  39   0.0000       0.174019         4.7353
  40   0.0000       0.183509         4.9935

MULLIKEN ATOMIC CHARGES
-----------------------
   0 C :   -0.389304
   1 C :   -0.208092
   2 C :   -0.271910
   3 C :    0.214907
   4 O :   -0.466084
   5 C :   -0.322854
   6 C :    0.051315
   7 O :   -0.305810
   8 C :   -0.212651
   9 H :    0.124523
  10 H :    0.133939
  11 H :    0.124029
  12 H :    0.091737
  13 H :    0.114267
  14 H :    0.136534
  15 H :    0.112730
  16 H :    0.323651
  17 H :    0.139418
  18 H :    0.129917
  19 H :    0.104447
  20 H :    0.117953
  21 H :    0.117816
  22 H :    0.139520
Sum of atomic charges:   -0.0000000

LOEWDIN ATOMIC CHARGES
----------------------
   0 C :   -0.320207
   1 C :   -0.293756
   2 C :   -0.235793
   3 C :   -0.352387
   4 O :    0.021547
   5 C :   -0.194860
   6 C :   -0.287580
   7 O :    0.167792
   8 C :   -0.345176
   9 H :    0.121060
  10 H :    0.120480
  11 H :    0.121045
  12 H :    0.130393
  13 H :    0.135494
  14 H :    0.150736
  15 H :    0.143885
  16 H :    0.177803
  17 H :    0.135931
  18 H :    0.142162
  19 H :    0.139816
  20 H :    0.104089
  21 H :    0.104349
  22 H :    0.113178

  Mayer bond orders larger than 0.1
B(  0-C ,  1-C ) :   0.9261 B(  0-C ,  9-H ) :   0.9408 B(  0-C , 10-H ) :   0.9434
B(  0-C , 11-H ) :   0.9392 B(  1-C ,  2-C ) :   0.9321 B(  1-C , 12-H ) :   0.9276
B(  1-C , 13-H ) :   0.9337 B(  2-C ,  3-C ) :   0.9141 B(  2-C , 14-H ) :   0.9184
B(  2-C , 15-H ) :   0.9194 B(  3-C ,  4-O ) :   0.9681 B(  3-C ,  5-C ) :   0.8827
B(  3-C ,  6-C ) :   0.8579 B(  4-O , 16-H ) :   0.8395 B(  5-C ,  6-C ) :   0.9098
B(  5-C , 17-H ) :   0.9171 B(  5-C , 18-H ) :   0.9061 B(  6-C ,  7-O ) :   0.9946
B(  6-C , 19-H ) :   0.9393 B(  7-O ,  8-C ) :   0.8925 B(  8-C , 20-H ) :   0.9359
B(  8-C , 21-H ) :   0.9367 B(  8-C , 22-H ) :   0.9398

MP2 TOTAL ENERGY:     -424.695059996 Eh
FINAL SINGLE POINT ENERGY      -424.695059995845

DIPOLE MOMENT
-------------
                                X             Y             Z
Electronic contribution:      1.52796      -7.16297       1.28191
Nuclear contribution   :     -1.65810       7.39251      -1.53060
                        -----------------------------------------
Total Dipole Moment    :     -0.13015       0.22954      -0.24870
                        -----------------------------------------
Magnitude (a.u.)       :      0.36260
Magnitude (Debye)      :      0.92165

                             ****ORCA TERMINATED NORMALLY****
TOTAL RUN TIME: 0 days 0 hours 17 minutes 19 seconds 446 msec
