                         Program Version 3.0.3 - RELEASE   -
|  1> ! RI-MP2 RIJK def2-TZVP def2-TZVP/C def2-TZVP/JK TIGHTSCF
|  2> % maxcore 2000
|  3> % mp2 density relaxed end
|  4> *xyz 0 1
|  5>  N       -0.1972838670    -1.0195404653     0.5887542698
|  6>  C       -0.1063433505     0.0767894345     0.2353408312
|  7>  C        0.0280790974     1.4713392146    -0.2012691791
|  8>  C        1.4559419401     1.9535677265    -0.1720658967
|  9>  C        2.1228695221     2.4942725769    -1.1963855538
| 10>  C        3.4760029400     2.9672535008    -0.7936344021
| 11>  C        3.4876242357     4.0686184467     0.2503991795
| 12>  C        3.5850018141     2.6316540505     0.6881722889
| 13>  C        2.3011096557     1.9074777054     1.0894030223
| 14>  H       -0.3861598979     1.5636534599    -1.2106493578
| 15>  H       -0.6042466264     2.0838960716     0.4564591467
| 16>  H        1.7280121411     2.6161181290    -2.1995370358
| 17>  H        4.3113337996     2.8795514792    -1.4790008890
| 18>  H        4.3881814367     4.6680902777     0.3338478456
| 19>  H        2.5638570393     4.6130506664     0.4209487815
| 20>  H        4.5238335870     2.2939700425     1.1096417498
| 21>  H        1.7958895862     2.3854968340     1.9395653968
| 22>  H        2.4952776369     0.8702107794     1.3918713422
| 23> *
| 24>
| 25>                          ****END OF INPUT****

CARTESIAN COORDINATES (ANGSTROEM)
---------------------------------
  N     -0.197284   -1.019540    0.588754
  C     -0.106343    0.076789    0.235341
  C      0.028079    1.471339   -0.201269
  C      1.455942    1.953568   -0.172066
  C      2.122870    2.494273   -1.196386
  C      3.476003    2.967254   -0.793634
  C      3.487624    4.068618    0.250399
  C      3.585002    2.631654    0.688172
  C      2.301110    1.907478    1.089403
  H     -0.386160    1.563653   -1.210649
  H     -0.604247    2.083896    0.456459
  H      1.728012    2.616118   -2.199537
  H      4.311334    2.879551   -1.479001
  H      4.388181    4.668090    0.333848
  H      2.563857    4.613051    0.420949
  H      4.523834    2.293970    1.109642
  H      1.795890    2.385497    1.939565
  H      2.495278    0.870211    1.391871

 Total Charge           Charge          ....    0
 Multiplicity           Mult            ....    1
 Number of Electrons    NEL             ....   64
 Basis Dimension        Dim             ....  333

ORBITAL ENERGIES
----------------

  NO   OCC          E(Eh)            E(eV)
   0   2.0000     -15.567583      -423.6155
   1   2.0000     -11.289170      -307.1939
   2   2.0000     -11.272918      -306.7517
   3   2.0000     -11.252410      -306.1936
   4   2.0000     -11.242197      -305.9157
   5   2.0000     -11.241432      -305.8949
   6   2.0000     -11.240480      -305.8690
   7   2.0000     -11.239435      -305.8406
   8   2.0000     -11.235463      -305.7325
   9   2.0000      -1.218611       -33.1601
  10   2.0000      -1.194373       -32.5005
  11   2.0000      -1.093995       -29.7691
  12   2.0000      -0.998883       -27.1810
  13   2.0000      -0.973383       -26.4871
  14   2.0000      -0.832997       -22.6670
  15   2.0000      -0.782965       -21.3056
  16   2.0000      -0.739121       -20.1125
  17   2.0000      -0.710046       -19.3213
  18   2.0000      -0.688421       -18.7329
  19   2.0000      -0.636578       -17.3222
  20   2.0000      -0.626019       -17.0349
  21   2.0000      -0.590340       -16.0640
  22   2.0000      -0.578608       -15.7447
  23   2.0000      -0.554047       -15.0764
  24   2.0000      -0.532784       -14.4978
  25   2.0000      -0.523007       -14.2318
  26   2.0000      -0.498673       -13.5696
  27   2.0000      -0.461636       -12.5618
  28   2.0000      -0.457161       -12.4400
  29   2.0000      -0.451082       -12.2746
  30   2.0000      -0.413155       -11.2425
  31   2.0000      -0.344627        -9.3778
  32   0.0000       0.119456         3.2506
  33   0.0000       0.138123         3.7585
  34   0.0000       0.153595         4.1795
  35   0.0000       0.154599         4.2069
  36   0.0000       0.177385         4.8269

MULLIKEN ATOMIC CHARGES
-----------------------
   0 N :   -0.065521
   1 C :   -0.171621
   2 C :   -0.165595
   3 C :   -0.007550
   4 C :   -0.213575
   5 C :   -0.039007
   6 C :   -0.290350
   7 C :   -0.088373
   8 C :   -0.231962
   9 H :    0.164366
  10 H :    0.166242
  11 H :    0.130770
  12 H :    0.134949
  13 H :    0.133269
  14 H :    0.133378
  15 H :    0.135596
  16 H :    0.130701
  17 H :    0.144282
Sum of atomic charges:   -0.0000000

LOEWDIN ATOMIC CHARGES
----------------------
   0 N :    0.056035
   1 C :   -0.184059
   2 C :   -0.209590
   3 C :   -0.150057
   4 C :   -0.108014
   5 C :   -0.183056
   6 C :   -0.196849
   7 C :   -0.180588
   8 C :   -0.188862
   9 H :    0.171270
  10 H :    0.171566
  11 H :    0.143127
  12 H :    0.144753
  13 H :    0.134967
  14 H :    0.135573
  15 H :    0.144956
  16 H :    0.147209
  17 H :    0.151619

  Mayer bond orders larger than 0.1
B(  0-N ,  1-C ) :   2.8616 B(  1-C ,  2-C ) :   0.9189 B(  2-C ,  3-C ) :   0.9009
B(  2-C ,  9-H ) :   0.9148 B(  2-C , 10-H ) :   0.9082 B(  3-C ,  4-C ) :   1.7522
B(  3-C ,  8-C ) :   0.9746 B(  4-C ,  5-C ) :   0.9464 B(  4-C , 11-H ) :   0.9219
B(  5-C ,  6-C ) :   0.8649 B(  5-C ,  7-C ) :   0.8632 B(  5-C , 12-H ) :   0.9240
B(  6-C ,  7-C ) :   0.8925 B(  6-C , 13-H ) :   0.9288 B(  6-C , 14-H ) :   0.9253
B(  7-C ,  8-C ) :   0.9281 B(  7-C , 15-H ) :   0.9306 B(  8-C , 16-H ) :   0.9111
B(  8-C , 17-H ) :   0.9042

MP2 TOTAL ENERGY:     -364.159588336 Eh
FINAL SINGLE POINT ENERGY      -364.159588336195

DIPOLE MOMENT
-------------
                                X             Y             Z
Electronic contribution:     -3.93462      -5.35430      -0.52547
Nuclear contribution   :      4.31238       6.82203       0.16516
                        -----------------------------------------
Total Dipole Moment    :      0.37776       1.46774      -0.36031
                        -----------------------------------------
Magnitude (a.u.)       :      1.55781
Magnitude (Debye)      :      3.95965

                             ****ORCA TERMINATED NORMALLY****
TOTAL RUN TIME: 0 days 0 hours 17 minutes 25 seconds 623 msec
