                         Program Version 3.0.3 - RELEASE   -
|  1> ! RI-MP2 RIJK def2-TZVP def2-TZVP/C def2-TZVP/JK TIGHTSCF
|  2> % maxcore 2000
|  3> % mp2 density relaxed end
|  4> *xyz 0 1
|  5>  C        0.0281532377     1.5548303744     0.1088270378
|  6>  C        0.0708390032     0.0618614952    -0.1212426834
|  7>  C        0.7115437205    -0.6460580361    -1.2460349262
|  8>  N        1.2669471561    -0.7850124083     0.1899737441
|  9>  C        2.4183957133    -0.0201103702    -0.2330676724
| 10>  N        3.3612400345     0.3899319586     0.4886260222
| 11>  C        2.0377440554    -0.0250266418    -1.7210748118
| 12>  C        2.8803009017    -1.0112184989    -2.5295115302
| 13>  O        2.0377846028     1.2580289306    -2.3081665128
| 14>  H        0.8694738126     2.0779668791    -0.3433773977
| 15>  H       -0.8934711197     1.9594066804    -0.3228966218
| 16>  H        0.0175572629     1.7646747054     1.1831874007
| 17>  H       -0.8152068381    -0.4516018937     0.2487182858
| 18>  H        0.2483538869    -1.5031682528    -1.7255812812
| 19>  H        4.0470974784     0.8912539412    -0.0804169683
| 20>  H        2.9228049947    -1.9903467482    -2.0456240239
| 21>  H        2.4487145185    -1.1474427981    -3.5294872995
| 22>  H        3.8992994348    -0.6302585039    -2.6406761218
| 23>  H        1.9145944136     1.1621241571    -3.2589213297
| 24> *
| 25>
| 26>                          ****END OF INPUT****

CARTESIAN COORDINATES (ANGSTROEM)
---------------------------------
  C      0.028153    1.554830    0.108827
  C      0.070839    0.061861   -0.121243
  C      0.711544   -0.646058   -1.246035
  N      1.266947   -0.785012    0.189974
  C      2.418396   -0.020110   -0.233068
  N      3.361240    0.389932    0.488626
  C      2.037744   -0.025027   -1.721075
  C      2.880301   -1.011218   -2.529512
  O      2.037785    1.258029   -2.308167
  H      0.869474    2.077967   -0.343377
  H     -0.893471    1.959407   -0.322897
  H      0.017557    1.764675    1.183187
  H     -0.815207   -0.451602    0.248718
  H      0.248354   -1.503168   -1.725581
  H      4.047097    0.891254   -0.080417
  H      2.922805   -1.990347   -2.045624
  H      2.448715   -1.147443   -3.529487
  H      3.899299   -0.630259   -2.640676
  H      1.914594    1.162124   -3.258921

 Total Charge           Charge          ....    0
 Multiplicity           Mult            ....    1
 Number of Electrons    NEL             ....   68
 Basis Dimension        Dim             ....  339

ORBITAL ENERGIES
----------------

  NO   OCC          E(Eh)            E(eV)
   0   2.0000     -20.580416      -560.0216
   1   2.0000     -15.574408      -423.8012
   2   2.0000     -15.541960      -422.9182
   3   2.0000     -11.318218      -307.9844
   4   2.0000     -11.308155      -307.7105
   5   2.0000     -11.282685      -307.0175
   6   2.0000     -11.274028      -306.7819
   7   2.0000     -11.242826      -305.9328
   8   2.0000     -11.222071      -305.3681
   9   2.0000      -1.394460       -37.9452
  10   2.0000      -1.312436       -35.7132
  11   2.0000      -1.192583       -32.4518
  12   2.0000      -1.050211       -28.5777
  13   2.0000      -1.000363       -27.2213
  14   2.0000      -0.914123       -24.8745
  15   2.0000      -0.909107       -24.7381
  16   2.0000      -0.789541       -21.4845
  17   2.0000      -0.718674       -19.5561
  18   2.0000      -0.695583       -18.9278
  19   2.0000      -0.688101       -18.7242
  20   2.0000      -0.671213       -18.2646
  21   2.0000      -0.631801       -17.1922
  22   2.0000      -0.591930       -16.1072
  23   2.0000      -0.579570       -15.7709
  24   2.0000      -0.567721       -15.4485
  25   2.0000      -0.560553       -15.2534
  26   2.0000      -0.539176       -14.6717
  27   2.0000      -0.525280       -14.2936
  28   2.0000      -0.505576       -13.7574
  29   2.0000      -0.486816       -13.2469
  30   2.0000      -0.456902       -12.4329
  31   2.0000      -0.421927       -11.4812
  32   2.0000      -0.402334       -10.9481
  33   2.0000      -0.381029       -10.3683
  34   0.0000       0.115672         3.1476
  35   0.0000       0.145961         3.9718
  36   0.0000       0.159674         4.3450
  37   0.0000       0.163686         4.4541
  38   0.0000       0.167070         4.5462

MULLIKEN ATOMIC CHARGES
-----------------------
   0 C :   -0.381251
   1 C :    0.006750
   2 C :   -0.177759
   3 N :   -0.192063
   4 C :   -0.015782
   5 N :   -0.296284
   6 C :    0.275873
   7 C :   -0.448257
   8 O :   -0.459699
   9 H :    0.166179
  10 H :    0.130015
  11 H :    0.139080
  12 H :    0.120671
  13 H :    0.137336
  14 H :    0.233095
  15 H :    0.160899
  16 H :    0.132163
  17 H :    0.150950
  18 H :    0.318084
Sum of atomic charges:   -0.0000000

LOEWDIN ATOMIC CHARGES
----------------------
   0 C :   -0.285705
   1 C :   -0.242971
   2 C :   -0.150727
   3 N :    0.173698
   4 C :   -0.313406
   5 N :   -0.013103
   6 C :   -0.363962
   7 C :   -0.267000
   8 O :    0.019794
   9 H :    0.134171
  10 H :    0.131385
  11 H :    0.132718
  12 H :    0.154376
  13 H :    0.136849
  14 H :    0.176960
  15 H :    0.140375
  16 H :    0.126204
  17 H :    0.131449
  18 H :    0.178895

  Mayer bond orders larger than 0.1
B(  0-C ,  1-C ) :   0.8960 B(  0-C ,  9-H ) :   0.9241 B(  0-C , 10-H ) :   0.9262
B(  0-C , 11-H ) :   0.9318 B(  1-C ,  2-C ) :   0.9699 B(  1-C ,  3-N ) :   0.8683
B(  1-C , 12-H ) :   0.9320 B(  2-C ,  3-N ) :   0.8250 B(  2-C ,  6-C ) :   0.9202
B(  2-C , 13-H ) :   0.8890 B(  3-N ,  4-C ) :   0.9883 B(  4-C ,  5-N ) :   2.0376
B(  4-C ,  6-C ) :   0.9041 B(  5-N , 14-H ) :   0.8474 B(  6-C ,  7-C ) :   0.8857
B(  6-C ,  8-O ) :   0.9887 B(  7-C , 15-H ) :   0.9299 B(  7-C , 16-H ) :   0.9197
B(  7-C , 17-H ) :   0.9387 B(  8-O , 18-H ) :   0.8359

MP2 TOTAL ENERGY:     -418.463083918 Eh
FINAL SINGLE POINT ENERGY      -418.463083918031

DIPOLE MOMENT
-------------
                                X             Y             Z
Electronic contribution:      1.36032      -0.81327       1.99690
Nuclear contribution   :     -1.85539       0.84546      -3.64320
                        -----------------------------------------
Total Dipole Moment    :     -0.49507       0.03219      -1.64630
                        -----------------------------------------
Magnitude (a.u.)       :      1.71943
Magnitude (Debye)      :      4.37044

                             ****ORCA TERMINATED NORMALLY****
TOTAL RUN TIME: 0 days 0 hours 18 minutes 15 seconds 583 msec
