                         Program Version 3.0.3 - RELEASE   -
|  1> ! RI-MP2 RIJK def2-TZVP def2-TZVP/C def2-TZVP/JK TIGHTSCF
|  2> % maxcore 2000
|  3> % mp2 density relaxed end
|  4> *xyz 0 1
|  5>  O        0.3046902012     0.5963370945    -0.9851644643
|  6>  C       -0.0636540863     0.4078915200     0.3766036779
|  7>  C       -1.4022555105    -0.3075903246     0.3703150816
|  8>  C       -1.5273607380    -1.7543774599    -0.0740939627
|  9>  C       -1.3137408859    -2.7705997471     1.0226830992
| 10>  C       -0.6079629837    -2.3789704335     2.2733841335
| 11>  C       -1.1324946877    -1.2321386919     2.7090231917
| 12>  C       -2.1359225295    -0.7641874485     1.6857252458
| 13>  N       -2.5973778286    -2.0353542745     0.9515793108
| 14>  H        1.1939292469     0.9613762323    -1.0075510896
| 15>  H        0.6875636078    -0.1857901917     0.9137119587
| 16>  H       -0.1620791903     1.3738587828     0.9008503286
| 17>  H       -2.1083015628     0.2822157661    -0.2217533923
| 18>  H       -1.6278528377    -2.0756972017    -1.1060730668
| 19>  H       -1.3647307182    -3.8131876993     0.7228954955
| 20>  H        0.1996448271    -2.9480688213     2.7149022173
| 21>  H       -0.8125963043    -0.6459793622     3.5611504012
| 22>  H       -2.9502210097    -0.1345334793     2.0417187137
| 23> *
| 24>
| 25>                          ****END OF INPUT****

CARTESIAN COORDINATES (ANGSTROEM)
---------------------------------
  O      0.304690    0.596337   -0.985164
  C     -0.063654    0.407892    0.376604
  C     -1.402256   -0.307590    0.370315
  C     -1.527361   -1.754377   -0.074094
  C     -1.313741   -2.770600    1.022683
  C     -0.607963   -2.378970    2.273384
  C     -1.132495   -1.232139    2.709023
  C     -2.135923   -0.764187    1.685725
  N     -2.597378   -2.035354    0.951579
  H      1.193929    0.961376   -1.007551
  H      0.687564   -0.185790    0.913712
  H     -0.162079    1.373859    0.900850
  H     -2.108302    0.282216   -0.221753
  H     -1.627853   -2.075697   -1.106073
  H     -1.364731   -3.813188    0.722895
  H      0.199645   -2.948069    2.714902
  H     -0.812596   -0.645979    3.561150
  H     -2.950221   -0.134533    2.041719

 Total Charge           Charge          ....    0
 Multiplicity           Mult            ....    1
 Number of Electrons    NEL             ....   66
 Basis Dimension        Dim             ....  333

ORBITAL ENERGIES
----------------

  NO   OCC          E(Eh)            E(eV)
   0   2.0000     -20.559092      -559.4413
   1   2.0000     -15.559031      -423.3828
   2   2.0000     -11.276862      -306.8590
   3   2.0000     -11.267327      -306.5996
   4   2.0000     -11.263638      -306.4992
   5   2.0000     -11.260070      -306.4021
   6   2.0000     -11.237457      -305.7868
   7   2.0000     -11.235922      -305.7450
   8   2.0000     -11.232086      -305.6406
   9   2.0000      -1.362368       -37.0719
  10   2.0000      -1.304036       -35.4846
  11   2.0000      -1.064605       -28.9694
  12   2.0000      -1.038463       -28.2580
  13   2.0000      -0.959179       -26.1006
  14   2.0000      -0.874588       -23.7988
  15   2.0000      -0.805757       -21.9258
  16   2.0000      -0.780615       -21.2416
  17   2.0000      -0.720330       -19.6012
  18   2.0000      -0.710671       -19.3383
  19   2.0000      -0.688775       -18.7425
  20   2.0000      -0.640687       -17.4340
  21   2.0000      -0.622821       -16.9478
  22   2.0000      -0.589999       -16.0547
  23   2.0000      -0.565510       -15.3883
  24   2.0000      -0.548878       -14.9357
  25   2.0000      -0.529521       -14.4090
  26   2.0000      -0.504229       -13.7208
  27   2.0000      -0.475339       -12.9346
  28   2.0000      -0.463545       -12.6137
  29   2.0000      -0.445919       -12.1341
  30   2.0000      -0.435022       -11.8375
  31   2.0000      -0.400022       -10.8852
  32   2.0000      -0.325814        -8.8659
  33   0.0000       0.127887         3.4800
  34   0.0000       0.134373         3.6565
  35   0.0000       0.153564         4.1787
  36   0.0000       0.170185         4.6310
  37   0.0000       0.173845         4.7306

MULLIKEN ATOMIC CHARGES
-----------------------
   0 O :   -0.469569
   1 C :   -0.105095
   2 C :   -0.034774
   3 C :   -0.090730
   4 C :   -0.053340
   5 C :   -0.161200
   6 C :   -0.271139
   7 C :    0.101474
   8 N :   -0.217944
   9 H :    0.316041
  10 H :    0.115176
  11 H :    0.095606
  12 H :    0.110850
  13 H :    0.130448
  14 H :    0.132508
  15 H :    0.133236
  16 H :    0.131149
  17 H :    0.137302
Sum of atomic charges:    0.0000000

LOEWDIN ATOMIC CHARGES
----------------------
   0 O :   -0.047432
   1 C :   -0.328940
   2 C :   -0.206946
   3 C :   -0.171983
   4 C :   -0.219581
   5 C :   -0.139186
   6 C :   -0.142376
   7 C :   -0.173433
   8 N :    0.153168
   9 H :    0.172232
  10 H :    0.120790
  11 H :    0.117226
  12 H :    0.165983
  13 H :    0.136555
  14 H :    0.146898
  15 H :    0.140362
  16 H :    0.139185
  17 H :    0.137478

  Mayer bond orders larger than 0.1
B(  0-O ,  1-C ) :   1.0273 B(  0-O ,  2-C ) :  -0.1062 B(  0-O ,  9-H ) :   0.8481
B(  1-C ,  2-C ) :   0.9106 B(  1-C , 10-H ) :   0.9181 B(  1-C , 11-H ) :   0.9360
B(  2-C ,  3-C ) :   0.9244 B(  2-C ,  7-C ) :   0.9085 B(  2-C , 12-H ) :   0.9225
B(  3-C ,  4-C ) :   0.9060 B(  3-C ,  8-N ) :   0.8522 B(  3-C , 13-H ) :   0.9074
B(  4-C ,  5-C ) :   0.9514 B(  4-C ,  8-N ) :   0.9373 B(  4-C , 14-H ) :   0.9165
B(  5-C ,  6-C ) :   1.7792 B(  5-C , 15-H ) :   0.9287 B(  6-C ,  7-C ) :   0.9495
B(  6-C , 16-H ) :   0.9310 B(  7-C ,  8-N ) :   0.9472 B(  7-C , 17-H ) :   0.9074

MP2 TOTAL ENERGY:     -401.206808169 Eh
FINAL SINGLE POINT ENERGY      -401.206808169183

DIPOLE MOMENT
-------------
                                X             Y             Z
Electronic contribution:     -1.85075      -1.88074      -0.26099
Nuclear contribution   :      2.87638       2.32151       0.65692
                        -----------------------------------------
Total Dipole Moment    :      1.02563       0.44077       0.39593
                        -----------------------------------------
Magnitude (a.u.)       :      1.18447
Magnitude (Debye)      :      3.01068

                             ****ORCA TERMINATED NORMALLY****
TOTAL RUN TIME: 0 days 0 hours 17 minutes 33 seconds 259 msec
