                         Program Version 3.0.3 - RELEASE   -
|  1> ! RI-MP2 RIJK def2-TZVP def2-TZVP/C def2-TZVP/JK TIGHTSCF
|  2> % maxcore 2000
|  3> % mp2 density relaxed end
|  4> *xyz 0 1
|  5>  C       -0.0590919746     1.6013208052     0.0695213445
|  6>  C        0.0263891668     0.0688582286     0.0024809373
|  7>  C        0.7840896120    -0.4569134378    -1.2056135986
|  8>  C        1.7672954337    -1.2975193114    -0.8837701939
|  9>  C        1.8664159911    -1.4401991013     0.5970229961
| 10>  N        2.1828287792    -0.1460832710     1.2891023262
| 11>  C        0.7896986784    -0.5558364726     1.1771547607
| 12>  C        2.2543605249    -2.6958266247     1.2658899569
| 13>  O        2.5563212530    -3.7156502639     0.6966298674
| 14>  H        0.9421786385     2.0327199784     0.1421429512
| 15>  H       -0.5470846294     2.0016811633    -0.8246141226
| 16>  H       -0.6397216357     1.9240265168     0.9396731657
| 17>  H       -0.9956920985    -0.3362107989    -0.0030331649
| 18>  H        0.5383110222    -0.1371580018    -2.2125580885
| 19>  H        2.4330883752    -1.8133189445    -1.5624799287
| 20>  H        2.5156680044    -0.3438337699     2.2341202232
| 21>  H        0.2540773184    -0.8414059145     2.0777881008
| 22>  H        2.2545302902    -2.6283021998     2.3816383670
| 23> *
| 24>
| 25>                          ****END OF INPUT****

CARTESIAN COORDINATES (ANGSTROEM)
---------------------------------
  C     -0.059092    1.601321    0.069521
  C      0.026389    0.068858    0.002481
  C      0.784090   -0.456913   -1.205614
  C      1.767295   -1.297519   -0.883770
  C      1.866416   -1.440199    0.597023
  N      2.182829   -0.146083    1.289102
  C      0.789699   -0.555836    1.177155
  C      2.254361   -2.695827    1.265890
  O      2.556321   -3.715650    0.696630
  H      0.942179    2.032720    0.142143
  H     -0.547085    2.001681   -0.824614
  H     -0.639722    1.924027    0.939673
  H     -0.995692   -0.336211   -0.003033
  H      0.538311   -0.137158   -2.212558
  H      2.433088   -1.813319   -1.562480
  H      2.515668   -0.343834    2.234120
  H      0.254077   -0.841406    2.077788
  H      2.254530   -2.628302    2.381638

 Total Charge           Charge          ....    0
 Multiplicity           Mult            ....    1
 Number of Electrons    NEL             ....   66
 Basis Dimension        Dim             ....  333

ORBITAL ENERGIES
----------------

  NO   OCC          E(Eh)            E(eV)
   0   2.0000     -20.561467      -559.5059
   1   2.0000     -15.586391      -424.1273
   2   2.0000     -11.341920      -308.6293
   3   2.0000     -11.284285      -307.0610
   4   2.0000     -11.282480      -307.0119
   5   2.0000     -11.249667      -306.1190
   6   2.0000     -11.236620      -305.7640
   7   2.0000     -11.234339      -305.7019
   8   2.0000     -11.222392      -305.3768
   9   2.0000      -1.400940       -38.1215
  10   2.0000      -1.297458       -35.3056
  11   2.0000      -1.105512       -30.0825
  12   2.0000      -1.024841       -27.8873
  13   2.0000      -0.944894       -25.7119
  14   2.0000      -0.910539       -24.7770
  15   2.0000      -0.846713       -23.0402
  16   2.0000      -0.775874       -21.1126
  17   2.0000      -0.748054       -20.3556
  18   2.0000      -0.715714       -19.4756
  19   2.0000      -0.663639       -18.0585
  20   2.0000      -0.646408       -17.5897
  21   2.0000      -0.620982       -16.8978
  22   2.0000      -0.588890       -16.0245
  23   2.0000      -0.566405       -15.4127
  24   2.0000      -0.552014       -15.0211
  25   2.0000      -0.532995       -14.5035
  26   2.0000      -0.525254       -14.2929
  27   2.0000      -0.512422       -13.9437
  28   2.0000      -0.493284       -13.4229
  29   2.0000      -0.479343       -13.0436
  30   2.0000      -0.431509       -11.7419
  31   2.0000      -0.397261       -10.8100
  32   2.0000      -0.353427        -9.6172
  33   0.0000       0.112645         3.0652
  34   0.0000       0.124363         3.3841
  35   0.0000       0.139669         3.8006
  36   0.0000       0.154334         4.1996
  37   0.0000       0.168746         4.5918

MULLIKEN ATOMIC CHARGES
-----------------------
   0 C :   -0.433776
   1 C :    0.067797
   2 C :   -0.188982
   3 C :   -0.229628
   4 C :    0.249676
   5 N :   -0.373307
   6 C :   -0.115261
   7 C :    0.068259
   8 O :   -0.263727
   9 H :    0.155509
  10 H :    0.133073
  11 H :    0.128380
  12 H :    0.101666
  13 H :    0.131849
  14 H :    0.143420
  15 H :    0.218567
  16 H :    0.145175
  17 H :    0.061309
Sum of atomic charges:    0.0000000

LOEWDIN ATOMIC CHARGES
----------------------
   0 C :   -0.283778
   1 C :   -0.231797
   2 C :   -0.110674
   3 C :   -0.101901
   4 C :   -0.249671
   5 N :    0.055262
   6 C :   -0.185980
   7 C :   -0.282131
   8 O :    0.137357
   9 H :    0.131083
  10 H :    0.124441
  11 H :    0.123656
  12 H :    0.160021
  13 H :    0.140888
  14 H :    0.147649
  15 H :    0.171497
  16 H :    0.139685
  17 H :    0.114394

  Mayer bond orders larger than 0.1
B(  0-C ,  1-C ) :   0.8671 B(  0-C ,  9-H ) :   0.9332 B(  0-C , 10-H ) :   0.9379
B(  0-C , 11-H ) :   0.9355 B(  1-C ,  2-C ) :   0.9430 B(  1-C ,  6-C ) :   0.9000
B(  1-C , 12-H ) :   0.9178 B(  2-C ,  3-C ) :   1.7961 B(  2-C , 13-H ) :   0.9242
B(  3-C ,  4-C ) :   0.9103 B(  3-C , 14-H ) :   0.9269 B(  4-C ,  5-N ) :   0.8385
B(  4-C ,  6-C ) :   0.8489 B(  4-C ,  7-C ) :   0.8881 B(  4-C ,  8-O ) :  -0.1147
B(  5-N ,  6-C ) :   1.0221 B(  5-N , 15-H ) :   0.8608 B(  6-C , 16-H ) :   0.9089
B(  7-C ,  8-O ) :   2.0186 B(  7-C , 17-H ) :   0.9458

MP2 TOTAL ENERGY:     -401.246028324 Eh
FINAL SINGLE POINT ENERGY      -401.246028323815

DIPOLE MOMENT
-------------
                                X             Y             Z
Electronic contribution:      4.40755      -7.25124       0.60842
Nuclear contribution   :     -5.12497       7.98966      -0.07695
                        -----------------------------------------
Total Dipole Moment    :     -0.71742       0.73841       0.53147
                        -----------------------------------------
Magnitude (a.u.)       :      1.15862
Magnitude (Debye)      :      2.94498

                             ****ORCA TERMINATED NORMALLY****
TOTAL RUN TIME: 0 days 0 hours 17 minutes 4 seconds 857 msec
