                         Program Version 3.0.3 - RELEASE   -
|  1> ! RI-MP2 RIJK def2-TZVP def2-TZVP/C def2-TZVP/JK TIGHTSCF
|  2> % maxcore 2000
|  3> % mp2 density relaxed end
|  4> *xyz 0 1
|  5>  C       -0.0483584973     1.5549315460     0.0171440678
|  6>  N        1.4605206955     1.2726825677     0.0009018166
|  7>  C        1.2176678773     0.0527655386     0.9181928315
|  8>  C        1.9138599680    -0.9602817345    -0.0057064876
|  9>  C        1.2172975843    -2.3036469416     0.0006038784
| 10>  C       -0.1179853195    -2.3906763320     0.0147068182
| 11>  C       -0.9965295725    -1.1500231572     0.0250340492
| 12>  C       -0.0532472504     0.0271712970     0.0159663612
| 13>  C        1.1982317696     0.0542388434    -0.9129902514
| 14>  H       -0.3846199197     2.0749604335     0.9211072441
| 15>  H       -0.4037219988     2.0764091311    -0.8786399414
| 16>  H        1.2605384803     0.1458519482     2.0054889841
| 17>  H        3.0049868243    -0.9974277496    -0.0173172554
| 18>  H        1.8260174027    -3.2027230118    -0.0065840516
| 19>  H       -0.6107642586    -3.3586567349     0.0191551404
| 20>  H       -1.6663051594    -1.1455877641    -0.8461274919
| 21>  H       -1.6476522693    -1.1470004198     0.9102300920
| 22>  H        1.2180164036     0.1490728397    -2.0008003243
| 23> *
| 24>
| 25>                          ****END OF INPUT****

CARTESIAN COORDINATES (ANGSTROEM)
---------------------------------
  C     -0.048358    1.554932    0.017144
  N      1.460521    1.272683    0.000902
  C      1.217668    0.052766    0.918193
  C      1.913860   -0.960282   -0.005706
  C      1.217298   -2.303647    0.000604
  C     -0.117985   -2.390676    0.014707
  C     -0.996530   -1.150023    0.025034
  C     -0.053247    0.027171    0.015966
  C      1.198232    0.054239   -0.912990
  H     -0.384620    2.074960    0.921107
  H     -0.403722    2.076409   -0.878640
  H      1.260538    0.145852    2.005489
  H      3.004987   -0.997428   -0.017317
  H      1.826017   -3.202723   -0.006584
  H     -0.610764   -3.358657    0.019155
  H     -1.666305   -1.145588   -0.846127
  H     -1.647652   -1.147000    0.910230
  H      1.218016    0.149073   -2.000800

 Total Charge           Charge          ....    0
 Multiplicity           Mult            ....    1
 Number of Electrons    NEL             ....   64
 Basis Dimension        Dim             ....  333

ORBITAL ENERGIES
----------------

  NO   OCC          E(Eh)            E(eV)
   0   2.0000     -15.559904      -423.4065
   1   2.0000     -11.266234      -306.5698
   2   2.0000     -11.266154      -306.5676
   3   2.0000     -11.255132      -306.2677
   4   2.0000     -11.248535      -306.0882
   5   2.0000     -11.238528      -305.8159
   6   2.0000     -11.235974      -305.7464
   7   2.0000     -11.233869      -305.6891
   8   2.0000     -11.231409      -305.6222
   9   2.0000      -1.317650       -35.8551
  10   2.0000      -1.107793       -30.1446
  11   2.0000      -1.027758       -27.9667
  12   2.0000      -0.964300       -26.2399
  13   2.0000      -0.897737       -24.4287
  14   2.0000      -0.878157       -23.8959
  15   2.0000      -0.825287       -22.4572
  16   2.0000      -0.750036       -20.4095
  17   2.0000      -0.693834       -18.8802
  18   2.0000      -0.669074       -18.2064
  19   2.0000      -0.625123       -17.0105
  20   2.0000      -0.611376       -16.6364
  21   2.0000      -0.603040       -16.4096
  22   2.0000      -0.591719       -16.1015
  23   2.0000      -0.556403       -15.1405
  24   2.0000      -0.519936       -14.1482
  25   2.0000      -0.489460       -13.3189
  26   2.0000      -0.478688       -13.0258
  27   2.0000      -0.446087       -12.1386
  28   2.0000      -0.429174       -11.6784
  29   2.0000      -0.415665       -11.3108
  30   2.0000      -0.364719        -9.9245
  31   2.0000      -0.346970        -9.4415
  32   0.0000       0.138378         3.7654
  33   0.0000       0.141154         3.8410
  34   0.0000       0.159552         4.3416
  35   0.0000       0.171590         4.6692
  36   0.0000       0.186227         5.0675

MULLIKEN ATOMIC CHARGES
-----------------------
   0 C :   -0.108855
   1 N :   -0.225042
   2 C :   -0.073360
   3 C :   -0.022893
   4 C :   -0.254753
   5 C :   -0.166733
   6 C :   -0.157851
   7 C :   -0.003040
   8 C :   -0.073360
   9 H :    0.110757
  10 H :    0.110757
  11 H :    0.124235
  12 H :    0.125550
  13 H :    0.123769
  14 H :    0.126132
  15 H :    0.120226
  16 H :    0.120226
  17 H :    0.124235
Sum of atomic charges:    0.0000000

LOEWDIN ATOMIC CHARGES
----------------------
   0 C :   -0.210842
   1 N :    0.121216
   2 C :   -0.130713
   3 C :   -0.173122
   4 C :   -0.140985
   5 C :   -0.152399
   6 C :   -0.218686
   7 C :   -0.188174
   8 C :   -0.130713
   9 H :    0.122918
  10 H :    0.122918
  11 H :    0.128063
  12 H :    0.143569
  13 H :    0.142194
  14 H :    0.140505
  15 H :    0.148094
  16 H :    0.148095
  17 H :    0.128063

  Mayer bond orders larger than 0.1
B(  0-C ,  1-N ) :   0.9479 B(  0-C ,  7-C ) :   0.9247 B(  0-C ,  9-H ) :   0.9194
B(  0-C , 10-H ) :   0.9194 B(  1-N ,  2-C ) :   0.9324 B(  1-N ,  8-C ) :   0.9324
B(  2-C ,  3-C ) :   0.8911 B(  2-C ,  7-C ) :   0.9399 B(  2-C , 11-H ) :   0.8808
B(  3-C ,  4-C ) :   0.9150 B(  3-C ,  8-C ) :   0.8911 B(  3-C , 12-H ) :   0.9003
B(  4-C ,  5-C ) :   1.7877 B(  4-C , 13-H ) :   0.9314 B(  5-C ,  6-C ) :   0.9525
B(  5-C , 14-H ) :   0.9331 B(  6-C ,  7-C ) :   0.9842 B(  6-C , 15-H ) :   0.8980
B(  6-C , 16-H ) :   0.8980 B(  7-C ,  8-C ) :   0.9399 B(  8-C , 17-H ) :   0.8808

MP2 TOTAL ENERGY:     -364.056362785 Eh
FINAL SINGLE POINT ENERGY      -364.056362785413

DIPOLE MOMENT
-------------
                                X             Y             Z
Electronic contribution:      2.23607       1.03032      -0.02291
Nuclear contribution   :     -2.88022      -1.58520       0.02930
                        -----------------------------------------
Total Dipole Moment    :     -0.64415      -0.55488       0.00639
                        -----------------------------------------
Magnitude (a.u.)       :      0.85021
Magnitude (Debye)      :      2.16107

                             ****ORCA TERMINATED NORMALLY****
TOTAL RUN TIME: 0 days 0 hours 19 minutes 38 seconds 541 msec
