                         Program Version 3.0.3 - RELEASE   -
|  1> ! RI-MP2 RIJK def2-TZVP def2-TZVP/C def2-TZVP/JK TIGHTSCF
|  2> % maxcore 2000
|  3> % mp2 density relaxed end
|  4> *xyz 0 1
|  5>  C       -1.4905536960     0.2310989413     0.2640498647
|  6>  C        0.0280045124     0.1659550197     0.0481473202
|  7>  C        0.7688667059    -0.4984203169     1.2011619456
|  8>  C        0.7367006966     0.3008828543     2.4952920772
|  9>  C        0.8486528349    -1.9664713526     1.4089843894
| 10>  C        0.9603939277    -2.7839345042     0.1342722902
| 11>  O       -0.2149857444    -2.8216300339    -0.6500575791
| 12>  C        2.1534538191    -1.8658822319    -0.2591470984
| 13>  N        2.1000081616    -1.1450680524     1.0594967025
| 14>  H       -1.7588826249     0.7923504800     1.1641108390
| 15>  H       -1.9754377968     0.7221105086    -0.5855389282
| 16>  H       -1.9036072995    -0.7779067952     0.3497005913
| 17>  H        0.2038969012    -0.3633558400    -0.8877593258
| 18>  H        0.4313949618     1.1800549669    -0.0749275438
| 19>  H       -0.2804501675     0.3815121568     2.8902925525
| 20>  H        1.3669928948    -0.1723354071     3.2517733778
| 21>  H        1.1185561187     1.3132799001     2.3257691229
| 22>  H        0.7153354315    -2.4033517160     2.3946982918
| 23>  H        1.3098779574    -3.8004805231     0.3542104646
| 24>  H       -0.0729483473    -3.4318653885    -1.3807497786
| 25>  H        3.1042720990    -2.3978999159    -0.3394154976
| 26>  H        2.0241433237    -1.2344709500    -1.1415896385
| 27> *
| 28>
| 29>                          ****END OF INPUT****

CARTESIAN COORDINATES (ANGSTROEM)
---------------------------------
  C     -1.490554    0.231099    0.264050
  C      0.028005    0.165955    0.048147
  C      0.768867   -0.498420    1.201162
  C      0.736701    0.300883    2.495292
  C      0.848653   -1.966471    1.408984
  C      0.960394   -2.783935    0.134272
  O     -0.214986   -2.821630   -0.650058
  C      2.153454   -1.865882   -0.259147
  N      2.100008   -1.145068    1.059497
  H     -1.758883    0.792350    1.164111
  H     -1.975438    0.722111   -0.585539
  H     -1.903607   -0.777907    0.349701
  H      0.203897   -0.363356   -0.887759
  H      0.431395    1.180055   -0.074928
  H     -0.280450    0.381512    2.890293
  H      1.366993   -0.172335    3.251773
  H      1.118556    1.313280    2.325769
  H      0.715335   -2.403352    2.394698
  H      1.309878   -3.800481    0.354210
  H     -0.072948   -3.431865   -1.380750
  H      3.104272   -2.397900   -0.339415
  H      2.024143   -1.234471   -1.141590

 Total Charge           Charge          ....    0
 Multiplicity           Mult            ....    1
 Number of Electrons    NEL             ....   70
 Basis Dimension        Dim             ....  357

ORBITAL ENERGIES
----------------

  NO   OCC          E(Eh)            E(eV)
   0   2.0000     -20.564858      -559.5982
   1   2.0000     -15.555076      -423.2751
   2   2.0000     -11.290383      -307.2269
   3   2.0000     -11.263253      -306.4887
   4   2.0000     -11.252896      -306.2069
   5   2.0000     -11.250595      -306.1443
   6   2.0000     -11.216848      -305.2260
   7   2.0000     -11.210357      -305.0493
   8   2.0000     -11.206722      -304.9504
   9   2.0000      -1.373128       -37.3647
  10   2.0000      -1.278508       -34.7900
  11   2.0000      -1.057759       -28.7831
  12   2.0000      -0.998674       -27.1753
  13   2.0000      -0.939495       -25.5650
  14   2.0000      -0.918975       -25.0066
  15   2.0000      -0.861717       -23.4485
  16   2.0000      -0.755727       -20.5644
  17   2.0000      -0.734258       -19.9802
  18   2.0000      -0.708184       -19.2707
  19   2.0000      -0.669061       -18.2061
  20   2.0000      -0.644534       -17.5387
  21   2.0000      -0.601119       -16.3573
  22   2.0000      -0.590059       -16.0563
  23   2.0000      -0.579416       -15.7667
  24   2.0000      -0.564258       -15.3542
  25   2.0000      -0.533411       -14.5149
  26   2.0000      -0.531528       -14.4636
  27   2.0000      -0.519968       -14.1490
  28   2.0000      -0.507840       -13.8190
  29   2.0000      -0.489482       -13.3195
  30   2.0000      -0.462477       -12.5846
  31   2.0000      -0.451389       -12.2829
  32   2.0000      -0.427230       -11.6255
  33   2.0000      -0.406716       -11.0673
  34   2.0000      -0.364789        -9.9264
  35   0.0000       0.127208         3.4615
  36   0.0000       0.150376         4.0919
  37   0.0000       0.164100         4.4654
  38   0.0000       0.170219         4.6319
  39   0.0000       0.187639         5.1059

MULLIKEN ATOMIC CHARGES
-----------------------
   0 C :   -0.451747
   1 C :   -0.086936
   2 C :    0.184522
   3 C :   -0.461376
   4 C :   -0.114066
   5 C :    0.010069
   6 O :   -0.458823
   7 C :   -0.157281
   8 N :   -0.270150
   9 H :    0.123690
  10 H :    0.130178
  11 H :    0.150402
  12 H :    0.098807
  13 H :    0.110896
  14 H :    0.134585
  15 H :    0.145208
  16 H :    0.131328
  17 H :    0.126401
  18 H :    0.097329
  19 H :    0.315706
  20 H :    0.126046
  21 H :    0.115211
Sum of atomic charges:    0.0000000

LOEWDIN ATOMIC CHARGES
----------------------
   0 C :   -0.309730
   1 C :   -0.248002
   2 C :   -0.296676
   3 C :   -0.259472
   4 C :   -0.161479
   5 C :   -0.327930
   6 O :   -0.015152
   7 C :   -0.240434
   8 N :    0.132293
   9 H :    0.117439
  10 H :    0.121025
  11 H :    0.126461
  12 H :    0.141180
  13 H :    0.140190
  14 H :    0.125328
  15 H :    0.132926
  16 H :    0.128777
  17 H :    0.135354
  18 H :    0.135150
  19 H :    0.174362
  20 H :    0.126958
  21 H :    0.121431

  Mayer bond orders larger than 0.1
B(  0-C ,  1-C ) :   0.8946 B(  0-C ,  9-H ) :   0.9416 B(  0-C , 10-H ) :   0.9391
B(  0-C , 11-H ) :   0.9365 B(  1-C ,  2-C ) :   0.8869 B(  1-C , 12-H ) :   0.9200
B(  1-C , 13-H ) :   0.9290 B(  2-C ,  3-C ) :   0.8782 B(  2-C ,  4-C ) :   0.9269
B(  2-C ,  8-N ) :   0.8713 B(  3-C , 14-H ) :   0.9407 B(  3-C , 15-H ) :   0.9339
B(  3-C , 16-H ) :   0.9392 B(  4-C ,  5-C ) :   0.8932 B(  4-C ,  8-N ) :   0.8547
B(  4-C , 17-H ) :   0.9037 B(  5-C ,  6-O ) :   1.0910 B(  5-C ,  7-C ) :   0.9435
B(  5-C , 18-H ) :   0.9443 B(  6-O , 19-H ) :   0.8427 B(  7-C ,  8-N ) :   0.9275
B(  7-C , 20-H ) :   0.9167 B(  7-C , 21-H ) :   0.9250

MP2 TOTAL ENERGY:     -403.617818638 Eh
FINAL SINGLE POINT ENERGY      -403.617818637844

DIPOLE MOMENT
-------------
                                X             Y             Z
Electronic contribution:      3.41073      -5.17465      -0.98430
Nuclear contribution   :     -3.50405       4.65617       0.46414
                        -----------------------------------------
Total Dipole Moment    :     -0.09331      -0.51848      -0.52016
                        -----------------------------------------
Magnitude (a.u.)       :      0.74034
Magnitude (Debye)      :      1.88179

                             ****ORCA TERMINATED NORMALLY****
TOTAL RUN TIME: 0 days 0 hours 21 minutes 37 seconds 757 msec
