                         Program Version 3.0.3 - RELEASE   -
|  1> ! RI-MP2 RIJK def2-TZVP def2-TZVP/C def2-TZVP/JK TIGHTSCF
|  2> % maxcore 2000
|  3> % mp2 density relaxed end
|  4> *xyz 0 1
|  5>  C       -0.3558505790     1.5397861951     0.0818599608
|  6>  C        0.0239042294     0.0600305863    -0.0346297002
|  7>  C        0.7891003059    -0.3774510160    -1.2662351136
|  8>  C        2.2380066682    -0.0954133977    -1.4546455792
|  9>  C        2.9828192519     0.1984051073    -0.1608440358
| 10>  C        2.1792672648    -0.9950022937     0.4437198192
| 11>  N        1.7749846529    -1.4511278081    -0.9536099748
| 12>  C        0.9412152617    -0.4184762623     1.1048410326
| 13>  O        0.7301441908    -0.3044499052     2.2839401978
| 14>  H        0.5177883977     2.1861134615    -0.0454852648
| 15>  H       -1.0928039557     1.8173323764    -0.6775004992
| 16>  H       -0.7855954929     1.7346191013     1.0683146794
| 17>  H       -0.8916949132    -0.5445378342     0.0310460036
| 18>  H        0.2298569897    -0.5706066441    -2.1767611926
| 19>  H        2.6543721685     0.0222355578    -2.4506756898
| 20>  H        4.0394079519    -0.0614539577    -0.2481606025
| 21>  H        2.8947795107     1.1858213213     0.3021051592
| 22>  H        2.7178267068    -1.7330909282     1.0330980399
| 23> *
| 24>
| 25>                          ****END OF INPUT****

CARTESIAN COORDINATES (ANGSTROEM)
---------------------------------
  C     -0.355851    1.539786    0.081860
  C      0.023904    0.060031   -0.034630
  C      0.789100   -0.377451   -1.266235
  C      2.238007   -0.095413   -1.454646
  C      2.982819    0.198405   -0.160844
  C      2.179267   -0.995002    0.443720
  N      1.774985   -1.451128   -0.953610
  C      0.941215   -0.418476    1.104841
  O      0.730144   -0.304450    2.283940
  H      0.517788    2.186113   -0.045485
  H     -1.092804    1.817332   -0.677500
  H     -0.785595    1.734619    1.068315
  H     -0.891695   -0.544538    0.031046
  H      0.229857   -0.570607   -2.176761
  H      2.654372    0.022236   -2.450676
  H      4.039408   -0.061454   -0.248161
  H      2.894780    1.185821    0.302105
  H      2.717827   -1.733091    1.033098

 Total Charge           Charge          ....    0
 Multiplicity           Mult            ....    1
 Number of Electrons    NEL             ....   66
 Basis Dimension        Dim             ....  333

ORBITAL ENERGIES
----------------

  NO   OCC          E(Eh)            E(eV)
   0   2.0000     -20.552753      -559.2689
   1   2.0000     -15.575743      -423.8375
   2   2.0000     -11.333162      -308.3910
   3   2.0000     -11.278782      -306.9113
   4   2.0000     -11.276230      -306.8418
   5   2.0000     -11.276144      -306.8395
   6   2.0000     -11.254303      -306.2451
   7   2.0000     -11.252853      -306.2057
   8   2.0000     -11.232632      -305.6555
   9   2.0000      -1.397559       -38.0295
  10   2.0000      -1.315799       -35.8047
  11   2.0000      -1.075833       -29.2749
  12   2.0000      -1.033182       -28.1143
  13   2.0000      -0.966863       -26.3097
  14   2.0000      -0.917560       -24.9681
  15   2.0000      -0.802351       -21.8331
  16   2.0000      -0.794052       -21.6072
  17   2.0000      -0.735821       -20.0227
  18   2.0000      -0.707628       -19.2555
  19   2.0000      -0.643474       -17.5098
  20   2.0000      -0.630163       -17.1476
  21   2.0000      -0.616593       -16.7783
  22   2.0000      -0.598267       -16.2797
  23   2.0000      -0.579244       -15.7620
  24   2.0000      -0.573150       -15.5962
  25   2.0000      -0.548121       -14.9151
  26   2.0000      -0.534189       -14.5360
  27   2.0000      -0.515803       -14.0357
  28   2.0000      -0.479657       -13.0521
  29   2.0000      -0.462494       -12.5851
  30   2.0000      -0.445701       -12.1281
  31   2.0000      -0.399241       -10.8639
  32   2.0000      -0.383749       -10.4424
  33   0.0000       0.115903         3.1539
  34   0.0000       0.149950         4.0803
  35   0.0000       0.154823         4.2129
  36   0.0000       0.161794         4.4026
  37   0.0000       0.167586         4.5602

MULLIKEN ATOMIC CHARGES
-----------------------
   0 C :   -0.420337
   1 C :    0.042764
   2 C :   -0.115358
   3 C :   -0.081137
   4 C :   -0.278021
   5 C :    0.127815
   6 N :   -0.237145
   7 C :    0.003784
   8 O :   -0.262703
   9 H :    0.128499
  10 H :    0.137891
  11 H :    0.154939
  12 H :    0.120955
  13 H :    0.131671
  14 H :    0.132019
  15 H :    0.137253
  16 H :    0.128904
  17 H :    0.148206
Sum of atomic charges:   -0.0000000

LOEWDIN ATOMIC CHARGES
----------------------
   0 C :   -0.277407
   1 C :   -0.224909
   2 C :   -0.209011
   3 C :   -0.199439
   4 C :   -0.196036
   5 C :   -0.185990
   6 N :    0.143008
   7 C :   -0.280289
   8 O :    0.163900
   9 H :    0.125482
  10 H :    0.125950
  11 H :    0.133128
  12 H :    0.173265
  13 H :    0.150468
  14 H :    0.134115
  15 H :    0.146187
  16 H :    0.131643
  17 H :    0.145935

  Mayer bond orders larger than 0.1
B(  0-C ,  1-C ) :   0.8824 B(  0-C ,  9-H ) :   0.9315 B(  0-C , 10-H ) :   0.9387
B(  0-C , 11-H ) :   0.9313 B(  1-C ,  2-C ) :   0.8971 B(  1-C ,  5-C ) :  -0.1083
B(  1-C ,  7-C ) :   0.8884 B(  1-C , 12-H ) :   0.8847 B(  2-C ,  3-C ) :   0.9544
B(  2-C ,  6-N ) :   0.9001 B(  2-C , 13-H ) :   0.9124 B(  3-C ,  4-C ) :   0.9522
B(  3-C ,  6-N ) :   0.8735 B(  3-C , 14-H ) :   0.9093 B(  4-C ,  5-C ) :   0.9043
B(  4-C , 15-H ) :   0.9214 B(  4-C , 16-H ) :   0.9119 B(  5-C ,  6-N ) :   0.9355
B(  5-C ,  7-C ) :   0.8720 B(  5-C , 17-H ) :   0.9023 B(  7-C ,  8-O ) :   2.0485

MP2 TOTAL ENERGY:     -401.242010717 Eh
FINAL SINGLE POINT ENERGY      -401.242010717433

DIPOLE MOMENT
-------------
                                X             Y             Z
Electronic contribution:      0.98307      -4.66216       2.43469
Nuclear contribution   :     -0.81798       5.29917      -3.25250
                        -----------------------------------------
Total Dipole Moment    :      0.16509       0.63701      -0.81782
                        -----------------------------------------
Magnitude (a.u.)       :      1.04970
Magnitude (Debye)      :      2.66812

                             ****ORCA TERMINATED NORMALLY****
TOTAL RUN TIME: 0 days 0 hours 19 minutes 55 seconds 635 msec
