                         Program Version 3.0.3 - RELEASE   -
|  1> ! RI-MP2 RIJK def2-TZVP def2-TZVP/C def2-TZVP/JK TIGHTSCF
|  2> % maxcore 2000
|  3> % mp2 density relaxed end
|  4> *xyz 0 1
|  5>  C        0.2055629853     1.3142844635     0.1772454749
|  6>  O       -0.1902284941    -0.0038445819    -0.1630762143
|  7>  C        0.5304693979    -0.5431630813    -1.2224891568
|  8>  C        0.2064157163    -0.0877450295    -2.6519883874
|  9>  C        0.3045237259    -1.3594303454    -3.4666989428
| 10>  C        0.5751231294    -2.4254850158    -2.7031093125
| 11>  C        0.7574054411    -2.0530336107    -1.2733860979
| 12>  C        1.9115807326    -1.0902209347    -0.9845820224
| 13>  O        2.9777820517    -0.8900709984    -1.8574217195
| 14>  H        1.2745839955     1.3633211349     0.4264121282
| 15>  H        0.0059605728     2.0247892214    -0.6375237488
| 16>  H       -0.3813197556     1.6074212774     1.0507201001
| 17>  H       -0.8005545629     0.3469126107    -2.6942052218
| 18>  H        0.9060983772     0.6793748775    -3.0074876288
| 19>  H        0.1631784973    -1.3760616940    -4.5415311688
| 20>  H        0.6804378554    -3.4429535860    -3.0623683160
| 21>  H        0.4287221572    -2.7095333065    -0.4757603879
| 22>  H        2.2454831713    -1.0793567287     0.0486784141
| 23>  H        2.7249938656    -1.2607552825    -2.7134717113
| 24> *
| 25>
| 26>                          ****END OF INPUT****

CARTESIAN COORDINATES (ANGSTROEM)
---------------------------------
  C      0.205563    1.314284    0.177245
  O     -0.190228   -0.003845   -0.163076
  C      0.530469   -0.543163   -1.222489
  C      0.206416   -0.087745   -2.651988
  C      0.304524   -1.359430   -3.466699
  C      0.575123   -2.425485   -2.703109
  C      0.757405   -2.053034   -1.273386
  C      1.911581   -1.090221   -0.984582
  O      2.977782   -0.890071   -1.857422
  H      1.274584    1.363321    0.426412
  H      0.005961    2.024789   -0.637524
  H     -0.381320    1.607421    1.050720
  H     -0.800555    0.346913   -2.694205
  H      0.906098    0.679375   -3.007488
  H      0.163178   -1.376062   -4.541531
  H      0.680438   -3.442954   -3.062368
  H      0.428722   -2.709533   -0.475760
  H      2.245483   -1.079357    0.048678
  H      2.724994   -1.260755   -2.713472

 Total Charge           Charge          ....    0
 Multiplicity           Mult            ....    1
 Number of Electrons    NEL             ....   68
 Basis Dimension        Dim             ....  339

ORBITAL ENERGIES
----------------

  NO   OCC          E(Eh)            E(eV)
   0   2.0000     -20.563896      -559.5721
   1   2.0000     -20.559592      -559.4549
   2   2.0000     -11.285313      -307.0890
   3   2.0000     -11.284375      -307.0634
   4   2.0000     -11.272975      -306.7532
   5   2.0000     -11.240024      -305.8566
   6   2.0000     -11.238033      -305.8024
   7   2.0000     -11.235758      -305.7405
   8   2.0000     -11.233703      -305.6846
   9   2.0000      -1.389533       -37.8111
  10   2.0000      -1.368394       -37.2359
  11   2.0000      -1.170779       -31.8585
  12   2.0000      -1.042214       -28.3601
  13   2.0000      -0.970920       -26.4201
  14   2.0000      -0.928295       -25.2602
  15   2.0000      -0.838137       -22.8069
  16   2.0000      -0.768752       -20.9188
  17   2.0000      -0.754025       -20.5181
  18   2.0000      -0.710735       -19.3401
  19   2.0000      -0.683937       -18.6109
  20   2.0000      -0.638826       -17.3833
  21   2.0000      -0.623172       -16.9574
  22   2.0000      -0.617653       -16.8072
  23   2.0000      -0.602003       -16.3813
  24   2.0000      -0.577365       -15.7109
  25   2.0000      -0.550905       -14.9909
  26   2.0000      -0.544413       -14.8142
  27   2.0000      -0.532576       -14.4921
  28   2.0000      -0.509445       -13.8627
  29   2.0000      -0.499422       -13.5900
  30   2.0000      -0.458496       -12.4763
  31   2.0000      -0.420122       -11.4321
  32   2.0000      -0.379734       -10.3331
  33   2.0000      -0.342548        -9.3212
  34   0.0000       0.136207         3.7064
  35   0.0000       0.141978         3.8634
  36   0.0000       0.160648         4.3714
  37   0.0000       0.168969         4.5979
  38   0.0000       0.183884         5.0037

MULLIKEN ATOMIC CHARGES
-----------------------
   0 C :   -0.215258
   1 O :   -0.297119
   2 C :    0.173167
   3 C :   -0.173665
   4 C :   -0.277244
   5 C :   -0.191413
   6 C :   -0.068152
   7 C :   -0.033158
   8 O :   -0.450830
   9 H :    0.121685
  10 H :    0.116776
  11 H :    0.141549
  12 H :    0.135596
  13 H :    0.144986
  14 H :    0.130419
  15 H :    0.133870
  16 H :    0.141723
  17 H :    0.132050
  18 H :    0.335020
Sum of atomic charges:   -0.0000000

LOEWDIN ATOMIC CHARGES
----------------------
   0 C :   -0.339023
   1 O :    0.190168
   2 C :   -0.302041
   3 C :   -0.203022
   4 C :   -0.159208
   5 C :   -0.149925
   6 C :   -0.152922
   7 C :   -0.276178
   8 O :    0.007173
   9 H :    0.105976
  10 H :    0.103535
  11 H :    0.113321
  12 H :    0.151668
  13 H :    0.149444
  14 H :    0.137390
  15 H :    0.141182
  16 H :    0.150926
  17 H :    0.149237
  18 H :    0.182298

  Mayer bond orders larger than 0.1
B(  0-C ,  1-O ) :   0.8889 B(  0-C ,  9-H ) :   0.9330 B(  0-C , 10-H ) :   0.9355
B(  0-C , 11-H ) :   0.9399 B(  1-O ,  2-C ) :   1.0070 B(  2-C ,  3-C ) :   0.9250
B(  2-C ,  6-C ) :   0.8263 B(  2-C ,  7-C ) :   0.8758 B(  3-C ,  4-C ) :   0.9449
B(  3-C , 12-H ) :   0.9026 B(  3-C , 13-H ) :   0.8970 B(  4-C ,  5-C ) :   1.7691
B(  4-C , 14-H ) :   0.9332 B(  5-C ,  6-C ) :   0.9235 B(  5-C , 15-H ) :   0.9355
B(  6-C ,  7-C ) :   0.8714 B(  6-C , 16-H ) :   0.8916 B(  7-C ,  8-O ) :   1.0027
B(  7-C , 17-H ) :   0.9406 B(  8-O , 18-H ) :   0.8197

MP2 TOTAL ENERGY:     -422.292952733 Eh
FINAL SINGLE POINT ENERGY      -422.292952732525

DIPOLE MOMENT
-------------
                                X             Y             Z
Electronic contribution:      0.79454      -3.22454      -0.12115
Nuclear contribution   :     -1.05552       3.32954      -0.22196
                        -----------------------------------------
Total Dipole Moment    :     -0.26098       0.10501      -0.34310
                        -----------------------------------------
Magnitude (a.u.)       :      0.44369
Magnitude (Debye)      :      1.12776

                             ****ORCA TERMINATED NORMALLY****
TOTAL RUN TIME: 0 days 0 hours 17 minutes 39 seconds 208 msec
