                         Program Version 3.0.3 - RELEASE   -
|  1> ! RI-MP2 RIJK def2-TZVP def2-TZVP/C def2-TZVP/JK TIGHTSCF
|  2> % maxcore 2000
|  3> % mp2 density relaxed end
|  4> *xyz 0 1
|  5>  O        0.5932075397     0.9716984351     0.5848464453
|  6>  C        0.1751159759    -0.2550938101     0.0641591454
|  7>  C       -1.3580019251    -0.4039378635    -0.0800928832
|  8>  C       -1.4602640223    -1.4177167411    -1.2256040958
|  9>  O       -0.2868640946    -1.2008855549    -2.0480834891
| 10>  C        0.6243734432    -0.4691372203    -1.3700961291
| 11>  N        1.6946733815     0.0302995580    -1.8121682536
| 12>  C       -2.0427276061    -0.8234480504     1.1987667617
| 13>  O       -2.5909584917    -1.8851546741     1.3577074370
| 14>  H        1.3563550927     1.2341706746     0.0465710774
| 15>  H        0.5612724328    -1.0934667576     0.6703879631
| 16>  H       -1.7416729743     0.5809600708    -0.3748152231
| 17>  H       -1.4562340154    -2.4440123888    -0.8484989624
| 18>  H       -2.3370319362    -1.2773102130    -1.8590805712
| 19>  H        1.8435081630    -0.1695416178    -2.8007323432
| 20>  H       -1.9912592633    -0.0706577170     2.0139349207
| 21> *
| 22>
| 23>                          ****END OF INPUT****

CARTESIAN COORDINATES (ANGSTROEM)
---------------------------------
  O      0.593208    0.971698    0.584846
  C      0.175116   -0.255094    0.064159
  C     -1.358002   -0.403938   -0.080093
  C     -1.460264   -1.417717   -1.225604
  O     -0.286864   -1.200886   -2.048083
  C      0.624373   -0.469137   -1.370096
  N      1.694673    0.030300   -1.812168
  C     -2.042728   -0.823448    1.198767
  O     -2.590958   -1.885155    1.357707
  H      1.356355    1.234171    0.046571
  H      0.561272   -1.093467    0.670388
  H     -1.741673    0.580960   -0.374815
  H     -1.456234   -2.444012   -0.848499
  H     -2.337032   -1.277310   -1.859081
  H      1.843508   -0.169542   -2.800732
  H     -1.991259   -0.070658    2.013935

 Total Charge           Charge          ....    0
 Multiplicity           Mult            ....    1
 Number of Electrons    NEL             ....   68
 Basis Dimension        Dim             ....  321

ORBITAL ENERGIES
----------------

  NO   OCC          E(Eh)            E(eV)
   0   2.0000     -20.616098      -560.9925
   1   2.0000     -20.577922      -559.9537
   2   2.0000     -20.577506      -559.9424
   3   2.0000     -15.554123      -423.2492
   4   2.0000     -11.356364      -309.0224
   5   2.0000     -11.352001      -308.9037
   6   2.0000     -11.322540      -308.1020
   7   2.0000     -11.313327      -307.8513
   8   2.0000     -11.272393      -306.7374
   9   2.0000      -1.454972       -39.5918
  10   2.0000      -1.416193       -38.5366
  11   2.0000      -1.391778       -37.8722
  12   2.0000      -1.215489       -33.0751
  13   2.0000      -1.108036       -30.1512
  14   2.0000      -0.980690       -26.6859
  15   2.0000      -0.920603       -25.0509
  16   2.0000      -0.812148       -22.0997
  17   2.0000      -0.794450       -21.6181
  18   2.0000      -0.741498       -20.1772
  19   2.0000      -0.718986       -19.5646
  20   2.0000      -0.701824       -19.0976
  21   2.0000      -0.673449       -18.3255
  22   2.0000      -0.661340       -17.9960
  23   2.0000      -0.630827       -17.1657
  24   2.0000      -0.617213       -16.7952
  25   2.0000      -0.606107       -16.4930
  26   2.0000      -0.571088       -15.5401
  27   2.0000      -0.540227       -14.7003
  28   2.0000      -0.523459       -14.2440
  29   2.0000      -0.503232       -13.6936
  30   2.0000      -0.468182       -12.7399
  31   2.0000      -0.462668       -12.5898
  32   2.0000      -0.440305       -11.9813
  33   2.0000      -0.419738       -11.4217
  34   0.0000       0.112194         3.0530
  35   0.0000       0.136423         3.7123
  36   0.0000       0.150318         4.0904
  37   0.0000       0.157764         4.2930
  38   0.0000       0.158951         4.3253

MULLIKEN ATOMIC CHARGES
-----------------------
   0 O :   -0.475112
   1 C :    0.090752
   2 C :   -0.011820
   3 C :   -0.077062
   4 O :   -0.239382
   5 C :    0.147432
   6 N :   -0.439175
   7 C :    0.067633
   8 O :   -0.265799
   9 H :    0.344634
  10 H :    0.115780
  11 H :    0.118325
  12 H :    0.142785
  13 H :    0.135739
  14 H :    0.232307
  15 H :    0.112962
Sum of atomic charges:   -0.0000000

LOEWDIN ATOMIC CHARGES
----------------------
   0 O :    0.002693
   1 C :   -0.294038
   2 C :   -0.228938
   3 C :   -0.221329
   4 O :    0.248211
   5 C :   -0.408099
   6 N :   -0.061629
   7 C :   -0.265160
   8 O :    0.140520
   9 H :    0.192221
  10 H :    0.155876
  11 H :    0.172279
  12 H :    0.136927
  13 H :    0.134669
  14 H :    0.172527
  15 H :    0.123271

  Mayer bond orders larger than 0.1
B(  0-O ,  1-C ) :   1.0813 B(  0-O ,  9-H ) :   0.8045 B(  1-C ,  2-C ) :   0.8548
B(  1-C ,  5-C ) :   0.8767 B(  1-C , 10-H ) :   0.9334 B(  2-C ,  3-C ) :   0.9159
B(  2-C ,  7-C ) :   0.8672 B(  2-C , 11-H ) :   0.8968 B(  3-C ,  4-O ) :   0.8604
B(  3-C , 12-H ) :   0.9153 B(  3-C , 13-H ) :   0.9262 B(  4-O ,  5-C ) :   1.1276
B(  5-C ,  6-N ) :   1.9522 B(  6-N , 14-H ) :   0.8545 B(  7-C ,  8-O ) :   1.9747
B(  7-C , 15-H ) :   0.9441

MP2 TOTAL ENERGY:     -474.294724165 Eh
FINAL SINGLE POINT ENERGY      -474.294724164698

DIPOLE MOMENT
-------------
                                X             Y             Z
Electronic contribution:     -0.03610      -0.72717       0.05915
Nuclear contribution   :     -0.20542       0.88263      -0.54894
                        -----------------------------------------
Total Dipole Moment    :     -0.24152       0.15546      -0.48979
                        -----------------------------------------
Magnitude (a.u.)       :      0.56780
Magnitude (Debye)      :      1.44322

                             ****ORCA TERMINATED NORMALLY****
TOTAL RUN TIME: 0 days 0 hours 16 minutes 19 seconds 230 msec
