                         Program Version 3.0.3 - RELEASE   -
|  1> ! RI-MP2 RIJK def2-TZVP def2-TZVP/C def2-TZVP/JK TIGHTSCF
|  2> % maxcore 2000
|  3> % mp2 density relaxed end
|  4> *xyz 0 1
|  5>  C        0.2594695972     0.9197130733    -0.5008846743
|  6>  N       -0.2025875387     0.0220776086     0.5513096896
|  7>  C       -1.4504470292    -0.6198130106     0.3016656989
|  8>  C       -1.7152118968    -1.5830647560    -0.8437875893
|  9>  O       -0.5715323093    -2.1568979840    -1.4596886762
| 10>  C        0.0637327227    -2.8733739509    -0.4859768965
| 11>  C        1.3320539385    -3.5332099911    -0.9020103658
| 12>  N       -0.4838887169    -2.9181984993     0.6679647260
| 13>  C       -1.6654672554    -2.0923816459     0.5951238061
| 14>  H        1.2335288524     1.3307433287    -0.2195297572
| 15>  H        0.3509797924     0.4451797797    -1.4904723594
| 16>  H       -0.4359302032     1.7616427580    -0.5964083109
| 17>  H        0.5048931760    -0.6539865637     0.8090764085
| 18>  H       -2.3231018071    -0.0093981829     0.5329483399
| 19>  H       -2.5709465608    -1.5252103511    -1.5046148505
| 20>  H        2.0873547714    -2.7859800414    -1.1656701492
| 21>  H        1.7050485278    -4.1507876826    -0.0856141773
| 22>  H        1.1632039829    -4.1517052667    -1.7887653541
| 23>  H       -2.5156588239    -2.4117299123     1.1857730516
| 24> *
| 25>
| 26>                          ****END OF INPUT****

CARTESIAN COORDINATES (ANGSTROEM)
---------------------------------
  C      0.259470    0.919713   -0.500885
  N     -0.202588    0.022078    0.551310
  C     -1.450447   -0.619813    0.301666
  C     -1.715212   -1.583065   -0.843788
  O     -0.571532   -2.156898   -1.459689
  C      0.063733   -2.873374   -0.485977
  C      1.332054   -3.533210   -0.902010
  N     -0.483889   -2.918198    0.667965
  C     -1.665467   -2.092382    0.595124
  H      1.233529    1.330743   -0.219530
  H      0.350980    0.445180   -1.490472
  H     -0.435930    1.761643   -0.596408
  H      0.504893   -0.653987    0.809076
  H     -2.323102   -0.009398    0.532948
  H     -2.570947   -1.525210   -1.504615
  H      2.087355   -2.785980   -1.165670
  H      1.705049   -4.150788   -0.085614
  H      1.163204   -4.151705   -1.788765
  H     -2.515659   -2.411730    1.185773

 Total Charge           Charge          ....    0
 Multiplicity           Mult            ....    1
 Number of Electrons    NEL             ....   68
 Basis Dimension        Dim             ....  339

ORBITAL ENERGIES
----------------

  NO   OCC          E(Eh)            E(eV)
   0   2.0000     -20.603065      -560.6379
   1   2.0000     -15.548470      -423.0954
   2   2.0000     -15.544273      -422.9812
   3   2.0000     -11.340375      -308.5873
   4   2.0000     -11.290418      -307.2279
   5   2.0000     -11.265768      -306.5571
   6   2.0000     -11.264748      -306.5294
   7   2.0000     -11.242467      -305.9231
   8   2.0000     -11.242243      -305.9170
   9   2.0000      -1.450890       -39.4807
  10   2.0000      -1.235477       -33.6190
  11   2.0000      -1.201452       -32.6932
  12   2.0000      -1.105413       -30.0798
  13   2.0000      -1.003245       -27.2997
  14   2.0000      -0.911849       -24.8127
  15   2.0000      -0.844640       -22.9838
  16   2.0000      -0.824491       -22.4355
  17   2.0000      -0.755659       -20.5625
  18   2.0000      -0.719507       -19.5788
  19   2.0000      -0.677736       -18.4421
  20   2.0000      -0.634738       -17.2721
  21   2.0000      -0.621034       -16.8992
  22   2.0000      -0.609743       -16.5920
  23   2.0000      -0.597212       -16.2510
  24   2.0000      -0.580073       -15.7846
  25   2.0000      -0.561420       -15.2770
  26   2.0000      -0.557097       -15.1594
  27   2.0000      -0.544375       -14.8132
  28   2.0000      -0.513348       -13.9689
  29   2.0000      -0.481162       -13.0931
  30   2.0000      -0.467744       -12.7280
  31   2.0000      -0.424665       -11.5557
  32   2.0000      -0.375009       -10.2045
  33   2.0000      -0.343279        -9.3411
  34   0.0000       0.131697         3.5836
  35   0.0000       0.151302         4.1171
  36   0.0000       0.165584         4.5058
  37   0.0000       0.171858         4.6765
  38   0.0000       0.189903         5.1675

MULLIKEN ATOMIC CHARGES
-----------------------
   0 C :   -0.291124
   1 N :   -0.312246
   2 C :   -0.133488
   3 C :    0.051421
   4 O :   -0.259358
   5 C :    0.177996
   6 C :   -0.425102
   7 N :   -0.282052
   8 C :    0.002788
   9 H :    0.134365
  10 H :    0.125083
  11 H :    0.127936
  12 H :    0.217378
  13 H :    0.121989
  14 H :    0.141059
  15 H :    0.148153
  16 H :    0.163664
  17 H :    0.153996
  18 H :    0.137542
Sum of atomic charges:   -0.0000000

LOEWDIN ATOMIC CHARGES
----------------------
   0 C :   -0.344395
   1 N :   -0.007276
   2 C :   -0.270053
   3 C :   -0.236220
   4 O :    0.276753
   5 C :   -0.392009
   6 C :   -0.263432
   7 N :    0.108769
   8 C :   -0.225522
   9 H :    0.115548
  10 H :    0.103014
  11 H :    0.115231
  12 H :    0.172433
  13 H :    0.152660
  14 H :    0.134844
  15 H :    0.138071
  16 H :    0.141984
  17 H :    0.139784
  18 H :    0.139816

  Mayer bond orders larger than 0.1
B(  0-C ,  1-N ) :   0.9124 B(  0-C ,  9-H ) :   0.9385 B(  0-C , 10-H ) :   0.9259
B(  0-C , 11-H ) :   0.9403 B(  1-N ,  2-C ) :   1.0452 B(  1-N , 12-H ) :   0.8776
B(  2-C ,  3-C ) :   0.8380 B(  2-C ,  8-C ) :   0.8532 B(  2-C , 13-H ) :   0.9340
B(  3-C ,  4-O ) :   0.8905 B(  3-C ,  8-C ) :   0.8389 B(  3-C , 14-H ) :   0.9246
B(  4-O ,  5-C ) :   1.0657 B(  5-C ,  6-C ) :   0.8844 B(  5-C ,  7-N ) :   1.7938
B(  6-C , 15-H ) :   0.9210 B(  6-C , 16-H ) :   0.9493 B(  6-C , 17-H ) :   0.9296
B(  7-N ,  8-C ) :   0.9377 B(  8-C , 18-H ) :   0.9338

MP2 TOTAL ENERGY:     -418.486215969 Eh
FINAL SINGLE POINT ENERGY      -418.486215969153

DIPOLE MOMENT
-------------
                                X             Y             Z
Electronic contribution:     -3.54402      -3.75862       1.00884
Nuclear contribution   :      3.54016       3.82509      -1.63368
                        -----------------------------------------
Total Dipole Moment    :     -0.00387       0.06647      -0.62483
                        -----------------------------------------
Magnitude (a.u.)       :      0.62837
Magnitude (Debye)      :      1.59719

                             ****ORCA TERMINATED NORMALLY****
TOTAL RUN TIME: 0 days 0 hours 29 minutes 18 seconds 315 msec
