                         Program Version 3.0.3 - RELEASE   -
|  1> ! RI-MP2 RIJK def2-TZVP def2-TZVP/C def2-TZVP/JK TIGHTSCF
|  2> % maxcore 2000
|  3> % mp2 density relaxed end
|  4> *xyz 0 1
|  5>  O       -0.0534083721     1.3433410399     0.1091373465
|  6>  C        0.0644475949    -0.0346667203     0.0589715194
|  7>  C       -0.3450406165    -0.9048856470    -1.1120870546
|  8>  O        0.4947784383    -2.0291531468    -1.1923604556
|  9>  C        0.7738565847    -2.2091897979     0.1730488776
| 10>  C       -0.5395888931    -2.0806018759     1.0327273939
| 11>  C        0.3261910357    -1.3491463986     2.0969609691
| 12>  C        1.1101501019    -0.8394149125     0.8587028366
| 13>  C       -1.1417178171    -0.9501378580     0.1880139191
| 14>  H        0.6344735501     1.7247926063    -0.4478405172
| 15>  H       -0.7276791529    -0.5372200428    -2.0548999631
| 16>  H        1.4329420285    -3.0579774516     0.3385127429
| 17>  H       -1.1718883360    -2.9350537295     1.2695360646
| 18>  H       -0.1634901834    -0.6025237306     2.7263976807
| 19>  H        0.9086608664    -2.0395537798     2.7141393392
| 20>  H        2.1203985943    -0.4334102886     0.9139707920
| 21>  H       -2.1585088137    -0.5926169365     0.2687303587
| 22> *
| 23>
| 24>                          ****END OF INPUT****

CARTESIAN COORDINATES (ANGSTROEM)
---------------------------------
  O     -0.053408    1.343341    0.109137
  C      0.064448   -0.034667    0.058972
  C     -0.345041   -0.904886   -1.112087
  O      0.494778   -2.029153   -1.192360
  C      0.773857   -2.209190    0.173049
  C     -0.539589   -2.080602    1.032727
  C      0.326191   -1.349146    2.096961
  C      1.110150   -0.839415    0.858703
  C     -1.141718   -0.950138    0.188014
  H      0.634474    1.724793   -0.447841
  H     -0.727679   -0.537220   -2.054900
  H      1.432942   -3.057977    0.338513
  H     -1.171888   -2.935054    1.269536
  H     -0.163490   -0.602524    2.726398
  H      0.908661   -2.039554    2.714139
  H      2.120399   -0.433410    0.913971
  H     -2.158509   -0.592617    0.268730

 Total Charge           Charge          ....    0
 Multiplicity           Mult            ....    1
 Number of Electrons    NEL             ....   66
 Basis Dimension        Dim             ....  327

ORBITAL ENERGIES
----------------

  NO   OCC          E(Eh)            E(eV)
   0   2.0000     -20.574154      -559.8512
   1   2.0000     -20.563582      -559.5635
   2   2.0000     -11.287344      -307.1442
   3   2.0000     -11.285368      -307.0905
   4   2.0000     -11.283095      -307.0286
   5   2.0000     -11.238889      -305.8257
   6   2.0000     -11.237666      -305.7924
   7   2.0000     -11.229424      -305.5682
   8   2.0000     -11.228920      -305.5544
   9   2.0000      -1.412570       -38.4380
  10   2.0000      -1.378997       -37.5244
  11   2.0000      -1.186343       -32.2820
  12   2.0000      -1.070055       -29.1177
  13   2.0000      -0.937172       -25.5017
  14   2.0000      -0.896474       -24.3943
  15   2.0000      -0.810145       -22.0452
  16   2.0000      -0.780342       -21.2342
  17   2.0000      -0.753909       -20.5149
  18   2.0000      -0.727218       -19.7886
  19   2.0000      -0.678532       -18.4638
  20   2.0000      -0.641161       -17.4469
  21   2.0000      -0.618435       -16.8285
  22   2.0000      -0.599076       -16.3017
  23   2.0000      -0.594800       -16.1853
  24   2.0000      -0.571582       -15.5535
  25   2.0000      -0.546973       -14.8839
  26   2.0000      -0.508422       -13.8349
  27   2.0000      -0.478805       -13.0290
  28   2.0000      -0.467640       -12.7251
  29   2.0000      -0.455179       -12.3861
  30   2.0000      -0.429066       -11.6755
  31   2.0000      -0.391801       -10.6615
  32   2.0000      -0.368606       -10.0303
  33   0.0000       0.138158         3.7595
  34   0.0000       0.148835         4.0500
  35   0.0000       0.173750         4.7280
  36   0.0000       0.175913         4.7868
  37   0.0000       0.187789         5.1100

MULLIKEN ATOMIC CHARGES
-----------------------
   0 O :   -0.450046
   1 C :    0.101311
   2 C :   -0.047474
   3 O :   -0.298798
   4 C :   -0.000288
   5 C :   -0.049812
   6 C :   -0.287446
   7 C :   -0.035831
   8 C :   -0.189709
   9 H :    0.331214
  10 H :    0.142539
  11 H :    0.129747
  12 H :    0.132474
  13 H :    0.126149
  14 H :    0.118637
  15 H :    0.130044
  16 H :    0.147291
Sum of atomic charges:    0.0000000

LOEWDIN ATOMIC CHARGES
----------------------
   0 O :    0.034357
   1 C :   -0.305730
   2 C :   -0.233330
   3 O :    0.219762
   4 C :   -0.232392
   5 C :   -0.163032
   6 C :   -0.190944
   7 C :   -0.154175
   8 C :   -0.132614
   9 H :    0.187128
  10 H :    0.141026
  11 H :    0.141809
  12 H :    0.135787
  13 H :    0.132179
  14 H :    0.136125
  15 H :    0.135748
  16 H :    0.148296

  Mayer bond orders larger than 0.1
B(  0-O ,  1-C ) :   1.0481 B(  0-O ,  9-H ) :   0.8347 B(  1-C ,  2-C ) :   0.8850
B(  1-C ,  7-C ) :   0.9131 B(  1-C ,  8-C ) :   0.8799 B(  2-C ,  3-O ) :   0.9723
B(  2-C ,  8-C ) :   0.8598 B(  2-C , 10-H ) :   0.9218 B(  3-O ,  4-C ) :   0.9466
B(  4-C ,  5-C ) :   0.8925 B(  4-C ,  7-C ) :   0.8901 B(  4-C , 11-H ) :   0.9248
B(  5-C ,  6-C ) :   0.9250 B(  5-C ,  8-C ) :   0.8869 B(  5-C , 12-H ) :   0.9109
B(  6-C ,  7-C ) :   0.9002 B(  6-C , 13-H ) :   0.9148 B(  6-C , 14-H ) :   0.9211
B(  7-C , 15-H ) :   0.9016 B(  8-C , 16-H ) :   0.9123

MP2 TOTAL ENERGY:     -421.096737021 Eh
FINAL SINGLE POINT ENERGY      -421.096737020845

DIPOLE MOMENT
-------------
                                X             Y             Z
Electronic contribution:      0.09070       0.76678      -3.49952
Nuclear contribution   :      0.16418      -0.67473       3.65663
                        -----------------------------------------
Total Dipole Moment    :      0.25488       0.09205       0.15710
                        -----------------------------------------
Magnitude (a.u.)       :      0.31324
Magnitude (Debye)      :      0.79618

                             ****ORCA TERMINATED NORMALLY****
TOTAL RUN TIME: 0 days 0 hours 17 minutes 11 seconds 64 msec
