                         Program Version 3.0.3 - RELEASE   -
|  1> ! RI-MP2 RIJK def2-TZVP def2-TZVP/C def2-TZVP/JK TIGHTSCF
|  2> % maxcore 2000
|  3> % mp2 density relaxed end
|  4> *xyz 0 1
|  5>  N       -0.2601689979    -1.2059406551    -0.1740222503
|  6>  C       -0.1386950988    -0.0598584781    -0.0925805671
|  7>  C        0.0043973595     1.3859690425     0.0105781597
|  8>  C       -0.2389345230     2.0064261370     1.4621993268
|  9>  N        1.1516173361     2.4580888045     1.3636313361
| 10>  N        2.1322890812     3.1708053173     1.9217884006
| 11>  C        3.0900756906     3.0803618117     0.9799824422
| 12>  C        2.7084216639     2.3314970136    -0.1685635364
| 13>  C        1.4199422255     1.9540279069     0.1519736826
| 14>  H       -0.6020854611     1.8686062684    -0.7607270483
| 15>  H       -0.9768263572     2.8110484782     1.4940489234
| 16>  H       -0.4238826059     1.2773620640     2.2533297978
| 17>  H        4.0418466092     3.5606014060     1.1552735132
| 18>  H        3.2956422979     2.1218853030    -1.0458052703
| 19> *
| 20>
| 21>                          ****END OF INPUT****

CARTESIAN COORDINATES (ANGSTROEM)
---------------------------------
  N     -0.260169   -1.205941   -0.174022
  C     -0.138695   -0.059858   -0.092581
  C      0.004397    1.385969    0.010578
  C     -0.238935    2.006426    1.462199
  N      1.151617    2.458089    1.363631
  N      2.132289    3.170805    1.921788
  C      3.090076    3.080362    0.979982
  C      2.708422    2.331497   -0.168564
  C      1.419942    1.954028    0.151974
  H     -0.602085    1.868606   -0.760727
  H     -0.976826    2.811048    1.494049
  H     -0.423883    1.277362    2.253330
  H      4.041847    3.560601    1.155274
  H      3.295642    2.121885   -1.045805

 Total Charge           Charge          ....    0
 Multiplicity           Mult            ....    1
 Number of Electrons    NEL             ....   62
 Basis Dimension        Dim             ....  309

ORBITAL ENERGIES
----------------

  NO   OCC          E(Eh)            E(eV)
   0   2.0000     -15.652324      -425.9214
   1   2.0000     -15.602371      -424.5621
   2   2.0000     -15.589332      -424.2073
   3   2.0000     -11.333485      -308.3998
   4   2.0000     -11.330589      -308.3210
   5   2.0000     -11.299826      -307.4839
   6   2.0000     -11.291608      -307.2603
   7   2.0000     -11.270420      -306.6837
   8   2.0000     -11.242611      -305.9270
   9   2.0000      -1.414097       -38.4795
  10   2.0000      -1.240115       -33.7452
  11   2.0000      -1.203845       -32.7583
  12   2.0000      -1.071036       -29.1444
  13   2.0000      -1.021699       -27.8019
  14   2.0000      -0.941696       -25.6249
  15   2.0000      -0.839162       -22.8348
  16   2.0000      -0.767624       -20.8881
  17   2.0000      -0.745380       -20.2828
  18   2.0000      -0.719777       -19.5861
  19   2.0000      -0.647526       -17.6201
  20   2.0000      -0.629024       -17.1166
  21   2.0000      -0.599912       -16.3244
  22   2.0000      -0.584755       -15.9120
  23   2.0000      -0.578902       -15.7527
  24   2.0000      -0.569664       -15.5013
  25   2.0000      -0.560454       -15.2507
  26   2.0000      -0.482591       -13.1320
  27   2.0000      -0.471875       -12.8404
  28   2.0000      -0.463267       -12.6061
  29   2.0000      -0.367235        -9.9930
  30   2.0000      -0.362534        -9.8650
  31   0.0000       0.113938         3.1004
  32   0.0000       0.132610         3.6085
  33   0.0000       0.143370         3.9013
  34   0.0000       0.149184         4.0595
  35   0.0000       0.166735         4.5371

MULLIKEN ATOMIC CHARGES
-----------------------
   0 N :   -0.045241
   1 C :   -0.199301
   2 C :    0.040504
   3 C :   -0.141819
   4 N :    0.131553
   5 N :   -0.292269
   6 C :   -0.055028
   7 C :   -0.246219
   8 C :    0.033521
   9 H :    0.166936
  10 H :    0.149029
  11 H :    0.161537
  12 H :    0.143432
  13 H :    0.153365
Sum of atomic charges:    0.0000000

LOEWDIN ATOMIC CHARGES
----------------------
   0 N :    0.077421
   1 C :   -0.167468
   2 C :   -0.166883
   3 C :   -0.134271
   4 N :    0.223258
   5 N :    0.035039
   6 C :   -0.252179
   7 C :   -0.175284
   8 C :   -0.175101
   9 H :    0.177238
  10 H :    0.136959
  11 H :    0.141267
  12 H :    0.136113
  13 H :    0.143890

  Mayer bond orders larger than 0.1
B(  0-N ,  1-C ) :   2.8458 B(  1-C ,  2-C ) :   0.9264 B(  2-C ,  3-C ) :   0.8890
B(  2-C ,  8-C ) :   0.9199 B(  2-C ,  9-H ) :   0.8951 B(  3-C ,  4-N ) :   0.8602
B(  3-C , 10-H ) :   0.9143 B(  3-C , 11-H ) :   0.9122 B(  4-N ,  5-N ) :   1.0508
B(  4-N ,  8-C ) :   1.1823 B(  5-N ,  6-C ) :   1.4574 B(  6-C ,  7-C ) :   1.3270
B(  6-C , 12-H ) :   0.9303 B(  7-C ,  8-C ) :   1.3862 B(  7-C , 13-H ) :   0.9199

MP2 TOTAL ENERGY:     -395.023727036 Eh
FINAL SINGLE POINT ENERGY      -395.023727036369

DIPOLE MOMENT
-------------
                                X             Y             Z
Electronic contribution:     -0.37871      -2.01603      -0.31072
Nuclear contribution   :     -0.11349       2.95481      -0.03596
                        -----------------------------------------
Total Dipole Moment    :     -0.49220       0.93878      -0.34668
                        -----------------------------------------
Magnitude (a.u.)       :      1.11524
Magnitude (Debye)      :      2.83472

                             ****ORCA TERMINATED NORMALLY****
TOTAL RUN TIME: 0 days 0 hours 17 minutes 8 seconds 769 msec
