                         Program Version 3.0.3 - RELEASE   -
|  1> ! RI-MP2 RIJK def2-TZVP def2-TZVP/C def2-TZVP/JK TIGHTSCF
|  2> % maxcore 2000
|  3> % mp2 density relaxed end
|  4> *xyz 0 1
|  5>  C        0.1198649969     1.5580384603     0.1219899099
|  6>  C       -0.1412255589     0.0601606715    -0.0667893232
|  7>  C        0.6259219432    -0.5376662466    -1.2398194420
|  8>  N        2.0885910403    -0.6237617908    -1.0717645079
|  9>  C        2.1915745008    -1.9870243536    -1.2775867454
| 10>  O        3.1236991828    -2.7399571401    -1.3349966727
| 11>  C        0.6678110439    -2.0786071492    -1.3848953602
| 12>  C       -0.2637700962    -3.1024144823    -0.8651365155
| 13>  N       -0.0492500324    -2.9394331476    -2.3141814071
| 14>  H        1.1769750046     1.7507773483     0.3340552790
| 15>  H       -0.1514490578     2.1262077948    -0.7747322430
| 16>  H       -0.4610900227     1.9572047533     0.9583097763
| 17>  H        0.1266124353    -0.4872606703     0.8440385741
| 18>  H       -1.2132902107    -0.1066306393    -0.2360964770
| 19>  H        0.3424042113    -0.0387595950    -2.1779162485
| 20>  H        2.7983208353     0.0925531455    -1.0700929866
| 21>  H        0.1356347281    -4.0218544926    -0.4474018551
| 22>  H       -1.1989367413    -2.7616983933    -0.4276260289
| 23>  H       -0.8253908626    -2.4300860929    -2.7318295861
| 24> *
| 25>
| 26>                          ****END OF INPUT****

CARTESIAN COORDINATES (ANGSTROEM)
---------------------------------
  C      0.119865    1.558038    0.121990
  C     -0.141226    0.060161   -0.066789
  C      0.625922   -0.537666   -1.239819
  N      2.088591   -0.623762   -1.071765
  C      2.191575   -1.987024   -1.277587
  O      3.123699   -2.739957   -1.334997
  C      0.667811   -2.078607   -1.384895
  C     -0.263770   -3.102414   -0.865137
  N     -0.049250   -2.939433   -2.314181
  H      1.176975    1.750777    0.334055
  H     -0.151449    2.126208   -0.774732
  H     -0.461090    1.957205    0.958310
  H      0.126612   -0.487261    0.844039
  H     -1.213290   -0.106631   -0.236096
  H      0.342404   -0.038760   -2.177916
  H      2.798321    0.092553   -1.070093
  H      0.135635   -4.021854   -0.447402
  H     -1.198937   -2.761698   -0.427626
  H     -0.825391   -2.430086   -2.731830

 Total Charge           Charge          ....    0
 Multiplicity           Mult            ....    1
 Number of Electrons    NEL             ....   68
 Basis Dimension        Dim             ....  339

ORBITAL ENERGIES
----------------

  NO   OCC          E(Eh)            E(eV)
   0   2.0000     -20.525464      -558.5263
   1   2.0000     -15.584970      -424.0886
   2   2.0000     -15.578480      -423.9120
   3   2.0000     -11.349856      -308.8453
   4   2.0000     -11.291633      -307.2609
   5   2.0000     -11.285478      -307.0935
   6   2.0000     -11.274012      -306.7815
   7   2.0000     -11.242473      -305.9232
   8   2.0000     -11.233356      -305.6752
   9   2.0000      -1.388065       -37.7712
  10   2.0000      -1.295034       -35.2397
  11   2.0000      -1.251817       -34.0637
  12   2.0000      -1.065382       -28.9905
  13   2.0000      -0.965950       -26.2848
  14   2.0000      -0.912702       -24.8359
  15   2.0000      -0.893082       -24.3020
  16   2.0000      -0.820982       -22.3401
  17   2.0000      -0.758781       -20.6475
  18   2.0000      -0.691141       -18.8069
  19   2.0000      -0.688919       -18.7464
  20   2.0000      -0.654853       -17.8195
  21   2.0000      -0.646768       -17.5995
  22   2.0000      -0.610745       -16.6192
  23   2.0000      -0.588296       -16.0083
  24   2.0000      -0.580193       -15.7878
  25   2.0000      -0.548544       -14.9266
  26   2.0000      -0.528157       -14.3719
  27   2.0000      -0.509411       -13.8618
  28   2.0000      -0.501771       -13.6539
  29   2.0000      -0.495201       -13.4751
  30   2.0000      -0.473330       -12.8800
  31   2.0000      -0.435746       -11.8572
  32   2.0000      -0.399939       -10.8829
  33   2.0000      -0.392912       -10.6917
  34   0.0000       0.119763         3.2589
  35   0.0000       0.127532         3.4703
  36   0.0000       0.148416         4.0386
  37   0.0000       0.164112         4.4657
  38   0.0000       0.173250         4.7144

MULLIKEN ATOMIC CHARGES
-----------------------
   0 C :   -0.402604
   1 C :   -0.227207
   2 C :    0.102636
   3 N :   -0.357312
   4 C :    0.225340
   5 O :   -0.298806
   6 C :    0.048876
   7 C :   -0.193569
   8 N :   -0.376118
   9 H :    0.125152
  10 H :    0.127366
  11 H :    0.142001
  12 H :    0.127524
  13 H :    0.104673
  14 H :    0.114720
  15 H :    0.239182
  16 H :    0.142612
  17 H :    0.131872
  18 H :    0.223662
Sum of atomic charges:   -0.0000000

LOEWDIN ATOMIC CHARGES
----------------------
   0 C :   -0.316275
   1 C :   -0.276672
   2 C :   -0.218455
   3 N :    0.143694
   4 C :   -0.403208
   5 O :    0.116594
   6 C :   -0.238201
   7 C :   -0.228481
   8 N :    0.024868
   9 H :    0.120399
  10 H :    0.122082
  11 H :    0.124582
  12 H :    0.143702
  13 H :    0.140244
  14 H :    0.143668
  15 H :    0.171540
  16 H :    0.134565
  17 H :    0.124548
  18 H :    0.170805

  Mayer bond orders larger than 0.1
B(  0-C ,  1-C ) :   0.9132 B(  0-C ,  9-H ) :   0.9424 B(  0-C , 10-H ) :   0.9353
B(  0-C , 11-H ) :   0.9399 B(  1-C ,  2-C ) :   0.8901 B(  1-C , 12-H ) :   0.9353
B(  1-C , 13-H ) :   0.9266 B(  2-C ,  3-N ) :   0.8718 B(  2-C ,  6-C ) :   0.8590
B(  2-C , 14-H ) :   0.9239 B(  3-N ,  4-C ) :   1.1434 B(  3-N , 15-H ) :   0.8585
B(  4-C ,  5-O ) :   2.0712 B(  4-C ,  6-C ) :   0.8149 B(  6-C ,  7-C ) :   0.8883
B(  6-C ,  8-N ) :   0.8698 B(  7-C ,  8-N ) :   0.9799 B(  7-C , 16-H ) :   0.9100
B(  7-C , 17-H ) :   0.9180 B(  8-N , 18-H ) :   0.8645

MP2 TOTAL ENERGY:     -418.491023057 Eh
FINAL SINGLE POINT ENERGY      -418.491023056767

DIPOLE MOMENT
-------------
                                X             Y             Z
Electronic contribution:      6.65554      -7.44257      -3.93290
Nuclear contribution   :     -8.03574       9.00010       4.36696
                        -----------------------------------------
Total Dipole Moment    :     -1.38020       1.55753       0.43407
                        -----------------------------------------
Magnitude (a.u.)       :      2.12586
Magnitude (Debye)      :      5.40350

                             ****ORCA TERMINATED NORMALLY****
TOTAL RUN TIME: 0 days 0 hours 27 minutes 22 seconds 955 msec
