                         Program Version 3.0.3 - RELEASE   -
|  1> ! RI-MP2 RIJK def2-TZVP def2-TZVP/C def2-TZVP/JK TIGHTSCF
|  2> % maxcore 2000
|  3> % mp2 density relaxed end
|  4> *xyz 0 1
|  5>  C       -0.0756898196     1.2629699440    -0.3016037035
|  6>  O        0.8090282191     0.1674535316    -0.5473279717
|  7>  C       -0.4433065512    -0.1042816265     0.0881853416
|  8>  C       -0.3775605225    -0.5718599055     1.5260435116
|  9>  C       -1.7490698368    -0.4631025290     2.2617856927
| 10>  C       -2.2847266114    -1.8808614355     2.3999318180
| 11>  C       -2.4005758278    -2.7228981269     1.1530381991
| 12>  C       -1.1845510642    -2.8528648919     2.0368423086
| 13>  C        0.0613981579    -2.0623082327     1.6652194003
| 14>  H        0.2541755275     1.9667392166     0.4621586401
| 15>  H       -0.5173460951     1.7167794489    -1.1879239206
| 16>  H       -1.1488943112    -0.6279601351    -0.5591169268
| 17>  H        0.3616350197     0.0701673090     2.0145398509
| 18>  H       -1.6025756497    -0.0335129695     3.2586080573
| 19>  H       -2.4396154419     0.2035518507     1.7314202196
| 20>  H       -2.9679583166    -2.0875249809     3.2165382736
| 21>  H       -3.1158156555    -3.5383517956     1.1727360317
| 22>  H       -2.3054857028    -2.2546291449     0.1790671002
| 23>  H       -1.0541710188    -3.7790905938     2.5859157414
| 24>  H        0.5463066954    -2.4213737553     0.7508701141
| 25>  H        0.7999084455    -2.1564088977     2.4686180116
| 26> *
| 27>
| 28>                          ****END OF INPUT****

CARTESIAN COORDINATES (ANGSTROEM)
---------------------------------
  C     -0.075690    1.262970   -0.301604
  O      0.809028    0.167454   -0.547328
  C     -0.443307   -0.104282    0.088185
  C     -0.377561   -0.571860    1.526044
  C     -1.749070   -0.463103    2.261786
  C     -2.284727   -1.880861    2.399932
  C     -2.400576   -2.722898    1.153038
  C     -1.184551   -2.852865    2.036842
  C      0.061398   -2.062308    1.665219
  H      0.254176    1.966739    0.462159
  H     -0.517346    1.716779   -1.187924
  H     -1.148894   -0.627960   -0.559117
  H      0.361635    0.070167    2.014540
  H     -1.602576   -0.033513    3.258608
  H     -2.439615    0.203552    1.731420
  H     -2.967958   -2.087525    3.216538
  H     -3.115816   -3.538352    1.172736
  H     -2.305486   -2.254629    0.179067
  H     -1.054171   -3.779091    2.585916
  H      0.546307   -2.421374    0.750870
  H      0.799908   -2.156409    2.468618

 Total Charge           Charge          ....    0
 Multiplicity           Mult            ....    1
 Number of Electrons    NEL             ....   68
 Basis Dimension        Dim             ....  351

ORBITAL ENERGIES
----------------

  NO   OCC          E(Eh)            E(eV)
   0   2.0000     -20.562592      -559.5366
   1   2.0000     -11.282251      -307.0057
   2   2.0000     -11.278611      -306.9066
   3   2.0000     -11.232897      -305.6627
   4   2.0000     -11.227655      -305.5200
   5   2.0000     -11.226399      -305.4858
   6   2.0000     -11.226203      -305.4805
   7   2.0000     -11.222218      -305.3721
   8   2.0000     -11.220849      -305.3348
   9   2.0000      -1.406081       -38.2614
  10   2.0000      -1.171779       -31.8857
  11   2.0000      -1.047185       -28.4953
  12   2.0000      -0.964643       -26.2493
  13   2.0000      -0.927418       -25.2363
  14   2.0000      -0.878262       -23.8987
  15   2.0000      -0.805975       -21.9317
  16   2.0000      -0.769793       -20.9471
  17   2.0000      -0.754343       -20.5267
  18   2.0000      -0.699088       -19.0231
  19   2.0000      -0.669151       -18.2085
  20   2.0000      -0.656288       -17.8585
  21   2.0000      -0.599795       -16.3213
  22   2.0000      -0.579668       -15.7736
  23   2.0000      -0.567401       -15.4398
  24   2.0000      -0.556585       -15.1454
  25   2.0000      -0.541336       -14.7305
  26   2.0000      -0.501744       -13.6532
  27   2.0000      -0.492837       -13.4108
  28   2.0000      -0.488770       -13.3001
  29   2.0000      -0.464226       -12.6322
  30   2.0000      -0.437006       -11.8915
  31   2.0000      -0.424860       -11.5610
  32   2.0000      -0.403520       -10.9803
  33   2.0000      -0.392712       -10.6862
  34   0.0000       0.138820         3.7775
  35   0.0000       0.160002         4.3539
  36   0.0000       0.164229         4.4689
  37   0.0000       0.173261         4.7147
  38   0.0000       0.179578         4.8866

MULLIKEN ATOMIC CHARGES
-----------------------
   0 C :   -0.075456
   1 O :   -0.335819
   2 C :   -0.025606
   3 C :   -0.003664
   4 C :   -0.259634
   5 C :   -0.100694
   6 C :   -0.289033
   7 C :   -0.115041
   8 C :   -0.237666
   9 H :    0.112338
  10 H :    0.114515
  11 H :    0.116204
  12 H :    0.104262
  13 H :    0.121758
  14 H :    0.123007
  15 H :    0.120947
  16 H :    0.130323
  17 H :    0.123260
  18 H :    0.120836
  19 H :    0.133217
  20 H :    0.121946
Sum of atomic charges:   -0.0000000

LOEWDIN ATOMIC CHARGES
----------------------
   0 C :   -0.267560
   1 O :    0.143188
   2 C :   -0.282679
   3 C :   -0.214600
   4 C :   -0.205162
   5 C :   -0.203854
   6 C :   -0.208877
   7 C :   -0.202721
   8 C :   -0.203377
   9 H :    0.119573
  10 H :    0.118078
  11 H :    0.136251
  12 H :    0.157546
  13 H :    0.141412
  14 H :    0.140415
  15 H :    0.141694
  16 H :    0.133991
  17 H :    0.128848
  18 H :    0.141889
  19 H :    0.144277
  20 H :    0.141667

  Mayer bond orders larger than 0.1
B(  0-C ,  1-O ) :   0.9200 B(  0-C ,  2-C ) :   0.9904 B(  0-C ,  9-H ) :   0.9083
B(  0-C , 10-H ) :   0.9167 B(  1-O ,  2-C ) :   0.8711 B(  2-C ,  3-C ) :   0.9160
B(  2-C , 11-H ) :   0.9098 B(  3-C ,  4-C ) :   0.8871 B(  3-C ,  8-C ) :   0.8955
B(  3-C , 12-H ) :   0.9219 B(  4-C ,  5-C ) :   0.9470 B(  4-C , 13-H ) :   0.9235
B(  4-C , 14-H ) :   0.9316 B(  5-C ,  6-C ) :   0.8861 B(  5-C ,  7-C ) :   0.8640
B(  5-C , 15-H ) :   0.9308 B(  6-C ,  7-C ) :   0.8879 B(  6-C , 16-H ) :   0.9339
B(  6-C , 17-H ) :   0.9226 B(  7-C ,  8-C ) :   0.9582 B(  7-C , 18-H ) :   0.9335
B(  8-C , 19-H ) :   0.9324 B(  8-C , 20-H ) :   0.9281

MP2 TOTAL ENERGY:     -386.388126170 Eh
FINAL SINGLE POINT ENERGY      -386.388126169972

DIPOLE MOMENT
-------------
                                X             Y             Z
Electronic contribution:      2.52535       1.12768      -2.16173
Nuclear contribution   :     -3.11287      -0.95429       2.60516
                        -----------------------------------------
Total Dipole Moment    :     -0.58752       0.17339       0.44343
                        -----------------------------------------
Magnitude (a.u.)       :      0.75622
Magnitude (Debye)      :      1.92217

                             ****ORCA TERMINATED NORMALLY****
TOTAL RUN TIME: 0 days 0 hours 18 minutes 9 seconds 839 msec
