                         Program Version 3.0.3 - RELEASE   -
|  1> ! RI-MP2 RIJK def2-TZVP def2-TZVP/C def2-TZVP/JK TIGHTSCF
|  2> % maxcore 2000
|  3> % mp2 density relaxed end
|  4> *xyz 0 1
|  5>  C        0.0162798070     1.6195479034    -0.0223759920
|  6>  C        0.0819331751     0.1105083156     0.0842166336
|  7>  O        1.0634780380    -0.4915185501    -0.8179722539
|  8>  C        1.6229113565    -1.2379340863     0.2586751535
|  9>  C        2.2267269787    -0.3381003670     1.2869588407
| 10>  C        0.7268572263    -0.5841254172     1.2929516209
| 11>  C       -0.0014841543    -1.1495901171     2.4504188511
| 12>  C       -1.1944315407    -0.5142484650     3.0309219416
| 13>  O       -1.3133260683    -1.6730444825     2.2038357528
| 14>  H        0.9690355002     2.0867822535     0.2401878758
| 15>  H       -0.2349855091     1.9095993678    -1.0475350976
| 16>  H       -0.7615467467     2.0155103526     0.6394373088
| 17>  H       -0.8978435516    -0.3395711629    -0.1138962634
| 18>  H        1.8949554091    -2.2718576752     0.0803999117
| 19>  H        2.7597842009    -0.8398448336     2.0898425754
| 20>  H        2.6397766826     0.6225549073     0.9943113110
| 21>  H        0.6045024231    -1.7717157102     3.1115207462
| 22>  H       -1.4290772737    -0.6617237892     4.0844011960
| 23>  H       -1.5768664532     0.4093407259     2.5982989676
| 24> *
| 25>
| 26>                          ****END OF INPUT****

CARTESIAN COORDINATES (ANGSTROEM)
---------------------------------
  C      0.016280    1.619548   -0.022376
  C      0.081933    0.110508    0.084217
  O      1.063478   -0.491519   -0.817972
  C      1.622911   -1.237934    0.258675
  C      2.226727   -0.338100    1.286959
  C      0.726857   -0.584125    1.292952
  C     -0.001484   -1.149590    2.450419
  C     -1.194432   -0.514248    3.030922
  O     -1.313326   -1.673044    2.203836
  H      0.969036    2.086782    0.240188
  H     -0.234986    1.909599   -1.047535
  H     -0.761547    2.015510    0.639437
  H     -0.897844   -0.339571   -0.113896
  H      1.894955   -2.271858    0.080400
  H      2.759784   -0.839845    2.089843
  H      2.639777    0.622555    0.994311
  H      0.604502   -1.771716    3.111521
  H     -1.429077   -0.661724    4.084401
  H     -1.576866    0.409341    2.598299

 Total Charge           Charge          ....    0
 Multiplicity           Mult            ....    1
 Number of Electrons    NEL             ....   68
 Basis Dimension        Dim             ....  339

ORBITAL ENERGIES
----------------

  NO   OCC          E(Eh)            E(eV)
   0   2.0000     -20.572646      -559.8101
   1   2.0000     -20.553269      -559.2829
   2   2.0000     -11.299574      -307.4770
   3   2.0000     -11.291307      -307.2521
   4   2.0000     -11.290088      -307.2189
   5   2.0000     -11.289346      -307.1987
   6   2.0000     -11.249045      -306.1021
   7   2.0000     -11.241515      -305.8972
   8   2.0000     -11.221017      -305.3394
   9   2.0000      -1.416485       -38.5445
  10   2.0000      -1.392556       -37.8934
  11   2.0000      -1.129856       -30.7449
  12   2.0000      -1.024565       -27.8798
  13   2.0000      -0.952501       -25.9189
  14   2.0000      -0.901912       -24.5423
  15   2.0000      -0.858938       -23.3729
  16   2.0000      -0.821526       -22.3549
  17   2.0000      -0.735881       -20.0243
  18   2.0000      -0.723973       -19.7003
  19   2.0000      -0.693591       -18.8736
  20   2.0000      -0.648293       -17.6410
  21   2.0000      -0.618062       -16.8183
  22   2.0000      -0.598853       -16.2956
  23   2.0000      -0.597247       -16.2519
  24   2.0000      -0.565070       -15.3763
  25   2.0000      -0.557439       -15.1687
  26   2.0000      -0.541742       -14.7415
  27   2.0000      -0.515395       -14.0246
  28   2.0000      -0.502043       -13.6613
  29   2.0000      -0.477111       -12.9828
  30   2.0000      -0.473321       -12.8797
  31   2.0000      -0.447765       -12.1843
  32   2.0000      -0.402379       -10.9493
  33   2.0000      -0.370409       -10.0793
  34   0.0000       0.141962         3.8630
  35   0.0000       0.151356         4.1186
  36   0.0000       0.168688         4.5902
  37   0.0000       0.172288         4.6882
  38   0.0000       0.191020         5.1979

MULLIKEN ATOMIC CHARGES
-----------------------
   0 C :   -0.391646
   1 C :    0.075703
   2 O :   -0.331963
   3 C :    0.043305
   4 C :   -0.274723
   5 C :    0.008921
   6 C :   -0.009971
   7 C :   -0.068572
   8 O :   -0.330188
   9 H :    0.125524
  10 H :    0.146199
  11 H :    0.121590
  12 H :    0.121426
  13 H :    0.133989
  14 H :    0.132384
  15 H :    0.135823
  16 H :    0.129366
  17 H :    0.118751
  18 H :    0.114083
Sum of atomic charges:    0.0000000

LOEWDIN ATOMIC CHARGES
----------------------
   0 C :   -0.290725
   1 C :   -0.242806
   2 O :    0.167105
   3 C :   -0.224821
   4 C :   -0.180931
   5 C :   -0.188232
   6 C :   -0.260057
   7 C :   -0.258351
   8 O :    0.148147
   9 H :    0.124634
  10 H :    0.132015
  11 H :    0.126138
  12 H :    0.150487
  13 H :    0.133288
  14 H :    0.144765
  15 H :    0.135006
  16 H :    0.144781
  17 H :    0.119580
  18 H :    0.119978

  Mayer bond orders larger than 0.1
B(  0-C ,  1-C ) :   0.9189 B(  0-C ,  9-H ) :   0.9382 B(  0-C , 10-H ) :   0.9325
B(  0-C , 11-H ) :   0.9270 B(  1-C ,  2-O ) :   0.9115 B(  1-C ,  5-C ) :   0.9017
B(  1-C , 12-H ) :   0.9139 B(  2-O ,  3-C ) :   0.9847 B(  3-C ,  4-C ) :   0.8695
B(  3-C ,  5-C ) :   0.8978 B(  3-C , 13-H ) :   0.9150 B(  4-C ,  5-C ) :   0.8725
B(  4-C , 14-H ) :   0.9248 B(  4-C , 15-H ) :   0.8966 B(  5-C ,  6-C ) :   0.9437
B(  6-C ,  7-C ) :   0.9722 B(  6-C ,  8-O ) :   0.9119 B(  6-C , 16-H ) :   0.9061
B(  7-C ,  8-O ) :   0.8997 B(  7-C , 17-H ) :   0.9193 B(  7-C , 18-H ) :   0.9105

MP2 TOTAL ENERGY:     -422.248318946 Eh
FINAL SINGLE POINT ENERGY      -422.248318946097

DIPOLE MOMENT
-------------
                                X             Y             Z
Electronic contribution:     -0.34650      -4.95946      -0.89869
Nuclear contribution   :      0.60145       5.42801       1.79597
                        -----------------------------------------
Total Dipole Moment    :      0.25495       0.46855       0.89728
                        -----------------------------------------
Magnitude (a.u.)       :      1.04387
Magnitude (Debye)      :      2.65330

                             ****ORCA TERMINATED NORMALLY****
TOTAL RUN TIME: 0 days 0 hours 18 minutes 16 seconds 480 msec
