                         Program Version 3.0.3 - RELEASE   -
|  1> ! RI-MP2 RIJK def2-TZVP def2-TZVP/C def2-TZVP/JK TIGHTSCF
|  2> % maxcore 2000
|  3> % mp2 density relaxed end
|  4> *xyz 0 1
|  5>  C        0.2169568861     1.4870290636     0.1369791644
|  6>  C        0.1355566995    -0.0163012854     0.0521379382
|  7>  C       -0.9768180539    -0.7894593420     0.7188798737
|  8>  C        0.4421647807    -0.9426107753     1.2072625938
|  9>  C        1.2137975191    -2.1177168804     0.6131361857
| 10>  O        0.9181398178    -2.0764869466    -0.7882962940
| 11>  C        0.7316715939    -0.7118907272    -1.1628767831
| 12>  C        2.6530008075    -2.0105151877     0.8813838534
| 13>  C        3.8311453956    -1.9146529510     1.0998904428
| 14>  H        1.2503634254     1.8354012402     0.0277790637
| 15>  H       -0.3803592014     1.9633008523    -0.6493690191
| 16>  H       -0.1587805173     1.8488905645     1.0987510216
| 17>  H       -1.6557812801    -0.2306163468     1.3540018896
| 18>  H       -1.4293719728    -1.6196160549     0.1850769588
| 19>  H        0.7358151316    -0.5713939234     2.1812609214
| 20>  H        0.8505127644    -3.0898240591     0.9671460313
| 21>  H        0.0836618725    -0.7110601425    -2.0457669093
| 22>  H        1.6900392540    -0.2399349612    -1.4311093112
| 23>  H        4.8735903875    -1.8417246570     1.2896862882
| 24> *
| 25>
| 26>                          ****END OF INPUT****

CARTESIAN COORDINATES (ANGSTROEM)
---------------------------------
  C      0.216957    1.487029    0.136979
  C      0.135557   -0.016301    0.052138
  C     -0.976818   -0.789459    0.718880
  C      0.442165   -0.942611    1.207263
  C      1.213798   -2.117717    0.613136
  O      0.918140   -2.076487   -0.788296
  C      0.731672   -0.711891   -1.162877
  C      2.653001   -2.010515    0.881384
  C      3.831145   -1.914653    1.099890
  H      1.250363    1.835401    0.027779
  H     -0.380359    1.963301   -0.649369
  H     -0.158781    1.848891    1.098751
  H     -1.655781   -0.230616    1.354002
  H     -1.429372   -1.619616    0.185077
  H      0.735815   -0.571394    2.181261
  H      0.850513   -3.089824    0.967146
  H      0.083662   -0.711060   -2.045767
  H      1.690039   -0.239935   -1.431109
  H      4.873590   -1.841725    1.289686

 Total Charge           Charge          ....    0
 Multiplicity           Mult            ....    1
 Number of Electrons    NEL             ....   66
 Basis Dimension        Dim             ....  339

ORBITAL ENERGIES
----------------

  NO   OCC          E(Eh)            E(eV)
   0   2.0000     -20.560315      -559.4746
   1   2.0000     -11.309359      -307.7433
   2   2.0000     -11.276204      -306.8411
   3   2.0000     -11.243398      -305.9484
   4   2.0000     -11.238815      -305.8237
   5   2.0000     -11.233200      -305.6709
   6   2.0000     -11.229559      -305.5718
   7   2.0000     -11.226714      -305.4944
   8   2.0000     -11.226519      -305.4891
   9   2.0000      -1.386833       -37.7376
  10   2.0000      -1.160390       -31.5758
  11   2.0000      -1.059152       -28.8210
  12   2.0000      -0.998296       -27.1650
  13   2.0000      -0.952726       -25.9250
  14   2.0000      -0.903911       -24.5967
  15   2.0000      -0.804474       -21.8909
  16   2.0000      -0.761472       -20.7207
  17   2.0000      -0.731966       -19.9178
  18   2.0000      -0.690620       -18.7927
  19   2.0000      -0.673117       -18.3165
  20   2.0000      -0.641045       -17.4437
  21   2.0000      -0.610959       -16.6250
  22   2.0000      -0.579084       -15.7577
  23   2.0000      -0.574450       -15.6316
  24   2.0000      -0.557957       -15.1828
  25   2.0000      -0.543061       -14.7774
  26   2.0000      -0.517800       -14.0901
  27   2.0000      -0.481536       -13.1032
  28   2.0000      -0.443814       -12.0768
  29   2.0000      -0.423932       -11.5358
  30   2.0000      -0.402015       -10.9394
  31   2.0000      -0.395695       -10.7674
  32   2.0000      -0.381680       -10.3861
  33   0.0000       0.136370         3.7108
  34   0.0000       0.158991         4.3264
  35   0.0000       0.165016         4.4903
  36   0.0000       0.171530         4.6676
  37   0.0000       0.173594         4.7237

MULLIKEN ATOMIC CHARGES
-----------------------
   0 C :   -0.419348
   1 C :    0.040063
   2 C :   -0.291406
   3 C :   -0.138801
   4 C :    0.038168
   5 O :   -0.318690
   6 C :   -0.035802
   7 C :   -0.082117
   8 C :   -0.146041
   9 H :    0.137230
  10 H :    0.137173
  11 H :    0.131399
  12 H :    0.135434
  13 H :    0.143381
  14 H :    0.138471
  15 H :    0.123531
  16 H :    0.119398
  17 H :    0.096711
  18 H :    0.191245
Sum of atomic charges:    0.0000000

LOEWDIN ATOMIC CHARGES
----------------------
   0 C :   -0.266119
   1 C :   -0.254662
   2 C :   -0.179326
   3 C :   -0.156996
   4 C :   -0.277396
   5 O :    0.182732
   6 C :   -0.252444
   7 C :   -0.076893
   8 C :   -0.089245
   9 H :    0.129763
  10 H :    0.129076
  11 H :    0.130575
  12 H :    0.137754
  13 H :    0.141889
  14 H :    0.152182
  15 H :    0.161619
  16 H :    0.131471
  17 H :    0.128563
  18 H :    0.127454

  Mayer bond orders larger than 0.1
B(  0-C ,  1-C ) :   0.8970 B(  0-C ,  9-H ) :   0.9381 B(  0-C , 10-H ) :   0.9398
B(  0-C , 11-H ) :   0.9337 B(  1-C ,  2-C ) :   0.8882 B(  1-C ,  3-C ) :   0.8533
B(  1-C ,  6-C ) :   0.9638 B(  2-C ,  3-C ) :   0.8731 B(  2-C , 12-H ) :   0.9295
B(  2-C , 13-H ) :   0.9055 B(  3-C ,  4-C ) :   0.9372 B(  3-C , 14-H ) :   0.9206
B(  4-C ,  5-O ) :   0.9028 B(  4-C ,  7-C ) :   1.1598 B(  4-C , 15-H ) :   0.9101
B(  5-O ,  6-C ) :   0.9296 B(  6-C , 16-H ) :   0.9208 B(  6-C , 17-H ) :   0.9168
B(  7-C ,  8-C ) :   2.5905 B(  8-C , 18-H ) :   0.8933

MP2 TOTAL ENERGY:     -385.166126446 Eh
FINAL SINGLE POINT ENERGY      -385.166126446154

DIPOLE MOMENT
-------------
                                X             Y             Z
Electronic contribution:      3.55554      -6.07566       0.09349
Nuclear contribution   :     -3.69244       6.71992       0.24429
                        -----------------------------------------
Total Dipole Moment    :     -0.13690       0.64425       0.33777
                        -----------------------------------------
Magnitude (a.u.)       :      0.74020
Magnitude (Debye)      :      1.88144

                             ****ORCA TERMINATED NORMALLY****
TOTAL RUN TIME: 0 days 0 hours 20 minutes 14 seconds 679 msec
