                         Program Version 3.0.3 - RELEASE   -
|  1> ! RI-MP2 RIJK def2-TZVP def2-TZVP/C def2-TZVP/JK TIGHTSCF
|  2> % maxcore 2000
|  3> % mp2 density relaxed end
|  4> *xyz 0 1
|  5>  C        0.1829836863     1.2150390791     0.7244097061
|  6>  C       -0.0907730128    -0.0756286581    -0.0120266769
|  7>  C       -1.4382999686    -0.4677146867    -0.4380938040
|  8>  O       -0.4949790540     0.0472542278    -1.3809990661
|  9>  C        1.4557520116     1.8709962340     0.2812768209
| 10>  C        2.0483940111     1.8758076289    -0.9390092751
| 11>  O        3.1925969334     2.6217775759    -0.8562653833
| 12>  C        3.2267708304     3.0347500606     0.4287946065
| 13>  N        2.2375138733     2.6290404266     1.1538800643
| 14>  H       -0.6643725582     1.8971387360     0.5812106713
| 15>  H        0.2513175360     1.0177564505     1.7999464321
| 16>  H        0.6413198822    -0.8670280773     0.1557048998
| 17>  H       -1.6859262192    -1.5218201931    -0.5532202483
| 18>  H       -2.2821021700     0.1852429370    -0.2185253697
| 19>  H        1.8123201997     1.4441874102    -1.8954134379
| 20>  H        4.0644224286     3.6489330187     0.7198337804
| 21> *
| 22>
| 23>                          ****END OF INPUT****

CARTESIAN COORDINATES (ANGSTROEM)
---------------------------------
  C      0.182984    1.215039    0.724410
  C     -0.090773   -0.075629   -0.012027
  C     -1.438300   -0.467715   -0.438094
  O     -0.494979    0.047254   -1.380999
  C      1.455752    1.870996    0.281277
  C      2.048394    1.875808   -0.939009
  O      3.192597    2.621778   -0.856265
  C      3.226771    3.034750    0.428795
  N      2.237514    2.629040    1.153880
  H     -0.664373    1.897139    0.581211
  H      0.251318    1.017756    1.799946
  H      0.641320   -0.867028    0.155705
  H     -1.685926   -1.521820   -0.553220
  H     -2.282102    0.185243   -0.218525
  H      1.812320    1.444187   -1.895413
  H      4.064422    3.648933    0.719834

 Total Charge           Charge          ....    0
 Multiplicity           Mult            ....    1
 Number of Electrons    NEL             ....   66
 Basis Dimension        Dim             ....  321

ORBITAL ENERGIES
----------------

  NO   OCC          E(Eh)            E(eV)
   0   2.0000     -20.636736      -561.5541
   1   2.0000     -20.573385      -559.8303
   2   2.0000     -15.565322      -423.5539
   3   2.0000     -11.333511      -308.4005
   4   2.0000     -11.295690      -307.3713
   5   2.0000     -11.289038      -307.1903
   6   2.0000     -11.285122      -307.0838
   7   2.0000     -11.265964      -306.5625
   8   2.0000     -11.245341      -306.0013
   9   2.0000      -1.485357       -40.4186
  10   2.0000      -1.416742       -38.5515
  11   2.0000      -1.234881       -33.6028
  12   2.0000      -1.071802       -29.1652
  13   2.0000      -0.996187       -27.1076
  14   2.0000      -0.919259       -25.0143
  15   2.0000      -0.845084       -22.9959
  16   2.0000      -0.827667       -22.5220
  17   2.0000      -0.795711       -21.6524
  18   2.0000      -0.734824       -19.9956
  19   2.0000      -0.695275       -18.9194
  20   2.0000      -0.663272       -18.0486
  21   2.0000      -0.652199       -17.7473
  22   2.0000      -0.619221       -16.8499
  23   2.0000      -0.608489       -16.5578
  24   2.0000      -0.578377       -15.7384
  25   2.0000      -0.565579       -15.3902
  26   2.0000      -0.533030       -14.5045
  27   2.0000      -0.524835       -14.2815
  28   2.0000      -0.463070       -12.6008
  29   2.0000      -0.458118       -12.4660
  30   2.0000      -0.445984       -12.1358
  31   2.0000      -0.443958       -12.0807
  32   2.0000      -0.336720        -9.1626
  33   0.0000       0.134535         3.6609
  34   0.0000       0.152103         4.1389
  35   0.0000       0.169656         4.6166
  36   0.0000       0.175260         4.7691
  37   0.0000       0.180113         4.9011

MULLIKEN ATOMIC CHARGES
-----------------------
   0 C :   -0.232946
   1 C :    0.054522
   2 C :   -0.081822
   3 O :   -0.347064
   4 C :    0.020981
   5 C :   -0.036063
   6 O :   -0.196501
   7 C :    0.112817
   8 N :   -0.279054
   9 H :    0.134302
  10 H :    0.140078
  11 H :    0.134099
  12 H :    0.119978
  13 H :    0.117825
  14 H :    0.179284
  15 H :    0.159563
Sum of atomic charges:    0.0000000

LOEWDIN ATOMIC CHARGES
----------------------
   0 C :   -0.211179
   1 C :   -0.286268
   2 C :   -0.263245
   3 O :    0.137076
   4 C :   -0.256110
   5 C :   -0.215281
   6 O :    0.334699
   7 C :   -0.330759
   8 N :    0.117928
   9 H :    0.156179
  10 H :    0.160008
  11 H :    0.140702
  12 H :    0.120430
  13 H :    0.121151
  14 H :    0.142083
  15 H :    0.132586

  Mayer bond orders larger than 0.1
B(  0-C ,  1-C ) :   0.9358 B(  0-C ,  4-C ) :   0.9116 B(  0-C ,  9-H ) :   0.9102
B(  0-C , 10-H ) :   0.9408 B(  1-C ,  2-C ) :   0.9718 B(  1-C ,  3-O ) :   0.8201
B(  1-C , 11-H ) :   0.9130 B(  2-C ,  3-O ) :   0.9269 B(  2-C , 12-H ) :   0.9236
B(  2-C , 13-H ) :   0.9064 B(  4-C ,  5-C ) :   1.6170 B(  4-C ,  8-N ) :   1.1974
B(  5-C ,  6-O ) :   1.0272 B(  5-C , 14-H ) :   0.9027 B(  6-O ,  7-C ) :   1.0884
B(  7-C ,  8-N ) :   1.6358 B(  7-C , 15-H ) :   0.9256

MP2 TOTAL ENERGY:     -437.162985209 Eh
FINAL SINGLE POINT ENERGY      -437.162985208834

DIPOLE MOMENT
-------------
                                X             Y             Z
Electronic contribution:      5.15077       3.36358      -1.36303
Nuclear contribution   :     -5.40026      -3.72901       1.50212
                        -----------------------------------------
Total Dipole Moment    :     -0.24949      -0.36543       0.13909
                        -----------------------------------------
Magnitude (a.u.)       :      0.46382
Magnitude (Debye)      :      1.17893

                             ****ORCA TERMINATED NORMALLY****
TOTAL RUN TIME: 0 days 0 hours 15 minutes 26 seconds 11 msec
