                         Program Version 3.0.3 - RELEASE   -
|  1> ! RI-MP2 RIJK def2-TZVP def2-TZVP/C def2-TZVP/JK TIGHTSCF
|  2> % maxcore 2000
|  3> % mp2 density relaxed end
|  4> *xyz 0 1
|  5>  O        0.0030118771     0.0090268181     0.0917133634
|  6>  C       -0.0133701250     1.1997817830     0.0513131377
|  7>  C       -1.0553247569     2.3228039074    -0.0137237815
|  8>  C       -1.2318620770     2.8931669942     1.4062330667
|  9>  O       -0.0157556896     3.4541816657     1.8747302127
| 10>  C        1.2001194797     2.9253826915     1.3695909330
| 11>  C        0.9960566966     2.3499724241    -0.0446239656
| 12>  O       -0.0501210478     3.1268792847    -0.6940908988
| 13>  H       -1.9886007829     2.2046261783    -0.5677314471
| 14>  H       -1.9620974157     3.7088727506     1.4039652419
| 15>  H       -1.6003818925     2.1007179058     2.0768032183
| 16>  H        1.9080939954     3.7601423260     1.3456503133
| 17>  H        1.6095296197     2.1432437834     2.0284450251
| 18>  H        1.9150217390     2.2563177872    -0.6265404893
| 19> *
| 20>
| 21>                          ****END OF INPUT****

CARTESIAN COORDINATES (ANGSTROEM)
---------------------------------
  O      0.003012    0.009027    0.091713
  C     -0.013370    1.199782    0.051313
  C     -1.055325    2.322804   -0.013724
  C     -1.231862    2.893167    1.406233
  O     -0.015756    3.454182    1.874730
  C      1.200119    2.925383    1.369591
  C      0.996057    2.349972   -0.044624
  O     -0.050121    3.126879   -0.694091
  H     -1.988601    2.204626   -0.567731
  H     -1.962097    3.708873    1.403965
  H     -1.600382    2.100718    2.076803
  H      1.908094    3.760142    1.345650
  H      1.609530    2.143244    2.028445
  H      1.915022    2.256318   -0.626540

 Total Charge           Charge          ....    0
 Multiplicity           Mult            ....    1
 Number of Electrons    NEL             ....   60
 Basis Dimension        Dim             ....  284

ORBITAL ENERGIES
----------------

  NO   OCC          E(Eh)            E(eV)
   0   2.0000     -20.583417      -560.1033
   1   2.0000     -20.578971      -559.9823
   2   2.0000     -20.575067      -559.8760
   3   2.0000     -11.353178      -308.9357
   4   2.0000     -11.314629      -307.8867
   5   2.0000     -11.314608      -307.8861
   6   2.0000     -11.303835      -307.5930
   7   2.0000     -11.303814      -307.5924
   8   2.0000      -1.442881       -39.2628
   9   2.0000      -1.412010       -38.4227
  10   2.0000      -1.375260       -37.4227
  11   2.0000      -1.058532       -28.8041
  12   2.0000      -1.026309       -27.9273
  13   2.0000      -0.899320       -24.4717
  14   2.0000      -0.883988       -24.0545
  15   2.0000      -0.738961       -20.1082
  16   2.0000      -0.725342       -19.7376
  17   2.0000      -0.691752       -18.8235
  18   2.0000      -0.684107       -18.6155
  19   2.0000      -0.663193       -18.0464
  20   2.0000      -0.650784       -17.7087
  21   2.0000      -0.583488       -15.8775
  22   2.0000      -0.570384       -15.5209
  23   2.0000      -0.569890       -15.5075
  24   2.0000      -0.555147       -15.1063
  25   2.0000      -0.546356       -14.8671
  26   2.0000      -0.516954       -14.0670
  27   2.0000      -0.450956       -12.2711
  28   2.0000      -0.428575       -11.6621
  29   2.0000      -0.415304       -11.3010
  30   0.0000       0.118815         3.2331
  31   0.0000       0.154368         4.2006
  32   0.0000       0.156890         4.2692
  33   0.0000       0.169027         4.5995
  34   0.0000       0.181320         4.9340

MULLIKEN ATOMIC CHARGES
-----------------------
   0 O :   -0.232094
   1 C :    0.135780
   2 C :    0.035751
   3 C :   -0.066060
   4 O :   -0.307896
   5 C :   -0.066059
   6 C :    0.035751
   7 O :   -0.309226
   8 H :    0.148245
   9 H :    0.130452
  10 H :    0.108330
  11 H :    0.130452
  12 H :    0.108330
  13 H :    0.148245
Sum of atomic charges:    0.0000000

LOEWDIN ATOMIC CHARGES
----------------------
   0 O :    0.180637
   1 C :   -0.287660
   2 C :   -0.243676
   3 C :   -0.284995
   4 O :    0.164986
   5 C :   -0.284995
   6 C :   -0.243674
   7 O :    0.178974
   8 H :    0.145089
   9 H :    0.134901
  10 H :    0.130211
  11 H :    0.134902
  12 H :    0.130211
  13 H :    0.145089

  Mayer bond orders larger than 0.1
B(  0-O ,  1-C ) :   2.0695 B(  1-C ,  2-C ) :   0.9016 B(  1-C ,  6-C ) :   0.9016
B(  2-C ,  3-C ) :   0.9095 B(  2-C ,  7-O ) :   0.9259 B(  2-C ,  8-H ) :   0.8900
B(  3-C ,  4-O ) :   0.9482 B(  3-C ,  9-H ) :   0.9192 B(  3-C , 10-H ) :   0.9125
B(  4-O ,  5-C ) :   0.9482 B(  5-C ,  6-C ) :   0.9095 B(  5-C , 11-H ) :   0.9192
B(  5-C , 12-H ) :   0.9125 B(  6-C ,  7-O ) :   0.9259 B(  6-C , 13-H ) :   0.8900

MP2 TOTAL ENERGY:     -418.985915090 Eh
FINAL SINGLE POINT ENERGY      -418.985915090135

DIPOLE MOMENT
-------------
                                X             Y             Z
Electronic contribution:     -0.00685      -2.02895      -2.23819
Nuclear contribution   :      0.00624       2.23600       2.37996
                        -----------------------------------------
Total Dipole Moment    :     -0.00060       0.20705       0.14176
                        -----------------------------------------
Magnitude (a.u.)       :      0.25093
Magnitude (Debye)      :      0.63782

                             ****ORCA TERMINATED NORMALLY****
TOTAL RUN TIME: 0 days 0 hours 10 minutes 54 seconds 767 msec
