                         Program Version 3.0.3 - RELEASE   -
|  1> ! RI-MP2 RIJK def2-TZVP def2-TZVP/C def2-TZVP/JK TIGHTSCF
|  2> % maxcore 2000
|  3> % mp2 density relaxed end
|  4> *xyz 0 1
|  5>  C       -0.1383398503     1.4774992839    -0.0402844332
|  6>  N        0.2081744843     0.0532155240    -0.0560601251
|  7>  C        0.7692183910    -0.4901533601     1.2019315982
|  8>  C        2.2692170366    -0.0509032069     1.2728136484
|  9>  O        2.9402717124    -0.4022829982     0.0988249880
| 10>  C        0.0641904335    -0.0758647926     2.4245439672
| 11>  C       -0.4929592445     0.3126748925     3.4154763076
| 12>  C        0.7113072490    -1.9637521147     1.0928745815
| 13>  N        0.6428995373    -3.1132814068     1.0106446851
| 14>  H        0.7643279263     2.0844060533     0.0711157696
| 15>  H       -0.5843039142     1.7242182900    -1.0066579491
| 16>  H       -0.8401819279     1.7540891997     0.7578177534
| 17>  H       -0.6031942007    -0.4947249336    -0.3188387421
| 18>  H        2.2842329869     1.0320614854     1.4687994418
| 19>  H        2.7512136792    -0.5525518423     2.1154009392
| 20>  H        2.3197453659    -0.2203163982    -0.6231804216
| 21>  H       -0.9899349047     0.6339699844     4.2982934608
| 22> *
| 23>
| 24>                          ****END OF INPUT****

CARTESIAN COORDINATES (ANGSTROEM)
---------------------------------
  C     -0.138340    1.477499   -0.040284
  N      0.208174    0.053216   -0.056060
  C      0.769218   -0.490153    1.201932
  C      2.269217   -0.050903    1.272814
  O      2.940272   -0.402283    0.098825
  C      0.064190   -0.075865    2.424544
  C     -0.492959    0.312675    3.415476
  C      0.711307   -1.963752    1.092875
  N      0.642900   -3.113281    1.010645
  H      0.764328    2.084406    0.071116
  H     -0.584304    1.724218   -1.006658
  H     -0.840182    1.754089    0.757818
  H     -0.603194   -0.494725   -0.318839
  H      2.284233    1.032061    1.468799
  H      2.751214   -0.552552    2.115401
  H      2.319745   -0.220316   -0.623180
  H     -0.989935    0.633970    4.298293

 Total Charge           Charge          ....    0
 Multiplicity           Mult            ....    1
 Number of Electrons    NEL             ....   66
 Basis Dimension        Dim             ....  327

ORBITAL ENERGIES
----------------

  NO   OCC          E(Eh)            E(eV)
   0   2.0000     -20.567387      -559.6670
   1   2.0000     -15.594467      -424.3470
   2   2.0000     -15.581406      -423.9916
   3   2.0000     -11.356198      -309.0179
   4   2.0000     -11.306884      -307.6759
   5   2.0000     -11.282008      -306.9991
   6   2.0000     -11.273143      -306.7578
   7   2.0000     -11.264687      -306.5277
   8   2.0000     -11.259392      -306.3836
   9   2.0000      -1.383848       -37.6564
  10   2.0000      -1.264754       -34.4157
  11   2.0000      -1.219702       -33.1898
  12   2.0000      -1.093851       -29.7652
  13   2.0000      -1.024290       -27.8724
  14   2.0000      -0.944366       -25.6975
  15   2.0000      -0.884179       -24.0597
  16   2.0000      -0.784171       -21.3384
  17   2.0000      -0.760395       -20.6914
  18   2.0000      -0.712437       -19.3864
  19   2.0000      -0.687375       -18.7044
  20   2.0000      -0.655798       -17.8452
  21   2.0000      -0.629770       -17.1369
  22   2.0000      -0.611588       -16.6421
  23   2.0000      -0.593656       -16.1542
  24   2.0000      -0.560834       -15.2611
  25   2.0000      -0.557383       -15.1672
  26   2.0000      -0.531415       -14.4605
  27   2.0000      -0.483988       -13.1700
  28   2.0000      -0.477093       -12.9823
  29   2.0000      -0.465170       -12.6579
  30   2.0000      -0.432869       -11.7790
  31   2.0000      -0.420786       -11.4502
  32   2.0000      -0.418022       -11.3749
  33   0.0000       0.118830         3.2335
  34   0.0000       0.129577         3.5260
  35   0.0000       0.141245         3.8435
  36   0.0000       0.146876         3.9967
  37   0.0000       0.157108         4.2751

MULLIKEN ATOMIC CHARGES
-----------------------
   0 C :   -0.309820
   1 N :   -0.389485
   2 C :    0.099614
   3 C :   -0.010894
   4 O :   -0.459344
   5 C :   -0.043821
   6 C :   -0.142115
   7 C :   -0.165246
   8 N :   -0.031806
   9 H :    0.141814
  10 H :    0.152207
  11 H :    0.141100
  12 H :    0.229272
  13 H :    0.116617
  14 H :    0.133140
  15 H :    0.335758
  16 H :    0.203009
Sum of atomic charges:    0.0000000

LOEWDIN ATOMIC CHARGES
----------------------
   0 C :   -0.330538
   1 N :    0.010804
   2 C :   -0.326524
   3 C :   -0.289037
   4 O :   -0.014923
   5 C :   -0.061268
   6 C :   -0.059328
   7 C :   -0.135319
   8 N :    0.086216
   9 H :    0.119672
  10 H :    0.122824
  11 H :    0.112946
  12 H :    0.183634
  13 H :    0.125871
  14 H :    0.141557
  15 H :    0.180531
  16 H :    0.132882

  Mayer bond orders larger than 0.1
B(  0-C ,  1-N ) :   0.8928 B(  0-C ,  9-H ) :   0.9346 B(  0-C , 10-H ) :   0.9315
B(  0-C , 11-H ) :   0.9257 B(  1-N ,  2-C ) :   0.8804 B(  1-N , 12-H ) :   0.8700
B(  2-C ,  3-C ) :   0.9276 B(  2-C ,  5-C ) :   1.1039 B(  2-C ,  7-C ) :   0.9085
B(  3-C ,  4-O ) :   0.9722 B(  3-C , 13-H ) :   0.9063 B(  3-C , 14-H ) :   0.9211
B(  4-O , 15-H ) :   0.8084 B(  5-C ,  6-C ) :   2.6194 B(  6-C , 16-H ) :   0.8822
B(  7-C ,  8-N ) :   2.8700

MP2 TOTAL ENERGY:     -417.254065127 Eh
FINAL SINGLE POINT ENERGY      -417.254065127315

DIPOLE MOMENT
-------------
                                X             Y             Z
Electronic contribution:      0.43406      -6.98404       2.05054
Nuclear contribution   :     -1.37336       8.77201      -1.79482
                        -----------------------------------------
Total Dipole Moment    :     -0.93930       1.78797       0.25572
                        -----------------------------------------
Magnitude (a.u.)       :      2.03581
Magnitude (Debye)      :      5.17461

                             ****ORCA TERMINATED NORMALLY****
TOTAL RUN TIME: 0 days 0 hours 16 minutes 2 seconds 371 msec
