                         Program Version 3.0.3 - RELEASE   -
|  1> ! RI-MP2 RIJK def2-TZVP def2-TZVP/C def2-TZVP/JK TIGHTSCF
|  2> % maxcore 2000
|  3> % mp2 density relaxed end
|  4> *xyz 0 1
|  5>  C        0.0571276315     1.5363927975     0.0361087232
|  6>  C       -0.0734542310     0.0543865731     0.1244658145
|  7>  O        0.9832298455    -0.8137340088    -0.2643220462
|  8>  C        0.5212191089    -0.9296958970     1.1034590752
|  9>  C        1.5018615082    -0.8132344722     2.2197289908
| 10>  C       -0.7791714008    -1.6957026028     1.0344187621
| 11>  O       -1.3650997721    -2.4084195178     1.8023928691
| 12>  C       -1.3400285670    -0.8001908296    -0.1150660772
| 13>  O       -2.5560682766    -0.2035676801     0.2559275329
| 14>  H        0.9898350721     1.8801447491     0.4906374477
| 15>  H        0.0459662266     1.8576994219    -1.0110374219
| 16>  H       -0.7896146230     2.0060911572     0.5437147089
| 17>  H        2.1258931890     0.0758433103     2.0952339470
| 18>  H        0.9774440173    -0.7514829887     3.1776040014
| 19>  H        2.1585176140    -1.6886558472     2.2484838798
| 20>  H       -1.3731794033    -1.2311621919    -1.1224283331
| 21>  H       -3.0066470893    -0.8173904531     0.8502870059
| 22> *
| 23>
| 24>                          ****END OF INPUT****

CARTESIAN COORDINATES (ANGSTROEM)
---------------------------------
  C      0.057128    1.536393    0.036109
  C     -0.073454    0.054387    0.124466
  O      0.983230   -0.813734   -0.264322
  C      0.521219   -0.929696    1.103459
  C      1.501862   -0.813234    2.219729
  C     -0.779171   -1.695703    1.034419
  O     -1.365100   -2.408420    1.802393
  C     -1.340029   -0.800191   -0.115066
  O     -2.556068   -0.203568    0.255928
  H      0.989835    1.880145    0.490637
  H      0.045966    1.857699   -1.011037
  H     -0.789615    2.006091    0.543715
  H      2.125893    0.075843    2.095234
  H      0.977444   -0.751483    3.177604
  H      2.158518   -1.688656    2.248484
  H     -1.373179   -1.231162   -1.122428
  H     -3.006647   -0.817390    0.850287

 Total Charge           Charge          ....    0
 Multiplicity           Mult            ....    1
 Number of Electrons    NEL             ....   68
 Basis Dimension        Dim             ....  327

ORBITAL ENERGIES
----------------

  NO   OCC          E(Eh)            E(eV)
   0   2.0000     -20.596593      -560.4618
   1   2.0000     -20.579957      -560.0091
   2   2.0000     -20.571847      -559.7884
   3   2.0000     -11.350957      -308.8752
   4   2.0000     -11.320353      -308.0425
   5   2.0000     -11.315833      -307.9195
   6   2.0000     -11.309277      -307.7411
   7   2.0000     -11.245447      -306.0042
   8   2.0000     -11.244250      -305.9716
   9   2.0000      -1.453953       -39.5641
  10   2.0000      -1.413215       -38.4555
  11   2.0000      -1.382937       -37.6316
  12   2.0000      -1.083682       -29.4885
  13   2.0000      -1.033406       -28.1204
  14   2.0000      -1.007441       -27.4139
  15   2.0000      -0.879212       -23.9246
  16   2.0000      -0.807568       -21.9750
  17   2.0000      -0.746676       -20.3181
  18   2.0000      -0.708078       -19.2678
  19   2.0000      -0.698143       -18.9974
  20   2.0000      -0.675736       -18.3877
  21   2.0000      -0.639190       -17.3932
  22   2.0000      -0.623965       -16.9790
  23   2.0000      -0.597113       -16.2483
  24   2.0000      -0.583882       -15.8882
  25   2.0000      -0.575841       -15.6694
  26   2.0000      -0.569889       -15.5075
  27   2.0000      -0.555789       -15.1238
  28   2.0000      -0.539704       -14.6861
  29   2.0000      -0.525909       -14.3107
  30   2.0000      -0.517390       -14.0789
  31   2.0000      -0.469460       -12.7746
  32   2.0000      -0.415680       -11.3112
  33   2.0000      -0.399248       -10.8641
  34   0.0000       0.124015         3.3746
  35   0.0000       0.131213         3.5705
  36   0.0000       0.158799         4.3211
  37   0.0000       0.164712         4.4821
  38   0.0000       0.181355         4.9349

MULLIKEN ATOMIC CHARGES
-----------------------
   0 C :   -0.410162
   1 C :    0.115342
   2 O :   -0.310461
   3 C :    0.157912
   4 C :   -0.396740
   5 C :    0.058498
   6 O :   -0.268237
   7 C :    0.179464
   8 O :   -0.492639
   9 H :    0.143482
  10 H :    0.149130
  11 H :    0.160963
  12 H :    0.147313
  13 H :    0.153379
  14 H :    0.153909
  15 H :    0.120611
  16 H :    0.338236
Sum of atomic charges:   -0.0000000

LOEWDIN ATOMIC CHARGES
----------------------
   0 C :   -0.260021
   1 C :   -0.257795
   2 O :    0.229326
   3 C :   -0.239560
   4 C :   -0.261078
   5 C :   -0.273322
   6 O :    0.158628
   7 C :   -0.258624
   8 O :   -0.002704
   9 H :    0.135409
  10 H :    0.138887
  11 H :    0.144082
  12 H :    0.137253
  13 H :    0.141739
  14 H :    0.139885
  15 H :    0.138994
  16 H :    0.188902

  Mayer bond orders larger than 0.1
B(  0-C ,  1-C ) :   0.8799 B(  0-C ,  9-H ) :   0.9348 B(  0-C , 10-H ) :   0.9342
B(  0-C , 11-H ) :   0.9267 B(  1-C ,  2-O ) :   0.8638 B(  1-C ,  3-C ) :   0.8513
B(  1-C ,  7-C ) :   0.8648 B(  2-O ,  3-C ) :   0.8661 B(  3-C ,  4-C ) :   0.8713
B(  3-C ,  5-C ) :   0.8487 B(  3-C ,  7-C ) :  -0.1137 B(  4-C , 12-H ) :   0.9381
B(  4-C , 13-H ) :   0.9284 B(  4-C , 14-H ) :   0.9330 B(  5-C ,  6-O ) :   1.9951
B(  5-C ,  7-C ) :   0.8974 B(  7-C ,  8-O ) :   0.9115 B(  7-C , 15-H ) :   0.9058
B(  8-O , 16-H ) :   0.8236

MP2 TOTAL ENERGY:     -458.208355326 Eh
FINAL SINGLE POINT ENERGY      -458.208355325544

DIPOLE MOMENT
-------------
                                X             Y             Z
Electronic contribution:     -3.40505      -5.58174      -1.40683
Nuclear contribution   :      3.79726       6.22272       1.60996
                        -----------------------------------------
Total Dipole Moment    :      0.39221       0.64097       0.20313
                        -----------------------------------------
Magnitude (a.u.)       :      0.77842
Magnitude (Debye)      :      1.97858

                             ****ORCA TERMINATED NORMALLY****
TOTAL RUN TIME: 0 days 0 hours 17 minutes 0 seconds 723 msec
