                         Program Version 3.0.3 - RELEASE   -
|  1> ! RI-MP2 RIJK def2-TZVP def2-TZVP/C def2-TZVP/JK TIGHTSCF
|  2> % maxcore 2000
|  3> % mp2 density relaxed end
|  4> *xyz 0 1
|  5>  C        0.9612981710     0.3381768193     0.2731522867
|  6>  C       -0.5045475570     0.1937223765    -0.0810773256
|  7>  O       -1.3653077801     0.8732431974     0.4250187066
|  8>  C       -0.8698774922    -0.8359772123    -1.1598936639
|  9>  C       -0.1507125621    -2.1707623507    -1.0547067176
| 10>  C        0.2044224113    -2.9161352243    -2.2813900348
| 11>  O        1.1981369705    -2.1888721460    -1.5678902308
| 12>  C       -0.3528784294    -2.9010560127     0.1757391090
| 13>  C       -0.5465465560    -3.4741731527     1.2141803441
| 14>  H        1.5805756445     0.3887403273    -0.6272389263
| 15>  H        1.1015737935     1.2248577506     0.8921133023
| 16>  H        1.2922454107    -0.5478786577     0.8267198711
| 17>  H       -1.9525692008    -0.9808691194    -1.1218784777
| 18>  H       -0.6180631630    -0.3944462124    -2.1324209382
| 19>  H        0.2935320061    -3.9994974531    -2.2368309860
| 20>  H       -0.0831656728    -2.5031674687    -3.2475334876
| 21>  H       -0.7130394641    -3.9879822311     2.1290932287
| 22> *
| 23>
| 24>                          ****END OF INPUT****

CARTESIAN COORDINATES (ANGSTROEM)
---------------------------------
  C      0.961298    0.338177    0.273152
  C     -0.504548    0.193722   -0.081077
  O     -1.365308    0.873243    0.425019
  C     -0.869877   -0.835977   -1.159894
  C     -0.150713   -2.170762   -1.054707
  C      0.204422   -2.916135   -2.281390
  O      1.198137   -2.188872   -1.567890
  C     -0.352878   -2.901056    0.175739
  C     -0.546547   -3.474173    1.214180
  H      1.580576    0.388740   -0.627239
  H      1.101574    1.224858    0.892113
  H      1.292245   -0.547879    0.826720
  H     -1.952569   -0.980869   -1.121878
  H     -0.618063   -0.394446   -2.132421
  H      0.293532   -3.999497   -2.236831
  H     -0.083166   -2.503167   -3.247533
  H     -0.713039   -3.987982    2.129093

 Total Charge           Charge          ....    0
 Multiplicity           Mult            ....    1
 Number of Electrons    NEL             ....   66
 Basis Dimension        Dim             ....  327

ORBITAL ENERGIES
----------------

  NO   OCC          E(Eh)            E(eV)
   0   2.0000     -20.594574      -560.4068
   1   2.0000     -20.546251      -559.0919
   2   2.0000     -11.338493      -308.5361
   3   2.0000     -11.334655      -308.4317
   4   2.0000     -11.309272      -307.7409
   5   2.0000     -11.256351      -306.3009
   6   2.0000     -11.252627      -306.1996
   7   2.0000     -11.247862      -306.0699
   8   2.0000     -11.228625      -305.5464
   9   2.0000      -1.439208       -39.1628
  10   2.0000      -1.390839       -37.8467
  11   2.0000      -1.091174       -29.6924
  12   2.0000      -1.039184       -28.2776
  13   2.0000      -0.992175       -26.9984
  14   2.0000      -0.936215       -25.4757
  15   2.0000      -0.883911       -24.0524
  16   2.0000      -0.769904       -20.9502
  17   2.0000      -0.733358       -19.9557
  18   2.0000      -0.710008       -19.3203
  19   2.0000      -0.684678       -18.6310
  20   2.0000      -0.648996       -17.6601
  21   2.0000      -0.635587       -17.2952
  22   2.0000      -0.611833       -16.6488
  23   2.0000      -0.595123       -16.1941
  24   2.0000      -0.565594       -15.3906
  25   2.0000      -0.549597       -14.9553
  26   2.0000      -0.543791       -14.7973
  27   2.0000      -0.503500       -13.7009
  28   2.0000      -0.491897       -13.3852
  29   2.0000      -0.476692       -12.9715
  30   2.0000      -0.417579       -11.3629
  31   2.0000      -0.414313       -11.2740
  32   2.0000      -0.393198       -10.6995
  33   0.0000       0.130367         3.5475
  34   0.0000       0.139634         3.7996
  35   0.0000       0.150859         4.1051
  36   0.0000       0.157402         4.2831
  37   0.0000       0.158963         4.3256

MULLIKEN ATOMIC CHARGES
-----------------------
   0 C :   -0.402063
   1 C :    0.181659
   2 O :   -0.272831
   3 C :   -0.225930
   4 C :    0.008644
   5 C :   -0.055059
   6 O :   -0.321385
   7 C :   -0.004691
   8 C :   -0.097935
   9 H :    0.149382
  10 H :    0.151272
  11 H :    0.155546
  12 H :    0.138569
  13 H :    0.140479
  14 H :    0.132011
  15 H :    0.122106
  16 H :    0.200227
Sum of atomic charges:   -0.0000000

LOEWDIN ATOMIC CHARGES
----------------------
   0 C :   -0.274608
   1 C :   -0.341135
   2 O :    0.153465
   3 C :   -0.178750
   4 C :   -0.316197
   5 C :   -0.221348
   6 O :    0.180394
   7 C :   -0.064552
   8 C :   -0.061401
   9 H :    0.138218
  10 H :    0.132676
  11 H :    0.145477
  12 H :    0.160473
  13 H :    0.163359
  14 H :    0.128621
  15 H :    0.124066
  16 H :    0.131244

  Mayer bond orders larger than 0.1
B(  0-C ,  1-C ) :   0.9288 B(  0-C ,  9-H ) :   0.9150 B(  0-C , 10-H ) :   0.9273
B(  0-C , 11-H ) :   0.8980 B(  1-C ,  2-O ) :   2.0171 B(  1-C ,  3-C ) :   0.9129
B(  3-C ,  4-C ) :   0.8965 B(  3-C , 12-H ) :   0.9139 B(  3-C , 13-H ) :   0.8999
B(  4-C ,  5-C ) :   0.9572 B(  4-C ,  6-O ) :   0.8300 B(  4-C ,  7-C ) :   1.1938
B(  4-C ,  8-C ) :  -0.1292 B(  5-C ,  6-O ) :   0.9125 B(  5-C , 14-H ) :   0.9152
B(  5-C , 15-H ) :   0.9036 B(  7-C ,  8-C ) :   2.6034 B(  8-C , 16-H ) :   0.8770

MP2 TOTAL ENERGY:     -421.067228181 Eh
FINAL SINGLE POINT ENERGY      -421.067228181108

DIPOLE MOMENT
-------------
                                X             Y             Z
Electronic contribution:     -1.74385      -1.18180       1.05672
Nuclear contribution   :      1.86787       0.36450      -1.62185
                        -----------------------------------------
Total Dipole Moment    :      0.12401      -0.81730      -0.56513
                        -----------------------------------------
Magnitude (a.u.)       :      1.00136
Magnitude (Debye)      :      2.54527

                             ****ORCA TERMINATED NORMALLY****
TOTAL RUN TIME: 0 days 0 hours 18 minutes 12 seconds 280 msec
