                         Program Version 3.0.3 - RELEASE   -
|  1> ! RI-MP2 RIJK def2-TZVP def2-TZVP/C def2-TZVP/JK TIGHTSCF
|  2> % maxcore 2000
|  3> % mp2 density relaxed end
|  4> *xyz 0 1
|  5>  C       -0.2495110390     1.4879493430     0.0949674777
|  6>  C        0.0277976295     0.0075355675     0.0697450084
|  7>  O       -1.1174245812    -0.7276670630    -0.2542635072
|  8>  C        1.3732209883    -0.5202087240    -0.4168471361
|  9>  C        0.9869593822    -0.6562331828     1.0318031771
| 10>  C        1.6688623385     0.0207589335     2.2210423623
| 11>  C        1.6586591737    -1.0803479271     3.3051231048
| 12>  C        0.5031656139    -1.9737216491     2.8464569826
| 13>  O        0.5958385033    -1.9684180906     1.4217725228
| 14>  H        0.6531561130     2.0602242104     0.3259868776
| 15>  H       -0.6169755589     1.8165561214    -0.8828717061
| 16>  H       -1.0162771610     1.7274664846     0.8394374469
| 17>  H       -1.0290654398    -1.5716639535     0.2118028297
| 18>  H        1.3537556683    -1.4271133741    -1.0125165501
| 19>  H        2.1584662683     0.1854012394    -0.6720943828
| 20>  H        2.6818684760     0.3538291504     1.9818397375
| 21>  H        1.1021535481     0.8977293158     2.5489863013
| 22>  H        2.5933905547    -1.6480668250     3.2828277839
| 23>  H        1.5205322154    -0.6890539008     4.3157481032
| 24>  H        0.5766869220    -3.0116622067     3.1797171344
| 25>  H       -0.4659145653    -1.5661106794     3.1735077721
| 26> *
| 27>
| 28>                          ****END OF INPUT****

CARTESIAN COORDINATES (ANGSTROEM)
---------------------------------
  C     -0.249511    1.487949    0.094967
  C      0.027798    0.007536    0.069745
  O     -1.117425   -0.727667   -0.254264
  C      1.373221   -0.520209   -0.416847
  C      0.986959   -0.656233    1.031803
  C      1.668862    0.020759    2.221042
  C      1.658659   -1.080348    3.305123
  C      0.503166   -1.973722    2.846457
  O      0.595839   -1.968418    1.421773
  H      0.653156    2.060224    0.325987
  H     -0.616976    1.816556   -0.882872
  H     -1.016277    1.727466    0.839437
  H     -1.029065   -1.571664    0.211803
  H      1.353756   -1.427113   -1.012517
  H      2.158466    0.185401   -0.672094
  H      2.681868    0.353829    1.981840
  H      1.102154    0.897729    2.548986
  H      2.593391   -1.648067    3.282828
  H      1.520532   -0.689054    4.315748
  H      0.576687   -3.011662    3.179717
  H     -0.465915   -1.566111    3.173508

 Total Charge           Charge          ....    0
 Multiplicity           Mult            ....    1
 Number of Electrons    NEL             ....   70
 Basis Dimension        Dim             ....  351

ORBITAL ENERGIES
----------------

  NO   OCC          E(Eh)            E(eV)
   0   2.0000     -20.566441      -559.6413
   1   2.0000     -20.544868      -559.0543
   2   2.0000     -11.284369      -307.0633
   3   2.0000     -11.282154      -307.0030
   4   2.0000     -11.280608      -306.9609
   5   2.0000     -11.235614      -305.7366
   6   2.0000     -11.233764      -305.6863
   7   2.0000     -11.216396      -305.2137
   8   2.0000     -11.216119      -305.2061
   9   2.0000      -1.398159       -38.0458
  10   2.0000      -1.353104       -36.8198
  11   2.0000      -1.123770       -30.5793
  12   2.0000      -1.061593       -28.8874
  13   2.0000      -0.977039       -26.5866
  14   2.0000      -0.933864       -25.4117
  15   2.0000      -0.823595       -22.4112
  16   2.0000      -0.796698       -21.6792
  17   2.0000      -0.753220       -20.4962
  18   2.0000      -0.712395       -19.3853
  19   2.0000      -0.678657       -18.4672
  20   2.0000      -0.650738       -17.7075
  21   2.0000      -0.612176       -16.6581
  22   2.0000      -0.597921       -16.2703
  23   2.0000      -0.593723       -16.1560
  24   2.0000      -0.564647       -15.3648
  25   2.0000      -0.545644       -14.8477
  26   2.0000      -0.540158       -14.6985
  27   2.0000      -0.532572       -14.4920
  28   2.0000      -0.513335       -13.9686
  29   2.0000      -0.509576       -13.8663
  30   2.0000      -0.502225       -13.6662
  31   2.0000      -0.485981       -13.2242
  32   2.0000      -0.460329       -12.5262
  33   2.0000      -0.389941       -10.6108
  34   2.0000      -0.361504        -9.8370
  35   0.0000       0.127352         3.4654
  36   0.0000       0.153892         4.1876
  37   0.0000       0.161179         4.3859
  38   0.0000       0.177471         4.8292
  39   0.0000       0.194150         5.2831

MULLIKEN ATOMIC CHARGES
-----------------------
   0 C :   -0.417139
   1 C :    0.174665
   2 O :   -0.471612
   3 C :   -0.296326
   4 C :    0.165071
   5 C :   -0.250949
   6 C :   -0.226133
   7 C :   -0.040896
   8 O :   -0.344851
   9 H :    0.126630
  10 H :    0.142663
  11 H :    0.129438
  12 H :    0.331068
  13 H :    0.130172
  14 H :    0.125372
  15 H :    0.125150
  16 H :    0.132844
  17 H :    0.118063
  18 H :    0.125557
  19 H :    0.125690
  20 H :    0.095522
Sum of atomic charges:   -0.0000000

LOEWDIN ATOMIC CHARGES
----------------------
   0 C :   -0.269398
   1 C :   -0.359979
   2 O :    0.021931
   3 C :   -0.177556
   4 C :   -0.290887
   5 C :   -0.213443
   6 C :   -0.254864
   7 C :   -0.298225
   8 O :    0.185298
   9 H :    0.128545
  10 H :    0.132904
  11 H :    0.128177
  12 H :    0.181730
  13 H :    0.142403
  14 H :    0.135352
  15 H :    0.140426
  16 H :    0.143487
  17 H :    0.139346
  18 H :    0.135981
  19 H :    0.127363
  20 H :    0.121409

  Mayer bond orders larger than 0.1
B(  0-C ,  1-C ) :   0.8924 B(  0-C ,  9-H ) :   0.9363 B(  0-C , 10-H ) :   0.9331
B(  0-C , 11-H ) :   0.9368 B(  1-C ,  2-O ) :   1.0402 B(  1-C ,  3-C ) :   0.8816
B(  1-C ,  4-C ) :   0.8696 B(  2-O , 12-H ) :   0.8118 B(  3-C ,  4-C ) :   0.8932
B(  3-C , 13-H ) :   0.8993 B(  3-C , 14-H ) :   0.9093 B(  4-C ,  5-C ) :   0.8877
B(  4-C ,  8-O ) :   0.8900 B(  5-C ,  6-C ) :   0.9444 B(  5-C , 15-H ) :   0.9202
B(  5-C , 16-H ) :   0.9330 B(  6-C ,  7-C ) :   0.9593 B(  6-C , 17-H ) :   0.9231
B(  6-C , 18-H ) :   0.9281 B(  7-C ,  8-O ) :   0.9089 B(  7-C , 19-H ) :   0.9262
B(  7-C , 20-H ) :   0.9256

MP2 TOTAL ENERGY:     -423.515799901 Eh
FINAL SINGLE POINT ENERGY      -423.515799900668

DIPOLE MOMENT
-------------
                                X             Y             Z
Electronic contribution:     -1.86646      -3.99655      -2.43528
Nuclear contribution   :      2.49250       4.19010       3.37938
                        -----------------------------------------
Total Dipole Moment    :      0.62604       0.19355       0.94409
                        -----------------------------------------
Magnitude (a.u.)       :      1.14921
Magnitude (Debye)      :      2.92107

                             ****ORCA TERMINATED NORMALLY****
TOTAL RUN TIME: 0 days 0 hours 20 minutes 38 seconds 450 msec
