                         Program Version 3.0.3 - RELEASE   -
|  1> ! RI-MP2 RIJK def2-TZVP def2-TZVP/C def2-TZVP/JK TIGHTSCF
|  2> % maxcore 2000
|  3> % mp2 density relaxed end
|  4> *xyz 0 1
|  5>  O       -0.1283511776     1.4909772805    -0.0975958058
|  6>  C       -0.0151447577     0.1126300201     0.0423666911
|  7>  C       -1.2667699629    -0.7526386006     0.1416618527
|  8>  C       -2.5776155255    -0.0766362226    -0.2482822899
|  9>  C       -2.4943715514    -0.0293861711    -1.7978265807
| 10>  O       -1.1000838782    -0.0644765975    -2.1249505956
| 11>  C       -0.4183932417    -0.7726288821    -1.1045110667
| 12>  C       -3.1944136546    -1.1681807751    -2.4253201002
| 13>  N       -3.7470358173    -2.0611117282    -2.9072655001
| 14>  H       -0.2420308530     1.6650594506    -1.0414884180
| 15>  H        0.8377264445    -0.1881231500     0.6449099134
| 16>  H       -1.2805669888    -1.5895349344     0.8284045735
| 17>  H       -3.4485706306    -0.6353537167     0.0959040582
| 18>  H       -2.6297742870     0.9417539703     0.1447865008
| 19>  H       -2.9020533204     0.8952857056    -2.2158315266
| 20>  H        0.1621752721    -1.6182750088    -1.4548769660
| 21> *
| 22>
| 23>                          ****END OF INPUT****

CARTESIAN COORDINATES (ANGSTROEM)
---------------------------------
  O     -0.128351    1.490977   -0.097596
  C     -0.015145    0.112630    0.042367
  C     -1.266770   -0.752639    0.141662
  C     -2.577616   -0.076636   -0.248282
  C     -2.494372   -0.029386   -1.797827
  O     -1.100084   -0.064477   -2.124951
  C     -0.418393   -0.772629   -1.104511
  C     -3.194414   -1.168181   -2.425320
  N     -3.747036   -2.061112   -2.907266
  H     -0.242031    1.665059   -1.041488
  H      0.837726   -0.188123    0.644910
  H     -1.280567   -1.589535    0.828405
  H     -3.448571   -0.635354    0.095904
  H     -2.629774    0.941754    0.144787
  H     -2.902053    0.895286   -2.215832
  H      0.162175   -1.618275   -1.454877

 Total Charge           Charge          ....    0
 Multiplicity           Mult            ....    1
 Number of Electrons    NEL             ....   66
 Basis Dimension        Dim             ....  321

ORBITAL ENERGIES
----------------

  NO   OCC          E(Eh)            E(eV)
   0   2.0000     -20.602940      -560.6345
   1   2.0000     -20.577476      -559.9416
   2   2.0000     -15.581493      -423.9940
   3   2.0000     -11.350378      -308.8595
   4   2.0000     -11.305709      -307.6440
   5   2.0000     -11.304916      -307.6224
   6   2.0000     -11.278934      -306.9154
   7   2.0000     -11.263946      -306.5075
   8   2.0000     -11.256603      -306.3077
   9   2.0000      -1.435544       -39.0631
  10   2.0000      -1.383690       -37.6521
  11   2.0000      -1.226378       -33.3714
  12   2.0000      -1.148926       -31.2639
  13   2.0000      -1.075539       -29.2669
  14   2.0000      -0.925650       -25.1882
  15   2.0000      -0.841883       -22.9088
  16   2.0000      -0.814384       -22.1605
  17   2.0000      -0.766806       -20.8658
  18   2.0000      -0.728414       -19.8211
  19   2.0000      -0.692890       -18.8545
  20   2.0000      -0.667615       -18.1667
  21   2.0000      -0.640087       -17.4177
  22   2.0000      -0.607293       -16.5253
  23   2.0000      -0.585770       -15.9396
  24   2.0000      -0.571977       -15.5643
  25   2.0000      -0.553749       -15.0683
  26   2.0000      -0.547881       -14.9086
  27   2.0000      -0.517558       -14.0835
  28   2.0000      -0.513232       -13.9658
  29   2.0000      -0.477929       -13.0051
  30   2.0000      -0.466424       -12.6920
  31   2.0000      -0.425124       -11.5682
  32   2.0000      -0.407723       -11.0947
  33   0.0000       0.120081         3.2676
  34   0.0000       0.138293         3.7631
  35   0.0000       0.153738         4.1834
  36   0.0000       0.167053         4.5457
  37   0.0000       0.169713         4.6181

MULLIKEN ATOMIC CHARGES
-----------------------
   0 O :   -0.475437
   1 C :    0.033186
   2 C :   -0.163495
   3 C :   -0.244219
   4 C :    0.221759
   5 O :   -0.335581
   6 C :    0.035869
   7 C :   -0.241995
   8 N :   -0.046478
   9 H :    0.341484
  10 H :    0.129344
  11 H :    0.148504
  12 H :    0.157270
  13 H :    0.153680
  14 H :    0.145696
  15 H :    0.140414
Sum of atomic charges:    0.0000000

LOEWDIN ATOMIC CHARGES
----------------------
   0 O :    0.010798
   1 C :   -0.295159
   2 C :   -0.184091
   3 C :   -0.193939
   4 C :   -0.279910
   5 O :    0.205017
   6 C :   -0.256571
   7 C :   -0.162134
   8 N :    0.073010
   9 H :    0.186457
  10 H :    0.142193
  11 H :    0.149884
  12 H :    0.151719
  13 H :    0.149232
  14 H :    0.164532
  15 H :    0.138962

  Mayer bond orders larger than 0.1
B(  0-O ,  1-C ) :   0.9522 B(  0-O ,  9-H ) :   0.8178 B(  1-C ,  2-C ) :   0.8547
B(  1-C ,  6-C ) :   0.9132 B(  1-C , 10-H ) :   0.9484 B(  2-C ,  3-C ) :   0.9221
B(  2-C ,  6-C ) :   0.8461 B(  2-C , 11-H ) :   0.9065 B(  3-C ,  4-C ) :   0.9180
B(  3-C , 12-H ) :   0.9214 B(  3-C , 13-H ) :   0.9157 B(  4-C ,  5-O ) :   0.9056
B(  4-C ,  7-C ) :   0.9081 B(  4-C , 14-H ) :   0.9109 B(  5-O ,  6-C ) :   0.9050
B(  6-C , 15-H ) :   0.9254 B(  7-C ,  8-N ) :   2.8538

MP2 TOTAL ENERGY:     -437.153442993 Eh
FINAL SINGLE POINT ENERGY      -437.153442992768

DIPOLE MOMENT
-------------
                                X             Y             Z
Electronic contribution:     -1.25991      -1.13671      -3.98747
Nuclear contribution   :      1.67394       1.56332       4.73987
                        -----------------------------------------
Total Dipole Moment    :      0.41404       0.42661       0.75240
                        -----------------------------------------
Magnitude (a.u.)       :      0.95892
Magnitude (Debye)      :      2.43738

                             ****ORCA TERMINATED NORMALLY****
TOTAL RUN TIME: 0 days 0 hours 16 minutes 44 seconds 794 msec
