                         Program Version 3.0.3 - RELEASE   -
|  1> ! RI-MP2 RIJK def2-TZVP def2-TZVP/C def2-TZVP/JK TIGHTSCF
|  2> % maxcore 2000
|  3> % mp2 density relaxed end
|  4> *xyz 0 1
|  5>  O       -0.1713663406     0.1193984119     0.3524378618
|  6>  C       -0.0441771076     1.2557696603     0.0255440171
|  7>  O       -1.0125487304     2.1043667564    -0.4464967720
|  8>  C       -0.0326902987     3.2043470490    -0.6052384555
|  9>  C       -0.3566777276     4.4381803606     0.1616453086
| 10>  C        0.5027148377     4.9469148268     1.0456503284
| 11>  C        1.7921478897     4.2590431679     1.4209098137
| 12>  C        1.6463085898     2.7301298329     1.3344415395
| 13>  C        1.0768723553     2.2985798484    -0.0281185583
| 14>  H        0.0647250939     3.4121555061    -1.6757742480
| 15>  H       -1.2898099900     4.9409120045    -0.0756326607
| 16>  H        0.2753950170     5.8909220950     1.5339427321
| 17>  H        2.6082980743     4.6048793871     0.7702911659
| 18>  H        2.0825440258     4.5424594330     2.4379471879
| 19>  H        2.6039168055     2.2346512633     1.5143357605
| 20>  H        0.9690818255     2.4062638969     2.1312376568
| 21>  H        1.8657167902     2.0491611898    -0.7407746278
| 22> *
| 23>
| 24>                          ****END OF INPUT****

CARTESIAN COORDINATES (ANGSTROEM)
---------------------------------
  O     -0.171366    0.119398    0.352438
  C     -0.044177    1.255770    0.025544
  O     -1.012549    2.104367   -0.446497
  C     -0.032690    3.204347   -0.605238
  C     -0.356678    4.438180    0.161645
  C      0.502715    4.946915    1.045650
  C      1.792148    4.259043    1.420910
  C      1.646309    2.730130    1.334442
  C      1.076872    2.298580   -0.028119
  H      0.064725    3.412156   -1.675774
  H     -1.289810    4.940912   -0.075633
  H      0.275395    5.890922    1.533943
  H      2.608298    4.604879    0.770291
  H      2.082544    4.542459    2.437947
  H      2.603917    2.234651    1.514336
  H      0.969082    2.406264    2.131238
  H      1.865717    2.049161   -0.740775

 Total Charge           Charge          ....    0
 Multiplicity           Mult            ....    1
 Number of Electrons    NEL             ....   66
 Basis Dimension        Dim             ....  327

ORBITAL ENERGIES
----------------

  NO   OCC          E(Eh)            E(eV)
   0   2.0000     -20.597004      -560.4730
   1   2.0000     -20.548221      -559.1455
   2   2.0000     -11.378975      -309.6377
   3   2.0000     -11.313817      -307.8646
   4   2.0000     -11.265288      -306.5441
   5   2.0000     -11.254377      -306.2472
   6   2.0000     -11.251015      -306.1557
   7   2.0000     -11.250015      -306.1285
   8   2.0000     -11.244703      -305.9839
   9   2.0000      -1.458499       -39.6878
  10   2.0000      -1.374399       -37.3993
  11   2.0000      -1.141440       -31.0602
  12   2.0000      -1.050758       -28.5926
  13   2.0000      -1.020183       -27.7606
  14   2.0000      -0.901447       -24.5296
  15   2.0000      -0.869947       -23.6725
  16   2.0000      -0.760549       -20.6956
  17   2.0000      -0.723861       -19.6973
  18   2.0000      -0.709586       -19.3088
  19   2.0000      -0.698895       -19.0179
  20   2.0000      -0.671374       -18.2690
  21   2.0000      -0.635732       -17.2992
  22   2.0000      -0.614892       -16.7321
  23   2.0000      -0.583247       -15.8710
  24   2.0000      -0.578527       -15.7425
  25   2.0000      -0.564849       -15.3703
  26   2.0000      -0.537619       -14.6294
  27   2.0000      -0.517584       -14.0842
  28   2.0000      -0.503162       -13.6917
  29   2.0000      -0.471126       -12.8200
  30   2.0000      -0.453717       -12.3463
  31   2.0000      -0.433433       -11.7943
  32   2.0000      -0.379382       -10.3235
  33   0.0000       0.116718         3.1761
  34   0.0000       0.128081         3.4853
  35   0.0000       0.151031         4.1098
  36   0.0000       0.163714         4.4549
  37   0.0000       0.171763         4.6739

MULLIKEN ATOMIC CHARGES
-----------------------
   0 O :   -0.265708
   1 C :    0.232001
   2 O :   -0.241261
   3 C :    0.116625
   4 C :   -0.230012
   5 C :   -0.145144
   6 C :   -0.183657
   7 C :   -0.286135
   8 C :   -0.073566
   9 H :    0.117360
  10 H :    0.137690
  11 H :    0.134608
  12 H :    0.129745
  13 H :    0.136559
  14 H :    0.139630
  15 H :    0.141316
  16 H :    0.139952
Sum of atomic charges:    0.0000000

LOEWDIN ATOMIC CHARGES
----------------------
   0 O :    0.152349
   1 C :   -0.444609
   2 O :    0.246855
   3 C :   -0.207581
   4 C :   -0.153710
   5 C :   -0.145757
   6 C :   -0.245918
   7 C :   -0.220796
   8 C :   -0.171212
   9 H :    0.148054
  10 H :    0.149250
  11 H :    0.145308
  12 H :    0.148033
  13 H :    0.146143
  14 H :    0.142840
  15 H :    0.151640
  16 H :    0.159111

  Mayer bond orders larger than 0.1
B(  0-O ,  1-C ) :   2.0536 B(  1-C ,  2-O ) :   1.1070 B(  1-C ,  8-C ) :   0.9147
B(  2-O ,  3-C ) :   0.8718 B(  3-C ,  4-C ) :   0.9389 B(  3-C ,  8-C ) :   0.9346
B(  3-C ,  9-H ) :   0.9264 B(  4-C ,  5-C ) :   1.7736 B(  4-C , 10-H ) :   0.9246
B(  5-C ,  6-C ) :   0.9318 B(  5-C , 11-H ) :   0.9235 B(  6-C ,  7-C ) :   0.9142
B(  6-C , 12-H ) :   0.9122 B(  6-C , 13-H ) :   0.9326 B(  7-C ,  8-C ) :   0.8900
B(  7-C , 14-H ) :   0.9361 B(  7-C , 15-H ) :   0.9280 B(  8-C , 16-H ) :   0.9009

MP2 TOTAL ENERGY:     -421.155724918 Eh
FINAL SINGLE POINT ENERGY      -421.155724918439

DIPOLE MOMENT
-------------
                                X             Y             Z
Electronic contribution:     -4.81499      -5.86890      -2.83891
Nuclear contribution   :      5.84058       7.38961       2.81450
                        -----------------------------------------
Total Dipole Moment    :      1.02559       1.52070      -0.02440
                        -----------------------------------------
Magnitude (a.u.)       :      1.83439
Magnitude (Debye)      :      4.66264

                             ****ORCA TERMINATED NORMALLY****
TOTAL RUN TIME: 0 days 0 hours 18 minutes 11 seconds 906 msec
