                         Program Version 3.0.3 - RELEASE   -
|  1> ! RI-MP2 RIJK def2-TZVP def2-TZVP/C def2-TZVP/JK TIGHTSCF
|  2> % maxcore 2000
|  3> % mp2 density relaxed end
|  4> *xyz 0 1
|  5>  N        0.2175231481     0.9953808039     0.7862868516
|  6>  C        0.0115726602     0.0495281743    -0.1723951992
|  7>  O        0.8524768359    -0.2356534231    -1.0057595326
|  8>  C       -1.3429212834    -0.6492215704    -0.1308825243
|  9>  C       -1.9518320339    -0.6725729994    -1.5355303915
| 10>  O       -3.1637080121    -1.4367421675    -1.5678986481
| 11>  C       -3.2048072033    -2.5275039622    -0.7669462510
| 12>  N       -2.3683727153    -2.9246083314     0.0934904076
| 13>  C       -1.1802547223    -2.1151055309     0.3261848846
| 14>  H        1.1193155932     1.4419317780     0.8307974548
| 15>  H       -0.4603124938     1.1980445534     1.4991845636
| 16>  H       -2.0317938510    -0.1346078025     0.5491405423
| 17>  H       -2.2222900794     0.3268049598    -1.8840894267
| 18>  H       -1.2270226641    -1.1029363748    -2.2336362879
| 19>  H       -4.1250177736    -3.0802750527    -0.9462906322
| 20>  H       -0.3263219306    -2.5575920864    -0.2012331700
| 21>  H       -0.9447088645    -2.1564916682     1.3952710891
| 22> *
| 23>
| 24>                          ****END OF INPUT****

CARTESIAN COORDINATES (ANGSTROEM)
---------------------------------
  N      0.217523    0.995381    0.786287
  C      0.011573    0.049528   -0.172395
  O      0.852477   -0.235653   -1.005760
  C     -1.342921   -0.649222   -0.130883
  C     -1.951832   -0.672573   -1.535530
  O     -3.163708   -1.436742   -1.567899
  C     -3.204807   -2.527504   -0.766946
  N     -2.368373   -2.924608    0.093490
  C     -1.180255   -2.115106    0.326185
  H      1.119316    1.441932    0.830797
  H     -0.460312    1.198045    1.499185
  H     -2.031794   -0.134608    0.549141
  H     -2.222290    0.326805   -1.884089
  H     -1.227023   -1.102936   -2.233636
  H     -4.125018   -3.080275   -0.946291
  H     -0.326322   -2.557592   -0.201233
  H     -0.944709   -2.156492    1.395271

 Total Charge           Charge          ....    0
 Multiplicity           Mult            ....    1
 Number of Electrons    NEL             ....   68
 Basis Dimension        Dim             ....  327

ORBITAL ENERGIES
----------------

  NO   OCC          E(Eh)            E(eV)
   0   2.0000     -20.600454      -560.5669
   1   2.0000     -20.528626      -558.6123
   2   2.0000     -15.597383      -424.4264
   3   2.0000     -15.548800      -423.1044
   4   2.0000     -11.364078      -309.2323
   5   2.0000     -11.334597      -308.4301
   6   2.0000     -11.298591      -307.4503
   7   2.0000     -11.266197      -306.5688
   8   2.0000     -11.258990      -306.3727
   9   2.0000      -1.433274       -39.0014
  10   2.0000      -1.393904       -37.9301
  11   2.0000      -1.225445       -33.3460
  12   2.0000      -1.220517       -33.2120
  13   2.0000      -1.090583       -29.6763
  14   2.0000      -0.937463       -25.5097
  15   2.0000      -0.922503       -25.1026
  16   2.0000      -0.815577       -22.1930
  17   2.0000      -0.759991       -20.6804
  18   2.0000      -0.742708       -20.2101
  19   2.0000      -0.712118       -19.3777
  20   2.0000      -0.687304       -18.7025
  21   2.0000      -0.675018       -18.3682
  22   2.0000      -0.635918       -17.3042
  23   2.0000      -0.612064       -16.6551
  24   2.0000      -0.593426       -16.1479
  25   2.0000      -0.581147       -15.8138
  26   2.0000      -0.570742       -15.5307
  27   2.0000      -0.557739       -15.1769
  28   2.0000      -0.506166       -13.7735
  29   2.0000      -0.489732       -13.3263
  30   2.0000      -0.440066       -11.9748
  31   2.0000      -0.429118       -11.6769
  32   2.0000      -0.407820       -11.0973
  33   2.0000      -0.391998       -10.6668
  34   0.0000       0.113641         3.0923
  35   0.0000       0.153871         4.1870
  36   0.0000       0.157999         4.2994
  37   0.0000       0.168147         4.5755
  38   0.0000       0.174225         4.7409

MULLIKEN ATOMIC CHARGES
-----------------------
   0 N :   -0.471295
   1 C :    0.269254
   2 O :   -0.353377
   3 C :   -0.095357
   4 C :   -0.078554
   5 O :   -0.260931
   6 C :    0.095574
   7 N :   -0.269106
   8 C :   -0.153210
   9 H :    0.263012
  10 H :    0.263601
  11 H :    0.099130
  12 H :    0.133249
  13 H :    0.144754
  14 H :    0.138021
  15 H :    0.149312
  16 H :    0.125923
Sum of atomic charges:    0.0000000

LOEWDIN ATOMIC CHARGES
----------------------
   0 N :   -0.007932
   1 C :   -0.461012
   2 O :    0.089221
   3 C :   -0.233491
   4 C :   -0.248299
   5 O :    0.223642
   6 C :   -0.363158
   7 N :    0.067129
   8 C :   -0.264173
   9 H :    0.175658
  10 H :    0.171809
  11 H :    0.154443
  12 H :    0.135858
  13 H :    0.141223
  14 H :    0.134133
  15 H :    0.147418
  16 H :    0.137531

  Mayer bond orders larger than 0.1
B(  0-N ,  1-C ) :   1.1637 B(  0-N ,  9-H ) :   0.8547 B(  0-N , 10-H ) :   0.8691
B(  1-C ,  2-O ) :   1.9691 B(  1-C ,  3-C ) :   0.8701 B(  3-C ,  4-C ) :   0.9109
B(  3-C ,  8-C ) :   0.9035 B(  3-C , 11-H ) :   0.9169 B(  4-C ,  5-O ) :   0.8708
B(  4-C , 12-H ) :   0.9252 B(  4-C , 13-H ) :   0.9306 B(  5-O ,  6-C ) :   1.0657
B(  6-C ,  7-N ) :   1.8334 B(  6-C , 14-H ) :   0.9272 B(  7-N ,  8-C ) :   0.9328
B(  8-C , 15-H ) :   0.9220 B(  8-C , 16-H ) :   0.9225

MP2 TOTAL ENERGY:     -454.455384126 Eh
FINAL SINGLE POINT ENERGY      -454.455384126210

DIPOLE MOMENT
-------------
                                X             Y             Z
Electronic contribution:     -0.54255      -0.77421      -1.54132
Nuclear contribution   :      0.35033       1.98572       2.40772
                        -----------------------------------------
Total Dipole Moment    :     -0.19222       1.21151       0.86640
                        -----------------------------------------
Magnitude (a.u.)       :      1.50178
Magnitude (Debye)      :      3.81723

                             ****ORCA TERMINATED NORMALLY****
TOTAL RUN TIME: 0 days 0 hours 16 minutes 3 seconds 547 msec
