                         Program Version 3.0.3 - RELEASE   -
|  1> ! RI-MP2 RIJK def2-TZVP def2-TZVP/C def2-TZVP/JK TIGHTSCF
|  2> % maxcore 2000
|  3> % mp2 density relaxed end
|  4> *xyz 0 1
|  5>  O        0.0544659326    -0.0493632537    -0.0007430815
|  6>  C        0.0079513383     1.1630880514     0.0088334878
|  7>  C        1.1948292816     2.0074177665     0.0028665999
|  8>  C        1.3781955414     3.3847172883     0.0114302932
|  9>  C        2.7719900589     3.5557073523    -0.0016868003
| 10>  N        3.4134662796     2.3808059264    -0.0174842125
| 11>  N        2.4439259916     1.4680142850    -0.0144040792
| 12>  H       -0.9553032622     1.7125136517     0.0232897457
| 13>  H        0.6093535479     4.1402849125     0.0252196838
| 14>  H        3.3406077954     4.4732846103    -0.0005379416
| 15>  H        2.6576054548     0.4828256392    -0.0242383653
| 16> *
| 17>
| 18>                          ****END OF INPUT****

CARTESIAN COORDINATES (ANGSTROEM)
---------------------------------
  O      0.054466   -0.049363   -0.000743
  C      0.007951    1.163088    0.008833
  C      1.194829    2.007418    0.002867
  C      1.378196    3.384717    0.011430
  C      2.771990    3.555707   -0.001687
  N      3.413466    2.380806   -0.017484
  N      2.443926    1.468014   -0.014404
  H     -0.955303    1.712514    0.023290
  H      0.609354    4.140285    0.025220
  H      3.340608    4.473285   -0.000538
  H      2.657605    0.482826   -0.024238

 Total Charge           Charge          ....    0
 Multiplicity           Mult            ....    1
 Number of Electrons    NEL             ....   50
 Basis Dimension        Dim             ....  241

ORBITAL ENERGIES
----------------

  NO   OCC          E(Eh)            E(eV)
   0   2.0000     -20.572734      -559.8125
   1   2.0000     -15.658795      -426.0975
   2   2.0000     -15.616292      -424.9409
   3   2.0000     -11.356404      -309.0235
   4   2.0000     -11.292548      -307.2858
   5   2.0000     -11.270207      -306.6779
   6   2.0000     -11.254328      -306.2458
   7   2.0000      -1.415292       -38.5121
   8   2.0000      -1.394445       -37.9448
   9   2.0000      -1.120201       -30.4822
  10   2.0000      -1.085883       -29.5484
  11   2.0000      -0.916225       -24.9317
  12   2.0000      -0.831073       -22.6146
  13   2.0000      -0.825627       -22.4665
  14   2.0000      -0.731540       -19.9062
  15   2.0000      -0.674126       -18.3439
  16   2.0000      -0.636558       -17.3216
  17   2.0000      -0.636347       -17.3159
  18   2.0000      -0.623666       -16.9708
  19   2.0000      -0.592894       -16.1335
  20   2.0000      -0.548753       -14.9323
  21   2.0000      -0.485350       -13.2070
  22   2.0000      -0.452513       -12.3135
  23   2.0000      -0.383318       -10.4306
  24   2.0000      -0.366057        -9.9609
  25   0.0000       0.063913         1.7392
  26   0.0000       0.150770         4.1027
  27   0.0000       0.155058         4.2193
  28   0.0000       0.177431         4.8281
  29   0.0000       0.177903         4.8410

MULLIKEN ATOMIC CHARGES
-----------------------
   0 O :   -0.296233
   1 C :    0.074661
   2 C :    0.066492
   3 C :   -0.158317
   4 C :   -0.086718
   5 N :   -0.204885
   6 N :   -0.072228
   7 H :    0.098997
   8 H :    0.156189
   9 H :    0.146824
  10 H :    0.275216
Sum of atomic charges:    0.0000000

LOEWDIN ATOMIC CHARGES
----------------------
   0 O :    0.117425
   1 C :   -0.275086
   2 C :   -0.255957
   3 C :   -0.156529
   4 C :   -0.254290
   5 N :    0.040278
   6 N :    0.176637
   7 H :    0.123136
   8 H :    0.147205
   9 H :    0.137058
  10 H :    0.200122

  Mayer bond orders larger than 0.1
B(  0-O ,  1-C ) :   1.9484 B(  1-C ,  2-C ) :   0.8815 B(  1-C ,  7-H ) :   0.9868
B(  2-C ,  3-C ) :   1.3200 B(  2-C ,  5-N ) :   0.1075 B(  2-C ,  6-N ) :   1.1734
B(  2-C ,  7-H ) :  -0.1013 B(  3-C ,  4-C ) :   1.3298 B(  3-C ,  8-H ) :   0.9185
B(  4-C ,  5-N ) :   1.4697 B(  4-C ,  9-H ) :   0.9353 B(  5-N ,  6-N ) :   1.0894
B(  6-N , 10-H ) :   0.8568

MP2 TOTAL ENERGY:     -338.900749793 Eh
FINAL SINGLE POINT ENERGY      -338.900749793470

DIPOLE MOMENT
-------------
                                X             Y             Z
Electronic contribution:      0.34101      -2.17580      -0.02036
Nuclear contribution   :     -0.67692       2.86834       0.02904
                        -----------------------------------------
Total Dipole Moment    :     -0.33591       0.69255       0.00869
                        -----------------------------------------
Magnitude (a.u.)       :      0.76976
Magnitude (Debye)      :      1.95657

                             ****ORCA TERMINATED NORMALLY****
TOTAL RUN TIME: 0 days 0 hours 6 minutes 11 seconds 807 msec
