                         Program Version 3.0.3 - RELEASE   -
|  1> ! RI-MP2 RIJK def2-TZVP def2-TZVP/C def2-TZVP/JK TIGHTSCF
|  2> % maxcore 2000
|  3> % mp2 density relaxed end
|  4> *xyz 0 1
|  5>  C       -0.0381947911     1.3915519036    -0.0490040765
|  6>  N        0.0013643928    -0.0555949993     0.0099658212
|  7>  C        0.6031540826    -0.6199466190     0.9700688959
|  8>  C        1.3558287098    -0.0688618470     2.1745787628
|  9>  O        1.8033764903    -1.2258023012     2.8855960680
| 10>  C        1.3994598701    -2.3599907692     2.2372493159
| 11>  N        1.6266796053    -3.5492464259     2.5967805912
| 12>  N        0.6911561911    -1.9908996157     1.1068208015
| 13>  C        0.1092729648    -2.9344160182     0.1744765778
| 14>  H        0.4760575329     1.9111017081     0.7737171807
| 15>  H        0.4089899417     1.7320333186    -0.9905236850
| 16>  H       -1.0813603095     1.7293440528    -0.0572496443
| 17>  H        2.2209030078     0.5352444551     1.8818636108
| 18>  H        0.7124019213     0.5318661761     2.8258414217
| 19>  H        2.1661320506    -3.5655924895     3.4585649457
| 20>  H        0.3365816581    -3.9367661037     0.5354493521
| 21>  H       -0.9728049864    -2.7872230873     0.1151685329
| 22>  H        0.5289853777    -2.7851209782    -0.8243511523
| 23> *
| 24>
| 25>                          ****END OF INPUT****

CARTESIAN COORDINATES (ANGSTROEM)
---------------------------------
  C     -0.038195    1.391552   -0.049004
  N      0.001364   -0.055595    0.009966
  C      0.603154   -0.619947    0.970069
  C      1.355829   -0.068862    2.174579
  O      1.803376   -1.225802    2.885596
  C      1.399460   -2.359991    2.237249
  N      1.626680   -3.549246    2.596781
  N      0.691156   -1.990900    1.106821
  C      0.109273   -2.934416    0.174477
  H      0.476058    1.911102    0.773717
  H      0.408990    1.732033   -0.990524
  H     -1.081360    1.729344   -0.057250
  H      2.220903    0.535244    1.881864
  H      0.712402    0.531866    2.825841
  H      2.166132   -3.565592    3.458565
  H      0.336582   -3.936766    0.535449
  H     -0.972805   -2.787223    0.115169
  H      0.528985   -2.785121   -0.824351

 Total Charge           Charge          ....    0
 Multiplicity           Mult            ....    1
 Number of Electrons    NEL             ....   68
 Basis Dimension        Dim             ....  333

ORBITAL ENERGIES
----------------

  NO   OCC          E(Eh)            E(eV)
   0   2.0000     -20.614603      -560.9519
   1   2.0000     -15.607517      -424.7021
   2   2.0000     -15.547918      -423.0804
   3   2.0000     -15.525066      -422.4585
   4   2.0000     -11.378187      -309.6162
   5   2.0000     -11.332095      -308.3620
   6   2.0000     -11.321605      -308.0765
   7   2.0000     -11.259421      -306.3844
   8   2.0000     -11.255828      -306.2867
   9   2.0000      -1.466740       -39.9120
  10   2.0000      -1.301050       -35.4034
  11   2.0000      -1.228090       -33.4180
  12   2.0000      -1.178386       -32.0655
  13   2.0000      -1.012490       -27.5512
  14   2.0000      -0.968556       -26.3557
  15   2.0000      -0.946687       -25.7607
  16   2.0000      -0.823916       -22.4199
  17   2.0000      -0.782840       -21.3022
  18   2.0000      -0.711813       -19.3694
  19   2.0000      -0.702546       -19.1173
  20   2.0000      -0.668641       -18.1947
  21   2.0000      -0.648440       -17.6450
  22   2.0000      -0.622517       -16.9396
  23   2.0000      -0.608686       -16.5632
  24   2.0000      -0.595308       -16.1992
  25   2.0000      -0.586016       -15.9463
  26   2.0000      -0.569940       -15.5089
  27   2.0000      -0.553794       -15.0695
  28   2.0000      -0.532253       -14.4833
  29   2.0000      -0.494568       -13.4579
  30   2.0000      -0.448764       -12.2115
  31   2.0000      -0.414552       -11.2805
  32   2.0000      -0.412808       -11.2331
  33   2.0000      -0.347870        -9.4660
  34   0.0000       0.124102         3.3770
  35   0.0000       0.153023         4.1640
  36   0.0000       0.154618         4.2074
  37   0.0000       0.165997         4.5170
  38   0.0000       0.184785         5.0282

MULLIKEN ATOMIC CHARGES
-----------------------
   0 C :   -0.271742
   1 N :   -0.253720
   2 C :    0.071810
   3 C :   -0.069817
   4 O :   -0.267666
   5 C :    0.237869
   6 N :   -0.446878
   7 N :   -0.064939
   8 C :   -0.300207
   9 H :    0.093933
  10 H :    0.142363
  11 H :    0.142360
  12 H :    0.143415
  13 H :    0.143398
  14 H :    0.230695
  15 H :    0.183555
  16 H :    0.142793
  17 H :    0.142778
Sum of atomic charges:   -0.0000000

LOEWDIN ATOMIC CHARGES
----------------------
   0 C :   -0.333632
   1 N :    0.071245
   2 C :   -0.321503
   3 C :   -0.236993
   4 O :    0.235124
   5 C :   -0.460782
   6 N :   -0.091772
   7 N :    0.223297
   8 C :   -0.264985
   9 H :    0.104625
  10 H :    0.119740
  11 H :    0.119740
  12 H :    0.139347
  13 H :    0.139354
  14 H :    0.171808
  15 H :    0.136238
  16 H :    0.124577
  17 H :    0.124574

  Mayer bond orders larger than 0.1
B(  0-C ,  1-N ) :   0.8869 B(  0-C ,  9-H ) :   0.9238 B(  0-C , 10-H ) :   0.9333
B(  0-C , 11-H ) :   0.9333 B(  1-N ,  2-C ) :   1.8558 B(  2-C ,  3-C ) :   0.9316
B(  2-C ,  7-N ) :   1.0715 B(  3-C ,  4-O ) :   0.9011 B(  3-C , 12-H ) :   0.9167
B(  3-C , 13-H ) :   0.9167 B(  4-O ,  5-C ) :   1.0641 B(  5-C ,  6-N ) :   1.9386
B(  5-C ,  7-N ) :   1.0646 B(  6-N , 14-H ) :   0.8519 B(  7-N ,  8-C ) :   0.8553
B(  8-C , 15-H ) :   0.9162 B(  8-C , 16-H ) :   0.9313 B(  8-C , 17-H ) :   0.9313

MP2 TOTAL ENERGY:     -434.569106055 Eh
FINAL SINGLE POINT ENERGY      -434.569106054932

DIPOLE MOMENT
-------------
                                X             Y             Z
Electronic contribution:      2.64632      -3.32436       4.21736
Nuclear contribution   :     -2.61741       4.37950      -4.16758
                        -----------------------------------------
Total Dipole Moment    :      0.02891       1.05514       0.04979
                        -----------------------------------------
Magnitude (a.u.)       :      1.05671
Magnitude (Debye)      :      2.68594

                             ****ORCA TERMINATED NORMALLY****
TOTAL RUN TIME: 0 days 0 hours 15 minutes 25 seconds 777 msec
