                         Program Version 3.0.3 - RELEASE   -
|  1> ! RI-MP2 RIJK def2-TZVP def2-TZVP/C def2-TZVP/JK TIGHTSCF
|  2> % maxcore 2000
|  3> % mp2 density relaxed end
|  4> *xyz 0 1
|  5>  O       -0.7872595216     1.0289760953     0.9330402489
|  6>  C       -0.1048724899     1.0728738896    -0.0592047312
|  7>  C        1.2742495280     1.7130557598    -0.0927289304
|  8>  C        1.4381297148     2.7591408718    -1.2069030303
|  9>  C        2.7187530834     3.6030345133    -1.1489578724
| 10>  C        2.9108396435     3.9864425362    -2.6216168451
| 11>  O        2.3602330434     2.8905501389    -3.3765474103
| 12>  C        1.5139223911     2.1552257663    -2.6126997377
| 13>  O        0.9475932452     1.1859417701    -3.0326694275
| 14>  H       -0.4420879368     0.6415625019    -1.0221706939
| 15>  H        1.4554208839     2.1654897291     0.8865057215
| 16>  H        2.0129442134     0.9136539962    -0.2417410403
| 17>  H        0.5665933344     3.4296936057    -1.2071971936
| 18>  H        2.6428653393     4.4730999719    -0.4941216511
| 19>  H        3.5575126759     2.9886123947    -0.8042015043
| 20>  H        2.3651104789     4.9002437227    -2.8844186823
| 21>  H        3.9544711032     4.1027177165    -2.9193390401
| 22> *
| 23>
| 24>                          ****END OF INPUT****

CARTESIAN COORDINATES (ANGSTROEM)
---------------------------------
  O     -0.787260    1.028976    0.933040
  C     -0.104872    1.072874   -0.059205
  C      1.274250    1.713056   -0.092729
  C      1.438130    2.759141   -1.206903
  C      2.718753    3.603035   -1.148958
  C      2.910840    3.986443   -2.621617
  O      2.360233    2.890550   -3.376547
  C      1.513922    2.155226   -2.612700
  O      0.947593    1.185942   -3.032669
  H     -0.442088    0.641563   -1.022171
  H      1.455421    2.165490    0.886506
  H      2.012944    0.913654   -0.241741
  H      0.566593    3.429694   -1.207197
  H      2.642865    4.473100   -0.494122
  H      3.557513    2.988612   -0.804202
  H      2.365110    4.900244   -2.884419
  H      3.954471    4.102718   -2.919339

 Total Charge           Charge          ....    0
 Multiplicity           Mult            ....    1
 Number of Electrons    NEL             ....   68
 Basis Dimension        Dim             ....  327

ORBITAL ENERGIES
----------------

  NO   OCC          E(Eh)            E(eV)
   0   2.0000     -20.614886      -560.9596
   1   2.0000     -20.559071      -559.4408
   2   2.0000     -20.554928      -559.3280
   3   2.0000     -11.391819      -309.9871
   4   2.0000     -11.331766      -308.3530
   5   2.0000     -11.315848      -307.9199
   6   2.0000     -11.282199      -307.0042
   7   2.0000     -11.266776      -306.5846
   8   2.0000     -11.259720      -306.3926
   9   2.0000      -1.472846       -40.0782
  10   2.0000      -1.397154       -38.0185
  11   2.0000      -1.381141       -37.5828
  12   2.0000      -1.131424       -30.7876
  13   2.0000      -1.038442       -28.2575
  14   2.0000      -0.968823       -26.3630
  15   2.0000      -0.862661       -23.4742
  16   2.0000      -0.813006       -22.1230
  17   2.0000      -0.773794       -21.0560
  18   2.0000      -0.734485       -19.9863
  19   2.0000      -0.702644       -19.1199
  20   2.0000      -0.674370       -18.3505
  21   2.0000      -0.664076       -18.0704
  22   2.0000      -0.643182       -17.5019
  23   2.0000      -0.612966       -16.6797
  24   2.0000      -0.604301       -16.4439
  25   2.0000      -0.586993       -15.9729
  26   2.0000      -0.575470       -15.6593
  27   2.0000      -0.544418       -14.8144
  28   2.0000      -0.534439       -14.5428
  29   2.0000      -0.515485       -14.0271
  30   2.0000      -0.500928       -13.6309
  31   2.0000      -0.468544       -12.7497
  32   2.0000      -0.452035       -12.3005
  33   2.0000      -0.419163       -11.4060
  34   0.0000       0.109886         2.9902
  35   0.0000       0.131670         3.5829
  36   0.0000       0.140893         3.8339
  37   0.0000       0.145118         3.9489
  38   0.0000       0.168178         4.5764

MULLIKEN ATOMIC CHARGES
-----------------------
   0 O :   -0.265747
   1 C :    0.064547
   2 C :   -0.174035
   3 C :   -0.124133
   4 C :   -0.261002
   5 C :   -0.033448
   6 O :   -0.214575
   7 C :    0.240441
   8 O :   -0.293094
   9 H :    0.126771
  10 H :    0.131882
  11 H :    0.137744
  12 H :    0.134799
  13 H :    0.144569
  14 H :    0.130884
  15 H :    0.119433
  16 H :    0.134964
Sum of atomic charges:   -0.0000000

LOEWDIN ATOMIC CHARGES
----------------------
   0 O :    0.130830
   1 C :   -0.288453
   2 C :   -0.230909
   3 C :   -0.222154
   4 C :   -0.231375
   5 C :   -0.261178
   6 O :    0.259228
   7 C :   -0.449266
   8 O :    0.140413
   9 H :    0.122390
  10 H :    0.150144
  11 H :    0.158162
  12 H :    0.174236
  13 H :    0.142495
  14 H :    0.146168
  15 H :    0.128400
  16 H :    0.130870

  Mayer bond orders larger than 0.1
B(  0-O ,  1-C ) :   1.9878 B(  1-C ,  2-C ) :   0.8789 B(  1-C ,  9-H ) :   0.9331
B(  2-C ,  3-C ) :   0.8896 B(  2-C , 10-H ) :   0.9173 B(  2-C , 11-H ) :   0.9022
B(  3-C ,  4-C ) :   0.9070 B(  3-C ,  7-C ) :   0.9089 B(  3-C , 12-H ) :   0.8978
B(  4-C ,  5-C ) :   0.9451 B(  4-C , 13-H ) :   0.9270 B(  4-C , 14-H ) :   0.9241
B(  5-C ,  6-O ) :   0.8655 B(  5-C , 15-H ) :   0.9257 B(  5-C , 16-H ) :   0.9301
B(  6-O ,  7-C ) :   1.1338 B(  7-C ,  8-O ) :   1.9912

MP2 TOTAL ENERGY:     -458.278235170 Eh
FINAL SINGLE POINT ENERGY      -458.278235170496

DIPOLE MOMENT
-------------
                                X             Y             Z
Electronic contribution:     -3.62481      -3.79315      -2.68160
Nuclear contribution   :      4.91954       5.19375       2.92725
                        -----------------------------------------
Total Dipole Moment    :      1.29473       1.40060       0.24566
                        -----------------------------------------
Magnitude (a.u.)       :      1.92311
Magnitude (Debye)      :      4.88816

                             ****ORCA TERMINATED NORMALLY****
TOTAL RUN TIME: 0 days 0 hours 15 minutes 43 seconds 623 msec
