                         Program Version 3.0.3 - RELEASE   -
|  1> ! RI-MP2 RIJK def2-TZVP def2-TZVP/C def2-TZVP/JK TIGHTSCF
|  2> % maxcore 2000
|  3> % mp2 density relaxed end
|  4> *xyz 0 1
|  5>  C       -0.0744019671     1.5306988534     0.0115347892
|  6>  C        1.3930524847     1.9143375602     0.0304758748
|  7>  C        2.2021915970     0.8552608159    -0.0846845344
|  8>  C        1.4472881323    -0.4278114352    -0.1666508655
|  9>  C        0.6744011744    -0.8142784267     1.0968160927
| 10>  N       -0.0163098647    -2.0845955660     1.0466786274
| 11>  C       -0.9112035416    -1.9604748101     0.1493075892
| 12>  O       -1.0415921988    -0.7677410399    -0.4936014361
| 13>  C        0.0111091889     0.0234894833     0.0198748925
| 14>  H       -0.6268670724     1.9214763993     0.8739743119
| 15>  H       -0.5839288857     1.9029453292    -0.8880801757
| 16>  H        1.7171868738     2.9431270275     0.1305473077
| 17>  H        3.2850521386     0.8958291335    -0.1024724519
| 18>  H        1.7406416410    -1.2216921372    -0.8456085003
| 19>  H        1.0050746915    -0.4645694251     2.0686019667
| 20>  H       -1.6136453718    -2.7233968823    -0.1621050283
| 21> *
| 22>
| 23>                          ****END OF INPUT****

CARTESIAN COORDINATES (ANGSTROEM)
---------------------------------
  C     -0.074402    1.530699    0.011535
  C      1.393052    1.914338    0.030476
  C      2.202192    0.855261   -0.084685
  C      1.447288   -0.427811   -0.166651
  C      0.674401   -0.814278    1.096816
  N     -0.016310   -2.084596    1.046679
  C     -0.911204   -1.960475    0.149308
  O     -1.041592   -0.767741   -0.493601
  C      0.011109    0.023489    0.019875
  H     -0.626867    1.921476    0.873974
  H     -0.583929    1.902945   -0.888080
  H      1.717187    2.943127    0.130547
  H      3.285052    0.895829   -0.102472
  H      1.740642   -1.221692   -0.845609
  H      1.005075   -0.464569    2.068602
  H     -1.613645   -2.723397   -0.162105

 Total Charge           Charge          ....    0
 Multiplicity           Mult            ....    1
 Number of Electrons    NEL             ....   64
 Basis Dimension        Dim             ....  321

ORBITAL ENERGIES
----------------

  NO   OCC          E(Eh)            E(eV)
   0   2.0000     -20.608516      -560.7862
   1   2.0000     -15.557091      -423.3300
   2   2.0000     -11.336659      -308.4862
   3   2.0000     -11.300134      -307.4923
   4   2.0000     -11.269407      -306.6561
   5   2.0000     -11.244535      -305.9794
   6   2.0000     -11.241883      -305.9072
   7   2.0000     -11.240053      -305.8574
   8   2.0000     -11.238290      -305.8094
   9   2.0000      -1.455942       -39.6182
  10   2.0000      -1.230819       -33.4923
  11   2.0000      -1.175888       -31.9975
  12   2.0000      -1.040413       -28.3111
  13   2.0000      -0.977990       -26.6124
  14   2.0000      -0.869060       -23.6483
  15   2.0000      -0.830592       -22.6016
  16   2.0000      -0.779609       -21.2142
  17   2.0000      -0.753449       -20.5024
  18   2.0000      -0.706704       -19.2304
  19   2.0000      -0.678880       -18.4733
  20   2.0000      -0.635175       -17.2840
  21   2.0000      -0.606299       -16.4982
  22   2.0000      -0.598134       -16.2761
  23   2.0000      -0.580346       -15.7920
  24   2.0000      -0.559500       -15.2248
  25   2.0000      -0.541874       -14.7451
  26   2.0000      -0.511995       -13.9321
  27   2.0000      -0.492231       -13.3943
  28   2.0000      -0.464574       -12.6417
  29   2.0000      -0.400235       -10.8910
  30   2.0000      -0.387916       -10.5557
  31   2.0000      -0.335724        -9.1355
  32   0.0000       0.136820         3.7231
  33   0.0000       0.147570         4.0156
  34   0.0000       0.163612         4.4521
  35   0.0000       0.171149         4.6572
  36   0.0000       0.180370         4.9081

MULLIKEN ATOMIC CHARGES
-----------------------
   0 C :   -0.136266
   1 C :   -0.210646
   2 C :   -0.186101
   3 C :   -0.096959
   4 C :   -0.055693
   5 N :   -0.263833
   6 C :    0.092161
   7 O :   -0.254290
   8 C :    0.156199
   9 H :    0.131009
  10 H :    0.130980
  11 H :    0.133365
  12 H :    0.135407
  13 H :    0.142136
  14 H :    0.135181
  15 H :    0.147351
Sum of atomic charges:   -0.0000000

LOEWDIN ATOMIC CHARGES
----------------------
   0 C :   -0.194726
   1 C :   -0.143463
   2 C :   -0.133810
   3 C :   -0.149830
   4 C :   -0.194940
   5 N :    0.097962
   6 C :   -0.325525
   7 O :    0.279473
   8 C :   -0.246086
   9 H :    0.149079
  10 H :    0.152108
  11 H :    0.137979
  12 H :    0.141876
  13 H :    0.152252
  14 H :    0.143631
  15 H :    0.134019

  Mayer bond orders larger than 0.1
B(  0-C ,  1-C ) :   0.9492 B(  0-C ,  8-C ) :   0.9507 B(  0-C ,  9-H ) :   0.9058
B(  0-C , 10-H ) :   0.8922 B(  1-C ,  2-C ) :   1.7888 B(  1-C , 11-H ) :   0.9298
B(  2-C ,  3-C ) :   0.9253 B(  2-C , 12-H ) :   0.9259 B(  3-C ,  4-C ) :   0.8243
B(  3-C ,  8-C ) :   0.8659 B(  3-C , 13-H ) :   0.8985 B(  4-C ,  5-N ) :   0.9788
B(  4-C ,  8-C ) :   0.8915 B(  4-C , 14-H ) :   0.9121 B(  5-N ,  6-C ) :   1.7984
B(  6-C ,  7-O ) :   1.0617 B(  6-C , 15-H ) :   0.9250 B(  7-O ,  8-C ) :   0.9296

MP2 TOTAL ENERGY:     -400.052682013 Eh
FINAL SINGLE POINT ENERGY      -400.052682012650

DIPOLE MOMENT
-------------
                                X             Y             Z
Electronic contribution:     -2.10288      -3.71162      -0.15591
Nuclear contribution   :      2.15482       4.37483      -0.11003
                        -----------------------------------------
Total Dipole Moment    :      0.05194       0.66321      -0.26595
                        -----------------------------------------
Magnitude (a.u.)       :      0.71643
Magnitude (Debye)      :      1.82103

                             ****ORCA TERMINATED NORMALLY****
TOTAL RUN TIME: 0 days 0 hours 16 minutes 5 seconds 611 msec
