                         Program Version 3.0.3 - RELEASE   -
|  1> ! RI-MP2 RIJK def2-TZVP def2-TZVP/C def2-TZVP/JK TIGHTSCF
|  2> % maxcore 2000
|  3> % mp2 density relaxed end
|  4> *xyz 0 1
|  5>  O        0.0008323848    -0.0614470366    -0.0030610638
|  6>  C        0.0086429071     1.1489252469     0.0076157929
|  7>  C        1.2241041627     1.9678032139     0.0009996093
|  8>  C        2.5125914053     1.4980669795    -0.0176535789
|  9>  O        3.3915705592     2.5094304132    -0.0187341102
| 10>  C        2.6679536331     3.6860218335    -0.0002819383
| 11>  C        1.3339069303     3.3956400284     0.0121156876
| 12>  C        3.3851305849     4.8933332829     0.0021870650
| 13>  C        3.9897888145     5.9345713196     0.0044598360
| 14>  H       -0.9390225856     1.7303614285     0.0230845571
| 15>  H        2.9193399354     0.5004402681    -0.0309283870
| 16>  H        0.5303045748     4.1148571695     0.0273922789
| 17>  H        4.5227328035     6.8532777025     0.0064634114
| 18> *
| 19>
| 20>                          ****END OF INPUT****

CARTESIAN COORDINATES (ANGSTROEM)
---------------------------------
  O      0.000832   -0.061447   -0.003061
  C      0.008643    1.148925    0.007616
  C      1.224104    1.967803    0.001000
  C      2.512591    1.498067   -0.017654
  O      3.391571    2.509430   -0.018734
  C      2.667954    3.686022   -0.000282
  C      1.333907    3.395640    0.012116
  C      3.385131    4.893333    0.002187
  C      3.989789    5.934571    0.004460
  H     -0.939023    1.730361    0.023085
  H      2.919340    0.500440   -0.030928
  H      0.530305    4.114857    0.027392
  H      4.522733    6.853278    0.006463

 Total Charge           Charge          ....    0
 Multiplicity           Mult            ....    1
 Number of Electrons    NEL             ....   62
 Basis Dimension        Dim             ....  303

ORBITAL ENERGIES
----------------

  NO   OCC          E(Eh)            E(eV)
   0   2.0000     -20.657318      -562.1142
   1   2.0000     -20.559041      -559.4399
   2   2.0000     -11.345721      -308.7328
   3   2.0000     -11.332332      -308.3684
   4   2.0000     -11.331217      -308.3381
   5   2.0000     -11.268254      -306.6248
   6   2.0000     -11.259175      -306.3777
   7   2.0000     -11.256360      -306.3011
   8   2.0000     -11.253453      -306.2220
   9   2.0000      -1.494619       -40.6706
  10   2.0000      -1.397381       -38.0247
  11   2.0000      -1.128359       -30.7042
  12   2.0000      -1.092043       -29.7160
  13   2.0000      -1.015159       -27.6239
  14   2.0000      -0.912170       -24.8214
  15   2.0000      -0.857644       -23.3377
  16   2.0000      -0.816559       -22.2197
  17   2.0000      -0.745578       -20.2882
  18   2.0000      -0.729889       -19.8613
  19   2.0000      -0.671619       -18.2757
  20   2.0000      -0.671542       -18.2736
  21   2.0000      -0.664841       -18.0912
  22   2.0000      -0.633980       -17.2515
  23   2.0000      -0.601864       -16.3775
  24   2.0000      -0.569882       -15.5073
  25   2.0000      -0.549751       -14.9595
  26   2.0000      -0.465640       -12.6707
  27   2.0000      -0.441167       -12.0048
  28   2.0000      -0.422159       -11.4875
  29   2.0000      -0.417388       -11.3577
  30   2.0000      -0.324856        -8.8398
  31   0.0000       0.072556         1.9743
  32   0.0000       0.099132         2.6975
  33   0.0000       0.148285         4.0350
  34   0.0000       0.150517         4.0958
  35   0.0000       0.155484         4.2309

MULLIKEN ATOMIC CHARGES
-----------------------
   0 O :   -0.278111
   1 C :    0.057630
   2 C :    0.064943
   3 C :   -0.006442
   4 O :   -0.189891
   5 C :    0.073548
   6 C :   -0.277130
   7 C :    0.031328
   8 C :   -0.094442
   9 H :    0.084351
  10 H :    0.174235
  11 H :    0.156881
  12 H :    0.203098
Sum of atomic charges:   -0.0000000

LOEWDIN ATOMIC CHARGES
----------------------
   0 O :    0.130101
   1 C :   -0.267129
   2 C :   -0.194375
   3 C :   -0.168439
   4 O :    0.389775
   5 C :   -0.221702
   6 C :   -0.096785
   7 C :   -0.075465
   8 C :   -0.046341
   9 H :    0.118138
  10 H :    0.145951
  11 H :    0.154306
  12 H :    0.131966

  Mayer bond orders larger than 0.1
B(  0-O ,  1-C ) :   1.9965 B(  0-O ,  2-C ) :  -0.1166 B(  1-C ,  2-C ) :   0.8356
B(  1-C ,  9-H ) :   0.9831 B(  2-C ,  3-C ) :   1.4550 B(  2-C ,  6-C ) :   1.1752
B(  2-C ,  9-H ) :  -0.1031 B(  3-C ,  4-O ) :   1.1060 B(  3-C , 10-H ) :   0.9118
B(  4-O ,  5-C ) :   1.0102 B(  5-C ,  6-C ) :   1.4565 B(  5-C ,  7-C ) :   1.2001
B(  5-C ,  8-C ) :  -0.1575 B(  6-C , 11-H ) :   0.9148 B(  7-C ,  8-C ) :   2.6088
B(  8-C , 12-H ) :   0.8690

MP2 TOTAL ENERGY:     -418.702438516 Eh
FINAL SINGLE POINT ENERGY      -418.702438516131

DIPOLE MOMENT
-------------
                                X             Y             Z
Electronic contribution:      1.20573      -1.15216      -0.02334
Nuclear contribution   :     -1.00349       2.24724       0.03067
                        -----------------------------------------
Total Dipole Moment    :      0.20224       1.09508       0.00733
                        -----------------------------------------
Magnitude (a.u.)       :      1.11362
Magnitude (Debye)      :      2.83060

                             ****ORCA TERMINATED NORMALLY****
TOTAL RUN TIME: 0 days 0 hours 13 minutes 29 seconds 889 msec
