                         Program Version 3.0.3 - RELEASE   -
|  1> ! RI-MP2 RIJK def2-TZVP def2-TZVP/C def2-TZVP/JK TIGHTSCF
|  2> % maxcore 2000
|  3> % mp2 density relaxed end
|  4> *xyz 0 1
|  5>  C        0.1119128438     1.5028534370    -0.0057808340
|  6>  C        0.0694710601    -0.0110732246     0.0059568498
|  7>  C       -0.8591805159    -0.7089635683     1.0031024014
|  8>  C        0.6233561265    -0.7984825375     1.1705876434
|  9>  O        1.1978544657    -2.0476805721     0.8764736730
| 10>  C        1.8210661654    -2.0396834271    -0.3653344766
| 11>  O        0.8996512430    -1.7927003370    -1.4339622101
| 12>  C        0.1664855942    -0.6468267901    -1.3541499937
| 13>  O       -0.3737544770    -0.2106288269    -2.3324867650
| 14>  H        1.0681002919     1.8722550561    -0.3906989614
| 15>  H       -0.6819577389     1.8930939839    -0.6472920951
| 16>  H       -0.0250480321     1.9029429872     1.0029739925
| 17>  H       -1.4284014927    -0.0665110131     1.6658183978
| 18>  H       -1.3618211298    -1.6160648213     0.6888129875
| 19>  H        1.1174380172    -0.2679145534     1.9808135036
| 20>  H        2.6194924215    -1.2847371389    -0.4116838150
| 21>  H        2.2249919272    -3.0364579539    -0.5435105379
| 22> *
| 23>
| 24>                          ****END OF INPUT****

CARTESIAN COORDINATES (ANGSTROEM)
---------------------------------
  C      0.111913    1.502853   -0.005781
  C      0.069471   -0.011073    0.005957
  C     -0.859181   -0.708964    1.003102
  C      0.623356   -0.798483    1.170588
  O      1.197854   -2.047681    0.876474
  C      1.821066   -2.039683   -0.365334
  O      0.899651   -1.792700   -1.433962
  C      0.166486   -0.646827   -1.354150
  O     -0.373754   -0.210629   -2.332487
  H      1.068100    1.872255   -0.390699
  H     -0.681958    1.893094   -0.647292
  H     -0.025048    1.902943    1.002974
  H     -1.428401   -0.066511    1.665818
  H     -1.361821   -1.616065    0.688813
  H      1.117438   -0.267915    1.980814
  H      2.619492   -1.284737   -0.411684
  H      2.224992   -3.036458   -0.543511

 Total Charge           Charge          ....    0
 Multiplicity           Mult            ....    1
 Number of Electrons    NEL             ....   68
 Basis Dimension        Dim             ....  327

ORBITAL ENERGIES
----------------

  NO   OCC          E(Eh)            E(eV)
   0   2.0000     -20.605608      -560.7071
   1   2.0000     -20.594740      -560.4114
   2   2.0000     -20.543185      -559.0085
   3   2.0000     -11.385935      -309.8270
   4   2.0000     -11.359472      -309.1070
   5   2.0000     -11.312833      -307.8378
   6   2.0000     -11.273302      -306.7621
   7   2.0000     -11.255435      -306.2759
   8   2.0000     -11.239006      -305.8289
   9   2.0000      -1.477574       -40.2068
  10   2.0000      -1.416664       -38.5494
  11   2.0000      -1.358422       -36.9645
  12   2.0000      -1.178693       -32.0739
  13   2.0000      -0.999224       -27.1903
  14   2.0000      -0.958985       -26.0953
  15   2.0000      -0.893715       -24.3192
  16   2.0000      -0.848055       -23.0768
  17   2.0000      -0.765883       -20.8407
  18   2.0000      -0.739387       -20.1198
  19   2.0000      -0.711812       -19.3694
  20   2.0000      -0.670523       -18.2459
  21   2.0000      -0.661374       -17.9969
  22   2.0000      -0.637420       -17.3451
  23   2.0000      -0.624361       -16.9897
  24   2.0000      -0.599493       -16.3130
  25   2.0000      -0.576741       -15.6939
  26   2.0000      -0.561541       -15.2803
  27   2.0000      -0.553963       -15.0741
  28   2.0000      -0.537258       -14.6195
  29   2.0000      -0.502122       -13.6634
  30   2.0000      -0.477171       -12.9845
  31   2.0000      -0.452230       -12.3058
  32   2.0000      -0.426257       -11.5990
  33   2.0000      -0.421492       -11.4694
  34   0.0000       0.127661         3.4738
  35   0.0000       0.143340         3.9005
  36   0.0000       0.162581         4.4240
  37   0.0000       0.171152         4.6573
  38   0.0000       0.184630         5.0240

MULLIKEN ATOMIC CHARGES
-----------------------
   0 C :   -0.400726
   1 C :    0.026910
   2 C :   -0.279266
   3 C :    0.008642
   4 O :   -0.291799
   5 C :    0.067500
   6 O :   -0.226149
   7 C :    0.265232
   8 O :   -0.279464
   9 H :    0.136362
  10 H :    0.162779
  11 H :    0.130607
  12 H :    0.143866
  13 H :    0.151563
  14 H :    0.126663
  15 H :    0.111461
  16 H :    0.145818
Sum of atomic charges:    0.0000000

LOEWDIN ATOMIC CHARGES
----------------------
   0 C :   -0.251978
   1 C :   -0.225898
   2 C :   -0.159626
   3 C :   -0.255938
   4 O :    0.205118
   5 C :   -0.352991
   6 O :    0.246393
   7 C :   -0.434164
   8 O :    0.153755
   9 H :    0.130949
  10 H :    0.139567
  11 H :    0.129462
  12 H :    0.141399
  13 H :    0.148521
  14 H :    0.141399
  15 H :    0.115491
  16 H :    0.128541

  Mayer bond orders larger than 0.1
B(  0-C ,  1-C ) :   0.9203 B(  0-C ,  9-H ) :   0.9332 B(  0-C , 10-H ) :   0.9285
B(  0-C , 11-H ) :   0.9299 B(  1-C ,  2-C ) :   0.8558 B(  1-C ,  3-C ) :   0.8338
B(  1-C ,  7-C ) :   0.9269 B(  2-C ,  3-C ) :   0.8918 B(  2-C , 12-H ) :   0.9245
B(  2-C , 13-H ) :   0.9032 B(  3-C ,  4-O ) :   0.9494 B(  3-C , 14-H ) :   0.9429
B(  4-O ,  5-C ) :   0.9900 B(  5-C ,  6-O ) :   0.8876 B(  5-C , 15-H ) :   0.9314
B(  5-C , 16-H ) :   0.9298 B(  6-O ,  7-C ) :   1.1077 B(  7-C ,  8-O ) :   2.0259

MP2 TOTAL ENERGY:     -458.247073980 Eh
FINAL SINGLE POINT ENERGY      -458.247073979653

DIPOLE MOMENT
-------------
                                X             Y             Z
Electronic contribution:      0.41594      -4.78017      -4.05488
Nuclear contribution   :      0.13688       5.14127       5.29986
                        -----------------------------------------
Total Dipole Moment    :      0.55282       0.36110       1.24499
                        -----------------------------------------
Magnitude (a.u.)       :      1.40925
Magnitude (Debye)      :      3.58203

                             ****ORCA TERMINATED NORMALLY****
TOTAL RUN TIME: 0 days 0 hours 18 minutes 35 seconds 720 msec
