                         Program Version 3.0.3 - RELEASE   -
|  1> ! RI-MP2 RIJK def2-TZVP def2-TZVP/C def2-TZVP/JK TIGHTSCF
|  2> % maxcore 2000
|  3> % mp2 density relaxed end
|  4> *xyz 0 1
|  5>  O       -0.5708039405     0.5103499350     0.6259695549
|  6>  C        0.2138303183     0.8429096858    -0.2232766351
|  7>  C        1.2684469298     1.9224289509    -0.0561805250
|  8>  C        1.2154461120     2.9386044113    -1.1540934483
|  9>  C        1.5977686116     2.9039737802    -2.6196869735
| 10>  C        0.2373695831     3.4469605163    -3.0487689087
| 11>  C        0.1228407632     4.0087696982    -1.6053466747
| 12>  C        1.2317104903     5.0939812447    -1.5352949278
| 13>  C        2.2233712123     3.9411589040    -1.6702133534
| 14>  H        0.2132360239     0.3631796430    -1.2298822022
| 15>  H        1.1482187691     2.3713676506     0.9356989765
| 16>  H        2.2497810514     1.4249546391    -0.0828562841
| 17>  H        2.2198954623     2.1738240856    -3.1228456888
| 18>  H        0.1903506652     4.1691005489    -3.8722078493
| 19>  H       -0.4756470628     2.6377228375    -3.2302405636
| 20>  H       -0.8488644316     4.1704322574    -1.1431777029
| 21>  H        1.2179492063     5.8766251236    -2.3027818572
| 22>  H        1.2906126058     5.5526332462    -0.5443700615
| 23>  H        3.2909557303     3.9469387217    -1.4870253852
| 24> *
| 25>
| 26>                          ****END OF INPUT****

CARTESIAN COORDINATES (ANGSTROEM)
---------------------------------
  O     -0.570804    0.510350    0.625970
  C      0.213830    0.842910   -0.223277
  C      1.268447    1.922429   -0.056181
  C      1.215446    2.938604   -1.154093
  C      1.597769    2.903974   -2.619687
  C      0.237370    3.446961   -3.048769
  C      0.122841    4.008770   -1.605347
  C      1.231710    5.093981   -1.535295
  C      2.223371    3.941159   -1.670213
  H      0.213236    0.363180   -1.229882
  H      1.148219    2.371368    0.935699
  H      2.249781    1.424955   -0.082856
  H      2.219895    2.173824   -3.122846
  H      0.190351    4.169101   -3.872208
  H     -0.475647    2.637723   -3.230241
  H     -0.848864    4.170432   -1.143178
  H      1.217949    5.876625   -2.302782
  H      1.290613    5.552633   -0.544370
  H      3.290956    3.946939   -1.487025

 Total Charge           Charge          ....    0
 Multiplicity           Mult            ....    1
 Number of Electrons    NEL             ....   66
 Basis Dimension        Dim             ....  339

ORBITAL ENERGIES
----------------

  NO   OCC          E(Eh)            E(eV)
   0   2.0000     -20.556491      -559.3706
   1   2.0000     -11.330878      -308.3289
   2   2.0000     -11.249257      -306.1079
   3   2.0000     -11.248384      -306.0841
   4   2.0000     -11.243547      -305.9525
   5   2.0000     -11.241037      -305.8842
   6   2.0000     -11.240068      -305.8578
   7   2.0000     -11.230913      -305.6087
   8   2.0000     -11.230296      -305.5919
   9   2.0000      -1.395500       -37.9735
  10   2.0000      -1.239604       -33.7313
  11   2.0000      -1.041278       -28.3346
  12   2.0000      -0.978857       -26.6361
  13   2.0000      -0.964234       -26.2381
  14   2.0000      -0.850018       -23.1302
  15   2.0000      -0.800130       -21.7727
  16   2.0000      -0.751272       -20.4431
  17   2.0000      -0.713255       -19.4087
  18   2.0000      -0.703848       -19.1527
  19   2.0000      -0.658252       -17.9120
  20   2.0000      -0.632136       -17.2013
  21   2.0000      -0.610227       -16.6051
  22   2.0000      -0.605210       -16.4686
  23   2.0000      -0.594086       -16.1659
  24   2.0000      -0.553486       -15.0611
  25   2.0000      -0.528824       -14.3900
  26   2.0000      -0.517051       -14.0697
  27   2.0000      -0.491024       -13.3615
  28   2.0000      -0.452560       -12.3148
  29   2.0000      -0.438954       -11.9445
  30   2.0000      -0.431769       -11.7490
  31   2.0000      -0.392015       -10.6673
  32   2.0000      -0.368306       -10.0221
  33   0.0000       0.127017         3.4563
  34   0.0000       0.140959         3.8357
  35   0.0000       0.151777         4.1301
  36   0.0000       0.155657         4.2356
  37   0.0000       0.171848         4.6762

MULLIKEN ATOMIC CHARGES
-----------------------
   0 O :   -0.260878
   1 C :    0.096258
   2 C :   -0.152679
   3 C :   -0.018574
   4 C :   -0.171678
   5 C :   -0.206024
   6 C :   -0.104346
   7 C :   -0.199145
   8 C :   -0.174083
   9 H :    0.075975
  10 H :    0.123614
  11 H :    0.132477
  12 H :    0.133388
  13 H :    0.108765
  14 H :    0.120726
  15 H :    0.136393
  16 H :    0.108801
  17 H :    0.119056
  18 H :    0.131954
Sum of atomic charges:   -0.0000000

LOEWDIN ATOMIC CHARGES
----------------------
   0 O :    0.132606
   1 C :   -0.285864
   2 C :   -0.231153
   3 C :   -0.141395
   4 C :   -0.152297
   5 C :   -0.200091
   6 C :   -0.137417
   7 C :   -0.198605
   8 C :   -0.147890
   9 H :    0.110947
  10 H :    0.151880
  11 H :    0.162167
  12 H :    0.137703
  13 H :    0.124920
  14 H :    0.138553
  15 H :    0.133118
  16 H :    0.124717
  17 H :    0.139897
  18 H :    0.138205

  Mayer bond orders larger than 0.1
B(  0-O ,  1-C ) :   2.0055 B(  1-C ,  2-C ) :   0.8981 B(  1-C ,  9-H ) :   0.9345
B(  2-C ,  3-C ) :   0.8150 B(  2-C , 10-H ) :   0.8963 B(  2-C , 11-H ) :   0.9257
B(  3-C ,  4-C ) :   0.8357 B(  3-C ,  6-C ) :   0.8757 B(  3-C ,  8-C ) :   0.8046
B(  4-C ,  5-C ) :   0.9604 B(  4-C ,  8-C ) :   0.8353 B(  4-C , 12-H ) :   0.9295
B(  5-C ,  6-C ) :   0.9399 B(  5-C , 13-H ) :   0.9180 B(  5-C , 14-H ) :   0.9295
B(  6-C ,  7-C ) :   0.9386 B(  6-C , 15-H ) :   0.9150 B(  7-C ,  8-C ) :   0.9685
B(  7-C , 16-H ) :   0.9215 B(  7-C , 17-H ) :   0.9288 B(  8-C , 18-H ) :   0.9313

MP2 TOTAL ENERGY:     -385.166431162 Eh
FINAL SINGLE POINT ENERGY      -385.166431161641

DIPOLE MOMENT
-------------
                                X             Y             Z
Electronic contribution:     -1.51791      -3.90125       3.02728
Nuclear contribution   :      2.23471       4.32414      -3.59445
                        -----------------------------------------
Total Dipole Moment    :      0.71680       0.42290      -0.56717
                        -----------------------------------------
Magnitude (a.u.)       :      1.00714
Magnitude (Debye)      :      2.55994

                             ****ORCA TERMINATED NORMALLY****
TOTAL RUN TIME: 0 days 0 hours 18 minutes 16 seconds 300 msec
