                         Program Version 3.0.3 - RELEASE   -
|  1> ! RI-MP2 RIJK def2-TZVP def2-TZVP/C def2-TZVP/JK TIGHTSCF
|  2> % maxcore 2000
|  3> % mp2 density relaxed end
|  4> *xyz 0 1
|  5>  C       -0.1150489176     1.5049659002    -0.1344801829
|  6>  C       -0.0543317417    -0.0116256427    -0.0717538767
|  7>  O       -1.3731781903    -0.5141383752     0.0217780984
|  8>  C       -1.4493394708    -1.9267857998     0.0739286782
|  9>  C       -2.9325196015    -2.2974788325     0.0315651898
| 10>  C       -3.6858222605    -1.8401596894     1.2841432725
| 11>  O       -3.5189413511    -1.7709684348    -1.1507411081
| 12>  H        0.8932738659     1.9235127658    -0.2042778230
| 13>  H       -0.6865717772     1.8317091101    -1.0080644080
| 14>  H       -0.5969600326     1.9073481728     0.7610210142
| 15>  H        0.4419368300    -0.4193643616    -0.9680443897
| 16>  H        0.5351829655    -0.3399335281     0.8002416395
| 17>  H       -0.9337511316    -2.3662316224    -0.7945257733
| 18>  H       -0.9696996250    -2.3118482169     0.9887215911
| 19>  H       -3.0046083619    -3.3882800383    -0.0577435680
| 20>  H       -3.5651758740    -0.7627067408     1.4289844040
| 21>  H       -4.7504539879    -2.0625011479     1.1775171174
| 22>  H       -3.3112410739    -2.3495655236     2.1789114917
| 23>  H       -3.2216039639    -0.8538046050    -1.1991492271
| 24> *
| 25>
| 26>                          ****END OF INPUT****

CARTESIAN COORDINATES (ANGSTROEM)
---------------------------------
  C     -0.115049    1.504966   -0.134480
  C     -0.054332   -0.011626   -0.071754
  O     -1.373178   -0.514138    0.021778
  C     -1.449339   -1.926786    0.073929
  C     -2.932520   -2.297479    0.031565
  C     -3.685822   -1.840160    1.284143
  O     -3.518941   -1.770968   -1.150741
  H      0.893274    1.923513   -0.204278
  H     -0.686572    1.831709   -1.008064
  H     -0.596960    1.907348    0.761021
  H      0.441937   -0.419364   -0.968044
  H      0.535183   -0.339934    0.800242
  H     -0.933751   -2.366232   -0.794526
  H     -0.969700   -2.311848    0.988722
  H     -3.004608   -3.388280   -0.057744
  H     -3.565176   -0.762707    1.428984
  H     -4.750454   -2.062501    1.177517
  H     -3.311241   -2.349566    2.178911
  H     -3.221604   -0.853805   -1.199149

 Total Charge           Charge          ....    0
 Multiplicity           Mult            ....    1
 Number of Electrons    NEL             ....   58
 Basis Dimension        Dim             ....  289

ORBITAL ENERGIES
----------------

  NO   OCC          E(Eh)            E(eV)
   0   2.0000     -20.562542      -559.5352
   1   2.0000     -20.541739      -558.9691
   2   2.0000     -11.281924      -306.9968
   3   2.0000     -11.276651      -306.8533
   4   2.0000     -11.275708      -306.8276
   5   2.0000     -11.220628      -305.3288
   6   2.0000     -11.208335      -304.9943
   7   2.0000      -1.388871       -37.7931
   8   2.0000      -1.346245       -36.6332
   9   2.0000      -1.049237       -28.5512
  10   2.0000      -1.005044       -27.3486
  11   2.0000      -0.922438       -25.1008
  12   2.0000      -0.843569       -22.9547
  13   2.0000      -0.801686       -21.8150
  14   2.0000      -0.685375       -18.6500
  15   2.0000      -0.681362       -18.5408
  16   2.0000      -0.668595       -18.1934
  17   2.0000      -0.611944       -16.6518
  18   2.0000      -0.603182       -16.4134
  19   2.0000      -0.587363       -15.9830
  20   2.0000      -0.557856       -15.1800
  21   2.0000      -0.539682       -14.6855
  22   2.0000      -0.533231       -14.5100
  23   2.0000      -0.518328       -14.1044
  24   2.0000      -0.501445       -13.6450
  25   2.0000      -0.486777       -13.2459
  26   2.0000      -0.466803       -12.7024
  27   2.0000      -0.432472       -11.7682
  28   2.0000      -0.428844       -11.6694
  29   0.0000       0.132034         3.5928
  30   0.0000       0.150724         4.1014
  31   0.0000       0.166971         4.5435
  32   0.0000       0.183543         4.9945
  33   0.0000       0.188248         5.1225

MULLIKEN ATOMIC CHARGES
-----------------------
   0 C :   -0.365702
   1 C :   -0.051981
   2 O :   -0.326629
   3 C :   -0.103119
   4 C :    0.150097
   5 C :   -0.400201
   6 O :   -0.486762
   7 H :    0.125195
   8 H :    0.128881
   9 H :    0.131423
  10 H :    0.096261
  11 H :    0.094246
  12 H :    0.111874
  13 H :    0.098321
  14 H :    0.091247
  15 H :    0.131373
  16 H :    0.139761
  17 H :    0.113267
  18 H :    0.322450
Sum of atomic charges:   -0.0000000

LOEWDIN ATOMIC CHARGES
----------------------
   0 C :   -0.317141
   1 C :   -0.352552
   2 O :    0.147621
   3 C :   -0.316670
   4 C :   -0.378872
   5 C :   -0.304287
   6 O :   -0.025381
   7 H :    0.125606
   8 H :    0.123472
   9 H :    0.124302
  10 H :    0.117671
  11 H :    0.117646
  12 H :    0.123783
  13 H :    0.123093
  14 H :    0.143548
  15 H :    0.124311
  16 H :    0.125421
  17 H :    0.122546
  18 H :    0.175882

  Mayer bond orders larger than 0.1
B(  0-C ,  1-C ) :   0.9524 B(  0-C ,  7-H ) :   0.9326 B(  0-C ,  8-H ) :   0.9363
B(  0-C ,  9-H ) :   0.9359 B(  1-C ,  2-O ) :   0.9159 B(  1-C , 10-H ) :   0.9265
B(  1-C , 11-H ) :   0.9253 B(  2-O ,  3-C ) :   0.9097 B(  3-C ,  4-C ) :   0.9482
B(  3-C , 12-H ) :   0.9270 B(  3-C , 13-H ) :   0.9211 B(  4-C ,  5-C ) :   0.9294
B(  4-C ,  6-O ) :   0.9309 B(  4-C , 14-H ) :   0.9232 B(  5-C , 15-H ) :   0.9284
B(  5-C , 16-H ) :   0.9391 B(  5-C , 17-H ) :   0.9283 B(  6-O , 18-H ) :   0.8286

MP2 TOTAL ENERGY:     -347.491616205 Eh
FINAL SINGLE POINT ENERGY      -347.491616205457

DIPOLE MOMENT
-------------
                                X             Y             Z
Electronic contribution:     -2.37844      -2.10446      -2.55214
Nuclear contribution   :      3.24281       2.25972       2.97305
                        -----------------------------------------
Total Dipole Moment    :      0.86436       0.15526       0.42092
                        -----------------------------------------
Magnitude (a.u.)       :      0.97386
Magnitude (Debye)      :      2.47535

                             ****ORCA TERMINATED NORMALLY****
TOTAL RUN TIME: 0 days 0 hours 8 minutes 15 seconds 787 msec
