                         Program Version 3.0.3 - RELEASE   -
|  1> ! RI-MP2 RIJK def2-TZVP def2-TZVP/C def2-TZVP/JK TIGHTSCF
|  2> % maxcore 2000
|  3> % mp2 density relaxed end
|  4> *xyz 0 1
|  5>  O       -0.0892111535    -0.0175713093    -0.1207631729
|  6>  C       -0.0002879814     1.1919619945    -0.0808329697
|  7>  N        1.1657014454     1.8855238290     0.0611441754
|  8>  C        2.4341783867     1.3010017687     0.2222619728
|  9>  C        3.3808982341     2.2081428027     0.4779401639
| 10>  C        2.7927175949     3.5973976989     0.5287197542
| 11>  C        3.0016762815     4.4961763234    -0.7291791667
| 12>  C        1.6195066919     4.0330800653    -1.2769943835
| 13>  C        1.3124112429     3.3411826377     0.0842275524
| 14>  H       -0.8719694496     1.8708108234    -0.1577158657
| 15>  H        2.5023855108     0.2266785295     0.1374639574
| 16>  H        4.4247870809     1.9831409614     0.6463402513
| 17>  H        2.9658590623     4.0919072697     1.4902097584
| 18>  H        3.0314365760     5.5610176355    -0.4840484015
| 19>  H        3.8703715704     4.2573381960    -1.3463002152
| 20>  H        0.9273499533     4.8260974822    -1.5686039076
| 21>  H        1.6887845003     3.3131926646    -2.0951643431
| 22>  H        0.5185540231     3.8068292769     0.6704300200
| 23> *
| 24>
| 25>                          ****END OF INPUT****

CARTESIAN COORDINATES (ANGSTROEM)
---------------------------------
  O     -0.089211   -0.017571   -0.120763
  C     -0.000288    1.191962   -0.080833
  N      1.165701    1.885524    0.061144
  C      2.434178    1.301002    0.222262
  C      3.380898    2.208143    0.477940
  C      2.792718    3.597398    0.528720
  C      3.001676    4.496176   -0.729179
  C      1.619507    4.033080   -1.276994
  C      1.312411    3.341183    0.084228
  H     -0.871969    1.870811   -0.157716
  H      2.502386    0.226679    0.137464
  H      4.424787    1.983141    0.646340
  H      2.965859    4.091907    1.490210
  H      3.031437    5.561018   -0.484048
  H      3.870372    4.257338   -1.346300
  H      0.927350    4.826097   -1.568604
  H      1.688785    3.313193   -2.095164
  H      0.518554    3.806829    0.670430

 Total Charge           Charge          ....    0
 Multiplicity           Mult            ....    1
 Number of Electrons    NEL             ....   66
 Basis Dimension        Dim             ....  333

ORBITAL ENERGIES
----------------

  NO   OCC          E(Eh)            E(eV)
   0   2.0000     -20.524878      -558.5103
   1   2.0000     -15.599012      -424.4707
   2   2.0000     -11.351597      -308.8926
   3   2.0000     -11.282709      -307.0181
   4   2.0000     -11.274750      -306.8015
   5   2.0000     -11.248534      -306.0882
   6   2.0000     -11.235299      -305.7280
   7   2.0000     -11.234388      -305.7032
   8   2.0000     -11.229740      -305.5768
   9   2.0000      -1.386421       -37.7264
  10   2.0000      -1.283430       -34.9239
  11   2.0000      -1.129729       -30.7415
  12   2.0000      -1.051887       -28.6233
  13   2.0000      -0.926039       -25.1988
  14   2.0000      -0.914478       -24.8842
  15   2.0000      -0.851306       -23.1652
  16   2.0000      -0.767521       -20.8853
  17   2.0000      -0.752333       -20.4720
  18   2.0000      -0.717094       -19.5131
  19   2.0000      -0.673015       -18.3137
  20   2.0000      -0.644748       -17.5445
  21   2.0000      -0.620668       -16.8892
  22   2.0000      -0.607655       -16.5351
  23   2.0000      -0.590972       -16.0812
  24   2.0000      -0.569386       -15.4938
  25   2.0000      -0.533603       -14.5201
  26   2.0000      -0.515941       -14.0395
  27   2.0000      -0.493722       -13.4349
  28   2.0000      -0.475974       -12.9519
  29   2.0000      -0.453487       -12.3400
  30   2.0000      -0.445637       -12.1264
  31   2.0000      -0.430926       -11.7261
  32   2.0000      -0.317534        -8.6405
  33   0.0000       0.129133         3.5139
  34   0.0000       0.132178         3.5967
  35   0.0000       0.151232         4.1152
  36   0.0000       0.160090         4.3563
  37   0.0000       0.169443         4.6108

MULLIKEN ATOMIC CHARGES
-----------------------
   0 O :   -0.355393
   1 C :    0.133956
   2 N :   -0.039296
   3 C :   -0.130129
   4 C :   -0.208345
   5 C :   -0.010537
   6 C :   -0.205034
   7 C :   -0.262586
   8 C :   -0.064619
   9 H :    0.086342
  10 H :    0.166285
  11 H :    0.142234
  12 H :    0.119052
  13 H :    0.120959
  14 H :    0.113675
  15 H :    0.123150
  16 H :    0.133549
  17 H :    0.136739
Sum of atomic charges:    0.0000000

LOEWDIN ATOMIC CHARGES
----------------------
   0 O :    0.062802
   1 C :   -0.403998
   2 N :    0.216173
   3 C :   -0.158781
   4 C :   -0.155754
   5 C :   -0.181003
   6 C :   -0.213456
   7 C :   -0.213484
   8 C :   -0.177522
   9 H :    0.114607
  10 H :    0.150059
  11 H :    0.142343
  12 H :    0.144599
  13 H :    0.131747
  14 H :    0.129519
  15 H :    0.128847
  16 H :    0.139698
  17 H :    0.143603

  Mayer bond orders larger than 0.1
B(  0-O ,  1-C ) :   1.8969 B(  1-C ,  2-N ) :   1.0926 B(  1-C ,  9-H ) :   0.9315
B(  2-N ,  3-C ) :   0.9843 B(  2-N ,  8-C ) :   0.9165 B(  3-C ,  4-C ) :   1.7056
B(  3-C , 10-H ) :   0.9254 B(  4-C ,  5-C ) :   0.9413 B(  4-C , 11-H ) :   0.9304
B(  5-C ,  6-C ) :   0.9124 B(  5-C ,  8-C ) :   0.9413 B(  5-C , 12-H ) :   0.9142
B(  6-C ,  7-C ) :   0.9478 B(  6-C , 13-H ) :   0.9191 B(  6-C , 14-H ) :   0.9180
B(  7-C ,  8-C ) :   0.9058 B(  7-C , 15-H ) :   0.9278 B(  7-C , 16-H ) :   0.9167
B(  8-C , 17-H ) :   0.9114

MP2 TOTAL ENERGY:     -401.271958807 Eh
FINAL SINGLE POINT ENERGY      -401.271958807325

DIPOLE MOMENT
-------------
                                X             Y             Z
Electronic contribution:     -2.93805      -6.07896       1.69671
Nuclear contribution   :      3.53706       7.57799      -1.64119
                        -----------------------------------------
Total Dipole Moment    :      0.59901       1.49903       0.05552
                        -----------------------------------------
Magnitude (a.u.)       :      1.61523
Magnitude (Debye)      :      4.10560

                             ****ORCA TERMINATED NORMALLY****
TOTAL RUN TIME: 0 days 0 hours 18 minutes 47 seconds 777 msec
