                         Program Version 3.0.3 - RELEASE   -
|  1> ! RI-MP2 RIJK def2-TZVP def2-TZVP/C def2-TZVP/JK TIGHTSCF
|  2> % maxcore 2000
|  3> % mp2 density relaxed end
|  4> *xyz 0 1
|  5>  C       -0.0416179310     1.5518196500    -0.0185940756
|  6>  C       -0.1204162306     0.0579646164     0.3120275843
|  7>  C       -1.4869057617    -0.5431903916     0.0046990257
|  8>  C       -1.8412559800    -0.7686051679    -1.4870091764
|  9>  O       -1.9353628454    -2.2019276586    -1.2981304157
| 10>  C       -1.6384897960    -2.0602585446     0.0870704940
| 11>  C       -0.8423427454    -3.0742020812     0.8560725805
| 12>  C       -2.3238774318    -2.8549391709     1.1404628966
| 13>  O       -2.7165520659    -2.1509403565     2.2830337263
| 14>  H        0.9488067867     1.9571009095     0.2093781538
| 15>  H       -0.2377633126     1.7363871433    -1.0807112450
| 16>  H       -0.7778195540     2.1232358040     0.5573865411
| 17>  H        0.6489511416    -0.4902677309    -0.2466098537
| 18>  H        0.1026657047    -0.0940584005     1.3755217611
| 19>  H       -2.2659277706    -0.0173026528     0.5636740107
| 20>  H       -2.7912144016    -0.3429342603    -1.8285748964
| 21>  H       -1.0497689483    -0.5092400464    -2.2011781351
| 22>  H       -0.5607089567    -3.9898105590     0.3460467842
| 23>  H       -0.1263770934    -2.7057148757     1.5845347794
| 24>  H       -3.0073659535    -3.6341856240     0.8019965434
| 25>  H       -2.5638606845    -2.7148701725     3.0488618267
| 26> *
| 27>
| 28>                          ****END OF INPUT****

CARTESIAN COORDINATES (ANGSTROEM)
---------------------------------
  C     -0.041618    1.551820   -0.018594
  C     -0.120416    0.057965    0.312028
  C     -1.486906   -0.543190    0.004699
  C     -1.841256   -0.768605   -1.487009
  O     -1.935363   -2.201928   -1.298130
  C     -1.638490   -2.060259    0.087070
  C     -0.842343   -3.074202    0.856073
  C     -2.323877   -2.854939    1.140463
  O     -2.716552   -2.150940    2.283034
  H      0.948807    1.957101    0.209378
  H     -0.237763    1.736387   -1.080711
  H     -0.777820    2.123236    0.557387
  H      0.648951   -0.490268   -0.246610
  H      0.102666   -0.094058    1.375522
  H     -2.265928   -0.017303    0.563674
  H     -2.791214   -0.342934   -1.828575
  H     -1.049769   -0.509240   -2.201178
  H     -0.560709   -3.989811    0.346047
  H     -0.126377   -2.705715    1.584535
  H     -3.007366   -3.634186    0.801997
  H     -2.563861   -2.714870    3.048862

 Total Charge           Charge          ....    0
 Multiplicity           Mult            ....    1
 Number of Electrons    NEL             ....   70
 Basis Dimension        Dim             ....  351

ORBITAL ENERGIES
----------------

  NO   OCC          E(Eh)            E(eV)
   0   2.0000     -20.567107      -559.6594
   1   2.0000     -20.548680      -559.1580
   2   2.0000     -11.283696      -307.0450
   3   2.0000     -11.279501      -306.9308
   4   2.0000     -11.275580      -306.8241
   5   2.0000     -11.232102      -305.6410
   6   2.0000     -11.224641      -305.4380
   7   2.0000     -11.224606      -305.4370
   8   2.0000     -11.217464      -305.2427
   9   2.0000      -1.386662       -37.7330
  10   2.0000      -1.370171       -37.2843
  11   2.0000      -1.119322       -30.4583
  12   2.0000      -1.068805       -29.0837
  13   2.0000      -0.969559       -26.3830
  14   2.0000      -0.878870       -23.9153
  15   2.0000      -0.841134       -22.8884
  16   2.0000      -0.818736       -22.2789
  17   2.0000      -0.721532       -19.6339
  18   2.0000      -0.705730       -19.2039
  19   2.0000      -0.686699       -18.6860
  20   2.0000      -0.650778       -17.7086
  21   2.0000      -0.639835       -17.4108
  22   2.0000      -0.604638       -16.4530
  23   2.0000      -0.581828       -15.8323
  24   2.0000      -0.568630       -15.4732
  25   2.0000      -0.560778       -15.2596
  26   2.0000      -0.535471       -14.5709
  27   2.0000      -0.518667       -14.1137
  28   2.0000      -0.511753       -13.9255
  29   2.0000      -0.489600       -13.3227
  30   2.0000      -0.481507       -13.1025
  31   2.0000      -0.466008       -12.6807
  32   2.0000      -0.445711       -12.1284
  33   2.0000      -0.396639       -10.7931
  34   2.0000      -0.370491       -10.0816
  35   0.0000       0.134200         3.6518
  36   0.0000       0.145723         3.9653
  37   0.0000       0.164873         4.4864
  38   0.0000       0.178798         4.8654
  39   0.0000       0.182287         4.9603

MULLIKEN ATOMIC CHARGES
-----------------------
   0 C :   -0.388333
   1 C :   -0.268363
   2 C :   -0.058091
   3 C :   -0.037206
   4 O :   -0.318232
   5 C :    0.228619
   6 C :   -0.307594
   7 C :   -0.033696
   8 O :   -0.465574
   9 H :    0.136335
  10 H :    0.124095
  11 H :    0.126901
  12 H :    0.123758
  13 H :    0.113657
  14 H :    0.122734
  15 H :    0.101483
  16 H :    0.093504
  17 H :    0.134061
  18 H :    0.137060
  19 H :    0.110390
  20 H :    0.324493
Sum of atomic charges:    0.0000000

LOEWDIN ATOMIC CHARGES
----------------------
   0 C :   -0.315069
   1 C :   -0.272953
   2 C :   -0.195300
   3 C :   -0.230395
   4 O :    0.167751
   5 C :   -0.279334
   6 C :   -0.199804
   7 C :   -0.304065
   8 O :   -0.003824
   9 H :    0.121786
  10 H :    0.120581
  11 H :    0.122308
  12 H :    0.141070
  13 H :    0.139279
  14 H :    0.156145
  15 H :    0.117761
  16 H :    0.118895
  17 H :    0.140425
  18 H :    0.138023
  19 H :    0.135863
  20 H :    0.180857

  Mayer bond orders larger than 0.1
B(  0-C ,  1-C ) :   0.9131 B(  0-C ,  9-H ) :   0.9415 B(  0-C , 10-H ) :   0.9402
B(  0-C , 11-H ) :   0.9374 B(  1-C ,  2-C ) :   0.9127 B(  1-C , 12-H ) :   0.9321
B(  1-C , 13-H ) :   0.9334 B(  2-C ,  3-C ) :   0.9643 B(  2-C ,  5-C ) :   0.9213
B(  2-C , 14-H ) :   0.9093 B(  3-C ,  4-O ) :   0.9393 B(  3-C , 15-H ) :   0.9130
B(  3-C , 16-H ) :   0.9025 B(  4-O ,  5-C ) :   0.9901 B(  5-C ,  6-C ) :   0.8457
B(  5-C ,  7-C ) :   0.8386 B(  5-C ,  8-O ) :  -0.1421 B(  6-C ,  7-C ) :   0.9083
B(  6-C , 17-H ) :   0.9044 B(  6-C , 18-H ) :   0.9126 B(  7-C ,  8-O ) :   1.0586
B(  7-C , 19-H ) :   0.9503 B(  8-O , 20-H ) :   0.8400

MP2 TOTAL ENERGY:     -423.478542024 Eh
FINAL SINGLE POINT ENERGY      -423.478542023795

DIPOLE MOMENT
-------------
                                X             Y             Z
Electronic contribution:     -4.94377      -6.73729       0.17143
Nuclear contribution   :      5.33851       6.83035       0.33933
                        -----------------------------------------
Total Dipole Moment    :      0.39474       0.09306       0.51076
                        -----------------------------------------
Magnitude (a.u.)       :      0.65220
Magnitude (Debye)      :      1.65775

                             ****ORCA TERMINATED NORMALLY****
TOTAL RUN TIME: 0 days 0 hours 17 minutes 15 seconds 213 msec
