                         Program Version 3.0.3 - RELEASE   -
|  1> ! RI-MP2 RIJK def2-TZVP def2-TZVP/C def2-TZVP/JK TIGHTSCF
|  2> % maxcore 2000
|  3> % mp2 density relaxed end
|  4> *xyz 0 1
|  5>  C        0.0736802203     1.3824270983    -0.2500648881
|  6>  C        0.0709654534    -0.1134190612     0.1281080857
|  7>  C        0.7289032857    -0.2593693005     1.4918604638
|  8>  O        1.8806221107    -0.5535220465     1.6728210580
|  9>  C       -1.3396735953    -0.6699832647     0.1505474288
| 10>  C       -2.0065226678    -1.1316553428    -1.1119692302
| 11>  C       -1.6168757187    -2.1572167953    -0.0564953450
| 12>  C       -0.5495203140    -3.0813023380    -0.3058275087
| 13>  C        0.3439317196    -3.8621365538    -0.5042487818
| 14>  H        1.0959520646     1.7656321642    -0.3097332945
| 15>  H       -0.4116084199     1.5278614780    -1.2194427795
| 16>  H       -0.4714427722     1.9799111689     0.4897236697
| 17>  H        0.6864990832    -0.6706579158    -0.5841269853
| 18>  H        0.0536082936    -0.0285490539     2.3519896016
| 19>  H       -1.9905100560    -0.1952948533     0.8819743975
| 20>  H       -3.0628615462    -0.9324994902    -1.2526935390
| 21>  H       -1.4187262544    -1.1281385168    -2.0231834806
| 22>  H       -2.4354208519    -2.5628844668     0.5310495768
| 23>  H        1.1364192954    -4.5479570600    -0.6742192392
| 24> *
| 25>
| 26>                          ****END OF INPUT****

CARTESIAN COORDINATES (ANGSTROEM)
---------------------------------
  C      0.073680    1.382427   -0.250065
  C      0.070965   -0.113419    0.128108
  C      0.728903   -0.259369    1.491860
  O      1.880622   -0.553522    1.672821
  C     -1.339674   -0.669983    0.150547
  C     -2.006523   -1.131655   -1.111969
  C     -1.616876   -2.157217   -0.056495
  C     -0.549520   -3.081302   -0.305828
  C      0.343932   -3.862137   -0.504249
  H      1.095952    1.765632   -0.309733
  H     -0.411608    1.527861   -1.219443
  H     -0.471443    1.979911    0.489724
  H      0.686499   -0.670658   -0.584127
  H      0.053608   -0.028549    2.351990
  H     -1.990510   -0.195295    0.881974
  H     -3.062862   -0.932499   -1.252694
  H     -1.418726   -1.128139   -2.023183
  H     -2.435421   -2.562884    0.531050
  H      1.136419   -4.547957   -0.674219

 Total Charge           Charge          ....    0
 Multiplicity           Mult            ....    1
 Number of Electrons    NEL             ....   66
 Basis Dimension        Dim             ....  339

ORBITAL ENERGIES
----------------

  NO   OCC          E(Eh)            E(eV)
   0   2.0000     -20.553828      -559.2981
   1   2.0000     -11.327923      -308.2484
   2   2.0000     -11.267807      -306.6126
   3   2.0000     -11.259562      -306.3883
   4   2.0000     -11.250189      -306.1332
   5   2.0000     -11.249713      -306.1203
   6   2.0000     -11.236568      -305.7625
   7   2.0000     -11.235114      -305.7230
   8   2.0000     -11.223405      -305.4044
   9   2.0000      -1.393321       -37.9142
  10   2.0000      -1.182124       -32.1672
  11   2.0000      -1.069148       -29.0930
  12   2.0000      -1.024052       -27.8659
  13   2.0000      -0.912686       -24.8354
  14   2.0000      -0.876297       -23.8453
  15   2.0000      -0.826340       -22.4859
  16   2.0000      -0.789276       -21.4773
  17   2.0000      -0.722148       -19.6506
  18   2.0000      -0.692122       -18.8336
  19   2.0000      -0.678074       -18.4513
  20   2.0000      -0.637424       -17.3452
  21   2.0000      -0.631278       -17.1779
  22   2.0000      -0.582933       -15.8624
  23   2.0000      -0.577866       -15.7245
  24   2.0000      -0.555782       -15.1236
  25   2.0000      -0.542506       -14.7623
  26   2.0000      -0.506135       -13.7726
  27   2.0000      -0.500142       -13.6096
  28   2.0000      -0.477301       -12.9880
  29   2.0000      -0.465636       -12.6706
  30   2.0000      -0.411738       -11.2040
  31   2.0000      -0.382837       -10.4175
  32   2.0000      -0.364089        -9.9074
  33   0.0000       0.122933         3.3452
  34   0.0000       0.134665         3.6644
  35   0.0000       0.154302         4.1988
  36   0.0000       0.157964         4.2984
  37   0.0000       0.167800         4.5661

MULLIKEN ATOMIC CHARGES
-----------------------
   0 C :   -0.398779
   1 C :    0.007683
   2 C :    0.081591
   3 O :   -0.253871
   4 C :   -0.139966
   5 C :   -0.242622
   6 C :   -0.250424
   7 C :   -0.028846
   8 C :   -0.117319
   9 H :    0.153113
  10 H :    0.141952
  11 H :    0.125876
  12 H :    0.108984
  13 H :    0.069074
  14 H :    0.127534
  15 H :    0.142075
  16 H :    0.141412
  17 H :    0.141047
  18 H :    0.191485
Sum of atomic charges:    0.0000000

LOEWDIN ATOMIC CHARGES
----------------------
   0 C :   -0.274476
   1 C :   -0.259561
   2 C :   -0.266024
   3 O :    0.141265
   4 C :   -0.176401
   5 C :   -0.177213
   6 C :   -0.187987
   7 C :   -0.099110
   8 C :   -0.091538
   9 H :    0.129957
  10 H :    0.129096
  11 H :    0.126083
  12 H :    0.168415
  13 H :    0.111627
  14 H :    0.154241
  15 H :    0.135244
  16 H :    0.143485
  17 H :    0.165219
  18 H :    0.127678

  Mayer bond orders larger than 0.1
B(  0-C ,  1-C ) :   0.9005 B(  0-C ,  9-H ) :   0.9385 B(  0-C , 10-H ) :   0.9346
B(  0-C , 11-H ) :   0.9253 B(  1-C ,  2-C ) :   0.8579 B(  1-C ,  4-C ) :   0.9204
B(  1-C , 12-H ) :   0.8958 B(  2-C ,  3-O ) :   2.0135 B(  2-C , 13-H ) :   0.9317
B(  4-C ,  5-C ) :   0.8886 B(  4-C ,  6-C ) :   0.8508 B(  4-C , 14-H ) :   0.9126
B(  5-C ,  6-C ) :   0.8490 B(  5-C , 15-H ) :   0.9257 B(  5-C , 16-H ) :   0.9263
B(  6-C ,  7-C ) :   1.1841 B(  6-C ,  8-C ) :  -0.1302 B(  6-C , 17-H ) :   0.9399
B(  7-C ,  8-C ) :   2.5488 B(  8-C , 18-H ) :   0.8987

MP2 TOTAL ENERGY:     -385.164515259 Eh
FINAL SINGLE POINT ENERGY      -385.164515258640

DIPOLE MOMENT
-------------
                                X             Y             Z
Electronic contribution:      3.13544      -5.22843       2.76580
Nuclear contribution   :     -4.18642       5.68742      -3.16721
                        -----------------------------------------
Total Dipole Moment    :     -1.05098       0.45899      -0.40140
                        -----------------------------------------
Magnitude (a.u.)       :      1.21506
Magnitude (Debye)      :      3.08844

                             ****ORCA TERMINATED NORMALLY****
TOTAL RUN TIME: 0 days 0 hours 19 minutes 33 seconds 486 msec
