                         Program Version 3.0.3 - RELEASE   -
|  1> ! RI-MP2 RIJK def2-TZVP def2-TZVP/C def2-TZVP/JK TIGHTSCF
|  2> % maxcore 2000
|  3> % mp2 density relaxed end
|  4> *xyz 0 1
|  5>  C       -0.0575468746    -1.0804137019    -0.1380183412
|  6>  C       -0.0261439883     0.1170713291    -0.0436001283
|  7>  C        0.0269691542     1.5360970547     0.0961034366
|  8>  C       -0.6481236935     2.4502008707     1.1611585619
|  9>  C       -0.0333008829     3.3350797080     0.0463045680
| 10>  C        1.2623587544     2.4844662230     0.0868441925
| 11>  O       -0.5848803524     2.4069814678    -0.9641897307
| 12>  C       -0.1755263426     4.7537504190    -0.1614076331
| 13>  N       -0.2716954585     5.8973326605    -0.2958018609
| 14>  H       -0.0888758048    -2.1388241383    -0.2272664804
| 15>  H       -1.7366379935     2.4172805498     1.1685755821
| 16>  H       -0.1991541709     2.4925837910     2.1549118772
| 17>  H        1.8770411905     2.5298243941     0.9874124825
| 18>  H        1.8346853528     2.4813396325    -0.8396730962
| 19> *
| 20>
| 21>                          ****END OF INPUT****

CARTESIAN COORDINATES (ANGSTROEM)
---------------------------------
  C     -0.057547   -1.080414   -0.138018
  C     -0.026144    0.117071   -0.043600
  C      0.026969    1.536097    0.096103
  C     -0.648124    2.450201    1.161159
  C     -0.033301    3.335080    0.046305
  C      1.262359    2.484466    0.086844
  O     -0.584880    2.406981   -0.964190
  C     -0.175526    4.753750   -0.161408
  N     -0.271695    5.897333   -0.295802
  H     -0.088876   -2.138824   -0.227266
  H     -1.736638    2.417281    1.168576
  H     -0.199154    2.492584    2.154912
  H      1.877041    2.529824    0.987412
  H      1.834685    2.481340   -0.839673

 Total Charge           Charge          ....    0
 Multiplicity           Mult            ....    1
 Number of Electrons    NEL             ....   62
 Basis Dimension        Dim             ....  309

ORBITAL ENERGIES
----------------

  NO   OCC          E(Eh)            E(eV)
   0   2.0000     -20.591038      -560.3106
   1   2.0000     -15.592676      -424.2983
   2   2.0000     -11.364397      -309.2410
   3   2.0000     -11.358632      -309.0841
   4   2.0000     -11.288646      -307.1797
   5   2.0000     -11.280336      -306.9536
   6   2.0000     -11.280324      -306.9532
   7   2.0000     -11.262950      -306.4805
   8   2.0000     -11.258983      -306.3725
   9   2.0000      -1.435649       -39.0660
  10   2.0000      -1.234309       -33.5873
  11   2.0000      -1.122080       -30.5334
  12   2.0000      -1.071168       -29.1480
  13   2.0000      -0.976316       -26.5669
  14   2.0000      -0.966899       -26.3107
  15   2.0000      -0.861608       -23.4455
  16   2.0000      -0.776568       -21.1315
  17   2.0000      -0.731422       -19.9030
  18   2.0000      -0.667449       -18.1622
  19   2.0000      -0.663464       -18.0538
  20   2.0000      -0.620942       -16.8967
  21   2.0000      -0.589436       -16.0394
  22   2.0000      -0.565415       -15.3857
  23   2.0000      -0.544409       -14.8141
  24   2.0000      -0.540419       -14.7056
  25   2.0000      -0.525549       -14.3009
  26   2.0000      -0.485230       -13.2038
  27   2.0000      -0.478961       -13.0332
  28   2.0000      -0.446024       -12.1369
  29   2.0000      -0.421598       -11.4723
  30   2.0000      -0.408577       -11.1179
  31   0.0000       0.115538         3.1439
  32   0.0000       0.130348         3.5469
  33   0.0000       0.132946         3.6176
  34   0.0000       0.136603         3.7172
  35   0.0000       0.154150         4.1946

MULLIKEN ATOMIC CHARGES
-----------------------
   0 C :   -0.066991
   1 C :    0.047931
   2 C :   -0.201312
   3 C :   -0.079600
   4 C :    0.136628
   5 C :   -0.079623
   6 O :   -0.258958
   7 C :   -0.238578
   8 N :   -0.014237
   9 H :    0.205083
  10 H :    0.137229
  11 H :    0.137599
  12 H :    0.137599
  13 H :    0.137230
Sum of atomic charges:   -0.0000000

LOEWDIN ATOMIC CHARGES
----------------------
   0 C :   -0.040524
   1 C :   -0.063351
   2 C :   -0.247513
   3 C :   -0.110063
   4 C :   -0.279645
   5 C :   -0.110062
   6 O :    0.192753
   7 C :   -0.137731
   8 N :    0.096341
   9 H :    0.133108
  10 H :    0.144682
  11 H :    0.138663
  12 H :    0.138662
  13 H :    0.144682

  Mayer bond orders larger than 0.1
B(  0-C ,  1-C ) :   2.6471 B(  0-C ,  2-C ) :  -0.1684 B(  0-C ,  9-H ) :   0.8558
B(  1-C ,  2-C ) :   1.2536 B(  2-C ,  3-C ) :   0.8813 B(  2-C ,  5-C ) :   0.8812
B(  2-C ,  6-O ) :   0.9129 B(  3-C ,  4-C ) :   0.8778 B(  3-C , 10-H ) :   0.9087
B(  3-C , 11-H ) :   0.9064 B(  4-C ,  5-C ) :   0.8778 B(  4-C ,  6-O ) :   0.9345
B(  4-C ,  7-C ) :   0.8870 B(  5-C , 12-H ) :   0.9064 B(  5-C , 13-H ) :   0.9087
B(  7-C ,  8-N ) :   2.8693

MP2 TOTAL ENERGY:     -398.751819856 Eh
FINAL SINGLE POINT ENERGY      -398.751819855732

DIPOLE MOMENT
-------------
                                X             Y             Z
Electronic contribution:     -1.31389       2.66879      -2.25140
Nuclear contribution   :      1.86031      -4.18949       3.17461
                        -----------------------------------------
Total Dipole Moment    :      0.54642      -1.52070       0.92321
                        -----------------------------------------
Magnitude (a.u.)       :      1.86102
Magnitude (Debye)      :      4.73035

                             ****ORCA TERMINATED NORMALLY****
TOTAL RUN TIME: 0 days 0 hours 14 minutes 35 seconds 902 msec
