                         Program Version 3.0.3 - RELEASE   -
|  1> ! RI-MP2 RIJK def2-TZVP def2-TZVP/C def2-TZVP/JK TIGHTSCF
|  2> % maxcore 2000
|  3> % mp2 density relaxed end
|  4> *xyz 0 1
|  5>  C       -0.0113129156     1.3836617175    -0.4793580107
|  6>  C        0.0723955684    -0.0441807533     0.0214780396
|  7>  C       -1.0873836112    -0.7276929958     0.2088244234
|  8>  N       -1.3402234047    -1.9896590325     0.6497942770
|  9>  C       -0.3365447438    -2.9265408072     1.1014391781
| 10>  C        0.9213416578    -2.8333160383     0.2433863575
| 11>  O        1.7677915202    -1.7614311349     0.6190876218
| 12>  C        1.4492371323    -0.4527444039     0.3516277274
| 13>  O        2.3528035808     0.3473969801     0.4153184974
| 14>  H        0.3866458649     2.0841758451     0.2609430162
| 15>  H        0.5860550502     1.5233001600    -1.3865485242
| 16>  H       -1.0448199670     1.6624194299    -0.7045734787
| 17>  H       -2.0046324868    -0.1999495842    -0.0407389035
| 18>  H       -2.3022384614    -2.2230311408     0.8210113321
| 19>  H       -0.0505728792    -2.7573929954     2.1503723728
| 20>  H       -0.7560345011    -3.9355033512     1.0275494621
| 21>  H        1.5260885928    -3.7314990485     0.3908958614
| 22>  H        0.6495366934    -2.7688620065    -0.8172174398
| 23> *
| 24>
| 25>                          ****END OF INPUT****

CARTESIAN COORDINATES (ANGSTROEM)
---------------------------------
  C     -0.011313    1.383662   -0.479358
  C      0.072396   -0.044181    0.021478
  C     -1.087384   -0.727693    0.208824
  N     -1.340223   -1.989659    0.649794
  C     -0.336545   -2.926541    1.101439
  C      0.921342   -2.833316    0.243386
  O      1.767792   -1.761431    0.619088
  C      1.449237   -0.452744    0.351628
  O      2.352804    0.347397    0.415318
  H      0.386646    2.084176    0.260943
  H      0.586055    1.523300   -1.386549
  H     -1.044820    1.662419   -0.704573
  H     -2.004632   -0.199950   -0.040739
  H     -2.302238   -2.223031    0.821011
  H     -0.050573   -2.757393    2.150372
  H     -0.756035   -3.935503    1.027549
  H      1.526089   -3.731499    0.390896
  H      0.649537   -2.768862   -0.817217

 Total Charge           Charge          ....    0
 Multiplicity           Mult            ....    1
 Number of Electrons    NEL             ....   68
 Basis Dimension        Dim             ....  333

ORBITAL ENERGIES
----------------

  NO   OCC          E(Eh)            E(eV)
   0   2.0000     -20.585045      -560.1475
   1   2.0000     -20.514876      -558.2382
   2   2.0000     -15.597664      -424.4340
   3   2.0000     -11.364142      -309.2340
   4   2.0000     -11.304962      -307.6236
   5   2.0000     -11.299816      -307.4836
   6   2.0000     -11.285300      -307.0886
   7   2.0000     -11.229367      -305.5666
   8   2.0000     -11.213254      -305.1282
   9   2.0000      -1.437382       -39.1131
  10   2.0000      -1.341523       -36.5047
  11   2.0000      -1.271296       -34.5937
  12   2.0000      -1.084103       -29.5000
  13   2.0000      -1.026478       -27.9319
  14   2.0000      -0.930209       -25.3123
  15   2.0000      -0.903311       -24.5803
  16   2.0000      -0.823156       -22.3992
  17   2.0000      -0.753090       -20.4926
  18   2.0000      -0.741569       -20.1791
  19   2.0000      -0.711580       -19.3631
  20   2.0000      -0.651386       -17.7251
  21   2.0000      -0.634740       -17.2721
  22   2.0000      -0.619589       -16.8599
  23   2.0000      -0.616082       -16.7644
  24   2.0000      -0.575374       -15.6567
  25   2.0000      -0.563575       -15.3357
  26   2.0000      -0.542533       -14.7631
  27   2.0000      -0.532955       -14.5024
  28   2.0000      -0.525738       -14.3060
  29   2.0000      -0.491865       -13.3843
  30   2.0000      -0.478241       -13.0136
  31   2.0000      -0.443601       -12.0710
  32   2.0000      -0.430736       -11.7209
  33   2.0000      -0.317848        -8.6491
  34   0.0000       0.111011         3.0208
  35   0.0000       0.114967         3.1284
  36   0.0000       0.153916         4.1883
  37   0.0000       0.157519         4.2863
  38   0.0000       0.176420         4.8006

MULLIKEN ATOMIC CHARGES
-----------------------
   0 C :   -0.373272
   1 C :   -0.126371
   2 C :   -0.023412
   3 N :   -0.319992
   4 C :   -0.134689
   5 C :   -0.079194
   6 O :   -0.223566
   7 C :    0.289111
   8 O :   -0.310780
   9 H :    0.146637
  10 H :    0.135699
  11 H :    0.110692
  12 H :    0.130043
  13 H :    0.242355
  14 H :    0.130604
  15 H :    0.128711
  16 H :    0.145281
  17 H :    0.132143
Sum of atomic charges:   -0.0000000

LOEWDIN ATOMIC CHARGES
----------------------
   0 C :   -0.267954
   1 C :   -0.217862
   2 C :   -0.207010
   3 N :    0.083238
   4 C :   -0.288078
   5 C :   -0.300730
   6 O :    0.247439
   7 C :   -0.449893
   8 O :    0.127295
   9 H :    0.132273
  10 H :    0.129489
  11 H :    0.121197
  12 H :    0.151433
  13 H :    0.187378
  14 H :    0.137475
  15 H :    0.139789
  16 H :    0.138872
  17 H :    0.135648

  Mayer bond orders larger than 0.1
B(  0-C ,  1-C ) :   0.9066 B(  0-C ,  9-H ) :   0.9230 B(  0-C , 10-H ) :   0.9327
B(  0-C , 11-H ) :   0.9412 B(  1-C ,  2-C ) :   1.5821 B(  1-C ,  7-C ) :   0.9996
B(  2-C ,  3-N ) :   1.1661 B(  2-C , 12-H ) :   0.9065 B(  3-N ,  4-C ) :   0.9063
B(  3-N , 13-H ) :   0.8787 B(  4-C ,  5-C ) :   0.9154 B(  4-C , 14-H ) :   0.9375
B(  4-C , 15-H ) :   0.9160 B(  5-C ,  6-O ) :   0.8923 B(  5-C , 16-H ) :   0.9311
B(  5-C , 17-H ) :   0.9332 B(  6-O ,  7-C ) :   1.1014 B(  7-C ,  8-O ) :   1.9839

MP2 TOTAL ENERGY:     -438.395891901 Eh
FINAL SINGLE POINT ENERGY      -438.395891901228

DIPOLE MOMENT
-------------
                                X             Y             Z
Electronic contribution:      4.42209      -0.22802       1.35130
Nuclear contribution   :     -6.51960      -1.18989      -1.36891
                        -----------------------------------------
Total Dipole Moment    :     -2.09751      -1.41790      -0.01762
                        -----------------------------------------
Magnitude (a.u.)       :      2.53186
Magnitude (Debye)      :      6.43547

                             ****ORCA TERMINATED NORMALLY****
TOTAL RUN TIME: 0 days 0 hours 16 minutes 24 seconds 153 msec
