                         Program Version 3.0.3 - RELEASE   -
|  1> ! RI-MP2 RIJK def2-TZVP def2-TZVP/C def2-TZVP/JK TIGHTSCF
|  2> % maxcore 2000
|  3> % mp2 density relaxed end
|  4> *xyz 0 1
|  5>  C        0.0071173288     1.5456546426     0.0222373119
|  6>  C        0.0395154309     0.0398647138     0.0327007044
|  7>  C       -0.8460289614    -0.7934647152     0.9118932034
|  8>  C        0.6766097882    -0.7783971074     1.1330635560
|  9>  C        1.4709458598    -1.8524322949     0.4684032889
| 10>  O        2.2436744677    -2.6289040449     0.9593385018
| 11>  C        1.1626298833    -1.7554314048    -1.0563231132
| 12>  O        1.4942373298    -2.5339987739    -1.9158369332
| 13>  N        0.4296060185    -0.6038170487    -1.2043480452
| 14>  H        0.9752871983     1.9529622713    -0.2837621267
| 15>  H       -0.7549860889     1.9159991200    -0.6730304648
| 16>  H       -0.2354925710     1.9317129426     1.0158787501
| 17>  H       -1.4255494613    -0.3014314441     1.6855865510
| 18>  H       -1.3022887221    -1.6846328281     0.4946642640
| 19>  H        1.0563755653    -0.3311771597     2.0425308779
| 20>  H       -0.0634864959    -0.4287207286    -2.0681772964
| 21> *
| 22>
| 23>                          ****END OF INPUT****

CARTESIAN COORDINATES (ANGSTROEM)
---------------------------------
  C      0.007117    1.545655    0.022237
  C      0.039515    0.039865    0.032701
  C     -0.846029   -0.793465    0.911893
  C      0.676610   -0.778397    1.133064
  C      1.470946   -1.852432    0.468403
  O      2.243674   -2.628904    0.959339
  C      1.162630   -1.755431   -1.056323
  O      1.494237   -2.533999   -1.915837
  N      0.429606   -0.603817   -1.204348
  H      0.975287    1.952962   -0.283762
  H     -0.754986    1.915999   -0.673030
  H     -0.235493    1.931713    1.015879
  H     -1.425549   -0.301431    1.685587
  H     -1.302289   -1.684633    0.494664
  H      1.056376   -0.331177    2.042531
  H     -0.063486   -0.428721   -2.068177

 Total Charge           Charge          ....    0
 Multiplicity           Mult            ....    1
 Number of Electrons    NEL             ....   66
 Basis Dimension        Dim             ....  321

ORBITAL ENERGIES
----------------

  NO   OCC          E(Eh)            E(eV)
   0   2.0000     -20.572401      -559.8035
   1   2.0000     -20.542652      -558.9940
   2   2.0000     -15.607609      -424.7046
   3   2.0000     -11.366703      -309.3037
   4   2.0000     -11.352733      -308.9236
   5   2.0000     -11.316178      -307.9289
   6   2.0000     -11.271036      -306.7005
   7   2.0000     -11.269471      -306.6579
   8   2.0000     -11.253698      -306.2287
   9   2.0000      -1.421514       -38.6814
  10   2.0000      -1.392817       -37.9005
  11   2.0000      -1.294472       -35.2244
  12   2.0000      -1.148633       -31.2559
  13   2.0000      -1.027068       -27.9479
  14   2.0000      -0.953816       -25.9546
  15   2.0000      -0.860293       -23.4098
  16   2.0000      -0.827305       -22.5121
  17   2.0000      -0.773326       -21.0433
  18   2.0000      -0.714808       -19.4509
  19   2.0000      -0.678940       -18.4749
  20   2.0000      -0.664601       -18.0847
  21   2.0000      -0.647176       -17.6106
  22   2.0000      -0.618449       -16.8288
  23   2.0000      -0.608228       -16.5507
  24   2.0000      -0.590145       -16.0587
  25   2.0000      -0.579335       -15.7645
  26   2.0000      -0.571687       -15.5564
  27   2.0000      -0.546290       -14.8653
  28   2.0000      -0.504501       -13.7282
  29   2.0000      -0.480439       -13.0734
  30   2.0000      -0.445308       -12.1174
  31   2.0000      -0.408111       -11.1053
  32   2.0000      -0.395520       -10.7626
  33   0.0000       0.076837         2.0908
  34   0.0000       0.117597         3.2000
  35   0.0000       0.146147         3.9769
  36   0.0000       0.163011         4.4358
  37   0.0000       0.168935         4.5969

MULLIKEN ATOMIC CHARGES
-----------------------
   0 C :   -0.408049
   1 C :    0.198745
   2 C :   -0.289322
   3 C :   -0.105153
   4 C :    0.140906
   5 O :   -0.239406
   6 C :    0.170096
   7 O :   -0.297028
   8 N :   -0.301362
   9 H :    0.149706
  10 H :    0.139137
  11 H :    0.135149
  12 H :    0.145811
  13 H :    0.157505
  14 H :    0.159018
  15 H :    0.244247
Sum of atomic charges:   -0.0000000

LOEWDIN ATOMIC CHARGES
----------------------
   0 C :   -0.259100
   1 C :   -0.288202
   2 C :   -0.155881
   3 C :   -0.135768
   4 C :   -0.275597
   5 O :    0.192657
   6 C :   -0.413747
   7 O :    0.125423
   8 N :    0.172203
   9 H :    0.134394
  10 H :    0.131362
  11 H :    0.135407
  12 H :    0.143119
  13 H :    0.143727
  14 H :    0.158836
  15 H :    0.191169

  Mayer bond orders larger than 0.1
B(  0-C ,  1-C ) :   0.9085 B(  0-C ,  9-H ) :   0.9355 B(  0-C , 10-H ) :   0.9301
B(  0-C , 11-H ) :   0.9298 B(  1-C ,  2-C ) :   0.9136 B(  1-C ,  3-C ) :   0.8244
B(  1-C ,  8-N ) :   0.8463 B(  2-C ,  3-C ) :   0.8231 B(  2-C , 12-H ) :   0.9237
B(  2-C , 13-H ) :   0.9079 B(  3-C ,  4-C ) :   0.9088 B(  3-C , 14-H ) :   0.9136
B(  4-C ,  5-O ) :   2.0001 B(  4-C ,  6-C ) :   0.8796 B(  6-C ,  7-O ) :   2.0095
B(  6-C ,  8-N ) :   1.1490 B(  8-N , 15-H ) :   0.8530

MP2 TOTAL ENERGY:     -437.201189440 Eh
FINAL SINGLE POINT ENERGY      -437.201189440381

DIPOLE MOMENT
-------------
                                X             Y             Z
Electronic contribution:      5.01869      -7.77456      -2.20291
Nuclear contribution   :     -6.55545       9.70629       2.67766
                        -----------------------------------------
Total Dipole Moment    :     -1.53676       1.93173       0.47475
                        -----------------------------------------
Magnitude (a.u.)       :      2.51369
Magnitude (Debye)      :      6.38928

                             ****ORCA TERMINATED NORMALLY****
TOTAL RUN TIME: 0 days 0 hours 16 minutes 15 seconds 699 msec
