                         Program Version 3.0.3 - RELEASE   -
|  1> ! RI-MP2 RIJK def2-TZVP def2-TZVP/C def2-TZVP/JK TIGHTSCF
|  2> % maxcore 2000
|  3> % mp2 density relaxed end
|  4> *xyz 0 1
|  5>  C       -0.3242582131     1.1981002662    -0.5495120749
|  6>  O       -0.4265035775    -0.2037017414    -0.5333673165
|  7>  C       -1.0983169383    -0.6875885978     0.6134809760
|  8>  C       -1.1676292359    -2.1882262471     0.5222331536
|  9>  C       -2.1501180716    -2.9640422511     1.3814610091
| 10>  C       -2.3450286355    -2.8603130409    -0.1154354447
| 11>  O       -3.3631092863    -2.0210354584    -0.5808134589
| 12>  C       -2.1449839999    -4.0668325267    -0.9937385965
| 13>  O       -3.3969874231    -4.7540527543    -1.0356117634
| 14>  H        0.2085262190     1.4785931148    -1.4617314736
| 15>  H       -1.3141794507     1.6817728888    -0.5540781529
| 16>  H        0.2367247288     1.5796861330     0.3196632591
| 17>  H       -0.5531631923    -0.3879768307     1.5258978265
| 18>  H       -2.1118790418    -0.2650692376     0.6758394221
| 19>  H       -0.2002186309    -2.6539623245     0.3524791908
| 20>  H       -1.8298200647    -3.9036526234     1.8183381979
| 21>  H       -2.8399005200    -2.3872471085     1.9882379059
| 22>  H       -4.1200075681    -2.6011460129    -0.7327657724
| 23>  H       -1.8482893221    -3.7357972936    -1.9990574394
| 24>  H       -1.3488158295    -4.7096574175    -0.5907049844
| 25>  H       -3.4082261264    -5.3183811765    -1.8133965235
| 26> *
| 27>
| 28>                          ****END OF INPUT****

CARTESIAN COORDINATES (ANGSTROEM)
---------------------------------
  C     -0.324258    1.198100   -0.549512
  O     -0.426504   -0.203702   -0.533367
  C     -1.098317   -0.687589    0.613481
  C     -1.167629   -2.188226    0.522233
  C     -2.150118   -2.964042    1.381461
  C     -2.345029   -2.860313   -0.115435
  O     -3.363109   -2.021035   -0.580813
  C     -2.144984   -4.066833   -0.993739
  O     -3.396987   -4.754053   -1.035612
  H      0.208526    1.478593   -1.461731
  H     -1.314179    1.681773   -0.554078
  H      0.236725    1.579686    0.319663
  H     -0.553163   -0.387977    1.525898
  H     -2.111879   -0.265069    0.675839
  H     -0.200219   -2.653962    0.352479
  H     -1.829820   -3.903653    1.818338
  H     -2.839901   -2.387247    1.988238
  H     -4.120008   -2.601146   -0.732766
  H     -1.848289   -3.735797   -1.999057
  H     -1.348816   -4.709657   -0.590705
  H     -3.408226   -5.318381   -1.813397

 Total Charge           Charge          ....    0
 Multiplicity           Mult            ....    1
 Number of Electrons    NEL             ....   72
 Basis Dimension        Dim             ....  351

ORBITAL ENERGIES
----------------

  NO   OCC          E(Eh)            E(eV)
   0   2.0000     -20.566718      -559.6489
   1   2.0000     -20.552291      -559.2563
   2   2.0000     -20.546525      -559.0994
   3   2.0000     -11.283006      -307.0262
   4   2.0000     -11.282319      -307.0075
   5   2.0000     -11.268781      -306.6391
   6   2.0000     -11.263275      -306.4893
   7   2.0000     -11.228219      -305.5354
   8   2.0000     -11.221294      -305.3469
   9   2.0000      -1.382360       -37.6159
  10   2.0000      -1.367674       -37.2163
  11   2.0000      -1.353669       -36.8352
  12   2.0000      -1.136971       -30.9386
  13   2.0000      -0.982925       -26.7467
  14   2.0000      -0.943585       -25.6762
  15   2.0000      -0.875672       -23.8282
  16   2.0000      -0.805117       -21.9084
  17   2.0000      -0.770750       -20.9732
  18   2.0000      -0.716714       -19.5028
  19   2.0000      -0.679193       -18.4818
  20   2.0000      -0.667901       -18.1745
  21   2.0000      -0.648090       -17.6354
  22   2.0000      -0.644000       -17.5241
  23   2.0000      -0.621506       -16.9120
  24   2.0000      -0.615244       -16.7416
  25   2.0000      -0.578152       -15.7323
  26   2.0000      -0.563048       -15.3213
  27   2.0000      -0.536342       -14.5946
  28   2.0000      -0.524842       -14.2817
  29   2.0000      -0.506262       -13.7761
  30   2.0000      -0.492998       -13.4152
  31   2.0000      -0.471930       -12.8419
  32   2.0000      -0.461092       -12.5469
  33   2.0000      -0.423086       -11.5128
  34   2.0000      -0.409034       -11.1304
  35   2.0000      -0.383968       -10.4483
  36   0.0000       0.128473         3.4959
  37   0.0000       0.155360         4.2276
  38   0.0000       0.161783         4.4023
  39   0.0000       0.178286         4.8514
  40   0.0000       0.192620         5.2414

MULLIKEN ATOMIC CHARGES
-----------------------
   0 C :   -0.218385
   1 O :   -0.303433
   2 C :   -0.089635
   3 C :   -0.093554
   4 C :   -0.306250
   5 C :    0.279455
   6 O :   -0.482322
   7 C :   -0.123688
   8 O :   -0.487961
   9 H :    0.136023
  10 H :    0.113788
  11 H :    0.106570
  12 H :    0.096347
  13 H :    0.116511
  14 H :    0.122523
  15 H :    0.130503
  16 H :    0.131116
  17 H :    0.331344
  18 H :    0.121140
  19 H :    0.097126
  20 H :    0.322780
Sum of atomic charges:   -0.0000000

LOEWDIN ATOMIC CHARGES
----------------------
   0 C :   -0.364870
   1 O :    0.135419
   2 C :   -0.306090
   3 C :   -0.189235
   4 C :   -0.186469
   5 C :   -0.360519
   6 O :    0.029353
   7 C :   -0.307073
   8 O :   -0.055807
   9 H :    0.112392
  10 H :    0.102102
  11 H :    0.099412
  12 H :    0.121447
  13 H :    0.130391
  14 H :    0.154078
  15 H :    0.134025
  16 H :    0.139916
  17 H :    0.186550
  18 H :    0.126588
  19 H :    0.124850
  20 H :    0.173538

  Mayer bond orders larger than 0.1
B(  0-C ,  1-O ) :   0.9261 B(  0-C ,  9-H ) :   0.9401 B(  0-C , 10-H ) :   0.9368
B(  0-C , 11-H ) :   0.9376 B(  1-O ,  2-C ) :   0.9544 B(  2-C ,  3-C ) :   0.9260
B(  2-C , 12-H ) :   0.9275 B(  2-C , 13-H ) :   0.9148 B(  3-C ,  4-C ) :   0.8861
B(  3-C ,  5-C ) :   0.8774 B(  3-C , 14-H ) :   0.9168 B(  4-C ,  5-C ) :   0.8647
B(  4-C , 15-H ) :   0.9146 B(  4-C , 16-H ) :   0.9207 B(  5-C ,  6-O ) :   0.9780
B(  5-C ,  7-C ) :   0.9253 B(  6-O , 17-H ) :   0.8244 B(  7-C ,  8-O ) :   0.9999
B(  7-C , 18-H ) :   0.9341 B(  7-C , 19-H ) :   0.9206 B(  8-O , 20-H ) :   0.8448

MP2 TOTAL ENERGY:     -460.597161807 Eh
FINAL SINGLE POINT ENERGY      -460.597161806663

DIPOLE MOMENT
-------------
                                X             Y             Z
Electronic contribution:     -2.77779      -3.68812      -1.73231
Nuclear contribution   :      2.91076       3.24800       1.62633
                        -----------------------------------------
Total Dipole Moment    :      0.13297      -0.44012      -0.10598
                        -----------------------------------------
Magnitude (a.u.)       :      0.47182
Magnitude (Debye)      :      1.19928

                             ****ORCA TERMINATED NORMALLY****
TOTAL RUN TIME: 0 days 0 hours 15 minutes 8 seconds 356 msec
