                         Program Version 3.0.3 - RELEASE   -
|  1> ! RI-MP2 RIJK def2-TZVP def2-TZVP/C def2-TZVP/JK TIGHTSCF
|  2> % maxcore 2000
|  3> % mp2 density relaxed end
|  4> *xyz 0 1
|  5>  C        0.0043034761     1.5092453552     0.0710711000
|  6>  C        0.0431477652    -0.0180759933    -0.0296930781
|  7>  N        0.7081287968    -0.4933484927    -1.2449670045
|  8>  C        2.1378212505    -0.7686720208    -1.1630988591
|  9>  C        2.4674613162    -2.1601773872    -0.6086170438
| 10>  C       -0.0536159187    -0.6270352740    -2.3779133447
| 11>  O       -1.2454176694    -0.3542510259    -2.3766974402
| 12>  C        0.6405854020    -1.1256607729    -3.6482691781
| 13>  C       -0.3592627860    -1.3888699872    -4.7736969839
| 14>  H        1.0112994051     1.9396469021     0.0501122573
| 15>  H       -0.5689132754     1.9231700332    -0.7619423768
| 16>  H       -0.4740830627     1.8178829540     1.0062738470
| 17>  H        0.5686126906    -0.4456370512     0.8308723554
| 18>  H       -0.9748713325    -0.4116735545    -0.0334691017
| 19>  H        2.5898808239    -0.6449440827    -2.1488026928
| 20>  H        2.5922113912    -0.0016050769    -0.5244207948
| 21>  H        2.0424046137    -2.2996138727     0.3899283001
| 22>  H        2.0664525562    -2.9459879451    -1.2557737056
| 23>  H        3.5514976360    -2.2953795935    -0.5355787878
| 24>  H        1.3748492583    -0.3734850454    -3.9663818010
| 25>  H        1.2177406345    -2.0314056565    -3.4289467910
| 26>  H       -1.0773770096    -2.1605761922    -4.4854969827
| 27>  H       -0.9302073751    -0.4871595418    -5.0036347695
| 28>  H        0.1616651731    -1.7179954579    -5.6776842336
| 29> *
| 30>
| 31>                          ****END OF INPUT****

CARTESIAN COORDINATES (ANGSTROEM)
---------------------------------
  C      0.004303    1.509245    0.071071
  C      0.043148   -0.018076   -0.029693
  N      0.708129   -0.493348   -1.244967
  C      2.137821   -0.768672   -1.163099
  C      2.467461   -2.160177   -0.608617
  C     -0.053616   -0.627035   -2.377913
  O     -1.245418   -0.354251   -2.376697
  C      0.640585   -1.125661   -3.648269
  C     -0.359263   -1.388870   -4.773697
  H      1.011299    1.939647    0.050112
  H     -0.568913    1.923170   -0.761942
  H     -0.474083    1.817883    1.006274
  H      0.568613   -0.445637    0.830872
  H     -0.974871   -0.411674   -0.033469
  H      2.589881   -0.644944   -2.148803
  H      2.592211   -0.001605   -0.524421
  H      2.042405   -2.299614    0.389928
  H      2.066453   -2.945988   -1.255774
  H      3.551498   -2.295380   -0.535579
  H      1.374849   -0.373485   -3.966382
  H      1.217741   -2.031406   -3.428947
  H     -1.077377   -2.160576   -4.485497
  H     -0.930207   -0.487160   -5.003635
  H      0.161665   -1.717995   -5.677684

 Total Charge           Charge          ....    0
 Multiplicity           Mult            ....    1
 Number of Electrons    NEL             ....   72
 Basis Dimension        Dim             ....  369

ORBITAL ENERGIES
----------------

  NO   OCC          E(Eh)            E(eV)
   0   2.0000     -20.503647      -557.9326
   1   2.0000     -15.575023      -423.8179
   2   2.0000     -11.337661      -308.5134
   3   2.0000     -11.272509      -306.7406
   4   2.0000     -11.254336      -306.2461
   5   2.0000     -11.237160      -305.7787
   6   2.0000     -11.227572      -305.5178
   7   2.0000     -11.211578      -305.0826
   8   2.0000     -11.210770      -305.0606
   9   2.0000      -1.371007       -37.3070
  10   2.0000      -1.238407       -33.6988
  11   2.0000      -1.050816       -28.5942
  12   2.0000      -1.034242       -28.1431
  13   2.0000      -0.995751       -27.0958
  14   2.0000      -0.892707       -24.2918
  15   2.0000      -0.873191       -23.7607
  16   2.0000      -0.831017       -22.6131
  17   2.0000      -0.719319       -19.5737
  18   2.0000      -0.690743       -18.7961
  19   2.0000      -0.665532       -18.1100
  20   2.0000      -0.632197       -17.2030
  21   2.0000      -0.607824       -16.5397
  22   2.0000      -0.601329       -16.3630
  23   2.0000      -0.599297       -16.3077
  24   2.0000      -0.572126       -15.5683
  25   2.0000      -0.551514       -15.0075
  26   2.0000      -0.530951       -14.4479
  27   2.0000      -0.525820       -14.3083
  28   2.0000      -0.516023       -14.0417
  29   2.0000      -0.511292       -13.9130
  30   2.0000      -0.507020       -13.7967
  31   2.0000      -0.496709       -13.5161
  32   2.0000      -0.489440       -13.3183
  33   2.0000      -0.479613       -13.0509
  34   2.0000      -0.410901       -11.1812
  35   2.0000      -0.364430        -9.9166
  36   0.0000       0.125626         3.4184
  37   0.0000       0.148416         4.0386
  38   0.0000       0.151397         4.1197
  39   0.0000       0.170849         4.6490
  40   0.0000       0.186175         5.0661

MULLIKEN ATOMIC CHARGES
-----------------------
   0 C :   -0.406824
   1 C :   -0.128708
   2 N :   -0.082704
   3 C :   -0.195298
   4 C :   -0.363637
   5 C :    0.231191
   6 O :   -0.395263
   7 C :   -0.259486
   8 C :   -0.362325
   9 H :    0.114754
  10 H :    0.156181
  11 H :    0.128842
  12 H :    0.116162
  13 H :    0.144379
  14 H :    0.135338
  15 H :    0.130216
  16 H :    0.128669
  17 H :    0.127731
  18 H :    0.130184
  19 H :    0.132212
  20 H :    0.125065
  21 H :    0.128664
  22 H :    0.138578
  23 H :    0.126082
Sum of atomic charges:   -0.0000000

LOEWDIN ATOMIC CHARGES
----------------------
   0 C :   -0.315950
   1 C :   -0.278902
   2 N :    0.186138
   3 C :   -0.289368
   4 C :   -0.315316
   5 C :   -0.428919
   6 O :    0.075812
   7 C :   -0.268241
   8 C :   -0.310307
   9 H :    0.116849
  10 H :    0.129284
  11 H :    0.123056
  12 H :    0.131203
  13 H :    0.143916
  14 H :    0.137581
  15 H :    0.136325
  16 H :    0.121440
  17 H :    0.120842
  18 H :    0.123760
  19 H :    0.145917
  20 H :    0.142215
  21 H :    0.126108
  22 H :    0.128061
  23 H :    0.118496

  Mayer bond orders larger than 0.1
B(  0-C ,  1-C ) :   0.9278 B(  0-C ,  9-H ) :   0.9332 B(  0-C , 10-H ) :   0.9403
B(  0-C , 11-H ) :   0.9378 B(  1-C ,  2-N ) :   0.8375 B(  1-C , 12-H ) :   0.9252
B(  1-C , 13-H ) :   0.9164 B(  2-N ,  3-C ) :   0.8847 B(  2-N ,  5-C ) :   1.2072
B(  3-C ,  4-C ) :   0.9331 B(  3-C , 14-H ) :   0.9239 B(  3-C , 15-H ) :   0.9291
B(  4-C , 16-H ) :   0.9344 B(  4-C , 17-H ) :   0.9336 B(  4-C , 18-H ) :   0.9353
B(  5-C ,  6-O ) :   1.8434 B(  5-C ,  7-C ) :   0.9131 B(  7-C ,  8-C ) :   0.9496
B(  7-C , 19-H ) :   0.9137 B(  7-C , 20-H ) :   0.9145 B(  8-C , 21-H ) :   0.9366
B(  8-C , 22-H ) :   0.9364 B(  8-C , 23-H ) :   0.9393

MP2 TOTAL ENERGY:     -404.895607572 Eh
FINAL SINGLE POINT ENERGY      -404.895607571673

DIPOLE MOMENT
-------------
                                X             Y             Z
Electronic contribution:     -4.22265       0.83554      -0.86203
Nuclear contribution   :      5.57521      -1.03057       1.26663
                        -----------------------------------------
Total Dipole Moment    :      1.35255      -0.19503       0.40460
                        -----------------------------------------
Magnitude (a.u.)       :      1.42518
Magnitude (Debye)      :      3.62252

                             ****ORCA TERMINATED NORMALLY****
TOTAL RUN TIME: 0 days 0 hours 21 minutes 12 seconds 574 msec
