                         Program Version 3.0.3 - RELEASE   -
|  1> ! RI-MP2 RIJK def2-TZVP def2-TZVP/C def2-TZVP/JK TIGHTSCF
|  2> % maxcore 2000
|  3> % mp2 density relaxed end
|  4> *xyz 0 1
|  5>  C        0.0495270468     1.2105625801     0.0523595989
|  6>  C       -0.0865865993    -0.2983301104     0.0093378153
|  7>  O        0.7863122479    -1.0452283960    -0.3715178949
|  8>  N       -1.2925785663    -0.7736745780     0.5311035314
|  9>  C       -2.6234791036    -0.5151755056     0.0161469863
| 10>  C       -2.0444614180    -1.9025731874     0.0468569221
| 11>  C       -1.6866331424    -2.6042665020    -1.2582005740
| 12>  C       -0.7984696823    -3.7494712048    -1.0587034489
| 13>  N       -0.1405239910    -4.6853118942    -0.9012456998
| 14>  H        1.0729315288     1.4825965698    -0.2040561615
| 15>  H       -0.6359397104     1.6777727082    -0.6631457332
| 16>  H       -0.2056196348     1.5923970867     1.0446710726
| 17>  H       -3.3794552586    -0.2200398688     0.7390084864
| 18>  H       -2.7063534659    -0.0322512392    -0.9562687217
| 19>  H       -2.3882536857    -2.5763823356     0.8287990431
| 20>  H       -2.6091230413    -2.9701129107    -1.7252876517
| 21>  H       -1.2171804239    -1.9078365521    -1.9580231105
| 22> *
| 23>
| 24>                          ****END OF INPUT****

CARTESIAN COORDINATES (ANGSTROEM)
---------------------------------
  C      0.049527    1.210563    0.052360
  C     -0.086587   -0.298330    0.009338
  O      0.786312   -1.045228   -0.371518
  N     -1.292579   -0.773675    0.531104
  C     -2.623479   -0.515176    0.016147
  C     -2.044461   -1.902573    0.046857
  C     -1.686633   -2.604267   -1.258201
  C     -0.798470   -3.749471   -1.058703
  N     -0.140524   -4.685312   -0.901246
  H      1.072932    1.482597   -0.204056
  H     -0.635940    1.677773   -0.663146
  H     -0.205620    1.592397    1.044671
  H     -3.379455   -0.220040    0.739008
  H     -2.706353   -0.032251   -0.956269
  H     -2.388254   -2.576382    0.828799
  H     -2.609123   -2.970113   -1.725288
  H     -1.217180   -1.907837   -1.958023

 Total Charge           Charge          ....    0
 Multiplicity           Mult            ....    1
 Number of Electrons    NEL             ....   66
 Basis Dimension        Dim             ....  327

ORBITAL ENERGIES
----------------

  NO   OCC          E(Eh)            E(eV)
   0   2.0000     -20.544422      -559.0421
   1   2.0000     -15.601448      -424.5370
   2   2.0000     -15.563639      -423.5081
   3   2.0000     -11.368136      -309.3427
   4   2.0000     -11.309419      -307.7449
   5   2.0000     -11.301308      -307.5242
   6   2.0000     -11.294707      -307.3446
   7   2.0000     -11.268851      -306.6410
   8   2.0000     -11.247684      -306.0650
   9   2.0000      -1.408372       -38.3237
  10   2.0000      -1.313579       -35.7443
  11   2.0000      -1.212934       -33.0056
  12   2.0000      -1.077571       -29.3222
  13   2.0000      -1.031561       -28.0702
  14   2.0000      -0.958154       -26.0727
  15   2.0000      -0.863856       -23.5067
  16   2.0000      -0.766868       -20.8675
  17   2.0000      -0.736341       -20.0368
  18   2.0000      -0.694197       -18.8901
  19   2.0000      -0.677924       -18.4472
  20   2.0000      -0.649033       -17.6611
  21   2.0000      -0.625918       -17.0321
  22   2.0000      -0.612121       -16.6567
  23   2.0000      -0.582869       -15.8607
  24   2.0000      -0.568435       -15.4679
  25   2.0000      -0.553405       -15.0589
  26   2.0000      -0.534777       -14.5520
  27   2.0000      -0.524765       -14.2796
  28   2.0000      -0.505825       -13.7642
  29   2.0000      -0.458726       -12.4826
  30   2.0000      -0.453764       -12.3476
  31   2.0000      -0.436238       -11.8706
  32   2.0000      -0.411408       -11.1950
  33   0.0000       0.115483         3.1425
  34   0.0000       0.133684         3.6377
  35   0.0000       0.144866         3.9420
  36   0.0000       0.155727         4.2375
  37   0.0000       0.163402         4.4464

MULLIKEN ATOMIC CHARGES
-----------------------
   0 C :   -0.396535
   1 C :    0.234590
   2 O :   -0.306678
   3 N :   -0.180470
   4 C :   -0.188142
   5 C :   -0.017432
   6 C :   -0.133809
   7 C :   -0.177085
   8 N :   -0.056361
   9 H :    0.162343
  10 H :    0.135502
  11 H :    0.155261
  12 H :    0.144335
  13 H :    0.142414
  14 H :    0.150553
  15 H :    0.166793
  16 H :    0.164722
Sum of atomic charges:   -0.0000000

LOEWDIN ATOMIC CHARGES
----------------------
   0 C :   -0.271552
   1 C :   -0.446581
   2 O :    0.137713
   3 N :    0.189140
   4 C :   -0.211119
   5 C :   -0.216655
   6 C :   -0.226079
   7 C :   -0.187823
   8 N :    0.064985
   9 H :    0.137899
  10 H :    0.134439
  11 H :    0.139103
  12 H :    0.130188
  13 H :    0.131206
  14 H :    0.154541
  15 H :    0.170105
  16 H :    0.170487

  Mayer bond orders larger than 0.1
B(  0-C ,  1-C ) :   0.9226 B(  0-C ,  9-H ) :   0.9370 B(  0-C , 10-H ) :   0.9102
B(  0-C , 11-H ) :   0.9198 B(  1-C ,  2-O ) :   1.9629 B(  1-C ,  3-N ) :   1.0139
B(  3-N ,  4-C ) :   0.8654 B(  3-N ,  5-C ) :   0.8992 B(  4-C ,  5-C ) :   0.9039
B(  4-C , 12-H ) :   0.9215 B(  4-C , 13-H ) :   0.9195 B(  5-C ,  6-C ) :   0.9141
B(  5-C , 14-H ) :   0.9126 B(  6-C ,  7-C ) :   0.9487 B(  6-C , 15-H ) :   0.9064
B(  6-C , 16-H ) :   0.9040 B(  7-C ,  8-N ) :   2.8663

MP2 TOTAL ENERGY:     -417.308813950 Eh
FINAL SINGLE POINT ENERGY      -417.308813950351

DIPOLE MOMENT
-------------
                                X             Y             Z
Electronic contribution:      2.97450      -6.90661       0.07396
Nuclear contribution   :     -4.88739       8.74378      -0.27343
                        -----------------------------------------
Total Dipole Moment    :     -1.91289       1.83717      -0.19948
                        -----------------------------------------
Magnitude (a.u.)       :      2.65972
Magnitude (Debye)      :      6.76048

                             ****ORCA TERMINATED NORMALLY****
TOTAL RUN TIME: 0 days 0 hours 18 minutes 28 seconds 178 msec
