                         Program Version 3.0.3 - RELEASE   -
|  1> ! RI-MP2 RIJK def2-TZVP def2-TZVP/C def2-TZVP/JK TIGHTSCF
|  2> % maxcore 2000
|  3> % mp2 density relaxed end
|  4> *xyz 0 1
|  5>  C        0.2327528208     0.6628278917    -0.5065194369
|  6>  C       -0.0877487184    -0.5675272716     0.3031876336
|  7>  O        0.7757929545    -1.3212727145     0.7064439114
|  8>  C       -1.5777254486    -0.8721314081     0.5255598469
|  9>  O       -2.0156197772    -1.6317034368    -0.5940259372
| 10>  C       -2.3516682024    -2.9929413706    -0.3343615051
| 11>  C       -1.1663302302    -3.9138951992    -0.0415708795
| 12>  O       -0.6038511647    -3.7220333015     1.2389592742
| 13>  H        1.3031249305     0.7294123290    -0.7021451577
| 14>  H       -0.3261825895     0.6271969953    -1.4485931359
| 15>  H       -0.1062807698     1.5583109421     0.0278719845
| 16>  H       -1.7003144405    -1.4189684015     1.4645044553
| 17>  H       -2.1614517784     0.0568161756     0.5594184196
| 18>  H       -3.0650110349    -3.0515220970     0.5008576135
| 19>  H       -2.8567418189    -3.3325446840    -1.2457174985
| 20>  H       -1.5367731843    -4.9468797263    -0.0825395204
| 21>  H       -0.4181887574    -3.8022052786    -0.8404509930
| 22>  H        0.0260654194    -2.9852401040     1.1832602653
| 23> *
| 24>
| 25>                          ****END OF INPUT****

CARTESIAN COORDINATES (ANGSTROEM)
---------------------------------
  C      0.232753    0.662828   -0.506519
  C     -0.087749   -0.567527    0.303188
  O      0.775793   -1.321273    0.706444
  C     -1.577725   -0.872131    0.525560
  O     -2.015620   -1.631703   -0.594026
  C     -2.351668   -2.992941   -0.334362
  C     -1.166330   -3.913895   -0.041571
  O     -0.603851   -3.722033    1.238959
  H      1.303125    0.729412   -0.702145
  H     -0.326183    0.627197   -1.448593
  H     -0.106281    1.558311    0.027872
  H     -1.700314   -1.418968    1.464504
  H     -2.161452    0.056816    0.559418
  H     -3.065011   -3.051522    0.500858
  H     -2.856742   -3.332545   -1.245717
  H     -1.536773   -4.946880   -0.082540
  H     -0.418189   -3.802205   -0.840451
  H      0.026065   -2.985240    1.183260

 Total Charge           Charge          ....    0
 Multiplicity           Mult            ....    1
 Number of Electrons    NEL             ....   64
 Basis Dimension        Dim             ....  308

ORBITAL ENERGIES
----------------

  NO   OCC          E(Eh)            E(eV)
   0   2.0000     -20.572782      -559.8139
   1   2.0000     -20.567265      -559.6637
   2   2.0000     -20.534825      -558.7810
   3   2.0000     -11.349540      -308.8367
   4   2.0000     -11.298079      -307.4364
   5   2.0000     -11.280001      -306.9444
   6   2.0000     -11.269856      -306.6684
   7   2.0000     -11.245638      -306.0094
   8   2.0000      -1.414389       -38.4875
   9   2.0000      -1.383743       -37.6536
  10   2.0000      -1.342329       -36.5266
  11   2.0000      -1.051428       -28.6108
  12   2.0000      -1.006582       -27.3905
  13   2.0000      -0.945077       -25.7169
  14   2.0000      -0.832558       -22.6550
  15   2.0000      -0.767488       -20.8844
  16   2.0000      -0.715582       -19.4720
  17   2.0000      -0.689969       -18.7750
  18   2.0000      -0.666700       -18.1418
  19   2.0000      -0.654095       -17.7988
  20   2.0000      -0.634734       -17.2720
  21   2.0000      -0.603781       -16.4297
  22   2.0000      -0.597773       -16.2662
  23   2.0000      -0.589855       -16.0508
  24   2.0000      -0.564419       -15.3586
  25   2.0000      -0.539837       -14.6897
  26   2.0000      -0.523666       -14.2497
  27   2.0000      -0.512980       -13.9589
  28   2.0000      -0.482779       -13.1371
  29   2.0000      -0.475188       -12.9305
  30   2.0000      -0.428904       -11.6711
  31   2.0000      -0.405590       -11.0367
  32   0.0000       0.121312         3.3011
  33   0.0000       0.131583         3.5805
  34   0.0000       0.162042         4.4094
  35   0.0000       0.175975         4.7885
  36   0.0000       0.191772         5.2184

MULLIKEN ATOMIC CHARGES
-----------------------
   0 C :   -0.426643
   1 C :    0.258510
   2 O :   -0.336373
   3 C :   -0.091031
   4 O :   -0.326830
   5 C :   -0.055784
   6 C :   -0.049211
   7 O :   -0.495381
   8 H :    0.153794
   9 H :    0.164523
  10 H :    0.150885
  11 H :    0.151569
  12 H :    0.115383
  13 H :    0.104808
  14 H :    0.120545
  15 H :    0.111445
  16 H :    0.108360
  17 H :    0.341432
Sum of atomic charges:    0.0000000

LOEWDIN ATOMIC CHARGES
----------------------
   0 C :   -0.275776
   1 C :   -0.335720
   2 O :    0.140341
   3 C :   -0.287540
   4 O :    0.148802
   5 C :   -0.328741
   6 C :   -0.369095
   7 O :   -0.050796
   8 H :    0.134160
   9 H :    0.146093
  10 H :    0.140851
  11 H :    0.136837
  12 H :    0.129226
  13 H :    0.124329
  14 H :    0.133343
  15 H :    0.131156
  16 H :    0.120806
  17 H :    0.161726

  Mayer bond orders larger than 0.1
B(  0-C ,  1-C ) :   0.9452 B(  0-C ,  8-H ) :   0.9354 B(  0-C ,  9-H ) :   0.9131
B(  0-C , 10-H ) :   0.9107 B(  1-C ,  2-O ) :   1.8483 B(  1-C ,  3-C ) :   0.8933
B(  3-C ,  4-O ) :   0.8700 B(  3-C , 11-H ) :   0.9165 B(  3-C , 12-H ) :   0.9074
B(  4-O ,  5-C ) :   0.9123 B(  5-C ,  6-C ) :   0.9089 B(  5-C , 13-H ) :   0.9425
B(  5-C , 14-H ) :   0.9234 B(  6-C ,  7-O ) :   0.9659 B(  6-C , 15-H ) :   0.9268
B(  6-C , 16-H ) :   0.9340 B(  7-O , 17-H ) :   0.7984

MP2 TOTAL ENERGY:     -421.410932583 Eh
FINAL SINGLE POINT ENERGY      -421.410932582891

DIPOLE MOMENT
-------------
                                X             Y             Z
Electronic contribution:      1.73432      -0.63321       1.67513
Nuclear contribution   :     -2.22831       1.57760      -2.15425
                        -----------------------------------------
Total Dipole Moment    :     -0.49400       0.94439      -0.47912
                        -----------------------------------------
Magnitude (a.u.)       :      1.16853
Magnitude (Debye)      :      2.97017

                             ****ORCA TERMINATED NORMALLY****
TOTAL RUN TIME: 0 days 0 hours 12 minutes 18 seconds 834 msec
