                         Program Version 3.0.3 - RELEASE   -
|  1> ! RI-MP2 RIJK def2-TZVP def2-TZVP/C def2-TZVP/JK TIGHTSCF
|  2> % maxcore 2000
|  3> % mp2 density relaxed end
|  4> *xyz 0 1
|  5>  O       -0.0270751601     1.3827346542    -0.1734799545
|  6>  C        0.0208096788    -0.0099395820     0.1065481629
|  7>  C       -1.3912774497    -0.5501921089     0.0432782263
|  8>  C       -2.1054331870    -0.6088536383    -1.3356268106
|  9>  C       -2.6834646830    -1.9938269055    -0.9350152225
| 10>  C       -2.7364738565    -3.0812391971    -1.9860102656
| 11>  O       -3.1678854496    -4.2809530317    -1.3576622984
| 12>  C       -1.6006162042    -2.0835999278     0.1759383628
| 13>  H        0.8713646146     1.7248944106    -0.1562717164
| 14>  H        0.6506350907    -0.5416604481    -0.6269272963
| 15>  H        0.4487730109    -0.2035395606     1.1047081909
| 16>  H       -2.0083450661    -0.0081313024     0.7675455078
| 17>  H       -2.8085065146     0.1891290438    -1.5818749082
| 18>  H       -1.3795458413    -0.6956483468    -2.1527528443
| 19>  H       -3.6775867998    -1.8872282999    -0.4883346292
| 20>  H       -3.4241733115    -2.7830619374    -2.7954036149
| 21>  H       -1.7370201272    -3.2054669124    -2.4366233193
| 22>  H       -3.1809577188    -4.9795444393    -2.0182397463
| 23>  H       -0.7235766236    -2.6421390012    -0.1718783212
| 24>  H       -1.8978306119    -2.4788692191     1.1491559469
| 25> *
| 26>
| 27>                          ****END OF INPUT****

CARTESIAN COORDINATES (ANGSTROEM)
---------------------------------
  O     -0.027075    1.382735   -0.173480
  C      0.020810   -0.009940    0.106548
  C     -1.391277   -0.550192    0.043278
  C     -2.105433   -0.608854   -1.335627
  C     -2.683465   -1.993827   -0.935015
  C     -2.736474   -3.081239   -1.986010
  O     -3.167885   -4.280953   -1.357662
  C     -1.600616   -2.083600    0.175938
  H      0.871365    1.724894   -0.156272
  H      0.650635   -0.541660   -0.626927
  H      0.448773   -0.203540    1.104708
  H     -2.008345   -0.008131    0.767546
  H     -2.808507    0.189129   -1.581875
  H     -1.379546   -0.695648   -2.152753
  H     -3.677587   -1.887228   -0.488335
  H     -3.424173   -2.783062   -2.795404
  H     -1.737020   -3.205467   -2.436623
  H     -3.180958   -4.979544   -2.018240
  H     -0.723577   -2.642139   -0.171878
  H     -1.897831   -2.478869    1.149156

 Total Charge           Charge          ....    0
 Multiplicity           Mult            ....    1
 Number of Electrons    NEL             ....   64
 Basis Dimension        Dim             ....  320

ORBITAL ENERGIES
----------------

  NO   OCC          E(Eh)            E(eV)
   0   2.0000     -20.552490      -559.2617
   1   2.0000     -20.552490      -559.2617
   2   2.0000     -11.270775      -306.6934
   3   2.0000     -11.270775      -306.6934
   4   2.0000     -11.220139      -305.3155
   5   2.0000     -11.220089      -305.3141
   6   2.0000     -11.214254      -305.1554
   7   2.0000     -11.214201      -305.1539
   8   2.0000      -1.356058       -36.9002
   9   2.0000      -1.355796       -36.8931
  10   2.0000      -1.131988       -30.8030
  11   2.0000      -0.991081       -26.9687
  12   2.0000      -0.916132       -24.9292
  13   2.0000      -0.894233       -24.3333
  14   2.0000      -0.792987       -21.5783
  15   2.0000      -0.747811       -20.3490
  16   2.0000      -0.692422       -18.8418
  17   2.0000      -0.687838       -18.7170
  18   2.0000      -0.658812       -17.9272
  19   2.0000      -0.631639       -17.1878
  20   2.0000      -0.613803       -16.7024
  21   2.0000      -0.597333       -16.2543
  22   2.0000      -0.559968       -15.2375
  23   2.0000      -0.534437       -14.5428
  24   2.0000      -0.524086       -14.2611
  25   2.0000      -0.493811       -13.4373
  26   2.0000      -0.477172       -12.9845
  27   2.0000      -0.452572       -12.3151
  28   2.0000      -0.448229       -12.1969
  29   2.0000      -0.438962       -11.9448
  30   2.0000      -0.432539       -11.7700
  31   2.0000      -0.414292       -11.2735
  32   0.0000       0.133460         3.6316
  33   0.0000       0.138325         3.7640
  34   0.0000       0.155103         4.2206
  35   0.0000       0.164284         4.4704
  36   0.0000       0.169473         4.6116

MULLIKEN ATOMIC CHARGES
-----------------------
   0 O :   -0.467555
   1 C :   -0.107026
   2 C :    0.046654
   3 C :   -0.294909
   4 C :    0.046655
   5 C :   -0.107027
   6 O :   -0.467556
   7 C :   -0.294910
   8 H :    0.313922
   9 H :    0.085870
  10 H :    0.099315
  11 H :    0.096642
  12 H :    0.123964
  13 H :    0.103125
  14 H :    0.096642
  15 H :    0.099314
  16 H :    0.085871
  17 H :    0.313922
  18 H :    0.103124
  19 H :    0.123964
Sum of atomic charges:    0.0000000

LOEWDIN ATOMIC CHARGES
----------------------
   0 O :   -0.049327
   1 C :   -0.340845
   2 C :   -0.236960
   3 C :   -0.192737
   4 C :   -0.236960
   5 C :   -0.340845
   6 O :   -0.049327
   7 C :   -0.192738
   8 H :    0.170998
   9 H :    0.114511
  10 H :    0.117458
  11 H :    0.152919
  12 H :    0.126502
  13 H :    0.137480
  14 H :    0.152919
  15 H :    0.117458
  16 H :    0.114511
  17 H :    0.170998
  18 H :    0.137480
  19 H :    0.126502

  Mayer bond orders larger than 0.1
B(  0-O ,  1-C ) :   1.0292 B(  0-O ,  2-C ) :  -0.1029 B(  0-O ,  8-H ) :   0.8494
B(  1-C ,  2-C ) :   0.8932 B(  1-C ,  9-H ) :   0.9204 B(  1-C , 10-H ) :   0.9383
B(  2-C ,  3-C ) :   0.9382 B(  2-C ,  7-C ) :   0.9285 B(  2-C , 11-H ) :   0.9204
B(  3-C ,  4-C ) :   0.9285 B(  3-C , 12-H ) :   0.9307 B(  3-C , 13-H ) :   0.9067
B(  4-C ,  5-C ) :   0.8932 B(  4-C ,  6-O ) :  -0.1029 B(  4-C ,  7-C ) :   0.9382
B(  4-C , 14-H ) :   0.9204 B(  5-C ,  6-O ) :   1.0292 B(  5-C , 15-H ) :   0.9383
B(  5-C , 16-H ) :   0.9204 B(  6-O , 17-H ) :   0.8494 B(  7-C , 18-H ) :   0.9067
B(  7-C , 19-H ) :   0.9307

MP2 TOTAL ENERGY:     -385.492083290 Eh
FINAL SINGLE POINT ENERGY      -385.492083290490

DIPOLE MOMENT
-------------
                                X             Y             Z
Electronic contribution:     -0.70135       0.28236       0.50968
Nuclear contribution   :      1.31853      -0.53082      -0.95817
                        -----------------------------------------
Total Dipole Moment    :      0.61718      -0.24846      -0.44849
                        -----------------------------------------
Magnitude (a.u.)       :      0.80236
Magnitude (Debye)      :      2.03944

                             ****ORCA TERMINATED NORMALLY****
TOTAL RUN TIME: 0 days 0 hours 11 minutes 47 seconds 362 msec
