                         Program Version 3.0.3 - RELEASE   -
|  1> ! RI-MP2 RIJK def2-TZVP def2-TZVP/C def2-TZVP/JK TIGHTSCF
|  2> % maxcore 2000
|  3> % mp2 density relaxed end
|  4> *xyz 0 1
|  5>  C       -0.0608418260     1.3784328209    -0.6617992407
|  6>  C        0.0272649070    -0.0029538849    -0.0401641744
|  7>  C        1.3067735885    -0.7573959556    -0.1481487509
|  8>  N        0.8897313856    -0.1744447704     1.1414510003
|  9>  C       -1.2809516325    -0.7564107454     0.0035544136
| 10>  C       -1.5725620223    -1.7263087798     1.1490678502
| 11>  C       -2.2981144615    -0.4286902725     1.0901558242
| 12>  C       -1.8381393262    -1.1676682369    -1.3137059430
| 13>  O       -2.9333445404    -1.6522322340    -1.4793320622
| 14>  H        0.9242613998     1.8534871134    -0.7135085676
| 15>  H       -0.4623198016     1.3359116691    -1.6802173455
| 16>  H       -0.7242597320     2.0238865937    -0.0754571013
| 17>  H        1.2941675557    -1.8433056066    -0.1775846962
| 18>  H        2.1318899980    -0.2967926752    -0.6850048161
| 19>  H        1.4061283723     0.6842595643     1.3153156329
| 20>  H       -2.1175930144    -2.6228965723     0.8775925199
| 21>  H       -0.7784095942    -1.8338662436     1.8774995720
| 22>  H       -2.0109535117     0.3451994524     1.7933201394
| 23>  H       -3.3380285989    -0.4369489144     0.7844548596
| 24>  H       -1.1499117453    -1.0169286422    -2.1764782244
| 25> *
| 26>
| 27>                          ****END OF INPUT****

CARTESIAN COORDINATES (ANGSTROEM)
---------------------------------
  C     -0.060842    1.378433   -0.661799
  C      0.027265   -0.002954   -0.040164
  C      1.306774   -0.757396   -0.148149
  N      0.889731   -0.174445    1.141451
  C     -1.280952   -0.756411    0.003554
  C     -1.572562   -1.726309    1.149068
  C     -2.298114   -0.428690    1.090156
  C     -1.838139   -1.167668   -1.313706
  O     -2.933345   -1.652232   -1.479332
  H      0.924261    1.853487   -0.713509
  H     -0.462320    1.335912   -1.680217
  H     -0.724260    2.023887   -0.075457
  H      1.294168   -1.843306   -0.177585
  H      2.131890   -0.296793   -0.685005
  H      1.406128    0.684260    1.315316
  H     -2.117593   -2.622897    0.877593
  H     -0.778410   -1.833866    1.877500
  H     -2.010954    0.345199    1.793320
  H     -3.338029   -0.436949    0.784455
  H     -1.149912   -1.016929   -2.176478

 Total Charge           Charge          ....    0
 Multiplicity           Mult            ....    1
 Number of Electrons    NEL             ....   68
 Basis Dimension        Dim             ....  345

ORBITAL ENERGIES
----------------

  NO   OCC          E(Eh)            E(eV)
   0   2.0000     -20.547244      -559.1189
   1   2.0000     -15.567989      -423.6265
   2   2.0000     -11.329027      -308.2785
   3   2.0000     -11.282445      -307.0109
   4   2.0000     -11.264100      -306.5117
   5   2.0000     -11.247901      -306.0710
   6   2.0000     -11.237414      -305.7856
   7   2.0000     -11.235505      -305.7336
   8   2.0000     -11.234380      -305.7030
   9   2.0000      -1.387986       -37.7690
  10   2.0000      -1.278693       -34.7950
  11   2.0000      -1.152682       -31.3661
  12   2.0000      -1.011441       -27.5227
  13   2.0000      -0.930306       -25.3149
  14   2.0000      -0.888434       -24.1755
  15   2.0000      -0.828198       -22.5364
  16   2.0000      -0.822856       -22.3910
  17   2.0000      -0.737713       -20.0742
  18   2.0000      -0.698587       -19.0095
  19   2.0000      -0.678218       -18.4553
  20   2.0000      -0.655010       -17.8237
  21   2.0000      -0.632400       -17.2085
  22   2.0000      -0.597851       -16.2683
  23   2.0000      -0.585039       -15.9197
  24   2.0000      -0.566160       -15.4060
  25   2.0000      -0.547347       -14.8941
  26   2.0000      -0.529532       -14.4093
  27   2.0000      -0.512259       -13.9393
  28   2.0000      -0.490052       -13.3350
  29   2.0000      -0.488194       -13.2844
  30   2.0000      -0.452546       -12.3144
  31   2.0000      -0.415776       -11.3138
  32   2.0000      -0.407392       -11.0857
  33   2.0000      -0.386309       -10.5120
  34   0.0000       0.118201         3.2164
  35   0.0000       0.134791         3.6679
  36   0.0000       0.158044         4.3006
  37   0.0000       0.163533         4.4500
  38   0.0000       0.178540         4.8583

MULLIKEN ATOMIC CHARGES
-----------------------
   0 C :   -0.402477
   1 C :    0.057517
   2 C :   -0.210430
   3 N :   -0.380733
   4 C :    0.167448
   5 C :   -0.277146
   6 C :   -0.291342
   7 C :    0.041880
   8 O :   -0.287982
   9 H :    0.127184
  10 H :    0.139766
  11 H :    0.146118
  12 H :    0.129186
  13 H :    0.132259
  14 H :    0.218059
  15 H :    0.146650
  16 H :    0.168775
  17 H :    0.138676
  18 H :    0.151344
  19 H :    0.085247
Sum of atomic charges:   -0.0000000

LOEWDIN ATOMIC CHARGES
----------------------
   0 C :   -0.265121
   1 C :   -0.301839
   2 C :   -0.236246
   3 N :    0.011342
   4 C :   -0.215639
   5 C :   -0.175233
   6 C :   -0.181133
   7 C :   -0.257803
   8 O :    0.125757
   9 H :    0.126963
  10 H :    0.131652
  11 H :    0.131557
  12 H :    0.129775
  13 H :    0.123327
  14 H :    0.166467
  15 H :    0.140616
  16 H :    0.144794
  17 H :    0.140022
  18 H :    0.142061
  19 H :    0.118680

  Mayer bond orders larger than 0.1
B(  0-C ,  1-C ) :   0.9512 B(  0-C ,  9-H ) :   0.9249 B(  0-C , 10-H ) :   0.9279
B(  0-C , 11-H ) :   0.9372 B(  1-C ,  2-C ) :   0.9323 B(  1-C ,  3-N ) :   0.9356
B(  1-C ,  4-C ) :   0.8436 B(  2-C ,  3-N ) :   0.9370 B(  2-C , 12-H ) :   0.9152
B(  2-C , 13-H ) :   0.9199 B(  3-N , 14-H ) :   0.8703 B(  4-C ,  5-C ) :   0.8169
B(  4-C ,  6-C ) :   0.8260 B(  4-C ,  7-C ) :   0.8811 B(  5-C ,  6-C ) :   0.9774
B(  5-C , 15-H ) :   0.9180 B(  5-C , 16-H ) :   0.9132 B(  6-C , 17-H ) :   0.9253
B(  6-C , 18-H ) :   0.9153 B(  7-C ,  8-O ) :   1.9724 B(  7-C , 19-H ) :   0.9623

MP2 TOTAL ENERGY:     -402.432171468 Eh
FINAL SINGLE POINT ENERGY      -402.432171468168

DIPOLE MOMENT
-------------
                                X             Y             Z
Electronic contribution:     -3.29227      -3.44261      -1.49586
Nuclear contribution   :      4.35601       4.24853       1.51499
                        -----------------------------------------
Total Dipole Moment    :      1.06374       0.80592       0.01914
                        -----------------------------------------
Magnitude (a.u.)       :      1.33469
Magnitude (Debye)      :      3.39252

                             ****ORCA TERMINATED NORMALLY****
TOTAL RUN TIME: 0 days 0 hours 19 minutes 10 seconds 732 msec
