                         Program Version 3.0.3 - RELEASE   -
|  1> ! RI-MP2 RIJK def2-TZVP def2-TZVP/C def2-TZVP/JK TIGHTSCF
|  2> % maxcore 2000
|  3> % mp2 density relaxed end
|  4> *xyz 0 1
|  5>  C        0.0358400467     1.3561472435     0.0465596968
|  6>  O        0.0187504509    -0.0628273430    -0.0170202917
|  7>  C        0.6966883233    -0.5865202746    -1.1132339795
|  8>  O        2.0693196298    -0.3080301689    -0.9938753282
|  9>  C        2.8200508968    -1.0599068314    -1.9414851687
| 10>  C        2.6876757113    -2.5489819517    -1.6362605952
| 11>  N        1.3180212248    -2.9815865453    -1.3958031673
| 12>  C        0.4355551412    -2.0943892022    -1.1572153760
| 13>  N       -0.8937614639    -2.4229042732    -1.0004982467
| 14>  H        1.0532757674     1.7352931354     0.1835475770
| 15>  H       -0.3907657783     1.7958470261    -0.8668215860
| 16>  H       -0.5787484153     1.6398229482     0.9030620303
| 17>  H        0.3123531197    -0.1267418601    -2.0487687137
| 18>  H        2.4631809814    -0.8415529633    -2.9618090996
| 19>  H        3.8552838837    -0.7170977315    -1.8626127904
| 20>  H        3.1017479817    -3.1341073707    -2.4676865365
| 21>  H        3.2902720424    -2.7996653108    -0.7521222281
| 22>  H       -1.0538745749    -3.4108180756    -0.8612678625
| 23>  H       -1.4039620285    -1.8161879408    -0.3754480139
| 24> *
| 25>
| 26>                          ****END OF INPUT****

CARTESIAN COORDINATES (ANGSTROEM)
---------------------------------
  C      0.035840    1.356147    0.046560
  O      0.018750   -0.062827   -0.017020
  C      0.696688   -0.586520   -1.113234
  O      2.069320   -0.308030   -0.993875
  C      2.820051   -1.059907   -1.941485
  C      2.687676   -2.548982   -1.636261
  N      1.318021   -2.981587   -1.395803
  C      0.435555   -2.094389   -1.157215
  N     -0.893761   -2.422904   -1.000498
  H      1.053276    1.735293    0.183548
  H     -0.390766    1.795847   -0.866822
  H     -0.578748    1.639823    0.903062
  H      0.312353   -0.126742   -2.048769
  H      2.463181   -0.841553   -2.961809
  H      3.855284   -0.717098   -1.862613
  H      3.101748   -3.134107   -2.467687
  H      3.290272   -2.799665   -0.752122
  H     -1.053875   -3.410818   -0.861268
  H     -1.403962   -1.816188   -0.375448

 Total Charge           Charge          ....    0
 Multiplicity           Mult            ....    1
 Number of Electrons    NEL             ....   70
 Basis Dimension        Dim             ....  339

ORBITAL ENERGIES
----------------

  NO   OCC          E(Eh)            E(eV)
   0   2.0000     -20.577430      -559.9403
   1   2.0000     -20.567125      -559.6599
   2   2.0000     -15.560799      -423.4309
   3   2.0000     -15.530121      -422.5961
   4   2.0000     -11.349603      -308.8384
   5   2.0000     -11.307732      -307.6990
   6   2.0000     -11.280427      -306.9560
   7   2.0000     -11.280194      -306.9497
   8   2.0000     -11.246844      -306.0422
   9   2.0000      -1.435446       -39.0605
  10   2.0000      -1.363270       -37.0965
  11   2.0000      -1.258797       -34.2536
  12   2.0000      -1.160571       -31.5807
  13   2.0000      -1.020928       -27.7809
  14   2.0000      -0.966312       -26.2947
  15   2.0000      -0.883455       -24.0400
  16   2.0000      -0.870306       -23.6822
  17   2.0000      -0.758202       -20.6317
  18   2.0000      -0.720209       -19.5979
  19   2.0000      -0.703713       -19.1490
  20   2.0000      -0.694156       -18.8889
  21   2.0000      -0.662485       -18.0271
  22   2.0000      -0.628172       -17.0934
  23   2.0000      -0.610171       -16.6036
  24   2.0000      -0.609500       -16.5853
  25   2.0000      -0.576273       -15.6812
  26   2.0000      -0.562745       -15.3131
  27   2.0000      -0.548694       -14.9307
  28   2.0000      -0.513912       -13.9843
  29   2.0000      -0.507298       -13.8043
  30   2.0000      -0.492069       -13.3899
  31   2.0000      -0.465239       -12.6598
  32   2.0000      -0.451160       -12.2767
  33   2.0000      -0.376720       -10.2511
  34   2.0000      -0.354102        -9.6356
  35   0.0000       0.138753         3.7757
  36   0.0000       0.154984         4.2173
  37   0.0000       0.161783         4.4023
  38   0.0000       0.170129         4.6294
  39   0.0000       0.180835         4.9208

MULLIKEN ATOMIC CHARGES
-----------------------
   0 C :   -0.219321
   1 O :   -0.311166
   2 C :    0.174201
   3 O :   -0.295267
   4 C :   -0.095937
   5 C :   -0.094533
   6 N :   -0.264876
   7 C :    0.163324
   8 N :   -0.502665
   9 H :    0.147319
  10 H :    0.111126
  11 H :    0.140704
  12 H :    0.074968
  13 H :    0.100469
  14 H :    0.128574
  15 H :    0.115796
  16 H :    0.111708
  17 H :    0.248982
  18 H :    0.266592
Sum of atomic charges:    0.0000000

LOEWDIN ATOMIC CHARGES
----------------------
   0 C :   -0.338753
   1 O :    0.166612
   2 C :   -0.395180
   3 O :    0.180242
   4 C :   -0.312356
   5 C :   -0.306250
   6 N :    0.087207
   7 C :   -0.359722
   8 N :   -0.046871
   9 H :    0.110910
  10 H :    0.104302
  11 H :    0.114132
  12 H :    0.129192
  13 H :    0.122376
  14 H :    0.131608
  15 H :    0.134388
  16 H :    0.135445
  17 H :    0.170549
  18 H :    0.172168

  Mayer bond orders larger than 0.1
B(  0-C ,  1-O ) :   0.8832 B(  0-C ,  9-H ) :   0.9402 B(  0-C , 10-H ) :   0.9323
B(  0-C , 11-H ) :   0.9366 B(  1-O ,  2-C ) :   1.0153 B(  2-C ,  3-O ) :   0.9811
B(  2-C ,  7-C ) :   0.9064 B(  2-C , 12-H ) :   0.9391 B(  3-O ,  4-C ) :   0.8879
B(  4-C ,  5-C ) :   0.9455 B(  4-C , 13-H ) :   0.9341 B(  4-C , 14-H ) :   0.9233
B(  5-C ,  6-N ) :   0.9412 B(  5-C , 15-H ) :   0.9235 B(  5-C , 16-H ) :   0.9161
B(  6-N ,  7-C ) :   1.8461 B(  7-C ,  8-N ) :   1.1085 B(  8-N , 17-H ) :   0.8657
B(  8-N , 18-H ) :   0.8615

MP2 TOTAL ENERGY:     -455.611615561 Eh
FINAL SINGLE POINT ENERGY      -455.611615561148

DIPOLE MOMENT
-------------
                                X             Y             Z
Electronic contribution:     -0.76144      -2.84455       0.88647
Nuclear contribution   :      0.59261       3.52445      -0.99458
                        -----------------------------------------
Total Dipole Moment    :     -0.16883       0.67990      -0.10810
                        -----------------------------------------
Magnitude (a.u.)       :      0.70884
Magnitude (Debye)      :      1.80172

                             ****ORCA TERMINATED NORMALLY****
TOTAL RUN TIME: 0 days 0 hours 16 minutes 20 seconds 69 msec
