                         Program Version 3.0.3 - RELEASE   -
|  1> ! RI-MP2 RIJK def2-TZVP def2-TZVP/C def2-TZVP/JK TIGHTSCF
|  2> % maxcore 2000
|  3> % mp2 density relaxed end
|  4> *xyz 0 1
|  5>  C       -0.3104641015     1.4106503630     0.0256603401
|  6>  C        0.0500553347    -0.0547690561     0.0213242024
|  7>  C       -0.7138351827    -1.0270877484     0.8993196169
|  8>  C        0.7492352012    -0.7578810947     1.1622794250
|  9>  C        1.7497257358    -1.7555376573     0.5869464421
| 10>  C        1.2885551794    -1.9670354827    -0.8705041769
| 11>  C        0.6044562928    -0.6404132542    -1.2759498840
| 12>  O       -0.3448606544    -0.7645863167    -2.3238272346
| 13>  H        0.5594341517     2.0333893723    -0.2155243393
| 14>  H       -1.0829827058     1.6200997171    -0.7225044605
| 15>  H       -0.6902570877     1.7287011799     1.0015926792
| 16>  H       -1.4292779599    -0.5921744228     1.5892749038
| 17>  H       -1.0140621383    -2.0001609592     0.5206290797
| 18>  H        1.0133198881    -0.2182606254     2.0661686693
| 19>  H        2.7537074269    -1.3153573542     0.6102215444
| 20>  H        1.7980506991    -2.6927882819     1.1524211208
| 21>  H        2.1050723152    -2.2319645933    -1.5460743310
| 22>  H        0.5549125608    -2.7790216220    -0.9353974421
| 23>  H        1.3543314707     0.0561433926    -1.6723318724
| 24>  H       -1.0860957759    -1.2741107361    -1.9772340627
| 25> *
| 26>
| 27>                          ****END OF INPUT****

CARTESIAN COORDINATES (ANGSTROEM)
---------------------------------
  C     -0.310464    1.410650    0.025660
  C      0.050055   -0.054769    0.021324
  C     -0.713835   -1.027088    0.899320
  C      0.749235   -0.757881    1.162279
  C      1.749726   -1.755538    0.586946
  C      1.288555   -1.967035   -0.870504
  C      0.604456   -0.640413   -1.275950
  O     -0.344861   -0.764586   -2.323827
  H      0.559434    2.033389   -0.215524
  H     -1.082983    1.620100   -0.722504
  H     -0.690257    1.728701    1.001593
  H     -1.429278   -0.592174    1.589275
  H     -1.014062   -2.000161    0.520629
  H      1.013320   -0.218261    2.066169
  H      2.753707   -1.315357    0.610222
  H      1.798051   -2.692788    1.152421
  H      2.105072   -2.231965   -1.546074
  H      0.554913   -2.779022   -0.935397
  H      1.354331    0.056143   -1.672332
  H     -1.086096   -1.274111   -1.977234

 Total Charge           Charge          ....    0
 Multiplicity           Mult            ....    1
 Number of Electrons    NEL             ....   62
 Basis Dimension        Dim             ....  320

ORBITAL ENERGIES
----------------

  NO   OCC          E(Eh)            E(eV)
   0   2.0000     -20.549167      -559.1713
   1   2.0000     -11.274900      -306.8056
   2   2.0000     -11.232196      -305.6436
   3   2.0000     -11.229514      -305.5706
   4   2.0000     -11.225104      -305.4506
   5   2.0000     -11.224959      -305.4467
   6   2.0000     -11.219261      -305.2916
   7   2.0000     -11.215528      -305.1900
   8   2.0000      -1.355925       -36.8966
   9   2.0000      -1.176041       -32.0017
  10   2.0000      -1.031347       -28.0644
  11   2.0000      -0.977711       -26.6049
  12   2.0000      -0.918900       -25.0045
  13   2.0000      -0.848406       -23.0863
  14   2.0000      -0.770748       -20.9731
  15   2.0000      -0.751748       -20.4561
  16   2.0000      -0.677219       -18.4281
  17   2.0000      -0.645057       -17.5529
  18   2.0000      -0.629404       -17.1270
  19   2.0000      -0.603754       -16.4290
  20   2.0000      -0.568780       -15.4773
  21   2.0000      -0.560292       -15.2463
  22   2.0000      -0.556507       -15.1433
  23   2.0000      -0.539852       -14.6901
  24   2.0000      -0.533319       -14.5123
  25   2.0000      -0.495595       -13.4858
  26   2.0000      -0.476536       -12.9672
  27   2.0000      -0.468017       -12.7354
  28   2.0000      -0.427614       -11.6360
  29   2.0000      -0.401763       -10.9325
  30   2.0000      -0.386220       -10.5096
  31   0.0000       0.136516         3.7148
  32   0.0000       0.146019         3.9734
  33   0.0000       0.157999         4.2994
  34   0.0000       0.177038         4.8174
  35   0.0000       0.189767         5.1638

MULLIKEN ATOMIC CHARGES
-----------------------
   0 C :   -0.440489
   1 C :    0.083272
   2 C :   -0.348926
   3 C :   -0.081288
   4 C :   -0.239694
   5 C :   -0.211228
   6 C :    0.048169
   7 O :   -0.464819
   8 H :    0.127567
   9 H :    0.143757
  10 H :    0.126993
  11 H :    0.133149
  12 H :    0.130688
  13 H :    0.121136
  14 H :    0.116430
  15 H :    0.114369
  16 H :    0.130122
  17 H :    0.108026
  18 H :    0.090353
  19 H :    0.312414
Sum of atomic charges:   -0.0000000

LOEWDIN ATOMIC CHARGES
----------------------
   0 C :   -0.267837
   1 C :   -0.242916
   2 C :   -0.194429
   3 C :   -0.179983
   4 C :   -0.232845
   5 C :   -0.234615
   6 C :   -0.294442
   7 O :   -0.019397
   8 H :    0.126929
   9 H :    0.131304
  10 H :    0.127188
  11 H :    0.136839
  12 H :    0.131480
  13 H :    0.143336
  14 H :    0.139931
  15 H :    0.134915
  16 H :    0.135548
  17 H :    0.134948
  18 H :    0.149727
  19 H :    0.174319

  Mayer bond orders larger than 0.1
B(  0-C ,  1-C ) :   0.9036 B(  0-C ,  8-H ) :   0.9379 B(  0-C ,  9-H ) :   0.9418
B(  0-C , 10-H ) :   0.9364 B(  1-C ,  2-C ) :   0.8701 B(  1-C ,  3-C ) :   0.8122
B(  1-C ,  6-C ) :   0.9361 B(  2-C ,  3-C ) :   0.8693 B(  2-C , 11-H ) :   0.9311
B(  2-C , 12-H ) :   0.9220 B(  3-C ,  4-C ) :   0.9165 B(  3-C , 13-H ) :   0.9207
B(  4-C ,  5-C ) :   0.9235 B(  4-C , 14-H ) :   0.9286 B(  4-C , 15-H ) :   0.9233
B(  5-C ,  6-C ) :   0.9136 B(  5-C , 16-H ) :   0.9333 B(  5-C , 17-H ) :   0.9258
B(  6-C ,  7-O ) :   0.9444 B(  6-C , 18-H ) :   0.9255 B(  7-O , 19-H ) :   0.8393

MP2 TOTAL ENERGY:     -348.412473070 Eh
FINAL SINGLE POINT ENERGY      -348.412473069675

DIPOLE MOMENT
-------------
                                X             Y             Z
Electronic contribution:     -0.45831      -0.76152      -2.30832
Nuclear contribution   :      0.47122       0.58730       2.93146
                        -----------------------------------------
Total Dipole Moment    :      0.01291      -0.17422       0.62315
                        -----------------------------------------
Magnitude (a.u.)       :      0.64717
Magnitude (Debye)      :      1.64498

                             ****ORCA TERMINATED NORMALLY****
TOTAL RUN TIME: 0 days 0 hours 14 minutes 8 seconds 86 msec
