                         Program Version 3.0.3 - RELEASE   -
|  1> ! RI-MP2 RIJK def2-TZVP def2-TZVP/C def2-TZVP/JK TIGHTSCF
|  2> % maxcore 2000
|  3> % mp2 density relaxed end
|  4> *xyz 0 1
|  5>  C       -0.0725282148     1.5300182388    -0.0510665113
|  6>  C        0.0480897112     0.0374180084    -0.0140803086
|  7>  C        0.8719080729    -0.8408986706    -1.0033557603
|  8>  C       -0.1990310728    -1.9090982197    -0.9526992913
|  9>  C        1.1191915148    -2.1432265177    -0.2556039458
| 10>  C        0.9902379750    -1.9130498029     1.2409331797
| 11>  O        2.1944107522    -1.5168992784     1.8762733299
| 12>  C       -0.0894742295    -0.8443362920     1.2207863221
| 13>  C       -1.0182957166    -1.0386991712     0.0407797707
| 14>  H        0.8792811086     2.0189609372     0.1920392134
| 15>  H       -0.3809159713     1.8834133655    -1.0419416752
| 16>  H       -0.8167957487     1.8795577031     0.6719142247
| 17>  H        1.4570106088    -0.4903882190    -1.8430737890
| 18>  H       -0.5920470382    -2.5278069487    -1.7474077319
| 19>  H        1.8224335214    -2.8660922314    -0.6512626976
| 20>  H        0.6671858451    -2.8161372726     1.7693952763
| 21>  H        2.5123056165    -0.7344915750     1.4109389779
| 22>  H       -0.4672259295    -0.4156091924     2.1415564332
| 23>  H       -2.0948581250    -0.9420420314     0.0847340131
| 24> *
| 25>
| 26>                          ****END OF INPUT****

CARTESIAN COORDINATES (ANGSTROEM)
---------------------------------
  C     -0.072528    1.530018   -0.051067
  C      0.048090    0.037418   -0.014080
  C      0.871908   -0.840899   -1.003356
  C     -0.199031   -1.909098   -0.952699
  C      1.119192   -2.143227   -0.255604
  C      0.990238   -1.913050    1.240933
  O      2.194411   -1.516899    1.876273
  C     -0.089474   -0.844336    1.220786
  C     -1.018296   -1.038699    0.040780
  H      0.879281    2.018961    0.192039
  H     -0.380916    1.883413   -1.041942
  H     -0.816796    1.879558    0.671914
  H      1.457011   -0.490388   -1.843074
  H     -0.592047   -2.527807   -1.747408
  H      1.822434   -2.866092   -0.651263
  H      0.667186   -2.816137    1.769395
  H      2.512306   -0.734492    1.410939
  H     -0.467226   -0.415609    2.141556
  H     -2.094858   -0.942042    0.084734

 Total Charge           Charge          ....    0
 Multiplicity           Mult            ....    1
 Number of Electrons    NEL             ....   66
 Basis Dimension        Dim             ....  339

ORBITAL ENERGIES
----------------

  NO   OCC          E(Eh)            E(eV)
   0   2.0000     -20.548019      -559.1400
   1   2.0000     -11.275413      -306.8196
   2   2.0000     -11.241485      -305.8964
   3   2.0000     -11.236517      -305.7612
   4   2.0000     -11.233767      -305.6863
   5   2.0000     -11.233019      -305.6660
   6   2.0000     -11.230615      -305.6006
   7   2.0000     -11.227421      -305.5136
   8   2.0000     -11.224707      -305.4398
   9   2.0000      -1.356333       -36.9077
  10   2.0000      -1.244009       -33.8512
  11   2.0000      -1.064107       -28.9558
  12   2.0000      -0.989602       -26.9284
  13   2.0000      -0.953904       -25.9570
  14   2.0000      -0.852733       -23.2041
  15   2.0000      -0.786072       -21.3901
  16   2.0000      -0.767339       -20.8804
  17   2.0000      -0.726642       -19.7729
  18   2.0000      -0.696221       -18.9451
  19   2.0000      -0.657673       -17.8962
  20   2.0000      -0.614069       -16.7097
  21   2.0000      -0.596539       -16.2326
  22   2.0000      -0.576567       -15.6892
  23   2.0000      -0.571857       -15.5610
  24   2.0000      -0.553770       -15.0688
  25   2.0000      -0.540503       -14.7078
  26   2.0000      -0.519938       -14.1482
  27   2.0000      -0.495110       -13.4726
  28   2.0000      -0.444143       -12.0858
  29   2.0000      -0.436744       -11.8844
  30   2.0000      -0.409259       -11.1365
  31   2.0000      -0.389941       -10.6108
  32   2.0000      -0.334214        -9.0944
  33   0.0000       0.132874         3.6157
  34   0.0000       0.156240         4.2515
  35   0.0000       0.166284         4.5248
  36   0.0000       0.178461         4.8562
  37   0.0000       0.188469         5.1285

MULLIKEN ATOMIC CHARGES
-----------------------
   0 C :   -0.416886
   1 C :    0.060536
   2 C :   -0.186234
   3 C :   -0.143759
   4 C :   -0.186408
   5 C :    0.170128
   6 O :   -0.464798
   7 C :   -0.217481
   8 C :   -0.114241
   9 H :    0.129978
  10 H :    0.137044
  11 H :    0.136070
  12 H :    0.137374
  13 H :    0.140980
  14 H :    0.129268
  15 H :    0.105931
  16 H :    0.313671
  17 H :    0.127503
  18 H :    0.141322
Sum of atomic charges:    0.0000000

LOEWDIN ATOMIC CHARGES
----------------------
   0 C :   -0.274217
   1 C :   -0.181955
   2 C :   -0.119135
   3 C :   -0.128137
   4 C :   -0.160778
   5 C :   -0.294309
   6 O :   -0.016015
   7 C :   -0.143118
   8 C :   -0.113929
   9 H :    0.127439
  10 H :    0.128817
  11 H :    0.132198
  12 H :    0.138427
  13 H :    0.137487
  14 H :    0.150199
  15 H :    0.149568
  16 H :    0.177730
  17 H :    0.151208
  18 H :    0.138520

  Mayer bond orders larger than 0.1
B(  0-C ,  1-C ) :   0.8612 B(  0-C ,  9-H ) :   0.9373 B(  0-C , 10-H ) :   0.9476
B(  0-C , 11-H ) :   0.9456 B(  1-C ,  2-C ) :   0.8788 B(  1-C ,  7-C ) :   0.8729
B(  1-C ,  8-C ) :   0.8477 B(  2-C ,  3-C ) :   0.8876 B(  2-C ,  4-C ) :   0.8805
B(  2-C , 12-H ) :   0.9296 B(  3-C ,  4-C ) :   0.8382 B(  3-C ,  8-C ) :   0.8809
B(  3-C , 13-H ) :   0.9215 B(  4-C ,  5-C ) :   0.9341 B(  4-C , 14-H ) :   0.9398
B(  5-C ,  6-O ) :   0.9525 B(  5-C ,  7-C ) :   0.9342 B(  5-C , 15-H ) :   0.9220
B(  6-O , 16-H ) :   0.8406 B(  7-C ,  8-C ) :   0.8284 B(  7-C , 17-H ) :   0.9380
B(  8-C , 18-H ) :   0.9138

MP2 TOTAL ENERGY:     -385.174026948 Eh
FINAL SINGLE POINT ENERGY      -385.174026948119

DIPOLE MOMENT
-------------
                                X             Y             Z
Electronic contribution:      1.25512      -3.72144       1.04534
Nuclear contribution   :     -1.62214       4.11127      -1.64028
                        -----------------------------------------
Total Dipole Moment    :     -0.36701       0.38983      -0.59494
                        -----------------------------------------
Magnitude (a.u.)       :      0.80039
Magnitude (Debye)      :      2.03443

                             ****ORCA TERMINATED NORMALLY****
TOTAL RUN TIME: 0 days 0 hours 18 minutes 45 seconds 655 msec
