                         Program Version 3.0.3 - RELEASE   -
|  1> ! RI-MP2 RIJK def2-TZVP def2-TZVP/C def2-TZVP/JK TIGHTSCF
|  2> % maxcore 2000
|  3> % mp2 density relaxed end
|  4> *xyz 0 1
|  5>  O       -0.1354523637     1.2997930205     0.0054991628
|  6>  N        0.0072503395    -0.1011831836     0.0003971422
|  7>  C       -1.1268509352    -0.6779709414     0.0077880364
|  8>  C       -2.5056233887    -0.0449636958     0.0206021835
|  9>  C       -3.4183009410    -1.2484949008     0.0247288528
| 10>  C       -2.7358717412    -2.3955469289     0.0160508996
| 11>  C       -1.2676789343    -2.1677955766     0.0047434756
| 12>  C       -0.2927045954    -3.0555657682    -0.7540380616
| 13>  C       -0.2804198459    -3.0598419650     0.7422614238
| 14>  H        0.7804088986     1.5971903613    -0.0008860253
| 15>  H       -2.6320751132     0.6039297566     0.8974786412
| 16>  H       -2.6461866034     0.6085870611    -0.8506542309
| 17>  H       -4.4979564491    -1.1612082925     0.0337232321
| 18>  H       -3.1651994473    -3.3909570081     0.0168157591
| 19>  H       -0.7014092178    -3.9158158651    -1.2736779737
| 20>  H        0.5118990682    -2.5421767385    -1.2685035222
| 21>  H        0.5325576256    -2.5493733372     1.2463660489
| 22>  H       -0.6805490756    -3.9230819978     1.2636164156
| 23> *
| 24>
| 25>                          ****END OF INPUT****

CARTESIAN COORDINATES (ANGSTROEM)
---------------------------------
  O     -0.135452    1.299793    0.005499
  N      0.007250   -0.101183    0.000397
  C     -1.126851   -0.677971    0.007788
  C     -2.505623   -0.044964    0.020602
  C     -3.418301   -1.248495    0.024729
  C     -2.735872   -2.395547    0.016051
  C     -1.267679   -2.167796    0.004743
  C     -0.292705   -3.055566   -0.754038
  C     -0.280420   -3.059842    0.742261
  H      0.780409    1.597190   -0.000886
  H     -2.632075    0.603930    0.897479
  H     -2.646187    0.608587   -0.850654
  H     -4.497956   -1.161208    0.033723
  H     -3.165199   -3.390957    0.016816
  H     -0.701409   -3.915816   -1.273678
  H      0.511899   -2.542177   -1.268504
  H      0.532558   -2.549373    1.246366
  H     -0.680549   -3.923082    1.263616

 Total Charge           Charge          ....    0
 Multiplicity           Mult            ....    1
 Number of Electrons    NEL             ....   66
 Basis Dimension        Dim             ....  333

ORBITAL ENERGIES
----------------

  NO   OCC          E(Eh)            E(eV)
   0   2.0000     -20.585194      -560.1516
   1   2.0000     -15.603872      -424.6029
   2   2.0000     -11.275645      -306.8259
   3   2.0000     -11.249152      -306.1050
   4   2.0000     -11.238179      -305.8064
   5   2.0000     -11.235589      -305.7359
   6   2.0000     -11.233865      -305.6890
   7   2.0000     -11.233172      -305.6701
   8   2.0000     -11.231966      -305.6373
   9   2.0000      -1.410227       -38.3742
  10   2.0000      -1.198893       -32.6235
  11   2.0000      -1.122081       -30.5334
  12   2.0000      -1.089989       -29.6601
  13   2.0000      -0.944182       -25.6925
  14   2.0000      -0.877228       -23.8706
  15   2.0000      -0.828459       -22.5435
  16   2.0000      -0.768323       -20.9071
  17   2.0000      -0.708610       -19.2823
  18   2.0000      -0.686392       -18.6777
  19   2.0000      -0.675997       -18.3948
  20   2.0000      -0.642237       -17.4762
  21   2.0000      -0.615023       -16.7356
  22   2.0000      -0.597395       -16.2559
  23   2.0000      -0.582259       -15.8441
  24   2.0000      -0.561167       -15.2701
  25   2.0000      -0.527378       -14.3507
  26   2.0000      -0.522254       -14.2113
  27   2.0000      -0.502488       -13.6734
  28   2.0000      -0.475800       -12.9472
  29   2.0000      -0.441007       -12.0004
  30   2.0000      -0.419764       -11.4224
  31   2.0000      -0.384461       -10.4617
  32   2.0000      -0.326466        -8.8836
  33   0.0000       0.145220         3.9517
  34   0.0000       0.147495         4.0136
  35   0.0000       0.155681         4.2363
  36   0.0000       0.157510         4.2861
  37   0.0000       0.165377         4.5001

MULLIKEN ATOMIC CHARGES
-----------------------
   0 O :   -0.373407
   1 N :   -0.101249
   2 C :   -0.023408
   3 C :   -0.140021
   4 C :   -0.194964
   5 C :   -0.183002
   6 C :    0.174954
   7 C :   -0.288609
   8 C :   -0.288603
   9 H :    0.333064
  10 H :    0.138425
  11 H :    0.138418
  12 H :    0.130381
  13 H :    0.127424
  14 H :    0.132452
  15 H :    0.142844
  16 H :    0.142847
  17 H :    0.132455
Sum of atomic charges:    0.0000000

LOEWDIN ATOMIC CHARGES
----------------------
   0 O :   -0.074293
   1 N :    0.023582
   2 C :   -0.220365
   3 C :   -0.204717
   4 C :   -0.148710
   5 C :   -0.114340
   6 C :   -0.193323
   7 C :   -0.187129
   8 C :   -0.187139
   9 H :    0.168105
  10 H :    0.154553
  11 H :    0.154556
  12 H :    0.137056
  13 H :    0.142988
  14 H :    0.134347
  15 H :    0.140238
  16 H :    0.140242
  17 H :    0.134350

  Mayer bond orders larger than 0.1
B(  0-O ,  1-N ) :   0.7984 B(  0-O ,  9-H ) :   0.8460 B(  1-N ,  2-C ) :   1.8321
B(  2-C ,  3-C ) :   0.9950 B(  2-C ,  6-C ) :   0.9455 B(  3-C ,  4-C ) :   0.9380
B(  3-C , 10-H ) :   0.8985 B(  3-C , 11-H ) :   0.8985 B(  4-C ,  5-C ) :   1.7862
B(  4-C , 12-H ) :   0.9307 B(  5-C ,  6-C ) :   0.9479 B(  5-C , 13-H ) :   0.9203
B(  6-C ,  7-C ) :   0.8026 B(  6-C ,  8-C ) :   0.8026 B(  7-C ,  8-C ) :   0.9454
B(  7-C , 14-H ) :   0.9264 B(  7-C , 15-H ) :   0.9202 B(  8-C , 16-H ) :   0.9202
B(  8-C , 17-H ) :   0.9264

MP2 TOTAL ENERGY:     -401.207261868 Eh
FINAL SINGLE POINT ENERGY      -401.207261867705

DIPOLE MOMENT
-------------
                                X             Y             Z
Electronic contribution:      0.99602       3.44493       0.00229
Nuclear contribution   :     -1.12197      -3.62017      -0.00179
                        -----------------------------------------
Total Dipole Moment    :     -0.12594      -0.17525       0.00051
                        -----------------------------------------
Magnitude (a.u.)       :      0.21581
Magnitude (Debye)      :      0.54854

                             ****ORCA TERMINATED NORMALLY****
TOTAL RUN TIME: 0 days 0 hours 18 minutes 8 seconds 249 msec
