                         Program Version 3.0.3 - RELEASE   -
|  1> ! RI-MP2 RIJK def2-TZVP def2-TZVP/C def2-TZVP/JK TIGHTSCF
|  2> % maxcore 2000
|  3> % mp2 density relaxed end
|  4> *xyz 0 1
|  5>  O        0.0502077125     1.3725208368     0.0733469804
|  6>  C       -0.0002350643    -0.0347077852     0.0821539282
|  7>  C        0.3316999747    -0.6583527325     1.4531203446
|  8>  C       -0.6465648737     0.0663612229     2.4006113592
|  9>  C       -1.6593476744    -0.7699383503     1.6192961112
| 10>  N       -0.6252671563    -1.8840124974     1.4797244085
| 11>  C       -1.1029533942    -2.1186758819     0.0699002432
| 12>  C       -1.4285281207    -0.6160158021     0.0542543933
| 13>  O       -2.2454212114     0.0599140248    -0.8494030021
| 14>  H       -0.6203517320     1.6623636996    -0.5576329525
| 15>  H        0.6131847588    -0.4443696846    -0.7326473151
| 16>  H        1.3730861691    -0.8483827940     1.7072764028
| 17>  H       -0.5603959805    -0.2905753264     3.4286967188
| 18>  H       -0.6846498093     1.1522012331     2.3500665768
| 19>  H       -2.6577114085    -1.0370241132     1.9737730770
| 20>  H       -0.3722995103    -2.5118732907    -0.6438849511
| 21>  H       -1.9759070189    -2.7777533455     0.1119706606
| 22>  H       -3.1517423607    -0.2486366736    -0.7549620741
| 23> *
| 24>
| 25>                          ****END OF INPUT****

CARTESIAN COORDINATES (ANGSTROEM)
---------------------------------
  O      0.050208    1.372521    0.073347
  C     -0.000235   -0.034708    0.082154
  C      0.331700   -0.658353    1.453120
  C     -0.646565    0.066361    2.400611
  C     -1.659348   -0.769938    1.619296
  N     -0.625267   -1.884012    1.479724
  C     -1.102953   -2.118676    0.069900
  C     -1.428528   -0.616016    0.054254
  O     -2.245421    0.059914   -0.849403
  H     -0.620352    1.662364   -0.557633
  H      0.613185   -0.444370   -0.732647
  H      1.373086   -0.848383    1.707276
  H     -0.560396   -0.290575    3.428697
  H     -0.684650    1.152201    2.350067
  H     -2.657711   -1.037024    1.973773
  H     -0.372300   -2.511873   -0.643885
  H     -1.975907   -2.777753    0.111971
  H     -3.151742   -0.248637   -0.754962

 Total Charge           Charge          ....    0
 Multiplicity           Mult            ....    1
 Number of Electrons    NEL             ....   68
 Basis Dimension        Dim             ....  333

ORBITAL ENERGIES
----------------

  NO   OCC          E(Eh)            E(eV)
   0   2.0000     -20.583572      -560.1075
   1   2.0000     -20.555557      -559.3451
   2   2.0000     -15.561272      -423.4437
   3   2.0000     -11.299150      -307.4655
   4   2.0000     -11.281999      -306.9988
   5   2.0000     -11.267679      -306.6091
   6   2.0000     -11.263802      -306.5036
   7   2.0000     -11.256712      -306.3107
   8   2.0000     -11.224031      -305.4214
   9   2.0000      -1.400196       -38.1013
  10   2.0000      -1.362180       -37.0668
  11   2.0000      -1.289700       -35.0945
  12   2.0000      -1.038850       -28.2685
  13   2.0000      -0.992330       -27.0027
  14   2.0000      -0.936217       -25.4758
  15   2.0000      -0.858061       -23.3490
  16   2.0000      -0.786758       -21.4088
  17   2.0000      -0.754833       -20.5401
  18   2.0000      -0.718644       -19.5553
  19   2.0000      -0.693814       -18.8796
  20   2.0000      -0.663709       -18.0605
  21   2.0000      -0.641427       -17.4541
  22   2.0000      -0.607544       -16.5321
  23   2.0000      -0.604016       -16.4361
  24   2.0000      -0.574468       -15.6321
  25   2.0000      -0.558742       -15.2041
  26   2.0000      -0.535358       -14.5678
  27   2.0000      -0.491420       -13.3722
  28   2.0000      -0.484728       -13.1901
  29   2.0000      -0.467846       -12.7307
  30   2.0000      -0.456203       -12.4139
  31   2.0000      -0.431079       -11.7303
  32   2.0000      -0.419846       -11.4246
  33   2.0000      -0.375653       -10.2220
  34   0.0000       0.122155         3.3240
  35   0.0000       0.155542         4.2325
  36   0.0000       0.164211         4.4684
  37   0.0000       0.172385         4.6908
  38   0.0000       0.192526         5.2389

MULLIKEN ATOMIC CHARGES
-----------------------
   0 O :   -0.486020
   1 C :    0.048935
   2 C :    0.013811
   3 C :   -0.268992
   4 C :   -0.095017
   5 N :   -0.206843
   6 C :   -0.181020
   7 C :    0.108217
   8 O :   -0.466855
   9 H :    0.334081
  10 H :    0.097119
  11 H :    0.134346
  12 H :    0.123744
  13 H :    0.143499
  14 H :    0.129104
  15 H :    0.123301
  16 H :    0.114823
  17 H :    0.333766
Sum of atomic charges:    0.0000000

LOEWDIN ATOMIC CHARGES
----------------------
   0 O :   -0.003160
   1 C :   -0.291425
   2 C :   -0.181575
   3 C :   -0.208892
   4 C :   -0.183028
   5 N :    0.131575
   6 C :   -0.229959
   7 C :   -0.352261
   8 O :    0.017124
   9 H :    0.183472
  10 H :    0.137282
  11 H :    0.131270
  12 H :    0.142884
  13 H :    0.135075
  14 H :    0.130126
  15 H :    0.124280
  16 H :    0.132802
  17 H :    0.184411

  Mayer bond orders larger than 0.1
B(  0-O ,  1-C ) :   1.0497 B(  0-O ,  2-C ) :  -0.1135 B(  0-O ,  9-H ) :   0.8263
B(  1-C ,  2-C ) :   0.8959 B(  1-C ,  7-C ) :   0.8669 B(  1-C , 10-H ) :   0.9708
B(  2-C ,  3-C ) :   0.9378 B(  2-C ,  5-N ) :   0.9131 B(  2-C , 11-H ) :   0.9057
B(  3-C ,  4-C ) :   0.9783 B(  3-C , 12-H ) :   0.9131 B(  3-C , 13-H ) :   0.9063
B(  4-C ,  5-N ) :   0.9535 B(  4-C ,  7-C ) :   0.8608 B(  4-C , 14-H ) :   0.8885
B(  5-N ,  6-C ) :   0.9332 B(  6-C ,  7-C ) :   0.9349 B(  6-C , 15-H ) :   0.9233
B(  6-C , 16-H ) :   0.9129 B(  7-C ,  8-O ) :   1.0554 B(  8-O , 17-H ) :   0.8351

MP2 TOTAL ENERGY:     -438.321170723 Eh
FINAL SINGLE POINT ENERGY      -438.321170722519

DIPOLE MOMENT
-------------
                                X             Y             Z
Electronic contribution:     -0.31593       0.93666      -1.22079
Nuclear contribution   :     -0.50036      -1.10305       0.88802
                        -----------------------------------------
Total Dipole Moment    :     -0.81629      -0.16639      -0.33277
                        -----------------------------------------
Magnitude (a.u.)       :      0.89708
Magnitude (Debye)      :      2.28019

                             ****ORCA TERMINATED NORMALLY****
TOTAL RUN TIME: 0 days 0 hours 18 minutes 39 seconds 845 msec
