                         Program Version 3.0.3 - RELEASE   -
|  1> ! RI-MP2 RIJK def2-TZVP def2-TZVP/C def2-TZVP/JK TIGHTSCF
|  2> % maxcore 2000
|  3> % mp2 density relaxed end
|  4> *xyz 0 1
|  5>  O        0.1289859570     1.4216628106     0.4260176969
|  6>  C        0.0883843588     0.0599891562     0.0220425254
|  7>  C       -1.2595478514    -0.5024589757    -0.0141323986
|  8>  C       -2.3837490618    -0.9329239588    -0.0681363442
|  9>  C       -3.7436892176    -1.4351745943    -0.1237169841
| 10>  O       -4.2904744373    -1.5146164836    -1.4686176136
| 11>  C       -4.2590328429    -2.9575424623    -1.4570803641
| 12>  C       -3.9286438379    -2.9742768335     0.0510515612
| 13>  O       -2.7880493068    -3.6588114022     0.4822430854
| 14>  H       -0.4934604762     1.9040041193    -0.1282159994
| 15>  H        0.5635887414    -0.0819261718    -0.9619617019
| 16>  H        0.7008645055    -0.4857167386     0.7485056468
| 17>  H       -4.3923190235    -0.8247948807     0.5164274748
| 18>  H       -5.2132069534    -3.3914321816    -1.7757418937
| 19>  H       -3.4410151881    -3.3597586263    -2.0685932121
| 20>  H       -4.8015901516    -3.1985098172     0.6750921538
| 21>  H       -3.0436743443    -4.5448100595     0.7546849974
| 22> *
| 23>
| 24>                          ****END OF INPUT****

CARTESIAN COORDINATES (ANGSTROEM)
---------------------------------
  O      0.128986    1.421663    0.426018
  C      0.088384    0.059989    0.022043
  C     -1.259548   -0.502459   -0.014132
  C     -2.383749   -0.932924   -0.068136
  C     -3.743689   -1.435175   -0.123717
  O     -4.290474   -1.514616   -1.468618
  C     -4.259033   -2.957542   -1.457080
  C     -3.928644   -2.974277    0.051052
  O     -2.788049   -3.658811    0.482243
  H     -0.493460    1.904004   -0.128216
  H      0.563589   -0.081926   -0.961962
  H      0.700865   -0.485717    0.748506
  H     -4.392319   -0.824795    0.516427
  H     -5.213207   -3.391432   -1.775742
  H     -3.441015   -3.359759   -2.068593
  H     -4.801590   -3.198510    0.675092
  H     -3.043674   -4.544810    0.754685

 Total Charge           Charge          ....    0
 Multiplicity           Mult            ....    1
 Number of Electrons    NEL             ....   68
 Basis Dimension        Dim             ....  327

ORBITAL ENERGIES
----------------

  NO   OCC          E(Eh)            E(eV)
   0   2.0000     -20.577396      -559.9394
   1   2.0000     -20.562598      -559.5367
   2   2.0000     -20.560688      -559.4848
   3   2.0000     -11.313329      -307.8513
   4   2.0000     -11.305368      -307.6347
   5   2.0000     -11.302879      -307.5670
   6   2.0000     -11.284513      -307.0672
   7   2.0000     -11.230785      -305.6052
   8   2.0000     -11.226715      -305.4944
   9   2.0000      -1.402959       -38.1764
  10   2.0000      -1.372945       -37.3597
  11   2.0000      -1.366990       -37.1977
  12   2.0000      -1.063060       -28.9273
  13   2.0000      -1.007832       -27.4245
  14   2.0000      -0.975914       -26.5560
  15   2.0000      -0.918898       -25.0045
  16   2.0000      -0.806946       -21.9581
  17   2.0000      -0.747361       -20.3367
  18   2.0000      -0.718889       -19.5620
  19   2.0000      -0.696752       -18.9596
  20   2.0000      -0.667410       -18.1612
  21   2.0000      -0.652949       -17.7677
  22   2.0000      -0.635258       -17.2862
  23   2.0000      -0.615129       -16.7385
  24   2.0000      -0.593027       -16.1371
  25   2.0000      -0.571034       -15.5386
  26   2.0000      -0.540971       -14.7206
  27   2.0000      -0.534824       -14.5533
  28   2.0000      -0.489796       -13.3280
  29   2.0000      -0.472402       -12.8547
  30   2.0000      -0.454147       -12.3580
  31   2.0000      -0.433527       -11.7969
  32   2.0000      -0.381356       -10.3772
  33   2.0000      -0.378546       -10.3008
  34   0.0000       0.117218         3.1897
  35   0.0000       0.140019         3.8101
  36   0.0000       0.151951         4.1348
  37   0.0000       0.164556         4.4778
  38   0.0000       0.176808         4.8112

MULLIKEN ATOMIC CHARGES
-----------------------
   0 O :   -0.461111
   1 C :   -0.060302
   2 C :   -0.031100
   3 C :   -0.049735
   4 C :    0.030118
   5 O :   -0.322327
   6 C :   -0.029501
   7 C :    0.013930
   8 O :   -0.440540
   9 H :    0.320602
  10 H :    0.134793
  11 H :    0.140614
  12 H :    0.128226
  13 H :    0.104597
  14 H :    0.098537
  15 H :    0.099259
  16 H :    0.323940
Sum of atomic charges:   -0.0000000

LOEWDIN ATOMIC CHARGES
----------------------
   0 O :   -0.042080
   1 C :   -0.332287
   2 C :   -0.066270
   3 C :   -0.043424
   4 C :   -0.252054
   5 O :    0.140410
   6 C :   -0.261203
   7 C :   -0.314051
   8 O :    0.006496
   9 H :    0.177741
  10 H :    0.135862
  11 H :    0.147142
  12 H :    0.153455
  13 H :    0.115813
  14 H :    0.122914
  15 H :    0.131023
  16 H :    0.180513

  Mayer bond orders larger than 0.1
B(  0-O ,  1-C ) :   0.9478 B(  0-O ,  9-H ) :   0.8420 B(  1-C ,  2-C ) :   0.8780
B(  1-C , 10-H ) :   0.9728 B(  1-C , 11-H ) :   0.9209 B(  2-C ,  3-C ) :   2.7233
B(  3-C ,  4-C ) :   1.0643 B(  4-C ,  5-O ) :   0.9669 B(  4-C ,  7-C ) :   0.9551
B(  4-C ,  8-O ) :  -0.1141 B(  4-C , 12-H ) :   0.9117 B(  5-O ,  6-C ) :   0.9528
B(  6-C ,  7-C ) :   0.9556 B(  6-C , 13-H ) :   0.9154 B(  6-C , 14-H ) :   0.9003
B(  7-C ,  8-O ) :   1.0991 B(  7-C , 15-H ) :   0.9446 B(  8-O , 16-H ) :   0.8399

MP2 TOTAL ENERGY:     -458.151052899 Eh
FINAL SINGLE POINT ENERGY      -458.151052898632

DIPOLE MOMENT
-------------
                                X             Y             Z
Electronic contribution:     -0.38445       1.50765       0.38758
Nuclear contribution   :     -0.27281      -2.61921      -0.32303
                        -----------------------------------------
Total Dipole Moment    :     -0.65726      -1.11156       0.06455
                        -----------------------------------------
Magnitude (a.u.)       :      1.29295
Magnitude (Debye)      :      3.28642

                             ****ORCA TERMINATED NORMALLY****
TOTAL RUN TIME: 0 days 0 hours 13 minutes 26 seconds 801 msec
