                         Program Version 3.0.3 - RELEASE   -
|  1> ! RI-MP2 RIJK def2-TZVP def2-TZVP/C def2-TZVP/JK TIGHTSCF
|  2> % maxcore 2000
|  3> % mp2 density relaxed end
|  4> *xyz 0 1
|  5>  N        0.1262863340     1.4320967732     0.1007779232
|  6>  C        0.0422647923     0.0490616573     0.0115369213
|  7>  C       -1.0488924214    -0.7391596078    -0.1874739650
|  8>  O       -0.5882753847    -2.0523200624    -0.2910851453
|  9>  C        0.7423151185    -1.9463904495    -0.1297659450
| 10>  N        1.1817464333    -0.7426017443     0.0505851529
| 11>  N       -2.3954128147    -0.4302752670    -0.2897759347
| 12>  C       -3.2293042728    -1.1123418895    -1.2907996232
| 13>  C       -3.4020836639    -1.3995685400     0.1594495641
| 14>  H        0.8820781438     1.7311725016     0.7025055307
| 15>  H       -0.7519632003     1.8581106911     0.3650337756
| 16>  H        1.3138336132    -2.8611525276    -0.1607346334
| 17>  H       -3.9371961379    -0.4746102177    -1.8117812181
| 18>  H       -2.7539350377    -1.8770864770    -1.8981284188
| 19>  H       -3.0455125152    -2.3580750705     0.5245093624
| 20>  H       -4.2389985867    -0.9738662499     0.7054288133
| 21> *
| 22>
| 23>                          ****END OF INPUT****

CARTESIAN COORDINATES (ANGSTROEM)
---------------------------------
  N      0.126286    1.432097    0.100778
  C      0.042265    0.049062    0.011537
  C     -1.048892   -0.739160   -0.187474
  O     -0.588275   -2.052320   -0.291085
  C      0.742315   -1.946390   -0.129766
  N      1.181746   -0.742602    0.050585
  N     -2.395413   -0.430275   -0.289776
  C     -3.229304   -1.112342   -1.290800
  C     -3.402084   -1.399569    0.159450
  H      0.882078    1.731173    0.702506
  H     -0.751963    1.858111    0.365034
  H      1.313834   -2.861153   -0.160735
  H     -3.937196   -0.474610   -1.811781
  H     -2.753935   -1.877086   -1.898128
  H     -3.045513   -2.358075    0.524509
  H     -4.238999   -0.973866    0.705429

 Total Charge           Charge          ....    0
 Multiplicity           Mult            ....    1
 Number of Electrons    NEL             ....   66
 Basis Dimension        Dim             ....  321

ORBITAL ENERGIES
----------------

  NO   OCC          E(Eh)            E(eV)
   0   2.0000     -20.629320      -561.3523
   1   2.0000     -15.582400      -424.0187
   2   2.0000     -15.560695      -423.4280
   3   2.0000     -15.557893      -423.3518
   4   2.0000     -11.333089      -308.3890
   5   2.0000     -11.297814      -307.4292
   6   2.0000     -11.288623      -307.1791
   7   2.0000     -11.267926      -306.6159
   8   2.0000     -11.267065      -306.5924
   9   2.0000      -1.479176       -40.2504
  10   2.0000      -1.289114       -35.0786
  11   2.0000      -1.253292       -34.1038
  12   2.0000      -1.176067       -32.0024
  13   2.0000      -1.030878       -28.0516
  14   2.0000      -0.917341       -24.9621
  15   2.0000      -0.854094       -23.2411
  16   2.0000      -0.833668       -22.6853
  17   2.0000      -0.789027       -21.4705
  18   2.0000      -0.739071       -20.1111
  19   2.0000      -0.678862       -18.4728
  20   2.0000      -0.667277       -18.1575
  21   2.0000      -0.662841       -18.0368
  22   2.0000      -0.658984       -17.9319
  23   2.0000      -0.613459       -16.6931
  24   2.0000      -0.568453       -15.4684
  25   2.0000      -0.539517       -14.6810
  26   2.0000      -0.524974       -14.2853
  27   2.0000      -0.503721       -13.7070
  28   2.0000      -0.498952       -13.5772
  29   2.0000      -0.463079       -12.6010
  30   2.0000      -0.415921       -11.3178
  31   2.0000      -0.405753       -11.0411
  32   2.0000      -0.291406        -7.9295
  33   0.0000       0.143014         3.8916
  34   0.0000       0.149048         4.0558
  35   0.0000       0.159962         4.3528
  36   0.0000       0.178059         4.8452
  37   0.0000       0.181931         4.9506

MULLIKEN ATOMIC CHARGES
-----------------------
   0 N :   -0.520418
   1 C :    0.116184
   2 C :    0.175701
   3 O :   -0.231308
   4 C :    0.103043
   5 N :   -0.287677
   6 N :   -0.246567
   7 C :   -0.161771
   8 C :   -0.170463
   9 H :    0.255930
  10 H :    0.253017
  11 H :    0.154185
  12 H :    0.136547
  13 H :    0.142349
  14 H :    0.144942
  15 H :    0.136304
Sum of atomic charges:   -0.0000000

LOEWDIN ATOMIC CHARGES
----------------------
   0 N :   -0.077016
   1 C :   -0.338759
   2 C :   -0.323706
   3 O :    0.328580
   4 C :   -0.341125
   5 N :    0.111856
   6 N :    0.134639
   7 C :   -0.238403
   8 C :   -0.241681
   9 H :    0.172634
  10 H :    0.172045
  11 H :    0.130844
  12 H :    0.126293
  13 H :    0.128986
  14 H :    0.128827
  15 H :    0.125986

  Mayer bond orders larger than 0.1
B(  0-N ,  1-C ) :   1.0721 B(  0-N ,  9-H ) :   0.8710 B(  0-N , 10-H ) :   0.8733
B(  1-C ,  2-C ) :   1.5276 B(  1-C ,  5-N ) :   1.2130 B(  2-C ,  3-O ) :   0.9625
B(  2-C ,  6-N ) :   1.0934 B(  3-O ,  4-C ) :   1.1020 B(  4-C ,  5-N ) :   1.6299
B(  4-C , 11-H ) :   0.9274 B(  6-N ,  7-C ) :   0.8504 B(  6-N ,  8-C ) :   0.8542
B(  7-C ,  8-C ) :   0.9348 B(  7-C , 12-H ) :   0.9258 B(  7-C , 13-H ) :   0.9232
B(  8-C , 14-H ) :   0.9236 B(  8-C , 15-H ) :   0.9260

MP2 TOTAL ENERGY:     -433.333020039 Eh
FINAL SINGLE POINT ENERGY      -433.333020039184

DIPOLE MOMENT
-------------
                                X             Y             Z
Electronic contribution:      4.57309      -0.73591       0.40908
Nuclear contribution   :     -5.43844       0.38625      -0.13934
                        -----------------------------------------
Total Dipole Moment    :     -0.86535      -0.34966       0.26974
                        -----------------------------------------
Magnitude (a.u.)       :      0.97152
Magnitude (Debye)      :      2.46940

                             ****ORCA TERMINATED NORMALLY****
TOTAL RUN TIME: 0 days 0 hours 15 minutes 10 seconds 621 msec
