                         Program Version 3.0.3 - RELEASE   -
|  1> ! RI-MP2 RIJK def2-TZVP def2-TZVP/C def2-TZVP/JK TIGHTSCF
|  2> % maxcore 2000
|  3> % mp2 density relaxed end
|  4> *xyz 0 1
|  5>  C       -0.3276581579     1.3773602793    -0.1260664828
|  6>  N        1.0657851685     0.9249547203     0.0145371469
|  7>  C       -0.0197338160    -0.0717239160    -0.0194551830
|  8>  C       -0.2294215357    -0.8162441273     1.2595992339
|  9>  N       -1.3906237343    -1.7231936741     1.3391695405
| 10>  C       -0.0335210667    -2.2872158387     1.3989515986
| 11>  C        0.3591585260    -3.1732512702     0.2511462682
| 12>  C       -0.4207111464    -4.4046346005    -0.0283887078
| 13>  N       -0.5005797552    -3.2482672985    -0.9381398896
| 14>  H       -0.7200310036     1.9127549013     0.7347923482
| 15>  H       -0.6665985995     1.7576573495    -1.0860229178
| 16>  H        1.5382267334     0.9562920449    -0.8845126927
| 17>  H       -0.1340518183    -0.6636191023    -0.9229619576
| 18>  H       -0.0006828228    -0.2185835564     2.1405070502
| 19>  H       -1.8204161886    -1.6895372747     2.2581420690
| 20>  H        0.3297409712    -2.6240570881     2.3694751840
| 21>  H        1.4250817393    -3.1763845238     0.0305401489
| 22>  H        0.0710808021    -5.2836465454    -0.4352815230
| 23>  H       -1.2773944235    -4.6105064982     0.6086643241
| 24>  H       -1.3569360220    -2.7402976311    -0.7134337681
| 25> *
| 26>
| 27>                          ****END OF INPUT****

CARTESIAN COORDINATES (ANGSTROEM)
---------------------------------
  C     -0.327658    1.377360   -0.126066
  N      1.065785    0.924955    0.014537
  C     -0.019734   -0.071724   -0.019455
  C     -0.229422   -0.816244    1.259599
  N     -1.390624   -1.723194    1.339170
  C     -0.033521   -2.287216    1.398952
  C      0.359159   -3.173251    0.251146
  C     -0.420711   -4.404635   -0.028389
  N     -0.500580   -3.248267   -0.938140
  H     -0.720031    1.912755    0.734792
  H     -0.666599    1.757657   -1.086023
  H      1.538227    0.956292   -0.884513
  H     -0.134052   -0.663619   -0.922962
  H     -0.000683   -0.218584    2.140507
  H     -1.820416   -1.689537    2.258142
  H      0.329741   -2.624057    2.369475
  H      1.425082   -3.176385    0.030540
  H      0.071081   -5.283647   -0.435282
  H     -1.277394   -4.610506    0.608664
  H     -1.356936   -2.740298   -0.713434

 Total Charge           Charge          ....    0
 Multiplicity           Mult            ....    1
 Number of Electrons    NEL             ....   68
 Basis Dimension        Dim             ....  345

ORBITAL ENERGIES
----------------

  NO   OCC          E(Eh)            E(eV)
   0   2.0000     -15.566553      -423.5874
   1   2.0000     -15.558730      -423.3746
   2   2.0000     -15.548943      -423.1083
   3   2.0000     -11.269121      -306.6484
   4   2.0000     -11.266721      -306.5831
   5   2.0000     -11.260828      -306.4227
   6   2.0000     -11.258119      -306.3490
   7   2.0000     -11.255453      -306.2765
   8   2.0000     -11.249239      -306.1073
   9   2.0000      -1.287378       -35.0313
  10   2.0000      -1.259011       -34.2594
  11   2.0000      -1.239113       -33.7180
  12   2.0000      -0.948785       -25.8177
  13   2.0000      -0.936841       -25.4927
  14   2.0000      -0.880205       -23.9516
  15   2.0000      -0.865525       -23.5521
  16   2.0000      -0.806672       -21.9507
  17   2.0000      -0.769476       -20.9385
  18   2.0000      -0.724937       -19.7265
  19   2.0000      -0.692612       -18.8469
  20   2.0000      -0.670885       -18.2557
  21   2.0000      -0.637455       -17.3460
  22   2.0000      -0.609472       -16.5846
  23   2.0000      -0.545712       -14.8496
  24   2.0000      -0.536706       -14.6045
  25   2.0000      -0.516889       -14.0653
  26   2.0000      -0.497953       -13.5500
  27   2.0000      -0.481108       -13.0916
  28   2.0000      -0.472281       -12.8514
  29   2.0000      -0.458970       -12.4892
  30   2.0000      -0.443662       -12.0727
  31   2.0000      -0.422391       -11.4938
  32   2.0000      -0.396431       -10.7874
  33   2.0000      -0.366500        -9.9730
  34   0.0000       0.131102         3.5675
  35   0.0000       0.146038         3.9739
  36   0.0000       0.161170         4.3857
  37   0.0000       0.174458         4.7472
  38   0.0000       0.186279         5.0689

MULLIKEN ATOMIC CHARGES
-----------------------
   0 C :   -0.198941
   1 N :   -0.390427
   2 C :   -0.022177
   3 C :   -0.031231
   4 N :   -0.438498
   5 C :   -0.044230
   6 C :   -0.051469
   7 C :   -0.179516
   8 N :   -0.387398
   9 H :    0.118062
  10 H :    0.129293
  11 H :    0.222986
  12 H :    0.168682
  13 H :    0.136674
  14 H :    0.222420
  15 H :    0.130349
  16 H :    0.124679
  17 H :    0.121324
  18 H :    0.125616
  19 H :    0.243803
Sum of atomic charges:   -0.0000000

LOEWDIN ATOMIC CHARGES
----------------------
   0 C :   -0.263224
   1 N :   -0.018038
   2 C :   -0.264185
   3 C :   -0.234198
   4 N :    0.004461
   5 C :   -0.248018
   6 C :   -0.274126
   7 C :   -0.263511
   8 N :   -0.019965
   9 H :    0.125118
  10 H :    0.121261
  11 H :    0.166402
  12 H :    0.149233
  13 H :    0.147857
  14 H :    0.166972
  15 H :    0.144050
  16 H :    0.145662
  17 H :    0.123202
  18 H :    0.123423
  19 H :    0.167625

  Mayer bond orders larger than 0.1
B(  0-C ,  1-N ) :   0.9486 B(  0-C ,  2-C ) :   0.9253 B(  0-C ,  9-H ) :   0.9174
B(  0-C , 10-H ) :   0.9251 B(  1-N ,  2-C ) :   0.8932 B(  1-N , 11-H ) :   0.8700
B(  2-C ,  3-C ) :   0.9014 B(  2-C , 12-H ) :   0.9151 B(  3-C ,  4-N ) :   0.8732
B(  3-C ,  5-C ) :   0.9183 B(  3-C , 13-H ) :   0.9280 B(  4-N ,  5-C ) :   0.8820
B(  4-N , 14-H ) :   0.8677 B(  5-C ,  6-C ) :   0.9316 B(  5-C , 15-H ) :   0.9268
B(  6-C ,  7-C ) :   0.9383 B(  6-C ,  8-N ) :   0.9358 B(  6-C , 16-H ) :   0.9234
B(  7-C ,  8-N ) :   0.9172 B(  7-C , 17-H ) :   0.9281 B(  7-C , 18-H ) :   0.9145
B(  8-N , 19-H ) :   0.8601

MP2 TOTAL ENERGY:     -398.553233209 Eh
FINAL SINGLE POINT ENERGY      -398.553233208594

DIPOLE MOMENT
-------------
                                X             Y             Z
Electronic contribution:      0.40762       0.10745       0.30242
Nuclear contribution   :     -0.61652      -0.04674       0.31339
                        -----------------------------------------
Total Dipole Moment    :     -0.20890       0.06071       0.61581
                        -----------------------------------------
Magnitude (a.u.)       :      0.65311
Magnitude (Debye)      :      1.66007

                             ****ORCA TERMINATED NORMALLY****
TOTAL RUN TIME: 0 days 0 hours 15 minutes 41 seconds 386 msec
