                         Program Version 3.0.3 - RELEASE   -
|  1> ! RI-MP2 RIJK def2-TZVP def2-TZVP/C def2-TZVP/JK TIGHTSCF
|  2> % maxcore 2000
|  3> % mp2 density relaxed end
|  4> *xyz 0 1
|  5>  C       -0.0851053653     1.5879286292    -0.0775495505
|  6>  C        0.0418809666     0.0793094509    -0.0008183233
|  7>  C        1.0388069362    -0.6718598510    -0.9198808677
|  8>  C        1.3462073394    -1.6475652028     0.2397137881
|  9>  C        0.7681602649    -0.5845085955     1.2530558062
| 10>  C        1.8097870146     0.2475558273     1.8390043398
| 11>  C        2.6851487763     0.9306082675     2.2979917405
| 12>  C       -0.1270675633    -1.1042920411     2.2847359195
| 13>  N       -0.8643342955    -1.5330019836     3.0651827536
| 14>  H        0.8867833600     2.0743269026     0.0429154414
| 15>  H       -0.4964629619     1.8795953916    -1.0498259006
| 16>  H       -0.7555668925     1.9708657155     0.6986693994
| 17>  H       -0.9438559095    -0.3901377630    -0.0718056118
| 18>  H        0.6403025574    -1.0978602169    -1.8420050260
| 19>  H        1.9040298591    -0.0485960570    -1.1620535543
| 20>  H        0.7111122825    -2.5351650201     0.2202835082
| 21>  H        2.3811327717    -1.9410321416     0.4137564520
| 22>  H        3.4538378693     1.5309888379     2.7189389355
| 23> *
| 24>
| 25>                          ****END OF INPUT****

CARTESIAN COORDINATES (ANGSTROEM)
---------------------------------
  C     -0.085105    1.587929   -0.077550
  C      0.041881    0.079309   -0.000818
  C      1.038807   -0.671860   -0.919881
  C      1.346207   -1.647565    0.239714
  C      0.768160   -0.584509    1.253056
  C      1.809787    0.247556    1.839004
  C      2.685149    0.930608    2.297992
  C     -0.127068   -1.104292    2.284736
  N     -0.864334   -1.533002    3.065183
  H      0.886783    2.074327    0.042915
  H     -0.496463    1.879595   -1.049826
  H     -0.755567    1.970866    0.698669
  H     -0.943856   -0.390138   -0.071806
  H      0.640303   -1.097860   -1.842005
  H      1.904030   -0.048596   -1.162054
  H      0.711112   -2.535165    0.220284
  H      2.381133   -1.941032    0.413756
  H      3.453838    1.530989    2.718939

 Total Charge           Charge          ....    0
 Multiplicity           Mult            ....    1
 Number of Electrons    NEL             ....   64
 Basis Dimension        Dim             ....  333

ORBITAL ENERGIES
----------------

  NO   OCC          E(Eh)            E(eV)
   0   2.0000     -15.570243      -423.6879
   1   2.0000     -11.312554      -307.8303
   2   2.0000     -11.273910      -306.7787
   3   2.0000     -11.266163      -306.5679
   4   2.0000     -11.259218      -306.3789
   5   2.0000     -11.253914      -306.2346
   6   2.0000     -11.244598      -305.9811
   7   2.0000     -11.243544      -305.9524
   8   2.0000     -11.228808      -305.5514
   9   2.0000      -1.224830       -33.3293
  10   2.0000      -1.177730       -32.0477
  11   2.0000      -1.054200       -28.6862
  12   2.0000      -1.009161       -27.4607
  13   2.0000      -0.970463       -26.4076
  14   2.0000      -0.874775       -23.8038
  15   2.0000      -0.807960       -21.9857
  16   2.0000      -0.767105       -20.8740
  17   2.0000      -0.717111       -19.5136
  18   2.0000      -0.664667       -18.0865
  19   2.0000      -0.625890       -17.0313
  20   2.0000      -0.607628       -16.5344
  21   2.0000      -0.594353       -16.1732
  22   2.0000      -0.562255       -15.2997
  23   2.0000      -0.541217       -14.7273
  24   2.0000      -0.535773       -14.5791
  25   2.0000      -0.514193       -13.9919
  26   2.0000      -0.495292       -13.4776
  27   2.0000      -0.472067       -12.8456
  28   2.0000      -0.452652       -12.3173
  29   2.0000      -0.449867       -12.2415
  30   2.0000      -0.408516       -11.1163
  31   2.0000      -0.395884       -10.7726
  32   0.0000       0.124774         3.3953
  33   0.0000       0.136120         3.7040
  34   0.0000       0.140143         3.8135
  35   0.0000       0.154167         4.1951
  36   0.0000       0.159625         4.3436

MULLIKEN ATOMIC CHARGES
-----------------------
   0 C :   -0.416620
   1 C :   -0.086110
   2 C :   -0.242419
   3 C :   -0.243444
   4 C :    0.180399
   5 C :   -0.105931
   6 C :   -0.111049
   7 C :   -0.219662
   8 N :   -0.048016
   9 H :    0.140611
  10 H :    0.140806
  11 H :    0.146123
  12 H :    0.124558
  13 H :    0.130856
  14 H :    0.128804
  15 H :    0.141739
  16 H :    0.141248
  17 H :    0.198105
Sum of atomic charges:   -0.0000000

LOEWDIN ATOMIC CHARGES
----------------------
   0 C :   -0.288345
   1 C :   -0.185450
   2 C :   -0.211019
   3 C :   -0.155167
   4 C :   -0.207703
   5 C :   -0.053753
   6 C :   -0.069480
   7 C :   -0.138501
   8 N :    0.070087
   9 H :    0.130561
  10 H :    0.130474
  11 H :    0.131933
  12 H :    0.162119
  13 H :    0.128899
  14 H :    0.142172
  15 H :    0.145999
  16 H :    0.136346
  17 H :    0.130826

  Mayer bond orders larger than 0.1
B(  0-C ,  1-C ) :   0.9210 B(  0-C ,  9-H ) :   0.9283 B(  0-C , 10-H ) :   0.9350
B(  0-C , 11-H ) :   0.9350 B(  1-C ,  2-C ) :   0.9416 B(  1-C ,  4-C ) :   0.8251
B(  1-C , 12-H ) :   0.9189 B(  2-C ,  3-C ) :   0.9487 B(  2-C , 13-H ) :   0.9275
B(  2-C , 14-H ) :   0.9160 B(  3-C ,  4-C ) :   0.8348 B(  3-C , 15-H ) :   0.9164
B(  3-C , 16-H ) :   0.9206 B(  4-C ,  5-C ) :   1.2526 B(  4-C ,  6-C ) :  -0.1034
B(  4-C ,  7-C ) :   0.8978 B(  5-C ,  6-C ) :   2.5377 B(  6-C , 17-H ) :   0.8844
B(  7-C ,  8-N ) :   2.8731

MP2 TOTAL ENERGY:     -364.115138275 Eh
FINAL SINGLE POINT ENERGY      -364.115138275105

DIPOLE MOMENT
-------------
                                X             Y             Z
Electronic contribution:     -0.41004      -3.21146       7.63317
Nuclear contribution   :      1.22967       3.75491      -8.94403
                        -----------------------------------------
Total Dipole Moment    :      0.81963       0.54345      -1.31085
                        -----------------------------------------
Magnitude (a.u.)       :      1.63874
Magnitude (Debye)      :      4.16535

                             ****ORCA TERMINATED NORMALLY****
TOTAL RUN TIME: 0 days 0 hours 19 minutes 5 seconds 845 msec
