                         Program Version 3.0.3 - RELEASE   -
|  1> ! RI-MP2 RIJK def2-TZVP def2-TZVP/C def2-TZVP/JK TIGHTSCF
|  2> % maxcore 2000
|  3> % mp2 density relaxed end
|  4> *xyz 0 1
|  5>  C       -0.1106955255     1.5056147815     0.1994606809
|  6>  C        0.0234166077    -0.0055797801     0.0471138279
|  7>  C        1.1031284517    -0.4598543993    -0.9786465457
|  8>  C        2.0854648984    -0.7216381052     0.1937540529
|  9>  C        0.8803716831    -0.6896308144     1.1779268975
| 10>  O        1.0792402816     0.0622360585     2.3699676084
| 11>  C        0.6782933860    -0.6841836850     3.5161253173
| 12>  C        0.2478071584    -2.0185257169     2.9764863764
| 13>  C        0.3695647192    -2.0171521342     1.6543583479
| 14>  H        0.8640709941     1.9851625462     0.3325566991
| 15>  H       -0.5829933444     1.9378247894    -0.6894935626
| 16>  H       -0.7198038684     1.7608459409     1.0712132977
| 17>  H       -0.9671137257    -0.4514779814    -0.0914412198
| 18>  H        0.8245403658    -1.3755881709    -1.5070598538
| 19>  H        1.4086601773     0.2842140800    -1.7183624337
| 20>  H        2.6896705739    -1.6321535005     0.1716291324
| 21>  H        2.7404035976     0.1317183357     0.3850007519
| 22>  H        1.5210005564    -0.7628238174     4.2203534036
| 23>  H       -0.1352132500    -0.1613286107     4.0439537798
| 24>  H       -0.1033590746    -2.8294007762     3.6017926234
| 25>  H        0.1354619974    -2.8291412099     0.9771328588
| 26> *
| 27>
| 28>                          ****END OF INPUT****

CARTESIAN COORDINATES (ANGSTROEM)
---------------------------------
  C     -0.110696    1.505615    0.199461
  C      0.023417   -0.005580    0.047114
  C      1.103128   -0.459854   -0.978647
  C      2.085465   -0.721638    0.193754
  C      0.880372   -0.689631    1.177927
  O      1.079240    0.062236    2.369968
  C      0.678293   -0.684184    3.516125
  C      0.247807   -2.018526    2.976486
  C      0.369565   -2.017152    1.654358
  H      0.864071    1.985163    0.332557
  H     -0.582993    1.937825   -0.689494
  H     -0.719804    1.760846    1.071213
  H     -0.967114   -0.451478   -0.091441
  H      0.824540   -1.375588   -1.507060
  H      1.408660    0.284214   -1.718362
  H      2.689671   -1.632154    0.171629
  H      2.740404    0.131718    0.385001
  H      1.521001   -0.762824    4.220353
  H     -0.135213   -0.161329    4.043954
  H     -0.103359   -2.829401    3.601793
  H      0.135462   -2.829141    0.977133

 Total Charge           Charge          ....    0
 Multiplicity           Mult            ....    1
 Number of Electrons    NEL             ....   68
 Basis Dimension        Dim             ....  351

ORBITAL ENERGIES
----------------

  NO   OCC          E(Eh)            E(eV)
   0   2.0000     -20.546950      -559.1109
   1   2.0000     -11.281019      -306.9721
   2   2.0000     -11.277059      -306.8644
   3   2.0000     -11.231761      -305.6318
   4   2.0000     -11.228995      -305.5565
   5   2.0000     -11.221860      -305.3623
   6   2.0000     -11.216915      -305.2278
   7   2.0000     -11.214716      -305.1679
   8   2.0000     -11.206032      -304.9316
   9   2.0000      -1.375346       -37.4251
  10   2.0000      -1.127276       -30.6747
  11   2.0000      -1.067228       -29.0407
  12   2.0000      -0.976367       -26.5683
  13   2.0000      -0.951425       -25.8896
  14   2.0000      -0.853219       -23.2173
  15   2.0000      -0.828256       -22.5380
  16   2.0000      -0.770874       -20.9766
  17   2.0000      -0.726345       -19.7648
  18   2.0000      -0.681690       -18.5497
  19   2.0000      -0.645959       -17.5774
  20   2.0000      -0.637902       -17.3582
  21   2.0000      -0.620618       -16.8879
  22   2.0000      -0.572391       -15.5756
  23   2.0000      -0.557009       -15.1570
  24   2.0000      -0.542324       -14.7574
  25   2.0000      -0.530421       -14.4335
  26   2.0000      -0.519405       -14.1337
  27   2.0000      -0.503488       -13.7006
  28   2.0000      -0.490765       -13.3544
  29   2.0000      -0.459219       -12.4960
  30   2.0000      -0.444752       -12.1023
  31   2.0000      -0.431122       -11.7314
  32   2.0000      -0.415887       -11.3169
  33   2.0000      -0.341813        -9.3012
  34   0.0000       0.140315         3.8182
  35   0.0000       0.148427         4.0389
  36   0.0000       0.159798         4.3483
  37   0.0000       0.166480         4.5302
  38   0.0000       0.183165         4.9842

MULLIKEN ATOMIC CHARGES
-----------------------
   0 C :   -0.423389
   1 C :   -0.061225
   2 C :   -0.248514
   3 C :   -0.295129
   4 C :    0.367872
   5 O :   -0.331134
   6 C :    0.009975
   7 C :   -0.175502
   8 C :   -0.293004
   9 H :    0.131068
  10 H :    0.129442
  11 H :    0.127767
  12 H :    0.097448
  13 H :    0.120444
  14 H :    0.111521
  15 H :    0.117553
  16 H :    0.128585
  17 H :    0.107944
  18 H :    0.104085
  19 H :    0.137318
  20 H :    0.136875
Sum of atomic charges:   -0.0000000

LOEWDIN ATOMIC CHARGES
----------------------
   0 C :   -0.293363
   1 C :   -0.212196
   2 C :   -0.224260
   3 C :   -0.197471
   4 C :   -0.284805
   5 O :    0.201752
   6 C :   -0.283298
   7 C :   -0.161231
   8 C :   -0.123867
   9 H :    0.127331
  10 H :    0.122830
  11 H :    0.125537
  12 H :    0.139949
  13 H :    0.130974
  14 H :    0.127134
  15 H :    0.125984
  16 H :    0.141091
  17 H :    0.126735
  18 H :    0.125630
  19 H :    0.139648
  20 H :    0.145896

  Mayer bond orders larger than 0.1
B(  0-C ,  1-C ) :   0.9059 B(  0-C ,  9-H ) :   0.9320 B(  0-C , 10-H ) :   0.9380
B(  0-C , 11-H ) :   0.9386 B(  1-C ,  2-C ) :   0.9206 B(  1-C ,  4-C ) :   0.8543
B(  1-C , 12-H ) :   0.9327 B(  2-C ,  3-C ) :   0.9463 B(  2-C , 13-H ) :   0.9258
B(  2-C , 14-H ) :   0.9237 B(  3-C ,  4-C ) :   0.8570 B(  3-C , 15-H ) :   0.9265
B(  3-C , 16-H ) :   0.9224 B(  4-C ,  5-O ) :   0.9762 B(  4-C ,  8-C ) :   0.9329
B(  5-O ,  6-C ) :   0.9402 B(  6-C ,  7-C ) :   0.9804 B(  6-C , 17-H ) :   0.9127
B(  6-C , 18-H ) :   0.9104 B(  7-C ,  8-C ) :   1.8099 B(  7-C , 19-H ) :   0.9198
B(  8-C , 20-H ) :   0.9113

MP2 TOTAL ENERGY:     -386.404325964 Eh
FINAL SINGLE POINT ENERGY      -386.404325964323

DIPOLE MOMENT
-------------
                                X             Y             Z
Electronic contribution:      0.57711      -2.61087       3.89340
Nuclear contribution   :     -0.80695       2.12357      -3.84533
                        -----------------------------------------
Total Dipole Moment    :     -0.22984      -0.48730       0.04807
                        -----------------------------------------
Magnitude (a.u.)       :      0.54093
Magnitude (Debye)      :      1.37493

                             ****ORCA TERMINATED NORMALLY****
TOTAL RUN TIME: 0 days 0 hours 19 minutes 1 seconds 541 msec
