                         Program Version 3.0.3 - RELEASE   -
|  1> ! RI-MP2 RIJK def2-TZVP def2-TZVP/C def2-TZVP/JK TIGHTSCF
|  2> % maxcore 2000
|  3> % mp2 density relaxed end
|  4> *xyz 0 1
|  5>  C       -0.1341832500     1.5810725588     0.1482800584
|  6>  C       -0.0092620571     0.0671043072     0.0598544925
|  7>  C        0.9938370129    -0.5507718189    -0.9865612445
|  8>  C        1.7063452666    -1.2692086090     0.1724053399
|  9>  C        2.3792680988    -2.6143978060     0.1477635637
| 10>  C        3.7524084553    -2.5547669949    -0.4992665376
| 11>  O        4.7591798544    -2.9829235966     0.0016027297
| 12>  N        2.1828528675    -0.1826022172     1.0678339267
| 13>  C        0.7784454487    -0.6588331686     1.1633820249
| 14>  H        0.8457821600     2.0339187206     0.3199893342
| 15>  H       -0.5493591798     1.9953037358    -0.7768559250
| 16>  H       -0.7964540082     1.8746275148     0.9704593855
| 17>  H       -0.9939205427    -0.3952413282    -0.0607337532
| 18>  H        0.5042048696    -1.2320370022    -1.6868994969
| 19>  H        1.6118505471     0.1619090031    -1.5386303997
| 20>  H        2.4939144249    -3.0259624233     1.1560256214
| 21>  H        1.7667107269    -3.3161715512    -0.4373863856
| 22>  H        3.7698339245    -2.0703757778    -1.5021957787
| 23>  H        2.6982265010    -0.6224546087     1.8310633686
| 24>  H        0.4003275996    -1.0581925076     2.0979690257
| 25> *
| 26>
| 27>                          ****END OF INPUT****

CARTESIAN COORDINATES (ANGSTROEM)
---------------------------------
  C     -0.134183    1.581073    0.148280
  C     -0.009262    0.067104    0.059854
  C      0.993837   -0.550772   -0.986561
  C      1.706345   -1.269209    0.172405
  C      2.379268   -2.614398    0.147764
  C      3.752408   -2.554767   -0.499267
  O      4.759180   -2.982924    0.001603
  N      2.182853   -0.182602    1.067834
  C      0.778445   -0.658833    1.163382
  H      0.845782    2.033919    0.319989
  H     -0.549359    1.995304   -0.776856
  H     -0.796454    1.874628    0.970459
  H     -0.993921   -0.395241   -0.060734
  H      0.504205   -1.232037   -1.686899
  H      1.611851    0.161909   -1.538630
  H      2.493914   -3.025962    1.156026
  H      1.766711   -3.316172   -0.437386
  H      3.769834   -2.070376   -1.502196
  H      2.698227   -0.622455    1.831063
  H      0.400328   -1.058193    2.097969

 Total Charge           Charge          ....    0
 Multiplicity           Mult            ....    1
 Number of Electrons    NEL             ....   68
 Basis Dimension        Dim             ....  345

ORBITAL ENERGIES
----------------

  NO   OCC          E(Eh)            E(eV)
   0   2.0000     -20.560841      -559.4889
   1   2.0000     -15.564743      -423.5382
   2   2.0000     -11.336251      -308.4751
   3   2.0000     -11.277718      -306.8823
   4   2.0000     -11.265973      -306.5627
   5   2.0000     -11.254280      -306.2445
   6   2.0000     -11.240322      -305.8647
   7   2.0000     -11.233853      -305.6887
   8   2.0000     -11.211227      -305.0730
   9   2.0000      -1.399913       -38.0936
  10   2.0000      -1.289200       -35.0809
  11   2.0000      -1.069654       -29.1068
  12   2.0000      -1.047645       -28.5079
  13   2.0000      -0.960176       -26.1277
  14   2.0000      -0.881361       -23.9831
  15   2.0000      -0.828029       -22.5318
  16   2.0000      -0.790155       -21.5012
  17   2.0000      -0.736232       -20.0339
  18   2.0000      -0.709720       -19.3125
  19   2.0000      -0.666170       -18.1274
  20   2.0000      -0.637223       -17.3397
  21   2.0000      -0.616950       -16.7881
  22   2.0000      -0.607204       -16.5229
  23   2.0000      -0.583474       -15.8771
  24   2.0000      -0.571126       -15.5411
  25   2.0000      -0.549042       -14.9402
  26   2.0000      -0.528995       -14.3947
  27   2.0000      -0.511995       -13.9321
  28   2.0000      -0.499364       -13.5884
  29   2.0000      -0.470290       -12.7973
  30   2.0000      -0.448260       -12.1978
  31   2.0000      -0.444318       -12.0905
  32   2.0000      -0.425769       -11.5858
  33   2.0000      -0.363245        -9.8844
  34   0.0000       0.124177         3.3790
  35   0.0000       0.133915         3.6440
  36   0.0000       0.150411         4.0929
  37   0.0000       0.151840         4.1318
  38   0.0000       0.161877         4.4049

MULLIKEN ATOMIC CHARGES
-----------------------
   0 C :   -0.451255
   1 C :    0.038936
   2 C :   -0.266681
   3 C :    0.073951
   4 C :   -0.157721
   5 C :    0.106413
   6 O :   -0.261395
   7 N :   -0.395036
   8 C :   -0.129101
   9 H :    0.153919
  10 H :    0.127930
  11 H :    0.125362
  12 H :    0.100025
  13 H :    0.119490
  14 H :    0.118429
  15 H :    0.121606
  16 H :    0.133568
  17 H :    0.084094
  18 H :    0.217064
  19 H :    0.140401
Sum of atomic charges:    0.0000000

LOEWDIN ATOMIC CHARGES
----------------------
   0 C :   -0.299566
   1 C :   -0.229044
   2 C :   -0.171638
   3 C :   -0.266296
   4 C :   -0.235409
   5 C :   -0.282915
   6 O :    0.134373
   7 N :    0.023472
   8 C :   -0.196458
   9 H :    0.130373
  10 H :    0.123277
  11 H :    0.123519
  12 H :    0.148862
  13 H :    0.134104
  14 H :    0.134651
  15 H :    0.152327
  16 H :    0.159743
  17 H :    0.113087
  18 H :    0.173612
  19 H :    0.129926

  Mayer bond orders larger than 0.1
B(  0-C ,  1-C ) :   0.8811 B(  0-C ,  9-H ) :   0.9378 B(  0-C , 10-H ) :   0.9378
B(  0-C , 11-H ) :   0.9381 B(  1-C ,  2-C ) :   0.9847 B(  1-C ,  8-C ) :   0.9024
B(  1-C , 12-H ) :   0.9238 B(  2-C ,  3-C ) :   0.9501 B(  2-C , 13-H ) :   0.9340
B(  2-C , 14-H ) :   0.8964 B(  3-C ,  4-C ) :   0.8965 B(  3-C ,  7-N ) :   0.8931
B(  3-C ,  8-C ) :   0.8388 B(  4-C ,  5-C ) :   0.8797 B(  4-C , 15-H ) :   0.8994
B(  4-C , 16-H ) :   0.9066 B(  5-C ,  6-O ) :   1.9955 B(  5-C , 17-H ) :   0.9330
B(  7-N ,  8-C ) :   0.9743 B(  7-N , 18-H ) :   0.8660 B(  8-C , 19-H ) :   0.9104

MP2 TOTAL ENERGY:     -402.421114071 Eh
FINAL SINGLE POINT ENERGY      -402.421114070585

DIPOLE MOMENT
-------------
                                X             Y             Z
Electronic contribution:      6.88185      -5.45852       1.01459
Nuclear contribution   :     -8.08045       5.22745      -1.11735
                        -----------------------------------------
Total Dipole Moment    :     -1.19860      -0.23107      -0.10276
                        -----------------------------------------
Magnitude (a.u.)       :      1.22499
Magnitude (Debye)      :      3.11367

                             ****ORCA TERMINATED NORMALLY****
TOTAL RUN TIME: 0 days 0 hours 17 minutes 25 seconds 199 msec
