                         Program Version 3.0.3 - RELEASE   -
|  1> ! RI-MP2 RIJK def2-TZVP def2-TZVP/C def2-TZVP/JK TIGHTSCF
|  2> % maxcore 2000
|  3> % mp2 density relaxed end
|  4> *xyz 0 1
|  5>  C       -0.1095359412     1.6059119653    -0.0777968873
|  6>  C        0.2029064397     0.1177821252     0.0994680130
|  7>  C        0.7577554378    -0.5178036883    -1.1737769578
|  8>  C        0.8688041918    -2.0940494695    -1.1883960717
|  9>  N       -0.0887853290    -2.0697251475    -2.3163234324
| 10>  C       -0.8602826539    -2.5942604849    -3.3059564226
| 11>  N       -1.4643647284    -1.6133849517    -3.9551362173
| 12>  C       -1.0686677266    -0.4226936681    -3.3760180200
| 13>  C       -0.2056047744    -0.7102194539    -2.3472659641
| 14>  H        0.7870467931     2.1698443225    -0.3577044837
| 15>  H       -0.8586294168     1.7556905063    -0.8621396438
| 16>  H       -0.5015126175     2.0391253204     0.8469479326
| 17>  H        0.9310319485    -0.0166766537     0.9098565018
| 18>  H       -0.7064108865    -0.4177309118     0.3991321127
| 19>  H        1.6998404704    -0.0348785461    -1.4557220332
| 20>  H        1.8464818366    -2.5028063348    -1.4544601687
| 21>  H        0.4812847159    -2.5960112259    -0.2979595287
| 22>  H       -0.9573173436    -3.6478112099    -3.5151400035
| 23>  H       -1.4301914959     0.5240814462    -3.7443899353
| 24> *
| 25>
| 26>                          ****END OF INPUT****

CARTESIAN COORDINATES (ANGSTROEM)
---------------------------------
  C     -0.109536    1.605912   -0.077797
  C      0.202906    0.117782    0.099468
  C      0.757755   -0.517804   -1.173777
  C      0.868804   -2.094049   -1.188396
  N     -0.088785   -2.069725   -2.316323
  C     -0.860283   -2.594260   -3.305956
  N     -1.464365   -1.613385   -3.955136
  C     -1.068668   -0.422694   -3.376018
  C     -0.205605   -0.710219   -2.347266
  H      0.787047    2.169844   -0.357704
  H     -0.858629    1.755691   -0.862140
  H     -0.501513    2.039125    0.846948
  H      0.931032   -0.016677    0.909857
  H     -0.706411   -0.417731    0.399132
  H      1.699840   -0.034879   -1.455722
  H      1.846482   -2.502806   -1.454460
  H      0.481285   -2.596011   -0.297960
  H     -0.957317   -3.647811   -3.515140
  H     -1.430191    0.524081   -3.744390

 Total Charge           Charge          ....    0
 Multiplicity           Mult            ....    1
 Number of Electrons    NEL             ....   66
 Basis Dimension        Dim             ....  339

ORBITAL ENERGIES
----------------

  NO   OCC          E(Eh)            E(eV)
   0   2.0000     -15.601938      -424.5503
   1   2.0000     -15.536151      -422.7602
   2   2.0000     -11.297528      -307.4214
   3   2.0000     -11.285080      -307.0826
   4   2.0000     -11.265797      -306.5579
   5   2.0000     -11.251169      -306.1599
   6   2.0000     -11.237046      -305.7756
   7   2.0000     -11.234410      -305.7038
   8   2.0000     -11.222869      -305.3898
   9   2.0000      -1.349391       -36.7188
  10   2.0000      -1.194575       -32.5060
  11   2.0000      -1.076431       -29.2912
  12   2.0000      -1.005770       -27.3684
  13   2.0000      -0.970962       -26.4212
  14   2.0000      -0.898253       -24.4427
  15   2.0000      -0.834345       -22.7037
  16   2.0000      -0.788643       -21.4601
  17   2.0000      -0.730714       -19.8837
  18   2.0000      -0.713140       -19.4055
  19   2.0000      -0.668954       -18.2032
  20   2.0000      -0.622160       -16.9298
  21   2.0000      -0.603928       -16.4337
  22   2.0000      -0.567365       -15.4388
  23   2.0000      -0.563097       -15.3226
  24   2.0000      -0.551952       -15.0194
  25   2.0000      -0.541742       -14.7415
  26   2.0000      -0.528959       -14.3937
  27   2.0000      -0.496996       -13.5239
  28   2.0000      -0.489429       -13.3180
  29   2.0000      -0.479853       -13.0575
  30   2.0000      -0.416655       -11.3378
  31   2.0000      -0.375235       -10.2107
  32   2.0000      -0.306150        -8.3308
  33   0.0000       0.128696         3.5020
  34   0.0000       0.144773         3.9395
  35   0.0000       0.153394         4.1741
  36   0.0000       0.167236         4.5507
  37   0.0000       0.181737         4.9453

MULLIKEN ATOMIC CHARGES
-----------------------
   0 C :   -0.406761
   1 C :   -0.210309
   2 C :    0.021025
   3 C :   -0.176305
   4 N :   -0.060565
   5 C :    0.002969
   6 N :   -0.283368
   7 C :   -0.158667
   8 C :   -0.033115
   9 H :    0.125240
  10 H :    0.138424
  11 H :    0.137519
  12 H :    0.115493
  13 H :    0.117139
  14 H :    0.119777
  15 H :    0.137017
  16 H :    0.137466
  17 H :    0.145928
  18 H :    0.131092
Sum of atomic charges:   -0.0000000

LOEWDIN ATOMIC CHARGES
----------------------
   0 C :   -0.311285
   1 C :   -0.273461
   2 C :   -0.193369
   3 C :   -0.163333
   4 N :    0.281384
   5 C :   -0.314701
   6 N :    0.084903
   7 C :   -0.251424
   8 C :   -0.183704
   9 H :    0.122147
  10 H :    0.125913
  11 H :    0.123122
  12 H :    0.137944
  13 H :    0.141723
  14 H :    0.152852
  15 H :    0.130319
  16 H :    0.132002
  17 H :    0.128865
  18 H :    0.130103

  Mayer bond orders larger than 0.1
B(  0-C ,  1-C ) :   0.9244 B(  0-C ,  9-H ) :   0.9364 B(  0-C , 10-H ) :   0.9377
B(  0-C , 11-H ) :   0.9389 B(  1-C ,  2-C ) :   0.8874 B(  1-C , 12-H ) :   0.9311
B(  1-C , 13-H ) :   0.9226 B(  2-C ,  3-C ) :   0.9105 B(  2-C ,  8-C ) :   0.9217
B(  2-C , 14-H ) :   0.9208 B(  3-C ,  4-N ) :   0.8628 B(  3-C , 15-H ) :   0.9128
B(  3-C , 16-H ) :   0.9131 B(  4-N ,  5-C ) :   1.1467 B(  4-N ,  8-C ) :   1.1039
B(  5-C ,  6-N ) :   1.5155 B(  5-C , 17-H ) :   0.9249 B(  6-N ,  7-C ) :   1.3163
B(  7-C ,  8-C ) :   1.4452 B(  7-C , 18-H ) :   0.9465

MP2 TOTAL ENERGY:     -381.395601267 Eh
FINAL SINGLE POINT ENERGY      -381.395601266808

DIPOLE MOMENT
-------------
                                X             Y             Z
Electronic contribution:     -2.07813      -5.95362      -7.63272
Nuclear contribution   :      3.15857       5.86075       9.01469
                        -----------------------------------------
Total Dipole Moment    :      1.08044      -0.09288       1.38197
                        -----------------------------------------
Magnitude (a.u.)       :      1.75665
Magnitude (Debye)      :      4.46504

                             ****ORCA TERMINATED NORMALLY****
TOTAL RUN TIME: 0 days 0 hours 18 minutes 36 seconds 774 msec
