                         Program Version 3.0.3 - RELEASE   -
|  1> ! RI-MP2 RIJK def2-TZVP def2-TZVP/C def2-TZVP/JK TIGHTSCF
|  2> % maxcore 2000
|  3> % mp2 density relaxed end
|  4> *xyz 0 1
|  5>  C       -0.1042204944     1.5518263573     0.1001156716
|  6>  C        0.0188114455     0.0534436941    -0.0442448735
|  7>  C        0.6799872419    -0.6220214304    -1.2030614772
|  8>  C        1.3024355388     0.1147467619    -2.3653268130
|  9>  C        1.3830419725    -0.6498901171     0.1792090815
| 10>  C        2.5644581414     0.1395593527     0.3931041094
| 11>  C        3.5541877257     0.7973627249     0.5743980721
| 12>  C        1.3485171416    -1.9049930878     0.8911387367
| 13>  N        1.2944285959    -2.9165961592     1.4497552736
| 14>  H        0.7860419672     2.0776995560    -0.2487172597
| 15>  H       -0.9639112724     1.9150861018    -0.4728251755
| 16>  H       -0.2601595530     1.8234819041     1.1485098699
| 17>  H       -0.8048859408    -0.5022785103     0.3943544540
| 18>  H        0.2569079561    -1.5870219956    -1.4665966949
| 19>  H        1.8159515125     1.0256362187    -2.0532728648
| 20>  H        2.0341012767    -0.5207755381    -2.8732843023
| 21>  H        0.5312943680     0.3878009909    -3.0933860304
| 22>  H        4.4331248768     1.3695080759     0.7423621825
| 23> *
| 24>
| 25>                          ****END OF INPUT****

CARTESIAN COORDINATES (ANGSTROEM)
---------------------------------
  C     -0.104220    1.551826    0.100116
  C      0.018811    0.053444   -0.044245
  C      0.679987   -0.622021   -1.203061
  C      1.302436    0.114747   -2.365327
  C      1.383042   -0.649890    0.179209
  C      2.564458    0.139559    0.393104
  C      3.554188    0.797363    0.574398
  C      1.348517   -1.904993    0.891139
  N      1.294429   -2.916596    1.449755
  H      0.786042    2.077700   -0.248717
  H     -0.963911    1.915086   -0.472825
  H     -0.260160    1.823482    1.148510
  H     -0.804886   -0.502279    0.394354
  H      0.256908   -1.587022   -1.466597
  H      1.815952    1.025636   -2.053273
  H      2.034101   -0.520776   -2.873284
  H      0.531294    0.387801   -3.093386
  H      4.433125    1.369508    0.742362

 Total Charge           Charge          ....    0
 Multiplicity           Mult            ....    1
 Number of Electrons    NEL             ....   64
 Basis Dimension        Dim             ....  333

ORBITAL ENERGIES
----------------

  NO   OCC          E(Eh)            E(eV)
   0   2.0000     -15.566986      -423.5992
   1   2.0000     -11.309604      -307.7500
   2   2.0000     -11.276101      -306.8383
   3   2.0000     -11.275381      -306.8187
   4   2.0000     -11.274704      -306.8003
   5   2.0000     -11.254970      -306.2633
   6   2.0000     -11.241803      -305.9050
   7   2.0000     -11.239203      -305.8343
   8   2.0000     -11.239199      -305.8342
   9   2.0000      -1.229702       -33.4619
  10   2.0000      -1.190871       -32.4052
  11   2.0000      -1.052617       -28.6432
  12   2.0000      -1.009814       -27.4784
  13   2.0000      -0.990148       -26.9433
  14   2.0000      -0.899079       -24.4652
  15   2.0000      -0.784101       -21.3365
  16   2.0000      -0.782805       -21.3012
  17   2.0000      -0.721807       -19.6414
  18   2.0000      -0.672146       -18.2900
  19   2.0000      -0.623618       -16.9695
  20   2.0000      -0.599291       -16.3075
  21   2.0000      -0.587514       -15.9871
  22   2.0000      -0.564206       -15.3528
  23   2.0000      -0.558061       -15.1856
  24   2.0000      -0.553214       -15.0537
  25   2.0000      -0.530272       -14.4294
  26   2.0000      -0.506273       -13.7764
  27   2.0000      -0.491669       -13.3790
  28   2.0000      -0.446740       -12.1564
  29   2.0000      -0.439344       -11.9552
  30   2.0000      -0.405721       -11.0402
  31   2.0000      -0.371499       -10.1090
  32   0.0000       0.122409         3.3309
  33   0.0000       0.136408         3.7119
  34   0.0000       0.149621         4.0714
  35   0.0000       0.155245         4.2244
  36   0.0000       0.163682         4.4540

MULLIKEN ATOMIC CHARGES
-----------------------
   0 C :   -0.412873
   1 C :   -0.074705
   2 C :   -0.074697
   3 C :   -0.412890
   4 C :   -0.009347
   5 C :   -0.015039
   6 C :   -0.095192
   7 C :   -0.215026
   8 N :   -0.057742
   9 H :    0.142279
  10 H :    0.143569
  11 H :    0.148743
  12 H :    0.150693
  13 H :    0.150692
  14 H :    0.142289
  15 H :    0.148744
  16 H :    0.143569
  17 H :    0.196933
Sum of atomic charges:    0.0000000

LOEWDIN ATOMIC CHARGES
----------------------
   0 C :   -0.276353
   1 C :   -0.156484
   2 C :   -0.156482
   3 C :   -0.276354
   4 C :   -0.184699
   5 C :   -0.057404
   6 C :   -0.071653
   7 C :   -0.139150
   8 N :    0.066838
   9 H :    0.132208
  10 H :    0.132375
  11 H :    0.134078
  12 H :    0.161956
  13 H :    0.161956
  14 H :    0.132210
  15 H :    0.134077
  16 H :    0.132376
  17 H :    0.130506

  Mayer bond orders larger than 0.1
B(  0-C ,  1-C ) :   0.9068 B(  0-C ,  9-H ) :   0.9354 B(  0-C , 10-H ) :   0.9338
B(  0-C , 11-H ) :   0.9344 B(  1-C ,  2-C ) :   0.9130 B(  1-C ,  4-C ) :   0.7953
B(  1-C , 12-H ) :   0.9184 B(  2-C ,  3-C ) :   0.9068 B(  2-C ,  4-C ) :   0.7953
B(  2-C , 13-H ) :   0.9184 B(  3-C , 14-H ) :   0.9354 B(  3-C , 15-H ) :   0.9344
B(  3-C , 16-H ) :   0.9338 B(  4-C ,  5-C ) :   1.2397 B(  4-C ,  6-C ) :  -0.1267
B(  4-C ,  7-C ) :   0.9368 B(  5-C ,  6-C ) :   2.5300 B(  6-C , 17-H ) :   0.8915
B(  7-C ,  8-N ) :   2.8517

MP2 TOTAL ENERGY:     -364.114603125 Eh
FINAL SINGLE POINT ENERGY      -364.114603124757

DIPOLE MOMENT
-------------
                                X             Y             Z
Electronic contribution:      3.36426      -7.04533       6.02615
Nuclear contribution   :     -3.64568       8.51409      -7.04277
                        -----------------------------------------
Total Dipole Moment    :     -0.28141       1.46876      -1.01662
                        -----------------------------------------
Magnitude (a.u.)       :      1.80830
Magnitude (Debye)      :      4.59634

                             ****ORCA TERMINATED NORMALLY****
TOTAL RUN TIME: 0 days 0 hours 17 minutes 53 seconds 986 msec
