                         Program Version 3.0.3 - RELEASE   -
|  1> ! RI-MP2 RIJK def2-TZVP def2-TZVP/C def2-TZVP/JK TIGHTSCF
|  2> % maxcore 2000
|  3> % mp2 density relaxed end
|  4> *xyz 0 1
|  5>  C       -0.4857365614     1.4036265360    -0.1274554460
|  6>  C       -0.0939540708    -0.0421218338     0.0616767347
|  7>  N        1.3079613942    -0.4195240724    -0.1862665195
|  8>  C        0.7633349431    -0.5724651279     1.1625185652
|  9>  C        1.3785115065     0.2245232744     2.2873361705
| 10>  C        0.6836980726     0.1731394610     3.6441073737
| 11>  C        1.9774975952    -0.5548483830     3.4570783425
| 12>  C        2.0546599740     1.4538435536     1.9562923666
| 13>  N        2.6060910249     2.4477714911     1.7408148723
| 14>  H        0.3088699025     2.0823233001     0.1840597131
| 15>  H       -0.6999633403     1.5990025757    -1.1835642615
| 16>  H       -1.3903463554     1.6342967814     0.4457529526
| 17>  H       -0.8493793888    -0.7500395142    -0.2818081292
| 18>  H        1.3849818514    -1.3140002636    -0.6607100575
| 19>  H        0.5127999692    -1.5802570516     1.4950733941
| 20>  H        0.6798675023     1.0772356989     4.2403736335
| 21>  H       -0.2345917384    -0.4024537428     3.6839134604
| 22>  H        1.9608457902    -1.6358102133     3.3713908672
| 23>  H        2.8685258492    -0.1492492297     3.9203050074
| 24> *
| 25>
| 26>                          ****END OF INPUT****

CARTESIAN COORDINATES (ANGSTROEM)
---------------------------------
  C     -0.485737    1.403627   -0.127455
  C     -0.093954   -0.042122    0.061677
  N      1.307961   -0.419524   -0.186267
  C      0.763335   -0.572465    1.162519
  C      1.378512    0.224523    2.287336
  C      0.683698    0.173139    3.644107
  C      1.977498   -0.554848    3.457078
  C      2.054660    1.453844    1.956292
  N      2.606091    2.447771    1.740815
  H      0.308870    2.082323    0.184060
  H     -0.699963    1.599003   -1.183564
  H     -1.390346    1.634297    0.445753
  H     -0.849379   -0.750040   -0.281808
  H      1.384982   -1.314000   -0.660710
  H      0.512800   -1.580257    1.495073
  H      0.679868    1.077236    4.240374
  H     -0.234592   -0.402454    3.683913
  H      1.960846   -1.635810    3.371391
  H      2.868526   -0.149249    3.920305

 Total Charge           Charge          ....    0
 Multiplicity           Mult            ....    1
 Number of Electrons    NEL             ....   66
 Basis Dimension        Dim             ....  339

ORBITAL ENERGIES
----------------

  NO   OCC          E(Eh)            E(eV)
   0   2.0000     -15.566089      -423.5748
   1   2.0000     -15.558117      -423.3579
   2   2.0000     -11.290961      -307.2427
   3   2.0000     -11.283391      -307.0367
   4   2.0000     -11.271675      -306.7179
   5   2.0000     -11.265721      -306.5559
   6   2.0000     -11.260872      -306.4239
   7   2.0000     -11.260160      -306.4045
   8   2.0000     -11.218311      -305.2658
   9   2.0000      -1.279534       -34.8179
  10   2.0000      -1.215047       -33.0631
  11   2.0000      -1.171895       -31.8889
  12   2.0000      -0.995088       -27.0777
  13   2.0000      -0.944925       -25.7127
  14   2.0000      -0.870275       -23.6814
  15   2.0000      -0.855131       -23.2693
  16   2.0000      -0.806652       -21.9501
  17   2.0000      -0.728683       -19.8285
  18   2.0000      -0.692585       -18.8462
  19   2.0000      -0.666890       -18.1470
  20   2.0000      -0.604834       -16.4584
  21   2.0000      -0.580381       -15.7930
  22   2.0000      -0.571609       -15.5543
  23   2.0000      -0.552216       -15.0265
  24   2.0000      -0.549199       -14.9445
  25   2.0000      -0.530040       -14.4231
  26   2.0000      -0.516346       -14.0505
  27   2.0000      -0.497894       -13.5484
  28   2.0000      -0.470473       -12.8022
  29   2.0000      -0.464663       -12.6441
  30   2.0000      -0.436153       -11.8683
  31   2.0000      -0.421195       -11.4613
  32   2.0000      -0.383181       -10.4269
  33   0.0000       0.121299         3.3007
  34   0.0000       0.144728         3.9382
  35   0.0000       0.150600         4.0980
  36   0.0000       0.160618         4.3706
  37   0.0000       0.174828         4.7573

MULLIKEN ATOMIC CHARGES
-----------------------
   0 C :   -0.411026
   1 C :   -0.026097
   2 N :   -0.393892
   3 C :   -0.067698
   4 C :    0.231760
   5 C :   -0.284023
   6 C :   -0.283725
   7 C :   -0.194600
   8 N :   -0.058580
   9 H :    0.171740
  10 H :    0.133583
  11 H :    0.124619
  12 H :    0.116361
  13 H :    0.220783
  14 H :    0.123315
  15 H :    0.156037
  16 H :    0.143111
  17 H :    0.141052
  18 H :    0.157281
Sum of atomic charges:    0.0000000

LOEWDIN ATOMIC CHARGES
----------------------
   0 C :   -0.290064
   1 C :   -0.272060
   2 N :    0.022257
   3 C :   -0.220429
   4 C :   -0.216249
   5 C :   -0.172845
   6 C :   -0.172328
   7 C :   -0.154089
   8 N :    0.063428
   9 H :    0.137945
  10 H :    0.128892
  11 H :    0.127235
  12 H :    0.137317
  13 H :    0.166653
  14 H :    0.147791
  15 H :    0.143949
  16 H :    0.140282
  17 H :    0.138155
  18 H :    0.144160

  Mayer bond orders larger than 0.1
B(  0-C ,  1-C ) :   0.9031 B(  0-C ,  9-H ) :   0.9323 B(  0-C , 10-H ) :   0.9336
B(  0-C , 11-H ) :   0.9361 B(  1-C ,  2-N ) :   0.8993 B(  1-C ,  3-C ) :   0.9299
B(  1-C , 12-H ) :   0.9234 B(  2-N ,  3-C ) :   0.9318 B(  2-N , 13-H ) :   0.8651
B(  3-C ,  4-C ) :   0.8987 B(  3-C , 14-H ) :   0.9148 B(  4-C ,  5-C ) :   0.8214
B(  4-C ,  6-C ) :   0.8192 B(  4-C ,  7-C ) :   0.9266 B(  5-C ,  6-C ) :   0.9328
B(  5-C , 15-H ) :   0.9223 B(  5-C , 16-H ) :   0.9241 B(  6-C , 17-H ) :   0.9229
B(  6-C , 18-H ) :   0.9224 B(  7-C ,  8-N ) :   2.8499

MP2 TOTAL ENERGY:     -381.368363056 Eh
FINAL SINGLE POINT ENERGY      -381.368363055811

DIPOLE MOMENT
-------------
                                X             Y             Z
Electronic contribution:      4.91295       1.93504       0.50358
Nuclear contribution   :     -6.08190      -3.61615      -0.05940
                        -----------------------------------------
Total Dipole Moment    :     -1.16894      -1.68110       0.44418
                        -----------------------------------------
Magnitude (a.u.)       :      2.09519
Magnitude (Debye)      :      5.32556

                             ****ORCA TERMINATED NORMALLY****
TOTAL RUN TIME: 0 days 0 hours 18 minutes 37 seconds 708 msec
