                         Program Version 3.0.3 - RELEASE   -
|  1> ! RI-MP2 RIJK def2-TZVP def2-TZVP/C def2-TZVP/JK TIGHTSCF
|  2> % maxcore 2000
|  3> % mp2 density relaxed end
|  4> *xyz 0 1
|  5>  C        0.1946046136     1.3973747786     0.1250102229
|  6>  C        0.0035344154    -0.1189185025     0.0274866132
|  7>  N       -1.3732989135    -0.6133690320     0.0628377519
|  8>  C       -2.0238867229    -0.5185619581     1.3653826016
|  9>  C       -3.3669562847    -1.1050376373     1.3183327786
| 10>  N       -4.4338876771    -1.5449967363     1.2777191677
| 11>  C        0.6662661915    -0.7040310234    -1.2210876680
| 12>  O        1.4630279227    -0.1194616314    -1.9058334250
| 13>  H        1.2529693011     1.6508157838     0.0312993332
| 14>  H       -0.3370916824     1.9043063451    -0.6868837509
| 15>  H       -0.1733955707     1.7870240965     1.0780835612
| 16>  H        0.5261075316    -0.6069119178     0.8672155792
| 17>  H       -1.9364945838    -0.1373331611    -0.6354477459
| 18>  H       -1.4284646608    -1.0819473898     2.0943590175
| 19>  H       -2.1202197700     0.5061552101     1.7624175559
| 20>  H        0.3397791700    -1.7432626244    -1.4425361131
| 21> *
| 22>
| 23>                          ****END OF INPUT****

CARTESIAN COORDINATES (ANGSTROEM)
---------------------------------
  C      0.194605    1.397375    0.125010
  C      0.003534   -0.118919    0.027487
  N     -1.373299   -0.613369    0.062838
  C     -2.023887   -0.518562    1.365383
  C     -3.366956   -1.105038    1.318333
  N     -4.433888   -1.544997    1.277719
  C      0.666266   -0.704031   -1.221088
  O      1.463028   -0.119462   -1.905833
  H      1.252969    1.650816    0.031299
  H     -0.337092    1.904306   -0.686884
  H     -0.173396    1.787024    1.078084
  H      0.526108   -0.606912    0.867216
  H     -1.936495   -0.137333   -0.635448
  H     -1.428465   -1.081947    2.094359
  H     -2.120220    0.506155    1.762418
  H      0.339779   -1.743263   -1.442536

 Total Charge           Charge          ....    0
 Multiplicity           Mult            ....    1
 Number of Electrons    NEL             ....   60
 Basis Dimension        Dim             ....  296

ORBITAL ENERGIES
----------------

  NO   OCC          E(Eh)            E(eV)
   0   2.0000     -20.572830      -559.8152
   1   2.0000     -15.593105      -424.3099
   2   2.0000     -15.582441      -424.0198
   3   2.0000     -11.342939      -308.6571
   4   2.0000     -11.327700      -308.2424
   5   2.0000     -11.297953      -307.4329
   6   2.0000     -11.283864      -307.0496
   7   2.0000     -11.240772      -305.8770
   8   2.0000      -1.412545       -38.4373
   9   2.0000      -1.266348       -34.4591
  10   2.0000      -1.224220       -33.3127
  11   2.0000      -1.068971       -29.0882
  12   2.0000      -0.983432       -26.7605
  13   2.0000      -0.914648       -24.8888
  14   2.0000      -0.802056       -21.8251
  15   2.0000      -0.740647       -20.1540
  16   2.0000      -0.696020       -18.9397
  17   2.0000      -0.683781       -18.6066
  18   2.0000      -0.664243       -18.0750
  19   2.0000      -0.640812       -17.4374
  20   2.0000      -0.604325       -16.4445
  21   2.0000      -0.585303       -15.9269
  22   2.0000      -0.565343       -15.3838
  23   2.0000      -0.555600       -15.1186
  24   2.0000      -0.549078       -14.9412
  25   2.0000      -0.518076       -14.0976
  26   2.0000      -0.478100       -13.0098
  27   2.0000      -0.474117       -12.9014
  28   2.0000      -0.440056       -11.9745
  29   2.0000      -0.415887       -11.3169
  30   0.0000       0.100154         2.7253
  31   0.0000       0.121720         3.3122
  32   0.0000       0.139241         3.7890
  33   0.0000       0.150438         4.0936
  34   0.0000       0.157974         4.2987

MULLIKEN ATOMIC CHARGES
-----------------------
   0 C :   -0.399548
   1 C :    0.024318
   2 N :   -0.341661
   3 C :   -0.051545
   4 C :   -0.163374
   5 N :   -0.052646
   6 C :    0.085325
   7 O :   -0.256374
   8 H :    0.156173
   9 H :    0.129605
  10 H :    0.135280
  11 H :    0.111739
  12 H :    0.218191
  13 H :    0.154298
  14 H :    0.146130
  15 H :    0.104089
Sum of atomic charges:   -0.0000000

LOEWDIN ATOMIC CHARGES
----------------------
   0 C :   -0.295052
   1 C :   -0.335929
   2 N :    0.016029
   3 C :   -0.289980
   4 C :   -0.187858
   5 N :    0.067697
   6 C :   -0.274373
   7 O :    0.145785
   8 H :    0.136278
   9 H :    0.128049
  10 H :    0.121947
  11 H :    0.163715
  12 H :    0.180984
  13 H :    0.159073
  14 H :    0.144850
  15 H :    0.118787

  Mayer bond orders larger than 0.1
B(  0-C ,  1-C ) :   0.9182 B(  0-C ,  8-H ) :   0.9233 B(  0-C ,  9-H ) :   0.9231
B(  0-C , 10-H ) :   0.9364 B(  1-C ,  2-N ) :   0.9209 B(  1-C ,  6-C ) :   0.8612
B(  1-C , 11-H ) :   0.9054 B(  2-N ,  3-C ) :   0.9666 B(  2-N , 12-H ) :   0.8733
B(  3-C ,  4-C ) :   0.9323 B(  3-C , 13-H ) :   0.9004 B(  3-C , 14-H ) :   0.9051
B(  4-C ,  5-N ) :   2.8629 B(  6-C ,  7-O ) :   2.0134 B(  6-C , 15-H ) :   0.9430

MP2 TOTAL ENERGY:     -379.289405920 Eh
FINAL SINGLE POINT ENERGY      -379.289405919577

DIPOLE MOMENT
-------------
                                X             Y             Z
Electronic contribution:     -3.41128      -4.30007      -1.45284
Nuclear contribution   :      4.15758       4.97528       2.13410
                        -----------------------------------------
Total Dipole Moment    :      0.74630       0.67521       0.68126
                        -----------------------------------------
Magnitude (a.u.)       :      1.21532
Magnitude (Debye)      :      3.08910

                             ****ORCA TERMINATED NORMALLY****
TOTAL RUN TIME: 0 days 0 hours 10 minutes 2 seconds 215 msec
