                         Program Version 3.0.3 - RELEASE   -
|  1> ! RI-MP2 RIJK def2-TZVP def2-TZVP/C def2-TZVP/JK TIGHTSCF
|  2> % maxcore 2000
|  3> % mp2 density relaxed end
|  4> *xyz 0 1
|  5>  C       -0.4933678332     1.4206637532     0.0602716533
|  6>  C        0.0752322219     0.0216032247     0.0395127205
|  7>  C        0.0545547662    -0.6645284963    -1.1175963333
|  8>  C        0.4415977046    -2.0442194883    -1.4942653293
|  9>  O        0.0910914036    -2.4492103112    -2.5901644415
| 10>  C        1.2997971912    -2.9523216585    -0.6219578161
| 11>  C        1.1202566797    -2.8956505055     0.8967535971
| 12>  C        1.5580016336    -1.5678922711     1.5210200189
| 13>  C        0.5404165005    -0.4321066460     1.4034976198
| 14>  H        0.2843169635     2.1486618117     0.3246178092
| 15>  H       -0.9220730612     1.7066616586    -0.9020189516
| 16>  H       -1.2727361605     1.5115498119     0.8277767080
| 17>  H       -0.3866107275    -0.1674915145    -1.9788843175
| 18>  H        1.1345016314    -3.9649838459    -0.9999277998
| 19>  H        2.3447461201    -2.7036045119    -0.8613486493
| 20>  H        0.0776310052    -3.1107576783     1.1657361670
| 21>  H        1.7176267052    -3.7058163298     1.3299926895
| 22>  H        1.7550520817    -1.7166954292     2.5890744097
| 23>  H        2.5115554569    -1.2551406228     1.0757697175
| 24>  H        0.9394158084     0.4471405541     1.9260697363
| 25>  H       -0.3641754611    -0.7022450852     1.9719728315
| 26> *
| 27>
| 28>                          ****END OF INPUT****

CARTESIAN COORDINATES (ANGSTROEM)
---------------------------------
  C     -0.493368    1.420664    0.060272
  C      0.075232    0.021603    0.039513
  C      0.054555   -0.664528   -1.117596
  C      0.441598   -2.044219   -1.494265
  O      0.091091   -2.449210   -2.590164
  C      1.299797   -2.952322   -0.621958
  C      1.120257   -2.895651    0.896754
  C      1.558002   -1.567892    1.521020
  C      0.540417   -0.432107    1.403498
  H      0.284317    2.148662    0.324618
  H     -0.922073    1.706662   -0.902019
  H     -1.272736    1.511550    0.827777
  H     -0.386611   -0.167492   -1.978884
  H      1.134502   -3.964984   -0.999928
  H      2.344746   -2.703605   -0.861349
  H      0.077631   -3.110758    1.165736
  H      1.717627   -3.705816    1.329993
  H      1.755052   -1.716695    2.589074
  H      2.511555   -1.255141    1.075770
  H      0.939416    0.447141    1.926070
  H     -0.364175   -0.702245    1.971973

 Total Charge           Charge          ....    0
 Multiplicity           Mult            ....    1
 Number of Electrons    NEL             ....   68
 Basis Dimension        Dim             ....  351

ORBITAL ENERGIES
----------------

  NO   OCC          E(Eh)            E(eV)
   0   2.0000     -20.528098      -558.5979
   1   2.0000     -11.320714      -308.0523
   2   2.0000     -11.268995      -306.6449
   3   2.0000     -11.243633      -305.9548
   4   2.0000     -11.234989      -305.7196
   5   2.0000     -11.234631      -305.7099
   6   2.0000     -11.233892      -305.6897
   7   2.0000     -11.230915      -305.6087
   8   2.0000     -11.225336      -305.4569
   9   2.0000      -1.370844       -37.3026
  10   2.0000      -1.129725       -30.7414
  11   2.0000      -1.071324       -29.1522
  12   2.0000      -1.017020       -27.6745
  13   2.0000      -0.957558       -26.0565
  14   2.0000      -0.907639       -24.6981
  15   2.0000      -0.836387       -22.7593
  16   2.0000      -0.778706       -21.1897
  17   2.0000      -0.699028       -19.0215
  18   2.0000      -0.668835       -18.1999
  19   2.0000      -0.650461       -17.6999
  20   2.0000      -0.615222       -16.7410
  21   2.0000      -0.599989       -16.3265
  22   2.0000      -0.589354       -16.0371
  23   2.0000      -0.581375       -15.8200
  24   2.0000      -0.570301       -15.5187
  25   2.0000      -0.548702       -14.9309
  26   2.0000      -0.541984       -14.7481
  27   2.0000      -0.529152       -14.3990
  28   2.0000      -0.496295       -13.5049
  29   2.0000      -0.480111       -13.0645
  30   2.0000      -0.471585       -12.8325
  31   2.0000      -0.464292       -12.6340
  32   2.0000      -0.404544       -11.0082
  33   2.0000      -0.360438        -9.8080
  34   0.0000       0.095412         2.5963
  35   0.0000       0.124655         3.3920
  36   0.0000       0.145656         3.9635
  37   0.0000       0.160397         4.3646
  38   0.0000       0.167526         4.5586

MULLIKEN ATOMIC CHARGES
-----------------------
   0 C :   -0.408185
   1 C :    0.109564
   2 C :   -0.276607
   3 C :    0.190516
   4 O :   -0.298695
   5 C :   -0.226215
   6 C :   -0.210718
   7 C :   -0.208343
   8 C :   -0.244449
   9 H :    0.143499
  10 H :    0.139283
  11 H :    0.139718
  12 H :    0.120105
  13 H :    0.143447
  14 H :    0.126551
  15 H :    0.120937
  16 H :    0.127957
  17 H :    0.128091
  18 H :    0.113758
  19 H :    0.136651
  20 H :    0.133134
Sum of atomic charges:    0.0000000

LOEWDIN ATOMIC CHARGES
----------------------
   0 C :   -0.265283
   1 C :   -0.162457
   2 C :   -0.129929
   3 C :   -0.323209
   4 O :    0.138167
   5 C :   -0.234186
   6 C :   -0.263995
   7 C :   -0.262921
   8 C :   -0.231652
   9 H :    0.132634
  10 H :    0.129122
  11 H :    0.133282
  12 H :    0.160300
  13 H :    0.151422
  14 H :    0.155534
  15 H :    0.141447
  16 H :    0.141972
  17 H :    0.141091
  18 H :    0.141292
  19 H :    0.151803
  20 H :    0.155566

  Mayer bond orders larger than 0.1
B(  0-C ,  1-C ) :   0.8897 B(  0-C ,  9-H ) :   0.9297 B(  0-C , 10-H ) :   0.9427
B(  0-C , 11-H ) :   0.9258 B(  1-C ,  2-C ) :   1.6290 B(  1-C ,  8-C ) :   0.9146
B(  2-C ,  3-C ) :   1.0227 B(  2-C , 12-H ) :   0.9293 B(  3-C ,  4-O ) :   1.9352
B(  3-C ,  5-C ) :   0.9178 B(  5-C ,  6-C ) :   0.8912 B(  5-C , 13-H ) :   0.9297
B(  5-C , 14-H ) :   0.9066 B(  6-C ,  7-C ) :   0.8953 B(  6-C , 15-H ) :   0.9294
B(  6-C , 16-H ) :   0.9298 B(  7-C ,  8-C ) :   0.9438 B(  7-C , 17-H ) :   0.9330
B(  7-C , 18-H ) :   0.9328 B(  8-C , 19-H ) :   0.9342 B(  8-C , 20-H ) :   0.9091

MP2 TOTAL ENERGY:     -386.444262560 Eh
FINAL SINGLE POINT ENERGY      -386.444262559875

DIPOLE MOMENT
-------------
                                X             Y             Z
Electronic contribution:     -1.17256      -3.12432      -7.06592
Nuclear contribution   :      1.47777       3.71098       8.45116
                        -----------------------------------------
Total Dipole Moment    :      0.30522       0.58665       1.38525
                        -----------------------------------------
Magnitude (a.u.)       :      1.53500
Magnitude (Debye)      :      3.90166

                             ****ORCA TERMINATED NORMALLY****
TOTAL RUN TIME: 0 days 0 hours 21 minutes 57 seconds 709 msec
