                         Program Version 3.0.3 - RELEASE   -
|  1> ! RI-MP2 RIJK def2-TZVP def2-TZVP/C def2-TZVP/JK TIGHTSCF
|  2> % maxcore 2000
|  3> % mp2 density relaxed end
|  4> *xyz 0 1
|  5>  O       -0.0645411637    -0.2606000685     0.0372514217
|  6>  C        0.2330274938     0.7744350511    -0.4997619051
|  7>  C        1.1901340179     1.7969071823     0.1050567342
|  8>  N        1.3367564133     2.9315702206    -0.7947774798
|  9>  C        1.3407068233     4.3392235678    -0.5347594484
| 10>  C        2.3092476427     4.8048208621     0.6155874986
| 11>  N        2.9195262792     3.6049699326     1.2370473230
| 12>  C        3.4429119781     4.1341631358    -0.0452667201
| 13>  C        2.5010295368     3.6528080834    -1.2111661088
| 14>  H       -0.1744648124     1.0683365512    -1.4944753671
| 15>  H        0.8035135049     2.0984847376     1.0829297092
| 16>  H        2.1469896804     1.3040130862     0.3002619335
| 17>  H        0.5641892247     4.9722621953    -0.9509557426
| 18>  H        2.2643919344     5.7558749667     1.1287998079
| 19>  H        3.5432233764     3.9328867216     1.9741845856
| 20>  H        4.4711564633     4.4503876127    -0.1575951001
| 21>  H        2.7996778068     3.6498322718    -2.2541128518
| 22> *
| 23>
| 24>                          ****END OF INPUT****

CARTESIAN COORDINATES (ANGSTROEM)
---------------------------------
  O     -0.064541   -0.260600    0.037251
  C      0.233027    0.774435   -0.499762
  C      1.190134    1.796907    0.105057
  N      1.336756    2.931570   -0.794777
  C      1.340707    4.339224   -0.534759
  C      2.309248    4.804821    0.615587
  N      2.919526    3.604970    1.237047
  C      3.442912    4.134163   -0.045267
  C      2.501030    3.652808   -1.211166
  H     -0.174465    1.068337   -1.494475
  H      0.803514    2.098485    1.082930
  H      2.146990    1.304013    0.300262
  H      0.564189    4.972262   -0.950956
  H      2.264392    5.755875    1.128800
  H      3.543223    3.932887    1.974185
  H      4.471156    4.450388   -0.157595
  H      2.799678    3.649832   -2.254113

 Total Charge           Charge          ....    0
 Multiplicity           Mult            ....    1
 Number of Electrons    NEL             ....   66
 Basis Dimension        Dim             ....  327

ORBITAL ENERGIES
----------------

  NO   OCC          E(Eh)            E(eV)
   0   2.0000     -20.543374      -559.0136
   1   2.0000     -15.576714      -423.8639
   2   2.0000     -15.573402      -423.7738
   3   2.0000     -11.316013      -307.9244
   4   2.0000     -11.277822      -306.8851
   5   2.0000     -11.277251      -306.8696
   6   2.0000     -11.277065      -306.8645
   7   2.0000     -11.276547      -306.8504
   8   2.0000     -11.258001      -306.3458
   9   2.0000      -1.383375       -37.6435
  10   2.0000      -1.332854       -36.2688
  11   2.0000      -1.243396       -33.8345
  12   2.0000      -1.050204       -28.5775
  13   2.0000      -0.937572       -25.5126
  14   2.0000      -0.895830       -24.3768
  15   2.0000      -0.815614       -22.1940
  16   2.0000      -0.776834       -21.1387
  17   2.0000      -0.763509       -20.7761
  18   2.0000      -0.743832       -20.2407
  19   2.0000      -0.673841       -18.3362
  20   2.0000      -0.646356       -17.5882
  21   2.0000      -0.623101       -16.9554
  22   2.0000      -0.619693       -16.8627
  23   2.0000      -0.605103       -16.4657
  24   2.0000      -0.562096       -15.2954
  25   2.0000      -0.531290       -14.4571
  26   2.0000      -0.503504       -13.7010
  27   2.0000      -0.477394       -12.9906
  28   2.0000      -0.460746       -12.5375
  29   2.0000      -0.445965       -12.1353
  30   2.0000      -0.414385       -11.2760
  31   2.0000      -0.396330       -10.7847
  32   2.0000      -0.345052        -9.3893
  33   0.0000       0.131093         3.5672
  34   0.0000       0.137070         3.7299
  35   0.0000       0.154640         4.2080
  36   0.0000       0.160862         4.3773
  37   0.0000       0.173536         4.7222

MULLIKEN ATOMIC CHARGES
-----------------------
   0 O :   -0.271674
   1 C :    0.087413
   2 C :   -0.063469
   3 N :   -0.188129
   4 C :   -0.094803
   5 C :   -0.070475
   6 N :   -0.392682
   7 C :   -0.070473
   8 C :   -0.094828
   9 H :    0.081396
  10 H :    0.141420
  11 H :    0.141441
  12 H :    0.139063
  13 H :    0.148392
  14 H :    0.219951
  15 H :    0.148393
  16 H :    0.139064
Sum of atomic charges:    0.0000000

LOEWDIN ATOMIC CHARGES
----------------------
   0 O :    0.125018
   1 C :   -0.294459
   2 C :   -0.287856
   3 N :    0.170356
   4 C :   -0.196977
   5 C :   -0.222180
   6 N :    0.011909
   7 C :   -0.222174
   8 C :   -0.196972
   9 H :    0.106410
  10 H :    0.150587
  11 H :    0.150571
  12 H :    0.133899
  13 H :    0.131745
  14 H :    0.174476
  15 H :    0.131745
  16 H :    0.133900

  Mayer bond orders larger than 0.1
B(  0-O ,  1-C ) :   2.0081 B(  1-C ,  2-C ) :   0.8562 B(  1-C ,  9-H ) :   0.9407
B(  2-C ,  3-N ) :   0.8102 B(  2-C , 10-H ) :   0.9018 B(  2-C , 11-H ) :   0.9018
B(  3-N ,  4-C ) :   0.9637 B(  3-N ,  8-C ) :   0.9638 B(  4-C ,  5-C ) :   0.8468
B(  4-C ,  8-C ) :   0.9381 B(  4-C , 12-H ) :   0.9256 B(  5-C ,  6-N ) :   0.9344
B(  5-C ,  7-C ) :   0.9691 B(  5-C , 13-H ) :   0.9188 B(  6-N ,  7-C ) :   0.9344
B(  6-N , 14-H ) :   0.8717 B(  7-C ,  8-C ) :   0.8468 B(  7-C , 15-H ) :   0.9188
B(  8-C , 16-H ) :   0.9256

MP2 TOTAL ENERGY:     -417.175750508 Eh
FINAL SINGLE POINT ENERGY      -417.175750507596

DIPOLE MOMENT
-------------
                                X             Y             Z
Electronic contribution:     -1.83048      -2.68736      -0.41676
Nuclear contribution   :      2.84034       4.40343       0.40988
                        -----------------------------------------
Total Dipole Moment    :      1.00987       1.71606      -0.00687
                        -----------------------------------------
Magnitude (a.u.)       :      1.99117
Magnitude (Debye)      :      5.06115

                             ****ORCA TERMINATED NORMALLY****
TOTAL RUN TIME: 0 days 0 hours 16 minutes 51 seconds 524 msec
