                         Program Version 3.0.3 - RELEASE   -
|  1> ! RI-MP2 RIJK def2-TZVP def2-TZVP/C def2-TZVP/JK TIGHTSCF
|  2> % maxcore 2000
|  3> % mp2 density relaxed end
|  4> *xyz 0 1
|  5>  C       -0.0419745767     1.5711377675    -0.0673074376
|  6>  C        0.0482307528     0.0659945303     0.0239897093
|  7>  C        1.3248830261    -0.6780320595    -0.1716714481
|  8>  O        2.5141299092     0.0524127016    -0.1330714505
|  9>  C        2.9514989374     0.1552384661     1.2329388349
| 10>  C        1.6775474393     0.1215716282     2.0992926597
| 11>  C        0.6936589376    -0.6481229707     1.2276175225
| 12>  C        0.0307794505    -1.8521585261     1.7629178587
| 13>  O        0.1612825810    -2.2756694677     2.8869799094
| 14>  H        0.9283902612     2.0402652471     0.1053633828
| 15>  H       -0.3728141278     1.8621231711    -1.0694779024
| 16>  H       -0.7606422376     1.9745016257     0.6530339714
| 17>  H       -0.8290376074    -0.4628111258    -0.3466167321
| 18>  H        1.3640302223    -1.5881631498    -0.7645611387
| 19>  H        3.6092708770    -0.6923457310     1.4725287687
| 20>  H        3.5278526811     1.0795603276     1.3230819912
| 21>  H        1.8251684725    -0.4136045638     3.0396923957
| 22>  H        1.3220620208     1.1287886344     2.3340606565
| 23>  H       -0.6262884191    -2.3733930552     1.0276059984
| 24> *
| 25>
| 26>                          ****END OF INPUT****

CARTESIAN COORDINATES (ANGSTROEM)
---------------------------------
  C     -0.041975    1.571138   -0.067307
  C      0.048231    0.065995    0.023990
  C      1.324883   -0.678032   -0.171671
  O      2.514130    0.052413   -0.133071
  C      2.951499    0.155238    1.232939
  C      1.677547    0.121572    2.099293
  C      0.693659   -0.648123    1.227618
  C      0.030779   -1.852159    1.762918
  O      0.161283   -2.275669    2.886980
  H      0.928390    2.040265    0.105363
  H     -0.372814    1.862123   -1.069478
  H     -0.760642    1.974502    0.653034
  H     -0.829038   -0.462811   -0.346617
  H      1.364030   -1.588163   -0.764561
  H      3.609271   -0.692346    1.472529
  H      3.527853    1.079560    1.323082
  H      1.825168   -0.413605    3.039692
  H      1.322062    1.128789    2.334061
  H     -0.626288   -2.373393    1.027606

 Total Charge           Charge          ....    0
 Multiplicity           Mult            ....    1
 Number of Electrons    NEL             ....   68
 Basis Dimension        Dim             ....  339

ORBITAL ENERGIES
----------------

  NO   OCC          E(Eh)            E(eV)
   0   2.0000     -20.569132      -559.7145
   1   2.0000     -20.552238      -559.2548
   2   2.0000     -11.334370      -308.4239
   3   2.0000     -11.301731      -307.5357
   4   2.0000     -11.285667      -307.0986
   5   2.0000     -11.259558      -306.3881
   6   2.0000     -11.252879      -306.2064
   7   2.0000     -11.235778      -305.7411
   8   2.0000     -11.230705      -305.6030
   9   2.0000      -1.400058       -38.0975
  10   2.0000      -1.391090       -37.8535
  11   2.0000      -1.164545       -31.6889
  12   2.0000      -1.040965       -28.3261
  13   2.0000      -0.987146       -26.8616
  14   2.0000      -0.890950       -24.2440
  15   2.0000      -0.870041       -23.6750
  16   2.0000      -0.787913       -21.4402
  17   2.0000      -0.756349       -20.5813
  18   2.0000      -0.718356       -19.5475
  19   2.0000      -0.668299       -18.1853
  20   2.0000      -0.656025       -17.8513
  21   2.0000      -0.626685       -17.0530
  22   2.0000      -0.613594       -16.6967
  23   2.0000      -0.599583       -16.3155
  24   2.0000      -0.567160       -15.4332
  25   2.0000      -0.555489       -15.1156
  26   2.0000      -0.549805       -14.9610
  27   2.0000      -0.533332       -14.5127
  28   2.0000      -0.523274       -14.2390
  29   2.0000      -0.491138       -13.3645
  30   2.0000      -0.473582       -12.8868
  31   2.0000      -0.432471       -11.7681
  32   2.0000      -0.406108       -11.0508
  33   2.0000      -0.394028       -10.7221
  34   0.0000       0.125876         3.4253
  35   0.0000       0.132653         3.6097
  36   0.0000       0.148755         4.0478
  37   0.0000       0.162620         4.4251
  38   0.0000       0.184213         5.0127

MULLIKEN ATOMIC CHARGES
-----------------------
   0 C :   -0.423291
   1 C :   -0.137442
   2 C :    0.045941
   3 O :   -0.322989
   4 C :   -0.046725
   5 C :   -0.286348
   6 C :    0.126724
   7 C :    0.044663
   8 O :   -0.283874
   9 H :    0.150588
  10 H :    0.143001
  11 H :    0.141315
  12 H :    0.126404
  13 H :    0.133457
  14 H :    0.105709
  15 H :    0.117140
  16 H :    0.162796
  17 H :    0.130099
  18 H :    0.072832
Sum of atomic charges:    0.0000000

LOEWDIN ATOMIC CHARGES
----------------------
   0 C :   -0.283143
   1 C :   -0.184485
   2 C :   -0.234743
   3 O :    0.182634
   4 C :   -0.274019
   5 C :   -0.205415
   6 C :   -0.198610
   7 C :   -0.275306
   8 O :    0.123202
   9 H :    0.132477
  10 H :    0.131740
  11 H :    0.128701
  12 H :    0.156740
  13 H :    0.139674
  14 H :    0.123363
  15 H :    0.125782
  16 H :    0.152275
  17 H :    0.141320
  18 H :    0.117814

  Mayer bond orders larger than 0.1
B(  0-C ,  1-C ) :   0.8859 B(  0-C ,  9-H ) :   0.9360 B(  0-C , 10-H ) :   0.9333
B(  0-C , 11-H ) :   0.9369 B(  1-C ,  2-C ) :   0.8881 B(  1-C ,  6-C ) :   0.8239
B(  1-C , 12-H ) :   0.9196 B(  2-C ,  3-O ) :   0.9936 B(  2-C ,  6-C ) :   0.7671
B(  2-C , 13-H ) :   0.9349 B(  3-O ,  4-C ) :   0.9099 B(  4-C ,  5-C ) :   0.9732
B(  4-C , 14-H ) :   0.9237 B(  4-C , 15-H ) :   0.9288 B(  5-C ,  6-C ) :   0.8815
B(  5-C , 16-H ) :   0.9139 B(  5-C , 17-H ) :   0.9231 B(  6-C ,  7-C ) :   0.8975
B(  7-C ,  8-O ) :   1.9783 B(  7-C , 18-H ) :   0.9558

MP2 TOTAL ENERGY:     -422.318739485 Eh
FINAL SINGLE POINT ENERGY      -422.318739485429

DIPOLE MOMENT
-------------
                                X             Y             Z
Electronic contribution:      0.38518      -5.42016       1.48223
Nuclear contribution   :     -0.52392       5.95845      -2.00959
                        -----------------------------------------
Total Dipole Moment    :     -0.13874       0.53829      -0.52736
                        -----------------------------------------
Magnitude (a.u.)       :      0.76623
Magnitude (Debye)      :      1.94760

                             ****ORCA TERMINATED NORMALLY****
TOTAL RUN TIME: 0 days 0 hours 18 minutes 29 seconds 334 msec
