                         Program Version 3.0.3 - RELEASE   -
|  1> ! RI-MP2 RIJK def2-TZVP def2-TZVP/C def2-TZVP/JK TIGHTSCF
|  2> % maxcore 2000
|  3> % mp2 density relaxed end
|  4> *xyz 0 1
|  5>  C       -0.2750182090     1.6002325370     0.0462576532
|  6>  C       -0.0320143323     0.0978421682     0.0188302463
|  7>  C       -1.2896185861    -0.6940979578    -0.3235217702
|  8>  O        0.9580628360    -0.1703216639    -1.0306724547
|  9>  C        1.9598635028    -0.8524009355    -0.4531956705
| 10>  N        1.9408466586    -1.1049079583     0.7913897621
| 11>  C        0.6899704341    -0.5006958813     1.2918802197
| 12>  C        0.9737949816     0.4768536153     2.3495621609
| 13>  N        1.1712863501     1.2509041016     3.1840284401
| 14>  H        0.6482386328     2.1447705984     0.2560581652
| 15>  H       -0.6638625402     1.9292886643    -0.9210197778
| 16>  H       -1.0040891358     1.8570731065     0.8195185180
| 17>  H       -1.6947637858    -0.3720335034    -1.2863605273
| 18>  H       -1.0709568266    -1.7644715338    -0.3798610789
| 19>  H       -2.0543524703    -0.5367509831     0.4436579328
| 20>  H        2.7532992767    -1.1538120054    -1.1286437496
| 21>  H        0.0685778433    -1.2845866487     1.7402782906
| 22> *
| 23>
| 24>                          ****END OF INPUT****

CARTESIAN COORDINATES (ANGSTROEM)
---------------------------------
  C     -0.275018    1.600233    0.046258
  C     -0.032014    0.097842    0.018830
  C     -1.289619   -0.694098   -0.323522
  O      0.958063   -0.170322   -1.030672
  C      1.959864   -0.852401   -0.453196
  N      1.940847   -1.104908    0.791390
  C      0.689970   -0.500696    1.291880
  C      0.973795    0.476854    2.349562
  N      1.171286    1.250904    3.184028
  H      0.648239    2.144771    0.256058
  H     -0.663863    1.929289   -0.921020
  H     -1.004089    1.857073    0.819519
  H     -1.694764   -0.372034   -1.286361
  H     -1.070957   -1.764472   -0.379861
  H     -2.054352   -0.536751    0.443658
  H      2.753299   -1.153812   -1.128644
  H      0.068578   -1.284587    1.740278

 Total Charge           Charge          ....    0
 Multiplicity           Mult            ....    1
 Number of Electrons    NEL             ....   66
 Basis Dimension        Dim             ....  327

ORBITAL ENERGIES
----------------

  NO   OCC          E(Eh)            E(eV)
   0   2.0000     -20.616723      -561.0095
   1   2.0000     -15.575258      -423.8243
   2   2.0000     -15.574305      -423.7984
   3   2.0000     -11.357316      -309.0483
   4   2.0000     -11.335518      -308.4551
   5   2.0000     -11.323543      -308.1293
   6   2.0000     -11.276127      -306.8390
   7   2.0000     -11.246658      -306.0371
   8   2.0000     -11.239789      -305.8502
   9   2.0000      -1.463841       -39.8331
  10   2.0000      -1.248476       -33.9727
  11   2.0000      -1.216808       -33.1110
  12   2.0000      -1.115855       -30.3640
  13   2.0000      -0.993176       -27.0257
  14   2.0000      -0.971596       -26.4385
  15   2.0000      -0.871269       -23.7084
  16   2.0000      -0.800229       -21.7754
  17   2.0000      -0.744391       -20.2559
  18   2.0000      -0.715031       -19.4570
  19   2.0000      -0.656642       -17.8681
  20   2.0000      -0.641206       -17.4481
  21   2.0000      -0.620235       -16.8774
  22   2.0000      -0.612244       -16.6600
  23   2.0000      -0.573174       -15.5969
  24   2.0000      -0.562689       -15.3115
  25   2.0000      -0.554925       -15.1003
  26   2.0000      -0.546986       -14.8842
  27   2.0000      -0.537562       -14.6278
  28   2.0000      -0.517585       -14.0842
  29   2.0000      -0.479048       -13.0355
  30   2.0000      -0.465007       -12.6535
  31   2.0000      -0.446939       -12.1618
  32   2.0000      -0.413330       -11.2473
  33   0.0000       0.116730         3.1764
  34   0.0000       0.141125         3.8402
  35   0.0000       0.162257         4.4152
  36   0.0000       0.167268         4.5516
  37   0.0000       0.170878         4.6498

MULLIKEN ATOMIC CHARGES
-----------------------
   0 C :   -0.383507
   1 C :    0.167308
   2 C :   -0.427918
   3 O :   -0.259596
   4 C :    0.104316
   5 N :   -0.273758
   6 C :    0.131106
   7 C :   -0.210417
   8 N :   -0.048351
   9 H :    0.157452
  10 H :    0.146956
  11 H :    0.145448
  12 H :    0.149094
  13 H :    0.150656
  14 H :    0.144695
  15 H :    0.154696
  16 H :    0.151820
Sum of atomic charges:   -0.0000000

LOEWDIN ATOMIC CHARGES
----------------------
   0 C :   -0.259038
   1 C :   -0.307212
   2 C :   -0.263904
   3 O :    0.265393
   4 C :   -0.340818
   5 N :    0.093871
   6 C :   -0.225649
   7 C :   -0.163279
   8 N :    0.073739
   9 H :    0.138286
  10 H :    0.134032
  11 H :    0.138033
  12 H :    0.133730
  13 H :    0.133382
  14 H :    0.134886
  15 H :    0.139294
  16 H :    0.175254

  Mayer bond orders larger than 0.1
B(  0-C ,  1-C ) :   0.9433 B(  0-C ,  9-H ) :   0.9266 B(  0-C , 10-H ) :   0.9302
B(  0-C , 11-H ) :   0.9225 B(  1-C ,  2-C ) :   0.9224 B(  1-C ,  3-O ) :   0.7967
B(  1-C ,  6-C ) :   0.8721 B(  2-C , 12-H ) :   0.9324 B(  2-C , 13-H ) :   0.9257
B(  2-C , 14-H ) :   0.9307 B(  3-O ,  4-C ) :   1.1065 B(  4-C ,  5-N ) :   1.7822
B(  4-C , 15-H ) :   0.9195 B(  5-N ,  6-C ) :   0.9095 B(  6-C ,  7-C ) :   0.9121
B(  6-C , 16-H ) :   0.9056 B(  7-C ,  8-N ) :   2.8504

MP2 TOTAL ENERGY:     -417.336048540 Eh
FINAL SINGLE POINT ENERGY      -417.336048539995

DIPOLE MOMENT
-------------
                                X             Y             Z
Electronic contribution:      6.66767      -1.13746       3.58505
Nuclear contribution   :     -7.66684       0.66517      -4.90615
                        -----------------------------------------
Total Dipole Moment    :     -0.99917      -0.47229      -1.32110
                        -----------------------------------------
Magnitude (a.u.)       :      1.72242
Magnitude (Debye)      :      4.37803

                             ****ORCA TERMINATED NORMALLY****
TOTAL RUN TIME: 0 days 0 hours 17 minutes 16 seconds 802 msec
