                         Program Version 3.0.3 - RELEASE   -
|  1> ! RI-MP2 RIJK def2-TZVP def2-TZVP/C def2-TZVP/JK TIGHTSCF
|  2> % maxcore 2000
|  3> % mp2 density relaxed end
|  4> *xyz 0 1
|  5>  C        0.2579103494     1.4351292442    -0.8735595323
|  6>  C        0.0850914556     0.1374030929    -0.0794035675
|  7>  C       -1.3838474476    -0.2031093455     0.1483477805
|  8>  O        0.6463709686    -1.0001147698    -0.7338481126
|  9>  C        2.0473709200    -1.0622020551    -0.8140253127
| 10>  C        2.4287769694    -2.5394589974    -0.9411347268
| 11>  C        2.5915865578    -0.3084306074    -2.0494194951
| 12>  N        3.8012274795     0.2987005276    -1.8526337008
| 13>  O        2.0129272730    -0.2919550374    -3.1145930212
| 14>  H        1.3078827462     1.7310314810    -0.9504856933
| 15>  H       -0.1356393590     1.3147004019    -1.8862279390
| 16>  H       -0.2783949214     2.2496242964    -0.3756395555
| 17>  H        0.5819287464     0.2527335303     0.9004318616
| 18>  H       -1.8971863207    -0.3223916997    -0.8107470885
| 19>  H       -1.4761905291    -1.1394726325     0.7046818778
| 20>  H       -1.8811537389     0.5915207934     0.7120999172
| 21>  H        2.4977185926    -0.6394343154     0.1012116323
| 22>  H        2.0624807917    -3.0939996690    -0.0738834246
| 23>  H        1.9707322862    -2.9513652942    -1.8438485114
| 24>  H        3.5138806160    -2.6615235564    -1.0110001294
| 25>  H        4.2887387016     0.2607515926    -0.9749849813
| 26>  H        4.2622802428     0.7175335494    -2.6441152874
| 27> *
| 28>
| 29>                          ****END OF INPUT****

CARTESIAN COORDINATES (ANGSTROEM)
---------------------------------
  C      0.257910    1.435129   -0.873560
  C      0.085091    0.137403   -0.079404
  C     -1.383847   -0.203109    0.148348
  O      0.646371   -1.000115   -0.733848
  C      2.047371   -1.062202   -0.814025
  C      2.428777   -2.539459   -0.941135
  C      2.591587   -0.308431   -2.049419
  N      3.801227    0.298701   -1.852634
  O      2.012927   -0.291955   -3.114593
  H      1.307883    1.731031   -0.950486
  H     -0.135639    1.314700   -1.886228
  H     -0.278395    2.249624   -0.375640
  H      0.581929    0.252734    0.900432
  H     -1.897186   -0.322392   -0.810747
  H     -1.476191   -1.139473    0.704682
  H     -1.881154    0.591521    0.712100
  H      2.497719   -0.639434    0.101212
  H      2.062481   -3.094000   -0.073883
  H      1.970732   -2.951365   -1.843849
  H      3.513881   -2.661524   -1.011000
  H      4.288739    0.260752   -0.974985
  H      4.262280    0.717534   -2.644115

 Total Charge           Charge          ....    0
 Multiplicity           Mult            ....    1
 Number of Electrons    NEL             ....   72
 Basis Dimension        Dim             ....  357

ORBITAL ENERGIES
----------------

  NO   OCC          E(Eh)            E(eV)
   0   2.0000     -20.553346      -559.2850
   1   2.0000     -20.515393      -558.2522
   2   2.0000     -15.586382      -424.1270
   3   2.0000     -11.346916      -308.7653
   4   2.0000     -11.297528      -307.4214
   5   2.0000     -11.281078      -306.9737
   6   2.0000     -11.223598      -305.4096
   7   2.0000     -11.209892      -305.0367
   8   2.0000     -11.209739      -305.0325
   9   2.0000      -1.392099       -37.8809
  10   2.0000      -1.366943       -37.1964
  11   2.0000      -1.212693       -32.9990
  12   2.0000      -1.068832       -29.0844
  13   2.0000      -1.007825       -27.4243
  14   2.0000      -0.934880       -25.4394
  15   2.0000      -0.886237       -24.1157
  16   2.0000      -0.809122       -22.0173
  17   2.0000      -0.780147       -21.2289
  18   2.0000      -0.731901       -19.9160
  19   2.0000      -0.689612       -18.7653
  20   2.0000      -0.663201       -18.0466
  21   2.0000      -0.628745       -17.1090
  22   2.0000      -0.620392       -16.8817
  23   2.0000      -0.603638       -16.4258
  24   2.0000      -0.571958       -15.5638
  25   2.0000      -0.559375       -15.2214
  26   2.0000      -0.542155       -14.7528
  27   2.0000      -0.535740       -14.5782
  28   2.0000      -0.534348       -14.5404
  29   2.0000      -0.522065       -14.2061
  30   2.0000      -0.504294       -13.7225
  31   2.0000      -0.481794       -13.1103
  32   2.0000      -0.463208       -12.6045
  33   2.0000      -0.440845       -11.9960
  34   2.0000      -0.416425       -11.3315
  35   2.0000      -0.403209       -10.9719
  36   0.0000       0.116218         3.1624
  37   0.0000       0.147675         4.0184
  38   0.0000       0.159602         4.3430
  39   0.0000       0.167867         4.5679
  40   0.0000       0.184587         5.0229

MULLIKEN ATOMIC CHARGES
-----------------------
   0 C :   -0.374548
   1 C :    0.045738
   2 C :   -0.364274
   3 O :   -0.275558
   4 C :    0.081665
   5 C :   -0.375047
   6 C :    0.225050
   7 N :   -0.482756
   8 O :   -0.325845
   9 H :    0.125122
  10 H :    0.145002
  11 H :    0.127560
  12 H :    0.065684
  13 H :    0.134116
  14 H :    0.131345
  15 H :    0.118031
  16 H :    0.073084
  17 H :    0.136440
  18 H :    0.156121
  19 H :    0.116705
  20 H :    0.257095
  21 H :    0.259269
Sum of atomic charges:    0.0000000

LOEWDIN ATOMIC CHARGES
----------------------
   0 C :   -0.296159
   1 C :   -0.369789
   2 C :   -0.292301
   3 O :    0.218234
   4 C :   -0.333490
   5 C :   -0.281153
   6 C :   -0.475698
   7 N :   -0.022077
   8 O :    0.100440
   9 H :    0.123055
  10 H :    0.133091
  11 H :    0.126008
  12 H :    0.130110
  13 H :    0.128530
  14 H :    0.124537
  15 H :    0.124047
  16 H :    0.133922
  17 H :    0.126322
  18 H :    0.136213
  19 H :    0.124725
  20 H :    0.168736
  21 H :    0.172698

  Mayer bond orders larger than 0.1
B(  0-C ,  1-C ) :   0.9136 B(  0-C ,  9-H ) :   0.9322 B(  0-C , 10-H ) :   0.9271
B(  0-C , 11-H ) :   0.9232 B(  1-C ,  2-C ) :   0.9339 B(  1-C ,  3-O ) :   0.9335
B(  1-C , 12-H ) :   0.9349 B(  2-C , 13-H ) :   0.9356 B(  2-C , 14-H ) :   0.9370
B(  2-C , 15-H ) :   0.9321 B(  3-O ,  4-C ) :   0.9600 B(  4-C ,  5-C ) :   0.9032
B(  4-C ,  6-C ) :   0.8559 B(  4-C , 16-H ) :   0.9285 B(  5-C , 17-H ) :   0.9375
B(  5-C , 18-H ) :   0.9399 B(  5-C , 19-H ) :   0.9243 B(  6-C ,  7-N ) :   1.1059
B(  6-C ,  8-O ) :   2.0363 B(  7-N , 20-H ) :   0.8690 B(  7-N , 21-H ) :   0.8551

MP2 TOTAL ENERGY:     -440.801435261 Eh
FINAL SINGLE POINT ENERGY      -440.801435260581

DIPOLE MOMENT
-------------
                                X             Y             Z
Electronic contribution:      4.20498      -0.83388      -5.21231
Nuclear contribution   :     -3.11317       1.25011       6.37366
                        -----------------------------------------
Total Dipole Moment    :      1.09182       0.41623       1.16135
                        -----------------------------------------
Magnitude (a.u.)       :      1.64744
Magnitude (Debye)      :      4.18745

                             ****ORCA TERMINATED NORMALLY****
TOTAL RUN TIME: 0 days 0 hours 20 minutes 25 seconds 87 msec
