                         Program Version 3.0.3 - RELEASE   -
|  1> ! RI-MP2 RIJK def2-TZVP def2-TZVP/C def2-TZVP/JK TIGHTSCF
|  2> % maxcore 2000
|  3> % mp2 density relaxed end
|  4> *xyz 0 1
|  5>  C       -0.4108504865     1.4842310820    -0.1601930967
|  6>  C       -0.0080898592     0.0031315946    -0.0199357902
|  7>  C        0.9561645904    -0.1223910167     1.1807891812
|  8>  C       -1.2884101375    -0.8108663240     0.2638875997
|  9>  C        0.6808512032    -0.5455186752    -1.2899135782
| 10>  C        0.8695933552    -2.0697725868    -1.3565441116
| 11>  O        1.7361481198    -2.4462409551    -2.4013222009
| 12>  C        0.5954381570     0.1553533860    -2.5978538013
| 13>  N        1.8660971866     0.1434101830    -1.8413618177
| 14>  H        0.4322471347     2.1264675429    -0.4387585869
| 15>  H       -1.2040125315     1.6226985866    -0.9002699974
| 16>  H       -0.7879802497     1.8537028104     0.7985830957
| 17>  H        0.4747384351     0.2436573768     2.0935732147
| 18>  H        1.2589195151    -1.1574506996     1.3597478468
| 19>  H        1.8657831472     0.4671786299     1.0249982193
| 20>  H       -1.9697160711    -0.7883755576    -0.5932121164
| 21>  H       -1.0681037679    -1.8565944068     0.4949533966
| 22>  H       -1.8192617993    -0.3907403353     1.1245849088
| 23>  H        1.2412849270    -2.4377045621    -0.3863265917
| 24>  H       -0.0934026468    -2.5573796406    -1.5421126495
| 25>  H        2.4253741352    -1.7630773196    -2.4090954357
| 26>  H        0.6195495218    -0.4329356528    -3.5096935304
| 27>  H        0.0525567523     1.0909639536    -2.6657973244
| 28>  H        2.0197760089     1.0370459565    -1.3833285739
| 29> *
| 30>
| 31>                          ****END OF INPUT****

CARTESIAN COORDINATES (ANGSTROEM)
---------------------------------
  C     -0.410850    1.484231   -0.160193
  C     -0.008090    0.003132   -0.019936
  C      0.956165   -0.122391    1.180789
  C     -1.288410   -0.810866    0.263888
  C      0.680851   -0.545519   -1.289914
  C      0.869593   -2.069773   -1.356544
  O      1.736148   -2.446241   -2.401322
  C      0.595438    0.155353   -2.597854
  N      1.866097    0.143410   -1.841362
  H      0.432247    2.126468   -0.438759
  H     -1.204013    1.622699   -0.900270
  H     -0.787980    1.853703    0.798583
  H      0.474738    0.243657    2.093573
  H      1.258920   -1.157451    1.359748
  H      1.865783    0.467179    1.024998
  H     -1.969716   -0.788376   -0.593212
  H     -1.068104   -1.856594    0.494953
  H     -1.819262   -0.390740    1.124585
  H      1.241285   -2.437705   -0.386327
  H     -0.093403   -2.557380   -1.542113
  H      2.425374   -1.763077   -2.409095
  H      0.619550   -0.432936   -3.509694
  H      0.052557    1.090964   -2.665797
  H      2.019776    1.037046   -1.383329

 Total Charge           Charge          ....    0
 Multiplicity           Mult            ....    1
 Number of Electrons    NEL             ....   72
 Basis Dimension        Dim             ....  369

ORBITAL ENERGIES
----------------

  NO   OCC          E(Eh)            E(eV)
   0   2.0000     -20.536766      -558.8338
   1   2.0000     -15.561692      -423.4552
   2   2.0000     -11.269092      -306.6476
   3   2.0000     -11.268009      -306.6181
   4   2.0000     -11.253868      -306.2333
   5   2.0000     -11.253022      -306.2103
   6   2.0000     -11.225997      -305.4749
   7   2.0000     -11.222305      -305.3744
   8   2.0000     -11.220887      -305.3358
   9   2.0000      -1.351835       -36.7853
  10   2.0000      -1.262021       -34.3413
  11   2.0000      -1.102251       -29.9938
  12   2.0000      -0.965995       -26.2861
  13   2.0000      -0.942730       -25.6530
  14   2.0000      -0.933814       -25.4104
  15   2.0000      -0.881774       -23.9943
  16   2.0000      -0.826544       -22.4914
  17   2.0000      -0.752716       -20.4824
  18   2.0000      -0.682721       -18.5778
  19   2.0000      -0.680237       -18.5102
  20   2.0000      -0.629842       -17.1389
  21   2.0000      -0.609955       -16.5977
  22   2.0000      -0.604178       -16.4405
  23   2.0000      -0.590175       -16.0595
  24   2.0000      -0.584824       -15.9139
  25   2.0000      -0.555179       -15.1072
  26   2.0000      -0.544686       -14.8216
  27   2.0000      -0.532115       -14.4796
  28   2.0000      -0.525272       -14.2934
  29   2.0000      -0.501438       -13.6448
  30   2.0000      -0.489102       -13.3091
  31   2.0000      -0.467938       -12.7332
  32   2.0000      -0.457453       -12.4479
  33   2.0000      -0.448693       -12.2096
  34   2.0000      -0.437402       -11.9023
  35   2.0000      -0.385191       -10.4816
  36   0.0000       0.124084         3.3765
  37   0.0000       0.155134         4.2214
  38   0.0000       0.166337         4.5263
  39   0.0000       0.171072         4.6551
  40   0.0000       0.184503         5.0206

MULLIKEN ATOMIC CHARGES
-----------------------
   0 C :   -0.436173
   1 C :    0.067820
   2 C :   -0.398693
   3 C :   -0.433988
   4 C :    0.124460
   5 C :   -0.036252
   6 O :   -0.487610
   7 C :   -0.211387
   8 N :   -0.442992
   9 H :    0.123054
  10 H :    0.140865
  11 H :    0.143259
  12 H :    0.134209
  13 H :    0.131691
  14 H :    0.127926
  15 H :    0.140951
  16 H :    0.143294
  17 H :    0.135359
  18 H :    0.093662
  19 H :    0.117026
  20 H :    0.336103
  21 H :    0.142699
  22 H :    0.135744
  23 H :    0.208972
Sum of atomic charges:    0.0000000

LOEWDIN ATOMIC CHARGES
----------------------
   0 C :   -0.271681
   1 C :   -0.312862
   2 C :   -0.263913
   3 C :   -0.262086
   4 C :   -0.274909
   5 C :   -0.312847
   6 O :   -0.039968
   7 C :   -0.239131
   8 N :   -0.004716
   9 H :    0.120217
  10 H :    0.126179
  11 H :    0.130004
  12 H :    0.126527
  13 H :    0.124396
  14 H :    0.125052
  15 H :    0.128779
  16 H :    0.127708
  17 H :    0.127805
  18 H :    0.119483
  19 H :    0.130883
  20 H :    0.178259
  21 H :    0.131885
  22 H :    0.124124
  23 H :    0.160812

  Mayer bond orders larger than 0.1
B(  0-C ,  1-C ) :   0.8803 B(  0-C ,  9-H ) :   0.9367 B(  0-C , 10-H ) :   0.9369
B(  0-C , 11-H ) :   0.9333 B(  1-C ,  2-C ) :   0.9386 B(  1-C ,  3-C ) :   0.8945
B(  1-C ,  4-C ) :   0.8936 B(  2-C , 12-H ) :   0.9362 B(  2-C , 13-H ) :   0.9282
B(  2-C , 14-H ) :   0.9285 B(  3-C , 15-H ) :   0.9356 B(  3-C , 16-H ) :   0.9308
B(  3-C , 17-H ) :   0.9328 B(  4-C ,  5-C ) :   0.8871 B(  4-C ,  7-C ) :   0.9233
B(  4-C ,  8-N ) :   0.8570 B(  5-C ,  6-O ) :   0.9620 B(  5-C , 18-H ) :   0.9324
B(  5-C , 19-H ) :   0.9353 B(  6-O , 20-H ) :   0.8031 B(  7-C ,  8-N ) :   0.8983
B(  7-C , 21-H ) :   0.9116 B(  7-C , 22-H ) :   0.9210 B(  8-N , 23-H ) :   0.8747

MP2 TOTAL ENERGY:     -404.847526808 Eh
FINAL SINGLE POINT ENERGY      -404.847526807783

DIPOLE MOMENT
-------------
                                X             Y             Z
Electronic contribution:      4.23811      -3.12563      -5.75481
Nuclear contribution   :     -4.81657       4.07421       6.43072
                        -----------------------------------------
Total Dipole Moment    :     -0.57846       0.94858       0.67591
                        -----------------------------------------
Magnitude (a.u.)       :      1.30049
Magnitude (Debye)      :      3.30558

                             ****ORCA TERMINATED NORMALLY****
TOTAL RUN TIME: 0 days 0 hours 21 minutes 47 seconds 351 msec
