                         Program Version 3.0.3 - RELEASE   -
|  1> ! RI-MP2 RIJK def2-TZVP def2-TZVP/C def2-TZVP/JK TIGHTSCF
|  2> % maxcore 2000
|  3> % mp2 density relaxed end
|  4> *xyz 0 1
|  5>  C       -0.2272569722     1.3453522845    -0.0298584662
|  6>  O        0.1234321005    -0.0292691877     0.1097189026
|  7>  C        0.7370877503    -0.5410958327    -0.9987243460
|  8>  C       -0.0367679173    -1.0603903797    -2.2281288955
|  9>  C        0.1961122304    -0.6605537450    -3.6674379926
| 10>  C        0.8463994642    -1.9886797187    -1.4296606844
| 11>  N        2.2721830425    -1.7833637468    -1.7147524044
| 12>  C        2.2182703452    -0.4171590030    -1.3738658862
| 13>  O        3.0422612653     0.4524652806    -1.4054589877
| 14>  H        0.6577534781     1.9608180623    -0.2280687826
| 15>  H       -0.9539052419     1.4880828971    -0.8413767070
| 16>  H       -0.6785791636     1.6498881125     0.9161799565
| 17>  H       -1.0861623612    -1.1767055009    -1.9562031181
| 18>  H        1.2603830826    -0.5604602947    -3.8968836036
| 19>  H       -0.2263741851    -1.4064169862    -4.3496295038
| 20>  H       -0.2792204146     0.3003979534    -3.8875594060
| 21>  H        0.5144169317    -2.8708060754    -0.8983373736
| 22>  H        2.7321505150    -2.1167640695    -2.5546271814
| 23> *
| 24>
| 25>                          ****END OF INPUT****

CARTESIAN COORDINATES (ANGSTROEM)
---------------------------------
  C     -0.227257    1.345352   -0.029858
  O      0.123432   -0.029269    0.109719
  C      0.737088   -0.541096   -0.998724
  C     -0.036768   -1.060390   -2.228129
  C      0.196112   -0.660554   -3.667438
  C      0.846399   -1.988680   -1.429661
  N      2.272183   -1.783364   -1.714752
  C      2.218270   -0.417159   -1.373866
  O      3.042261    0.452465   -1.405459
  H      0.657753    1.960818   -0.228069
  H     -0.953905    1.488083   -0.841377
  H     -0.678579    1.649888    0.916180
  H     -1.086162   -1.176706   -1.956203
  H      1.260383   -0.560460   -3.896884
  H     -0.226374   -1.406417   -4.349630
  H     -0.279220    0.300398   -3.887559
  H      0.514417   -2.870806   -0.898337
  H      2.732151   -2.116764   -2.554627

 Total Charge           Charge          ....    0
 Multiplicity           Mult            ....    1
 Number of Electrons    NEL             ....   68
 Basis Dimension        Dim             ....  333

ORBITAL ENERGIES
----------------

  NO   OCC          E(Eh)            E(eV)
   0   2.0000     -20.581616      -560.0542
   1   2.0000     -20.542363      -558.9861
   2   2.0000     -15.585681      -424.1079
   3   2.0000     -11.360221      -309.1273
   4   2.0000     -11.308409      -307.7175
   5   2.0000     -11.285782      -307.1017
   6   2.0000     -11.280846      -306.9674
   7   2.0000     -11.265049      -306.5376
   8   2.0000     -11.236296      -305.7552
   9   2.0000      -1.414347       -38.4863
  10   2.0000      -1.392785       -37.8996
  11   2.0000      -1.287484       -35.0342
  12   2.0000      -1.104343       -30.0507
  13   2.0000      -0.992863       -27.0172
  14   2.0000      -0.940452       -25.5910
  15   2.0000      -0.891152       -24.2495
  16   2.0000      -0.813674       -22.1412
  17   2.0000      -0.747150       -20.3310
  18   2.0000      -0.707136       -19.2421
  19   2.0000      -0.685162       -18.6442
  20   2.0000      -0.669143       -18.2083
  21   2.0000      -0.643241       -17.5035
  22   2.0000      -0.623295       -16.9607
  23   2.0000      -0.603425       -16.4200
  24   2.0000      -0.585334       -15.9277
  25   2.0000      -0.575399       -15.6574
  26   2.0000      -0.555551       -15.1173
  27   2.0000      -0.531271       -14.4566
  28   2.0000      -0.529372       -14.4050
  29   2.0000      -0.496206       -13.5025
  30   2.0000      -0.471820       -12.8389
  31   2.0000      -0.432620       -11.7722
  32   2.0000      -0.402491       -10.9523
  33   2.0000      -0.377422       -10.2702
  34   0.0000       0.124918         3.3992
  35   0.0000       0.140725         3.8293
  36   0.0000       0.160187         4.3589
  37   0.0000       0.167409         4.5554
  38   0.0000       0.181376         4.9355

MULLIKEN ATOMIC CHARGES
-----------------------
   0 C :   -0.221725
   1 O :   -0.301618
   2 C :    0.163926
   3 C :   -0.118763
   4 C :   -0.380390
   5 C :   -0.043630
   6 N :   -0.313471
   7 C :    0.167538
   8 O :   -0.286636
   9 H :    0.149041
  10 H :    0.114445
  11 H :    0.143158
  12 H :    0.126660
  13 H :    0.134823
  14 H :    0.136909
  15 H :    0.140779
  16 H :    0.155022
  17 H :    0.233932
Sum of atomic charges:    0.0000000

LOEWDIN ATOMIC CHARGES
----------------------
   0 C :   -0.321849
   1 O :    0.202969
   2 C :   -0.275154
   3 C :   -0.190472
   4 C :   -0.291270
   5 C :   -0.176581
   6 N :    0.114392
   7 C :   -0.386931
   8 O :    0.131223
   9 H :    0.113777
  10 H :    0.104089
  11 H :    0.114821
  12 H :    0.163547
  13 H :    0.128626
  14 H :    0.127901
  15 H :    0.130058
  16 H :    0.140809
  17 H :    0.170043

  Mayer bond orders larger than 0.1
B(  0-C ,  1-O ) :   0.8663 B(  0-C ,  9-H ) :   0.9339 B(  0-C , 10-H ) :   0.9344
B(  0-C , 11-H ) :   0.9384 B(  1-O ,  2-C ) :   1.0135 B(  2-C ,  3-C ) :   0.8222
B(  2-C ,  5-C ) :   0.8348 B(  2-C ,  7-C ) :   0.8615 B(  3-C ,  4-C ) :   0.8980
B(  3-C ,  5-C ) :   0.8925 B(  3-C , 12-H ) :   0.9109 B(  4-C , 13-H ) :   0.9311
B(  4-C , 14-H ) :   0.9314 B(  4-C , 15-H ) :   0.9376 B(  5-C ,  6-N ) :   0.9491
B(  5-C , 16-H ) :   0.9032 B(  6-N ,  7-C ) :   1.1056 B(  6-N , 17-H ) :   0.8559
B(  7-C ,  8-O ) :   2.0163

MP2 TOTAL ENERGY:     -438.335987801 Eh
FINAL SINGLE POINT ENERGY      -438.335987800900

DIPOLE MOMENT
-------------
                                X             Y             Z
Electronic contribution:      5.61910      -1.94073       3.94191
Nuclear contribution   :     -6.74119       1.49253      -4.66581
                        -----------------------------------------
Total Dipole Moment    :     -1.12210      -0.44821      -0.72390
                        -----------------------------------------
Magnitude (a.u.)       :      1.40855
Magnitude (Debye)      :      3.58025

                             ****ORCA TERMINATED NORMALLY****
TOTAL RUN TIME: 0 days 0 hours 17 minutes 56 seconds 338 msec
