                         Program Version 3.0.3 - RELEASE   -
|  1> ! RI-MP2 RIJK def2-TZVP def2-TZVP/C def2-TZVP/JK TIGHTSCF
|  2> % maxcore 2000
|  3> % mp2 density relaxed end
|  4> *xyz 0 1
|  5>  C        0.0929767196     1.5592471259     0.1453981287
|  6>  C       -0.0876844497     0.0466720787    -0.0231635311
|  7>  C        0.6904862719    -0.5030501407    -1.2096456427
|  8>  C        2.2453325861    -0.5366488659    -1.1860103933
|  9>  C        2.1920832881    -1.9095080407    -1.9048416385
| 10>  C        0.7019759720    -2.0514381684    -1.4510055188
| 11>  O        0.5963762835    -2.6983324133    -0.1868031710
| 12>  C       -0.2466658219    -2.6059408127    -2.4076081941
| 13>  C       -1.0147270385    -3.0834889601    -3.2011862869
| 14>  H        1.1454846977     1.8205824222     0.3006256345
| 15>  H       -0.2552900775     2.1040956551    -0.7394419748
| 16>  H       -0.4703839950     1.9298067051     1.0073734551
| 17>  H        0.2296656692    -0.4742609960     0.8855604648
| 18>  H       -1.1519997806    -0.1861370794    -0.1545899134
| 19>  H        0.3523533032    -0.0240441660    -2.1350269372
| 20>  H        2.7736506538     0.2726818364    -1.6931530922
| 21>  H        2.6284517882    -0.6269438696    -0.1662213223
| 22>  H        2.2757135824    -1.8194141541    -2.9903631216
| 23>  H        2.8583062012    -2.7007389303    -1.5530590258
| 24>  H        0.6540992257    -3.6473810143    -0.3418015639
| 25>  H       -1.6991004093    -3.4978696518    -3.8996341855
| 26> *
| 27>
| 28>                          ****END OF INPUT****

CARTESIAN COORDINATES (ANGSTROEM)
---------------------------------
  C      0.092977    1.559247    0.145398
  C     -0.087684    0.046672   -0.023164
  C      0.690486   -0.503050   -1.209646
  C      2.245333   -0.536649   -1.186010
  C      2.192083   -1.909508   -1.904842
  C      0.701976   -2.051438   -1.451006
  O      0.596376   -2.698332   -0.186803
  C     -0.246666   -2.605941   -2.407608
  C     -1.014727   -3.083489   -3.201186
  H      1.145485    1.820582    0.300626
  H     -0.255290    2.104096   -0.739442
  H     -0.470384    1.929807    1.007373
  H      0.229666   -0.474261    0.885560
  H     -1.152000   -0.186137   -0.154590
  H      0.352353   -0.024044   -2.135027
  H      2.773651    0.272682   -1.693153
  H      2.628452   -0.626944   -0.166221
  H      2.275714   -1.819414   -2.990363
  H      2.858306   -2.700739   -1.553059
  H      0.654099   -3.647381   -0.341802
  H     -1.699100   -3.497870   -3.899634

 Total Charge           Charge          ....    0
 Multiplicity           Mult            ....    1
 Number of Electrons    NEL             ....   68
 Basis Dimension        Dim             ....  351

ORBITAL ENERGIES
----------------

  NO   OCC          E(Eh)            E(eV)
   0   2.0000     -20.563507      -559.5615
   1   2.0000     -11.308341      -307.7156
   2   2.0000     -11.235032      -305.7208
   3   2.0000     -11.230927      -305.6091
   4   2.0000     -11.229497      -305.5701
   5   2.0000     -11.228614      -305.5461
   6   2.0000     -11.221584      -305.3548
   7   2.0000     -11.212188      -305.0991
   8   2.0000     -11.209804      -305.0343
   9   2.0000      -1.373742       -37.3814
  10   2.0000      -1.133931       -30.8558
  11   2.0000      -1.039936       -28.2981
  12   2.0000      -1.022661       -27.8280
  13   2.0000      -0.912383       -24.8272
  14   2.0000      -0.903682       -24.5904
  15   2.0000      -0.821047       -22.3418
  16   2.0000      -0.763986       -20.7891
  17   2.0000      -0.747946       -20.3526
  18   2.0000      -0.695570       -18.9274
  19   2.0000      -0.651220       -17.7206
  20   2.0000      -0.631799       -17.1921
  21   2.0000      -0.607416       -16.5286
  22   2.0000      -0.585443       -15.9307
  23   2.0000      -0.555630       -15.1195
  24   2.0000      -0.547346       -14.8940
  25   2.0000      -0.518053       -14.0969
  26   2.0000      -0.514410       -13.9978
  27   2.0000      -0.491333       -13.3699
  28   2.0000      -0.466034       -12.6814
  29   2.0000      -0.460349       -12.5267
  30   2.0000      -0.449920       -12.2430
  31   2.0000      -0.430347       -11.7103
  32   2.0000      -0.394989       -10.7482
  33   2.0000      -0.378445       -10.2980
  34   0.0000       0.132588         3.6079
  35   0.0000       0.144598         3.9347
  36   0.0000       0.158451         4.3117
  37   0.0000       0.163661         4.4534
  38   0.0000       0.169870         4.6224

MULLIKEN ATOMIC CHARGES
-----------------------
   0 C :   -0.389194
   1 C :   -0.243019
   2 C :   -0.077129
   3 C :   -0.245545
   4 C :   -0.210016
   5 C :    0.170212
   6 O :   -0.466205
   7 C :   -0.117467
   8 C :   -0.145531
   9 H :    0.126839
  10 H :    0.120424
  11 H :    0.135176
  12 H :    0.130361
  13 H :    0.114799
  14 H :    0.110385
  15 H :    0.122925
  16 H :    0.116676
  17 H :    0.121633
  18 H :    0.110422
  19 H :    0.321112
  20 H :    0.193140
Sum of atomic charges:   -0.0000000

LOEWDIN ATOMIC CHARGES
----------------------
   0 C :   -0.316127
   1 C :   -0.272848
   2 C :   -0.184794
   3 C :   -0.217261
   4 C :   -0.189774
   5 C :   -0.327761
   6 O :    0.028397
   7 C :   -0.077216
   8 C :   -0.088560
   9 H :    0.120953
  10 H :    0.119796
  11 H :    0.120994
  12 H :    0.142596
  13 H :    0.141391
  14 H :    0.160023
  15 H :    0.124431
  16 H :    0.139245
  17 H :    0.140399
  18 H :    0.127593
  19 H :    0.180968
  20 H :    0.127557

  Mayer bond orders larger than 0.1
B(  0-C ,  1-C ) :   0.9056 B(  0-C ,  9-H ) :   0.9402 B(  0-C , 10-H ) :   0.9375
B(  0-C , 11-H ) :   0.9434 B(  1-C ,  2-C ) :   0.9239 B(  1-C , 12-H ) :   0.9301
B(  1-C , 13-H ) :   0.9334 B(  2-C ,  3-C ) :   0.9467 B(  2-C ,  5-C ) :   0.8433
B(  2-C , 14-H ) :   0.9267 B(  3-C ,  4-C ) :   0.9582 B(  3-C , 15-H ) :   0.9276
B(  3-C , 16-H ) :   0.9103 B(  4-C ,  5-C ) :   0.9038 B(  4-C , 17-H ) :   0.9182
B(  4-C , 18-H ) :   0.9104 B(  5-C ,  6-O ) :   0.8890 B(  5-C ,  7-C ) :   1.1899
B(  6-O , 19-H ) :   0.8358 B(  7-C ,  8-C ) :   2.5757 B(  8-C , 20-H ) :   0.8822

MP2 TOTAL ENERGY:     -386.367594589 Eh
FINAL SINGLE POINT ENERGY      -386.367594589458

DIPOLE MOMENT
-------------
                                X             Y             Z
Electronic contribution:     -1.91520      -8.17222      -3.17546
Nuclear contribution   :      2.06455       7.98419       2.80201
                        -----------------------------------------
Total Dipole Moment    :      0.14935      -0.18803      -0.37345
                        -----------------------------------------
Magnitude (a.u.)       :      0.44399
Magnitude (Debye)      :      1.12854

                             ****ORCA TERMINATED NORMALLY****
TOTAL RUN TIME: 0 days 0 hours 33 minutes 34 seconds 621 msec
