                         Program Version 3.0.3 - RELEASE   -
|  1> ! RI-MP2 RIJK def2-TZVP def2-TZVP/C def2-TZVP/JK TIGHTSCF
|  2> % maxcore 2000
|  3> % mp2 density relaxed end
|  4> *xyz 0 1
|  5>  C        0.0368238718     1.3887832033     0.1077864027
|  6>  N        0.2438141648    -0.0472813357     0.0750710890
|  7>  C        0.6588796514    -0.6076151559    -0.9524197910
|  8>  O        0.9860610201    -0.0331135633    -2.1839068477
|  9>  C        1.3927735631    -1.0439349684    -2.9993588520
| 10>  C        1.3314839833    -2.2024027720    -2.3327418773
| 11>  O        0.8751773784    -1.9591022060    -1.0483949073
| 12>  C        1.6409201990    -3.5186197363    -2.7261697341
| 13>  N        1.9001166268    -4.5946396185    -3.0667144893
| 14>  H        0.6498777829     1.8192521029     0.9064601469
| 15>  H        0.2759302787     1.9002574853    -0.8318616898
| 16>  H       -1.0088064654     1.5925838695     0.3610207736
| 17>  H        1.6904090950    -0.7997158049    -4.0042263235
| 18> *
| 19>
| 20>                          ****END OF INPUT****

CARTESIAN COORDINATES (ANGSTROEM)
---------------------------------
  C      0.036824    1.388783    0.107786
  N      0.243814   -0.047281    0.075071
  C      0.658880   -0.607615   -0.952420
  O      0.986061   -0.033114   -2.183907
  C      1.392774   -1.043935   -2.999359
  C      1.331484   -2.202403   -2.332742
  O      0.875177   -1.959102   -1.048395
  C      1.640920   -3.518620   -2.726170
  N      1.900117   -4.594640   -3.066714
  H      0.649878    1.819252    0.906460
  H      0.275930    1.900257   -0.831862
  H     -1.008806    1.592584    0.361021
  H      1.690409   -0.799716   -4.004226

 Total Charge           Charge          ....    0
 Multiplicity           Mult            ....    1
 Number of Electrons    NEL             ....   64
 Basis Dimension        Dim             ....  303

ORBITAL ENERGIES
----------------

  NO   OCC          E(Eh)            E(eV)
   0   2.0000     -20.667968      -562.4040
   1   2.0000     -20.658139      -562.1365
   2   2.0000     -15.607050      -424.6894
   3   2.0000     -15.564511      -423.5319
   4   2.0000     -11.424592      -310.8790
   5   2.0000     -11.365488      -309.2707
   6   2.0000     -11.363212      -309.2087
   7   2.0000     -11.307624      -307.6961
   8   2.0000     -11.263764      -306.5026
   9   2.0000      -1.555493       -42.3271
  10   2.0000      -1.437332       -39.1118
  11   2.0000      -1.261931       -34.3389
  12   2.0000      -1.245566       -33.8936
  13   2.0000      -1.099387       -29.9158
  14   2.0000      -0.967631       -26.3306
  15   2.0000      -0.940054       -25.5802
  16   2.0000      -0.877040       -23.8655
  17   2.0000      -0.801248       -21.8031
  18   2.0000      -0.734437       -19.9850
  19   2.0000      -0.732479       -19.9318
  20   2.0000      -0.667643       -18.1675
  21   2.0000      -0.647638       -17.6231
  22   2.0000      -0.613362       -16.6904
  23   2.0000      -0.611098       -16.6288
  24   2.0000      -0.600411       -16.3380
  25   2.0000      -0.590514       -16.0687
  26   2.0000      -0.579315       -15.7640
  27   2.0000      -0.535131       -14.5617
  28   2.0000      -0.500413       -13.6169
  29   2.0000      -0.451032       -12.2732
  30   2.0000      -0.443593       -12.0708
  31   2.0000      -0.360290        -9.8040
  32   0.0000       0.074418         2.0250
  33   0.0000       0.129077         3.5124
  34   0.0000       0.136555         3.7159
  35   0.0000       0.150458         4.0942
  36   0.0000       0.167839         4.5671

MULLIKEN ATOMIC CHARGES
-----------------------
   0 C :   -0.260713
   1 N :   -0.225062
   2 C :    0.294619
   3 O :   -0.234378
   4 C :   -0.016740
   5 C :    0.275061
   6 O :   -0.211220
   7 C :   -0.187582
   8 N :   -0.034008
   9 H :    0.143837
  10 H :    0.126136
  11 H :    0.143846
  12 H :    0.186203
Sum of atomic charges:    0.0000000

LOEWDIN ATOMIC CHARGES
----------------------
   0 C :   -0.320178
   1 N :    0.083280
   2 C :   -0.426847
   3 O :    0.300483
   4 C :   -0.185508
   5 C :   -0.261521
   6 O :    0.342198
   7 C :   -0.145107
   8 N :    0.107760
   9 H :    0.122239
  10 H :    0.109652
  11 H :    0.122237
  12 H :    0.151312

  Mayer bond orders larger than 0.1
B(  0-C ,  1-N ) :   0.8460 B(  0-C ,  9-H ) :   0.9335 B(  0-C , 10-H ) :   0.9284
B(  0-C , 11-H ) :   0.9335 B(  1-N ,  2-C ) :   1.9841 B(  2-C ,  3-O ) :   0.9781
B(  2-C ,  6-O ) :   1.0388 B(  3-O ,  4-C ) :   1.0342 B(  4-C ,  5-C ) :   1.6382
B(  4-C , 12-H ) :   0.9100 B(  5-C ,  6-O ) :   0.9788 B(  5-C ,  7-C ) :   0.9268
B(  7-C ,  8-N ) :   2.8026

MP2 TOTAL ENERGY:     -452.006320439 Eh
FINAL SINGLE POINT ENERGY      -452.006320439413

DIPOLE MOMENT
-------------
                                X             Y             Z
Electronic contribution:      2.19431      -7.70946      -3.46333
Nuclear contribution   :     -2.18833       9.19791       2.82786
                        -----------------------------------------
Total Dipole Moment    :      0.00598       1.48845      -0.63547
                        -----------------------------------------
Magnitude (a.u.)       :      1.61844
Magnitude (Debye)      :      4.11376

                             ****ORCA TERMINATED NORMALLY****
TOTAL RUN TIME: 0 days 0 hours 13 minutes 30 seconds 814 msec
