                         Program Version 3.0.3 - RELEASE   -
|  1> ! RI-MP2 RIJK def2-TZVP def2-TZVP/C def2-TZVP/JK TIGHTSCF
|  2> % maxcore 2000
|  3> % mp2 density relaxed end
|  4> *xyz 0 1
|  5>  C        0.3098139540     1.5918412112     0.1255183036
|  6>  C        0.0166869887     0.0991863216     0.0149680982
|  7>  C        0.4565692044    -0.4636439401    -1.3504531368
|  8>  C        0.4398067904    -1.9923017079    -1.4844857119
|  9>  C       -0.7446761683    -2.6821709088    -0.7475011609
| 10>  C        0.1967396873    -2.8893000603     0.4731784677
| 11>  C        1.3990085003    -2.7253794927    -0.4984758855
| 12>  C        0.1453788615    -1.7716599932     1.5223831851
| 13>  O        0.6864546330    -0.5318210325     1.1033560373
| 14>  H        1.3892079863     1.7671140044     0.0762500182
| 15>  H       -0.1675226522     2.1445449244    -0.6894653648
| 16>  H       -0.0570718689     1.9850009398     1.0772173534
| 17>  H       -1.0685503115    -0.0549811739     0.1336163481
| 18>  H       -0.2025890870    -0.0272242790    -2.1127993743
| 19>  H        1.4701606018    -0.1011651400    -1.5690240915
| 20>  H        0.5630403075    -2.2561683423    -2.5389261413
| 21>  H       -1.6671984691    -2.1126325879    -0.5971612145
| 22>  H       -1.0036114662    -3.6371033860    -1.2133500054
| 23>  H        0.0990962774    -3.8496385039     0.9895404643
| 24>  H        1.7312328978    -3.6864258665    -0.9000223693
| 25>  H        2.2622647837    -2.1661734828    -0.1311379985
| 26>  H       -0.8940583865    -1.6360986332     1.8691547801
| 27>  H        0.7492856856    -2.0592751903     2.3898971685
| 28> *
| 29>
| 30>                          ****END OF INPUT****

CARTESIAN COORDINATES (ANGSTROEM)
---------------------------------
  C      0.309814    1.591841    0.125518
  C      0.016687    0.099186    0.014968
  C      0.456569   -0.463644   -1.350453
  C      0.439807   -1.992302   -1.484486
  C     -0.744676   -2.682171   -0.747501
  C      0.196740   -2.889300    0.473178
  C      1.399009   -2.725379   -0.498476
  C      0.145379   -1.771660    1.522383
  O      0.686455   -0.531821    1.103356
  H      1.389208    1.767114    0.076250
  H     -0.167523    2.144545   -0.689465
  H     -0.057072    1.985001    1.077217
  H     -1.068550   -0.054981    0.133616
  H     -0.202589   -0.027224   -2.112799
  H      1.470161   -0.101165   -1.569024
  H      0.563040   -2.256168   -2.538926
  H     -1.667198   -2.112633   -0.597161
  H     -1.003611   -3.637103   -1.213350
  H      0.099096   -3.849639    0.989540
  H      1.731233   -3.686426   -0.900022
  H      2.262265   -2.166173   -0.131138
  H     -0.894058   -1.636099    1.869155
  H      0.749286   -2.059275    2.389897

 Total Charge           Charge          ....    0
 Multiplicity           Mult            ....    1
 Number of Electrons    NEL             ....   70
 Basis Dimension        Dim             ....  363

ORBITAL ENERGIES
----------------

  NO   OCC          E(Eh)            E(eV)
   0   2.0000     -20.543262      -559.0106
   1   2.0000     -11.273814      -306.7761
   2   2.0000     -11.267754      -306.6112
   3   2.0000     -11.224729      -305.4404
   4   2.0000     -11.223844      -305.4163
   5   2.0000     -11.216706      -305.2221
   6   2.0000     -11.216290      -305.2108
   7   2.0000     -11.212488      -305.1073
   8   2.0000     -11.208499      -304.9988
   9   2.0000      -1.366004       -37.1709
  10   2.0000      -1.134754       -30.8782
  11   2.0000      -1.058488       -28.8029
  12   2.0000      -0.958767       -26.0894
  13   2.0000      -0.923130       -25.1196
  14   2.0000      -0.896054       -24.3829
  15   2.0000      -0.846486       -23.0341
  16   2.0000      -0.762892       -20.7593
  17   2.0000      -0.723810       -19.6959
  18   2.0000      -0.678959       -18.4754
  19   2.0000      -0.652713       -17.7612
  20   2.0000      -0.631478       -17.1834
  21   2.0000      -0.622342       -16.9348
  22   2.0000      -0.590706       -16.0739
  23   2.0000      -0.561985       -15.2924
  24   2.0000      -0.549119       -14.9423
  25   2.0000      -0.542526       -14.7629
  26   2.0000      -0.525936       -14.3114
  27   2.0000      -0.519665       -14.1408
  28   2.0000      -0.495085       -13.4719
  29   2.0000      -0.469165       -12.7666
  30   2.0000      -0.442960       -12.0536
  31   2.0000      -0.434543       -11.8245
  32   2.0000      -0.424617       -11.5544
  33   2.0000      -0.422794       -11.5048
  34   2.0000      -0.404395       -11.0042
  35   0.0000       0.135936         3.6990
  36   0.0000       0.152631         4.1533
  37   0.0000       0.157423         4.2837
  38   0.0000       0.172075         4.6824
  39   0.0000       0.188514         5.1297

MULLIKEN ATOMIC CHARGES
-----------------------
   0 C :   -0.376286
   1 C :    0.058268
   2 C :   -0.281416
   3 C :    0.043273
   4 C :   -0.311576
   5 C :   -0.004096
   6 C :   -0.296132
   7 C :   -0.115657
   8 O :   -0.313562
   9 H :    0.129343
  10 H :    0.121369
  11 H :    0.135352
  12 H :    0.075607
  13 H :    0.116416
  14 H :    0.107586
  15 H :    0.105328
  16 H :    0.117292
  17 H :    0.120188
  18 H :    0.103578
  19 H :    0.118490
  20 H :    0.122965
  21 H :    0.100144
  22 H :    0.123525
Sum of atomic charges:    0.0000000

LOEWDIN ATOMIC CHARGES
----------------------
   0 C :   -0.292830
   1 C :   -0.343470
   2 C :   -0.230843
   3 C :   -0.225115
   4 C :   -0.205713
   5 C :   -0.235746
   6 C :   -0.197369
   7 C :   -0.306308
   8 O :    0.178204
   9 H :    0.126442
  10 H :    0.125036
  11 H :    0.124462
  12 H :    0.134740
  13 H :    0.144636
  14 H :    0.144527
  15 H :    0.138037
  16 H :    0.124161
  17 H :    0.135743
  18 H :    0.140630
  19 H :    0.133759
  20 H :    0.131487
  21 H :    0.122796
  22 H :    0.132736

  Mayer bond orders larger than 0.1
B(  0-C ,  1-C ) :   0.9096 B(  0-C ,  9-H ) :   0.9393 B(  0-C , 10-H ) :   0.9337
B(  0-C , 11-H ) :   0.9421 B(  1-C ,  2-C ) :   0.9409 B(  1-C ,  8-O ) :   0.9289
B(  1-C , 12-H ) :   0.9335 B(  2-C ,  3-C ) :   0.9168 B(  2-C , 13-H ) :   0.9202
B(  2-C , 14-H ) :   0.9164 B(  3-C ,  4-C ) :   0.8895 B(  3-C ,  6-C ) :   0.9028
B(  3-C , 15-H ) :   0.9308 B(  4-C ,  5-C ) :   0.9032 B(  4-C , 16-H ) :   0.9302
B(  4-C , 17-H ) :   0.9213 B(  5-C ,  6-C ) :   0.9079 B(  5-C ,  7-C ) :   0.9059
B(  5-C , 18-H ) :   0.9186 B(  6-C , 19-H ) :   0.9225 B(  6-C , 20-H ) :   0.9206
B(  7-C ,  8-O ) :   0.9351 B(  7-C , 21-H ) :   0.9446 B(  7-C , 22-H ) :   0.9330

MP2 TOTAL ENERGY:     -387.617008371 Eh
FINAL SINGLE POINT ENERGY      -387.617008371358

DIPOLE MOMENT
-------------
                                X             Y             Z
Electronic contribution:      0.90507      -1.58407       1.79683
Nuclear contribution   :     -1.24248       1.36424      -2.06860
                        -----------------------------------------
Total Dipole Moment    :     -0.33741      -0.21983      -0.27177
                        -----------------------------------------
Magnitude (a.u.)       :      0.48583
Magnitude (Debye)      :      1.23488

                             ****ORCA TERMINATED NORMALLY****
TOTAL RUN TIME: 0 days 0 hours 21 minutes 57 seconds 11 msec
