                         Program Version 3.0.3 - RELEASE   -
|  1> ! RI-MP2 RIJK def2-TZVP def2-TZVP/C def2-TZVP/JK TIGHTSCF
|  2> % maxcore 2000
|  3> % mp2 density relaxed end
|  4> *xyz 0 1
|  5>  C       -0.1445585652     1.5230763688    -0.0486666789
|  6>  C        0.0016696742     0.0146944689     0.0113013368
|  7>  C       -1.2025209669    -0.8353510500     0.4849159475
|  8>  O       -0.3658741283    -1.5717252336     1.4046851415
|  9>  C        0.7597558893    -0.7067915698     1.1502158035
| 10>  C        1.9415423122    -1.4535010189     0.5182612072
| 11>  N        1.6348807407    -1.3999122579    -0.9006404626
| 12>  C        0.6194294283    -0.5624751267    -1.2698206607
| 13>  O        0.2646315324    -0.3230869908    -2.4046020949
| 14>  H        0.8302577149     2.0146884255    -0.1346636319
| 15>  H       -0.7312407092     1.7994161762    -0.9297294521
| 16>  H       -0.6442778390     1.9092669145     0.8448853006
| 17>  H       -1.9714543910    -0.2545680906     1.0110357588
| 18>  H       -1.6805151477    -1.4823112055    -0.2582790168
| 19>  H        1.0413964163    -0.1321274622     2.0387223641
| 20>  H        2.8978560246    -0.9638192518     0.7474483638
| 21>  H        1.9777886420    -2.4814631914     0.8949396989
| 22>  H        2.1796103523    -1.8718696046    -1.6049907049
| 23> *
| 24>
| 25>                          ****END OF INPUT****

CARTESIAN COORDINATES (ANGSTROEM)
---------------------------------
  C     -0.144559    1.523076   -0.048667
  C      0.001670    0.014694    0.011301
  C     -1.202521   -0.835351    0.484916
  O     -0.365874   -1.571725    1.404685
  C      0.759756   -0.706792    1.150216
  C      1.941542   -1.453501    0.518261
  N      1.634881   -1.399912   -0.900640
  C      0.619429   -0.562475   -1.269821
  O      0.264632   -0.323087   -2.404602
  H      0.830258    2.014688   -0.134664
  H     -0.731241    1.799416   -0.929729
  H     -0.644278    1.909267    0.844885
  H     -1.971454   -0.254568    1.011036
  H     -1.680515   -1.482311   -0.258279
  H      1.041396   -0.132127    2.038722
  H      2.897856   -0.963819    0.747448
  H      1.977789   -2.481463    0.894940
  H      2.179610   -1.871870   -1.604991

 Total Charge           Charge          ....    0
 Multiplicity           Mult            ....    1
 Number of Electrons    NEL             ....   68
 Basis Dimension        Dim             ....  333

ORBITAL ENERGIES
----------------

  NO   OCC          E(Eh)            E(eV)
   0   2.0000     -20.561707      -559.5125
   1   2.0000     -20.519584      -558.3663
   2   2.0000     -15.588038      -424.1721
   3   2.0000     -11.348682      -308.8133
   4   2.0000     -11.300452      -307.5009
   5   2.0000     -11.291339      -307.2530
   6   2.0000     -11.280250      -306.9512
   7   2.0000     -11.257510      -306.3324
   8   2.0000     -11.232274      -305.6457
   9   2.0000      -1.400604       -38.1124
  10   2.0000      -1.379123       -37.5278
  11   2.0000      -1.248657       -33.9777
  12   2.0000      -1.077668       -29.3248
  13   2.0000      -1.007149       -27.4059
  14   2.0000      -0.933743       -25.4084
  15   2.0000      -0.906825       -24.6760
  16   2.0000      -0.820143       -22.3172
  17   2.0000      -0.752843       -20.4859
  18   2.0000      -0.702321       -19.1111
  19   2.0000      -0.683118       -18.5886
  20   2.0000      -0.658907       -17.9298
  21   2.0000      -0.641340       -17.4517
  22   2.0000      -0.615775       -16.7561
  23   2.0000      -0.596506       -16.2318
  24   2.0000      -0.583243       -15.8708
  25   2.0000      -0.579531       -15.7698
  26   2.0000      -0.560126       -15.2418
  27   2.0000      -0.542799       -14.7703
  28   2.0000      -0.530138       -14.4258
  29   2.0000      -0.472507       -12.8576
  30   2.0000      -0.458860       -12.4862
  31   2.0000      -0.436263       -11.8713
  32   2.0000      -0.408938       -11.1278
  33   2.0000      -0.397531       -10.8174
  34   0.0000       0.127736         3.4759
  35   0.0000       0.146056         3.9744
  36   0.0000       0.160989         4.3807
  37   0.0000       0.161291         4.3889
  38   0.0000       0.193326         5.2607

MULLIKEN ATOMIC CHARGES
-----------------------
   0 C :   -0.409256
   1 C :    0.122699
   2 C :   -0.052294
   3 O :   -0.329874
   4 C :    0.027299
   5 C :   -0.088368
   6 N :   -0.320124
   7 C :    0.148987
   8 O :   -0.338498
   9 H :    0.133741
  10 H :    0.160331
  11 H :    0.135577
  12 H :    0.098049
  13 H :    0.119196
  14 H :    0.104720
  15 H :    0.116052
  16 H :    0.133109
  17 H :    0.238657
Sum of atomic charges:   -0.0000000

LOEWDIN ATOMIC CHARGES
----------------------
   0 C :   -0.261540
   1 C :   -0.227626
   2 C :   -0.213033
   3 O :    0.140505
   4 C :   -0.227069
   5 C :   -0.248300
   6 N :    0.129285
   7 C :   -0.416310
   8 O :    0.087796
   9 H :    0.131212
  10 H :    0.140033
  11 H :    0.127477
  12 H :    0.121939
  13 H :    0.126294
  14 H :    0.136734
  15 H :    0.129401
  16 H :    0.138980
  17 H :    0.184223

  Mayer bond orders larger than 0.1
B(  0-C ,  1-C ) :   0.9163 B(  0-C ,  9-H ) :   0.9299 B(  0-C , 10-H ) :   0.9276
B(  0-C , 11-H ) :   0.9363 B(  1-C ,  2-C ) :   0.9467 B(  1-C ,  4-C ) :   0.9254
B(  1-C ,  7-C ) :   0.8451 B(  2-C ,  3-O ) :   0.9403 B(  2-C , 12-H ) :   0.9091
B(  2-C , 13-H ) :   0.9047 B(  3-O ,  4-C ) :   0.9940 B(  4-C ,  5-C ) :   0.9141
B(  4-C , 14-H ) :   0.9205 B(  5-C ,  6-N ) :   0.8911 B(  5-C , 15-H ) :   0.9211
B(  5-C , 16-H ) :   0.9193 B(  6-N ,  7-C ) :   1.2045 B(  6-N , 17-H ) :   0.8648
B(  7-C ,  8-O ) :   2.0221

MP2 TOTAL ENERGY:     -438.396067378 Eh
FINAL SINGLE POINT ENERGY      -438.396067378404

DIPOLE MOMENT
-------------
                                X             Y             Z
Electronic contribution:      0.36244      -3.50659      -2.66201
Nuclear contribution   :      0.40249       3.63769       3.48320
                        -----------------------------------------
Total Dipole Moment    :      0.76492       0.13110       0.82119
                        -----------------------------------------
Magnitude (a.u.)       :      1.12989
Magnitude (Debye)      :      2.87195

                             ****ORCA TERMINATED NORMALLY****
TOTAL RUN TIME: 0 days 0 hours 17 minutes 39 seconds 751 msec
