                         Program Version 3.0.3 - RELEASE   -
|  1> ! RI-MP2 RIJK def2-TZVP def2-TZVP/C def2-TZVP/JK TIGHTSCF
|  2> % maxcore 2000
|  3> % mp2 density relaxed end
|  4> *xyz 0 1
|  5>  C        1.7697194618     1.2935281265    -0.0777226958
|  6>  C        0.7997100659     0.4291893608     0.7404638653
|  7>  C       -0.3810361938     0.0428126374    -0.0345987990
|  8>  N       -1.2984041606    -0.2815552972    -0.6588673654
|  9>  C        1.4903075332    -0.8373106753     1.3106961558
| 10>  O        2.6576439930    -1.0448683160     1.1211242610
| 11>  C        0.6192617810    -1.8050614720     2.1277096937
| 12>  C       -0.1608696326    -1.1449304090     3.1648906916
| 13>  C       -0.7865826681    -0.5776445637     4.0195603431
| 14>  H        2.1429615366     0.7423101278    -0.9427553159
| 15>  H        1.2686543733     2.1996545436    -0.4243442007
| 16>  H        2.6242252234     1.5695410220     0.5423833021
| 17>  H        0.4355262770     0.9876808426     1.6132474119
| 18>  H       -0.0534673581    -2.3157932069     1.4248990523
| 19>  H        1.2908245410    -2.5582719423     2.5493520337
| 20>  H       -1.3514413229    -0.0928737882     4.7774212661
| 21> *
| 22>
| 23>                          ****END OF INPUT****

CARTESIAN COORDINATES (ANGSTROEM)
---------------------------------
  C      1.769719    1.293528   -0.077723
  C      0.799710    0.429189    0.740464
  C     -0.381036    0.042813   -0.034599
  N     -1.298404   -0.281555   -0.658867
  C      1.490308   -0.837311    1.310696
  O      2.657644   -1.044868    1.121124
  C      0.619262   -1.805061    2.127710
  C     -0.160870   -1.144930    3.164891
  C     -0.786583   -0.577645    4.019560
  H      2.142962    0.742310   -0.942755
  H      1.268654    2.199655   -0.424344
  H      2.624225    1.569541    0.542383
  H      0.435526    0.987681    1.613247
  H     -0.053467   -2.315793    1.424899
  H      1.290825   -2.558272    2.549352
  H     -1.351441   -0.092874    4.777421

 Total Charge           Charge          ....    0
 Multiplicity           Mult            ....    1
 Number of Electrons    NEL             ....   64
 Basis Dimension        Dim             ....  321

ORBITAL ENERGIES
----------------

  NO   OCC          E(Eh)            E(eV)
   0   2.0000     -20.583991      -560.1189
   1   2.0000     -15.584424      -424.0737
   2   2.0000     -11.372063      -309.4496
   3   2.0000     -11.307093      -307.6816
   4   2.0000     -11.287730      -307.1548
   5   2.0000     -11.287549      -307.1498
   6   2.0000     -11.260579      -306.4159
   7   2.0000     -11.249702      -306.1200
   8   2.0000     -11.248613      -306.0903
   9   2.0000      -1.431539       -38.9541
  10   2.0000      -1.234364       -33.5887
  11   2.0000      -1.123646       -30.5760
  12   2.0000      -1.088554       -29.6211
  13   2.0000      -1.006699       -27.3937
  14   2.0000      -0.928914       -25.2770
  15   2.0000      -0.805580       -21.9209
  16   2.0000      -0.756052       -20.5732
  17   2.0000      -0.716654       -19.5011
  18   2.0000      -0.702684       -19.1210
  19   2.0000      -0.670310       -18.2401
  20   2.0000      -0.655976       -17.8500
  21   2.0000      -0.624005       -16.9800
  22   2.0000      -0.592824       -16.1316
  23   2.0000      -0.566780       -15.4229
  24   2.0000      -0.558227       -15.1901
  25   2.0000      -0.551956       -15.0195
  26   2.0000      -0.537401       -14.6234
  27   2.0000      -0.497849       -13.5472
  28   2.0000      -0.470543       -12.8041
  29   2.0000      -0.453868       -12.3504
  30   2.0000      -0.412883       -11.2351
  31   2.0000      -0.403449       -10.9784
  32   0.0000       0.107070         2.9135
  33   0.0000       0.114454         3.1145
  34   0.0000       0.144280         3.9261
  35   0.0000       0.155208         4.2234
  36   0.0000       0.159876         4.3505

MULLIKEN ATOMIC CHARGES
-----------------------
   0 C :   -0.372345
   1 C :    0.054457
   2 C :   -0.217147
   3 N :   -0.052670
   4 C :    0.160001
   5 O :   -0.243773
   6 C :   -0.277560
   7 C :   -0.065253
   8 C :   -0.155874
   9 H :    0.148296
  10 H :    0.151617
  11 H :    0.153711
  12 H :    0.162695
  13 H :    0.188265
  14 H :    0.167235
  15 H :    0.198345
Sum of atomic charges:   -0.0000000

LOEWDIN ATOMIC CHARGES
----------------------
   0 C :   -0.258518
   1 C :   -0.236419
   2 C :   -0.169218
   3 N :    0.069941
   4 C :   -0.269459
   5 O :    0.193982
   6 C :   -0.207739
   7 C :   -0.112599
   8 C :   -0.086192
   9 H :    0.135791
  10 H :    0.132251
  11 H :    0.134641
  12 H :    0.193761
  13 H :    0.179932
  14 H :    0.169444
  15 H :    0.130403

  Mayer bond orders larger than 0.1
B(  0-C ,  1-C ) :   0.9050 B(  0-C ,  9-H ) :   0.9247 B(  0-C , 10-H ) :   0.9322
B(  0-C , 11-H ) :   0.9315 B(  1-C ,  2-C ) :   0.9013 B(  1-C ,  4-C ) :   0.8431
B(  1-C , 12-H ) :   0.8858 B(  2-C ,  3-N ) :   2.8523 B(  4-C ,  5-O ) :   2.0306
B(  4-C ,  6-C ) :   0.9209 B(  6-C ,  7-C ) :   0.9915 B(  6-C , 13-H ) :   0.9152
B(  6-C , 14-H ) :   0.9082 B(  7-C ,  8-C ) :   2.6447 B(  8-C , 15-H ) :   0.9050

MP2 TOTAL ENERGY:     -400.042862806 Eh
FINAL SINGLE POINT ENERGY      -400.042862806119

DIPOLE MOMENT
-------------
                                X             Y             Z
Electronic contribution:     -1.79358      -2.79835       0.23658
Nuclear contribution   :      2.13630       3.27451       0.61818
                        -----------------------------------------
Total Dipole Moment    :      0.34273       0.47616       0.85476
                        -----------------------------------------
Magnitude (a.u.)       :      1.03673
Magnitude (Debye)      :      2.63515

                             ****ORCA TERMINATED NORMALLY****
TOTAL RUN TIME: 0 days 0 hours 18 minutes 30 seconds 623 msec
