                         Program Version 3.0.3 - RELEASE   -
|  1> ! RI-MP2 RIJK def2-TZVP def2-TZVP/C def2-TZVP/JK TIGHTSCF
|  2> % maxcore 2000
|  3> % mp2 density relaxed end
|  4> *xyz 0 1
|  5>  C       -0.0652503065     1.5205716202     0.1103185344
|  6>  O        0.0421218515     0.0951352871     0.1249076156
|  7>  C       -1.1201774133    -0.5888087924     0.1137075075
|  8>  C       -0.8124109644    -2.0893715692     0.1003041923
|  9>  C       -1.0459798680    -2.6943997089    -1.2087658839
| 10>  N       -1.2385324244    -3.1709206964    -2.2435031365
| 11>  N       -2.2386673926    -0.0087949221     0.1190264905
| 12>  C       -3.4842583663    -0.7428788657     0.0803850028
| 13>  H        0.9603574395     1.8909907665     0.1100494512
| 14>  H       -0.5986563931     1.8576172797    -0.7823763296
| 15>  H       -0.6047916604     1.8772454477     0.9917551935
| 16>  H        0.2344946678    -2.2292314582     0.3789301874
| 17>  H       -1.4293311334    -2.6055725217     0.8421863009
| 18>  H       -3.3936705305    -1.8342949013     0.1688296911
| 19>  H       -4.1349844917    -0.3866622943     0.8862449965
| 20>  H       -3.9996278241    -0.5301869912    -0.8631236435
| 21> *
| 22>
| 23>                          ****END OF INPUT****

CARTESIAN COORDINATES (ANGSTROEM)
---------------------------------
  C     -0.065250    1.520572    0.110319
  O      0.042122    0.095135    0.124908
  C     -1.120177   -0.588809    0.113708
  C     -0.812411   -2.089372    0.100304
  C     -1.045980   -2.694400   -1.208766
  N     -1.238532   -3.170921   -2.243503
  N     -2.238667   -0.008795    0.119026
  C     -3.484258   -0.742879    0.080385
  H      0.960357    1.890991    0.110049
  H     -0.598656    1.857617   -0.782376
  H     -0.604792    1.877245    0.991755
  H      0.234495   -2.229231    0.378930
  H     -1.429331   -2.605573    0.842186
  H     -3.393671   -1.834295    0.168830
  H     -4.134984   -0.386662    0.886245
  H     -3.999628   -0.530187   -0.863124

 Total Charge           Charge          ....    0
 Multiplicity           Mult            ....    1
 Number of Electrons    NEL             ....   60
 Basis Dimension        Dim             ....  296

ORBITAL ENERGIES
----------------

  NO   OCC          E(Eh)            E(eV)
   0   2.0000     -20.603538      -560.6508
   1   2.0000     -15.578685      -423.9176
   2   2.0000     -15.557036      -423.3285
   3   2.0000     -11.358826      -309.0894
   4   2.0000     -11.301967      -307.5422
   5   2.0000     -11.284742      -307.0734
   6   2.0000     -11.284682      -307.0718
   7   2.0000     -11.259511      -306.3869
   8   2.0000      -1.439890       -39.1814
   9   2.0000      -1.237386       -33.6710
  10   2.0000      -1.223719       -33.2991
  11   2.0000      -1.073683       -29.2164
  12   2.0000      -0.974517       -26.5179
  13   2.0000      -0.944181       -25.6925
  14   2.0000      -0.778816       -21.1927
  15   2.0000      -0.725646       -19.7458
  16   2.0000      -0.699688       -19.0395
  17   2.0000      -0.694246       -18.8914
  18   2.0000      -0.657047       -17.8792
  19   2.0000      -0.625636       -17.0244
  20   2.0000      -0.596159       -16.2223
  21   2.0000      -0.589681       -16.0460
  22   2.0000      -0.573263       -15.5993
  23   2.0000      -0.563004       -15.3201
  24   2.0000      -0.525969       -14.3123
  25   2.0000      -0.513284       -13.9672
  26   2.0000      -0.479646       -13.0518
  27   2.0000      -0.468339       -12.7441
  28   2.0000      -0.418805       -11.3963
  29   2.0000      -0.398888       -10.8543
  30   0.0000       0.120846         3.2884
  31   0.0000       0.153159         4.1677
  32   0.0000       0.156495         4.2584
  33   0.0000       0.163138         4.4392
  34   0.0000       0.170304         4.6342

MULLIKEN ATOMIC CHARGES
-----------------------
   0 C :   -0.202628
   1 O :   -0.269484
   2 C :    0.249916
   3 C :   -0.157593
   4 C :   -0.183238
   5 N :   -0.058233
   6 N :   -0.271215
   7 C :   -0.288092
   8 H :    0.144326
   9 H :    0.136571
  10 H :    0.133536
  11 H :    0.176280
  12 H :    0.184729
  13 H :    0.107462
  14 H :    0.146556
  15 H :    0.151107
Sum of atomic charges:    0.0000000

LOEWDIN ATOMIC CHARGES
----------------------
   0 C :   -0.314093
   1 O :    0.230248
   2 C :   -0.380430
   3 C :   -0.211597
   4 C :   -0.188279
   5 N :    0.064212
   6 N :    0.084750
   7 C :   -0.326354
   8 H :    0.113952
   9 H :    0.113880
  10 H :    0.112407
  11 H :    0.175426
  12 H :    0.171917
  13 H :    0.108022
  14 H :    0.120512
  15 H :    0.125428

  Mayer bond orders larger than 0.1
B(  0-C ,  1-O ) :   0.8455 B(  0-C ,  8-H ) :   0.9315 B(  0-C ,  9-H ) :   0.9364
B(  0-C , 10-H ) :   0.9359 B(  1-O ,  2-C ) :   1.1102 B(  2-C ,  3-C ) :   0.8735
B(  2-C ,  6-N ) :   1.7996 B(  3-C ,  4-C ) :   0.9265 B(  3-C , 11-H ) :   0.8951
B(  3-C , 12-H ) :   0.9160 B(  4-C ,  5-N ) :   2.8554 B(  6-N ,  7-C ) :   0.8869
B(  7-C , 13-H ) :   0.9231 B(  7-C , 14-H ) :   0.9339 B(  7-C , 15-H ) :   0.9306

MP2 TOTAL ENERGY:     -379.292288123 Eh
FINAL SINGLE POINT ENERGY      -379.292288123112

DIPOLE MOMENT
-------------
                                X             Y             Z
Electronic contribution:      2.88652      -4.33157      -2.74539
Nuclear contribution   :     -2.81310       4.87353       4.01129
                        -----------------------------------------
Total Dipole Moment    :      0.07342       0.54196       1.26590
                        -----------------------------------------
Magnitude (a.u.)       :      1.37899
Magnitude (Debye)      :      3.50511

                             ****ORCA TERMINATED NORMALLY****
TOTAL RUN TIME: 0 days 0 hours 11 minutes 2 seconds 589 msec
