                         Program Version 3.0.3 - RELEASE   -
|  1> ! RI-MP2 RIJK def2-TZVP def2-TZVP/C def2-TZVP/JK TIGHTSCF
|  2> % maxcore 2000
|  3> % mp2 density relaxed end
|  4> *xyz 0 1
|  5>  C        0.1588441176     1.5316372950    -0.0083495414
|  6>  C        0.0139538302     0.0053671242     0.0285031163
|  7>  C        0.7110344090    -0.5867297574     1.2590575095
|  8>  C       -1.4706069903    -0.4296752365    -0.0017314577
|  9>  C       -2.1750102957    -0.0648796264    -1.2652922640
| 10>  N       -3.1313074245     0.8558294768    -1.3605775051
| 11>  N       -3.4101499996     0.8041393813    -2.6572771810
| 12>  N       -2.6969853594    -0.0745105730    -3.3442939144
| 13>  N       -1.9039415748    -0.6373970142    -2.4718597082
| 14>  H        1.2140732450     1.8217116822    -0.0318971262
| 15>  H       -0.3274059674     1.9651172916    -0.8872463622
| 16>  H       -0.2928961979     1.9883207971     0.8804963974
| 17>  H        0.4888109175    -0.4086222972    -0.8701137473
| 18>  H        0.2558863666    -0.2148804914     2.1849849753
| 19>  H        0.6462635303    -1.6797788083     1.2699846571
| 20>  H        1.7706359045    -0.3127309296     1.2782730103
| 21>  H       -1.5236902019    -1.5175428845     0.1183625881
| 22>  H       -2.0095674126     0.0202653684     0.8385877199
| 23>  H       -4.1150126866     1.3821937520    -3.0896979665
| 24> *
| 25>
| 26>                          ****END OF INPUT****

CARTESIAN COORDINATES (ANGSTROEM)
---------------------------------
  C      0.158844    1.531637   -0.008350
  C      0.013954    0.005367    0.028503
  C      0.711034   -0.586730    1.259058
  C     -1.470607   -0.429675   -0.001731
  C     -2.175010   -0.064880   -1.265292
  N     -3.131307    0.855829   -1.360578
  N     -3.410150    0.804139   -2.657277
  N     -2.696985   -0.074511   -3.344294
  N     -1.903942   -0.637397   -2.471860
  H      1.214073    1.821712   -0.031897
  H     -0.327406    1.965117   -0.887246
  H     -0.292896    1.988321    0.880496
  H      0.488811   -0.408622   -0.870114
  H      0.255886   -0.214880    2.184985
  H      0.646264   -1.679779    1.269985
  H      1.770636   -0.312731    1.278273
  H     -1.523690   -1.517543    0.118363
  H     -2.009567    0.020265    0.838588
  H     -4.115013    1.382194   -3.089698

 Total Charge           Charge          ....    0
 Multiplicity           Mult            ....    1
 Number of Electrons    NEL             ....   68
 Basis Dimension        Dim             ....  339

ORBITAL ENERGIES
----------------

  NO   OCC          E(Eh)            E(eV)
   0   2.0000     -15.698058      -427.1659
   1   2.0000     -15.671054      -426.4311
   2   2.0000     -15.621255      -425.0759
   3   2.0000     -15.604432      -424.6182
   4   2.0000     -11.301853      -307.5391
   5   2.0000     -11.239462      -305.8413
   6   2.0000     -11.235449      -305.7321
   7   2.0000     -11.216549      -305.2178
   8   2.0000     -11.213725      -305.1410
   9   2.0000      -1.497943       -40.7611
  10   2.0000      -1.258550       -34.2469
  11   2.0000      -1.187215       -32.3058
  12   2.0000      -1.089608       -29.6497
  13   2.0000      -0.972945       -26.4752
  14   2.0000      -0.932263       -25.3682
  15   2.0000      -0.914416       -24.8825
  16   2.0000      -0.837166       -22.7805
  17   2.0000      -0.788666       -21.4607
  18   2.0000      -0.751731       -20.4557
  19   2.0000      -0.682022       -18.5588
  20   2.0000      -0.647471       -17.6186
  21   2.0000      -0.609405       -16.5828
  22   2.0000      -0.599878       -16.3235
  23   2.0000      -0.586310       -15.9543
  24   2.0000      -0.543556       -14.7909
  25   2.0000      -0.539657       -14.6848
  26   2.0000      -0.525368       -14.2960
  27   2.0000      -0.498120       -13.5545
  28   2.0000      -0.485475       -13.2105
  29   2.0000      -0.476328       -12.9615
  30   2.0000      -0.474229       -12.9044
  31   2.0000      -0.461182       -12.5494
  32   2.0000      -0.442530       -12.0418
  33   2.0000      -0.391523       -10.6539
  34   0.0000       0.121161         3.2970
  35   0.0000       0.128195         3.4884
  36   0.0000       0.136325         3.7096
  37   0.0000       0.174719         4.7543
  38   0.0000       0.179015         4.8712

MULLIKEN ATOMIC CHARGES
-----------------------
   0 C :   -0.413246
   1 C :   -0.049192
   2 C :   -0.389411
   3 C :   -0.228810
   4 C :    0.084709
   5 N :   -0.209627
   6 N :    0.030869
   7 N :   -0.117480
   8 N :   -0.145223
   9 H :    0.132159
  10 H :    0.139149
  11 H :    0.121016
  12 H :    0.110517
  13 H :    0.121155
  14 H :    0.132683
  15 H :    0.134205
  16 H :    0.136732
  17 H :    0.132741
  18 H :    0.277057
Sum of atomic charges:   -0.0000000

LOEWDIN ATOMIC CHARGES
----------------------
   0 C :   -0.292475
   1 C :   -0.300397
   2 C :   -0.294445
   3 C :   -0.211797
   4 C :   -0.369914
   5 N :    0.043712
   6 N :    0.056911
   7 N :   -0.054866
   8 N :    0.022229
   9 H :    0.124359
  10 H :    0.124264
  11 H :    0.124195
  12 H :    0.155859
  13 H :    0.123345
  14 H :    0.123230
  15 H :    0.124611
  16 H :    0.156132
  17 H :    0.153875
  18 H :    0.191172

  Mayer bond orders larger than 0.1
B(  0-C ,  1-C ) :   0.9289 B(  0-C ,  9-H ) :   0.9386 B(  0-C , 10-H ) :   0.9355
B(  0-C , 11-H ) :   0.9290 B(  1-C ,  2-C ) :   0.9141 B(  1-C ,  3-C ) :   0.9105
B(  1-C , 12-H ) :   0.9283 B(  2-C , 13-H ) :   0.9298 B(  2-C , 14-H ) :   0.9403
B(  2-C , 15-H ) :   0.9411 B(  3-C ,  4-C ) :   0.9413 B(  3-C , 16-H ) :   0.9138
B(  3-C , 17-H ) :   0.9290 B(  4-C ,  5-N ) :   1.5083 B(  4-C ,  8-N ) :   1.3777
B(  5-N ,  6-N ) :   1.1161 B(  5-N ,  7-N ) :   0.1151 B(  6-N ,  7-N ) :   1.1217
B(  6-N , 18-H ) :   0.8623 B(  7-N ,  8-N ) :   1.2535

MP2 TOTAL ENERGY:     -414.689921475 Eh
FINAL SINGLE POINT ENERGY      -414.689921474639

DIPOLE MOMENT
-------------
                                X             Y             Z
Electronic contribution:    -11.07512      -0.62999     -11.26047
Nuclear contribution   :     10.68449       1.23457      11.66205
                        -----------------------------------------
Total Dipole Moment    :     -0.39064       0.60458       0.40158
                        -----------------------------------------
Magnitude (a.u.)       :      0.82425
Magnitude (Debye)      :      2.09507

                             ****ORCA TERMINATED NORMALLY****
TOTAL RUN TIME: 0 days 0 hours 17 minutes 51 seconds 91 msec
