                         Program Version 3.0.3 - RELEASE   -
|  1> ! RI-MP2 RIJK def2-TZVP def2-TZVP/C def2-TZVP/JK TIGHTSCF
|  2> % maxcore 2000
|  3> % mp2 density relaxed end
|  4> *xyz 0 1
|  5>  C       -0.0354917413     1.7076571010    -0.1222786589
|  6>  C       -0.0341441852     0.1855655547    -0.0334717018
|  7>  C        1.1924004975    -0.5515881023    -0.6507192354
|  8>  O        1.4642592637    -1.2256830883     0.5933296719
|  9>  C        0.4232590384    -0.5070952463     1.2839231948
| 10>  C        0.9445002647     0.3688199290     2.3346873990
| 11>  N        1.3459638149     1.0737825490     3.1577202863
| 12>  C       -1.3410708998    -0.3830241283    -0.5529840644
| 13>  O       -2.0376331666    -1.1680339508     0.0343099727
| 14>  H        0.9272470138     2.1173808297     0.1924040042
| 15>  H       -0.2233732474     2.0280597085    -1.1527512209
| 16>  H       -0.8116004149     2.1427259326     0.5149329007
| 17>  H        0.9866245329    -1.2582597508    -1.4626522941
| 18>  H        2.0095711638     0.1172793987    -0.9462000426
| 19>  H       -0.3321200668    -1.1806871492     1.7014680446
| 20>  H       -1.6150832676    -0.0132282173    -1.5671817560
| 21> *
| 22>
| 23>                          ****END OF INPUT****

CARTESIAN COORDINATES (ANGSTROEM)
---------------------------------
  C     -0.035492    1.707657   -0.122279
  C     -0.034144    0.185566   -0.033472
  C      1.192400   -0.551588   -0.650719
  O      1.464259   -1.225683    0.593330
  C      0.423259   -0.507095    1.283923
  C      0.944500    0.368820    2.334687
  N      1.345964    1.073783    3.157720
  C     -1.341071   -0.383024   -0.552984
  O     -2.037633   -1.168034    0.034310
  H      0.927247    2.117381    0.192404
  H     -0.223373    2.028060   -1.152751
  H     -0.811600    2.142726    0.514933
  H      0.986625   -1.258260   -1.462652
  H      2.009571    0.117279   -0.946200
  H     -0.332120   -1.180687    1.701468
  H     -1.615083   -0.013228   -1.567182

 Total Charge           Charge          ....    0
 Multiplicity           Mult            ....    1
 Number of Electrons    NEL             ....   66
 Basis Dimension        Dim             ....  321

ORBITAL ENERGIES
----------------

  NO   OCC          E(Eh)            E(eV)
   0   2.0000     -20.593467      -560.3767
   1   2.0000     -20.588238      -560.2344
   2   2.0000     -15.586187      -424.1217
   3   2.0000     -11.361555      -309.1636
   4   2.0000     -11.348504      -308.8085
   5   2.0000     -11.321078      -308.0622
   6   2.0000     -11.294598      -307.3416
   7   2.0000     -11.283221      -307.0321
   8   2.0000     -11.259998      -306.4001
   9   2.0000      -1.433542       -39.0087
  10   2.0000      -1.420866       -38.6637
  11   2.0000      -1.230176       -33.4748
  12   2.0000      -1.119220       -30.4555
  13   2.0000      -1.013570       -27.5806
  14   2.0000      -0.958759       -26.0892
  15   2.0000      -0.898379       -24.4461
  16   2.0000      -0.808323       -21.9956
  17   2.0000      -0.744570       -20.2608
  18   2.0000      -0.708727       -19.2854
  19   2.0000      -0.692305       -18.8386
  20   2.0000      -0.660640       -17.9769
  21   2.0000      -0.639424       -17.3996
  22   2.0000      -0.615944       -16.7607
  23   2.0000      -0.604671       -16.4539
  24   2.0000      -0.587384       -15.9835
  25   2.0000      -0.571777       -15.5588
  26   2.0000      -0.555425       -15.1139
  27   2.0000      -0.523368       -14.2416
  28   2.0000      -0.499212       -13.5843
  29   2.0000      -0.485311       -13.2060
  30   2.0000      -0.472454       -12.8561
  31   2.0000      -0.456241       -12.4149
  32   2.0000      -0.442832       -12.0501
  33   0.0000       0.103125         2.8062
  34   0.0000       0.117107         3.1866
  35   0.0000       0.130272         3.5449
  36   0.0000       0.153263         4.1705
  37   0.0000       0.172143         4.6843

MULLIKEN ATOMIC CHARGES
-----------------------
   0 C :   -0.426021
   1 C :    0.094185
   2 C :   -0.061093
   3 O :   -0.308548
   4 C :    0.193916
   5 C :   -0.224735
   6 N :   -0.045817
   7 C :    0.063299
   8 O :   -0.252630
   9 H :    0.165912
  10 H :    0.147146
  11 H :    0.158235
  12 H :    0.117106
  13 H :    0.113466
  14 H :    0.165534
  15 H :    0.100045
Sum of atomic charges:    0.0000000

LOEWDIN ATOMIC CHARGES
----------------------
   0 C :   -0.256717
   1 C :   -0.257231
   2 C :   -0.208297
   3 O :    0.166815
   4 C :   -0.227615
   5 C :   -0.159225
   6 N :    0.079612
   7 C :   -0.249477
   8 O :    0.155059
   9 H :    0.139769
  10 H :    0.134381
  11 H :    0.138308
  12 H :    0.125942
  13 H :    0.127610
  14 H :    0.167844
  15 H :    0.123222

  Mayer bond orders larger than 0.1
B(  0-C ,  1-C ) :   0.9395 B(  0-C ,  9-H ) :   0.9233 B(  0-C , 10-H ) :   0.9244
B(  0-C , 11-H ) :   0.9246 B(  1-C ,  2-C ) :   0.9368 B(  1-C ,  4-C ) :   0.8933
B(  1-C ,  7-C ) :   0.8276 B(  2-C ,  3-O ) :   0.9593 B(  2-C , 12-H ) :   0.9049
B(  2-C , 13-H ) :   0.9002 B(  3-O ,  4-C ) :   0.9447 B(  4-C ,  5-C ) :   0.9039
B(  4-C , 14-H ) :   0.8832 B(  5-C ,  6-N ) :   2.8359 B(  7-C ,  8-O ) :   1.9925
B(  7-C , 15-H ) :   0.9409

MP2 TOTAL ENERGY:     -437.155811541 Eh
FINAL SINGLE POINT ENERGY      -437.155811540573

DIPOLE MOMENT
-------------
                                X             Y             Z
Electronic contribution:      0.10323      -3.75274       4.97794
Nuclear contribution   :     -0.40727       4.17635      -6.67589
                        -----------------------------------------
Total Dipole Moment    :     -0.30404       0.42361      -1.69795
                        -----------------------------------------
Magnitude (a.u.)       :      1.77621
Magnitude (Debye)      :      4.51477

                             ****ORCA TERMINATED NORMALLY****
TOTAL RUN TIME: 0 days 0 hours 15 minutes 55 seconds 443 msec
