                         Program Version 3.0.3 - RELEASE   -
|  1> ! RI-MP2 RIJK def2-TZVP def2-TZVP/C def2-TZVP/JK TIGHTSCF
|  2> % maxcore 2000
|  3> % mp2 density relaxed end
|  4> *xyz 0 1
|  5>  O       -0.2150625587    -0.0402678186     0.1463404969
|  6>  C       -0.1162104879     1.1330656008     0.0187498778
|  7>  C       -0.9420376074     2.4503209668    -0.0682464872
|  8>  O       -0.0328319979     2.9088780813     1.0164535820
|  9>  C        0.9116864493     2.3041534237     0.0421150074
| 10>  C        0.0959865017     2.9849931057    -1.0905266765
| 11>  C        0.1392266002     2.4596607862    -2.5268182588
| 12>  C       -0.9489838855     2.9944354299    -3.3372903189
| 13>  C       -1.8568116499     3.4503388104    -3.9788218831
| 14>  H       -2.0031093760     2.6642955303     0.0328062606
| 15>  H        1.9740943540     2.3488285258     0.2719876047
| 16>  H        0.1715510066     4.0723668434    -1.0258021844
| 17>  H        1.1034648822     2.7287272273    -2.9766384545
| 18>  H        0.0968847367     1.3624496761    -2.5299040797
| 19>  H       -2.6543481775     3.8449834409    -4.5583762764
| 20> *
| 21>
| 22>                          ****END OF INPUT****

CARTESIAN COORDINATES (ANGSTROEM)
---------------------------------
  O     -0.215063   -0.040268    0.146340
  C     -0.116210    1.133066    0.018750
  C     -0.942038    2.450321   -0.068246
  O     -0.032832    2.908878    1.016454
  C      0.911686    2.304153    0.042115
  C      0.095987    2.984993   -1.090527
  C      0.139227    2.459661   -2.526818
  C     -0.948984    2.994435   -3.337290
  C     -1.856812    3.450339   -3.978822
  H     -2.003109    2.664296    0.032806
  H      1.974094    2.348829    0.271988
  H      0.171551    4.072367   -1.025802
  H      1.103465    2.728727   -2.976638
  H      0.096885    1.362450   -2.529904
  H     -2.654348    3.844983   -4.558376

 Total Charge           Charge          ....    0
 Multiplicity           Mult            ....    1
 Number of Electrons    NEL             ....   64
 Basis Dimension        Dim             ....  315

ORBITAL ENERGIES
----------------

  NO   OCC          E(Eh)            E(eV)
   0   2.0000     -20.590238      -560.2889
   1   2.0000     -20.577412      -559.9399
   2   2.0000     -11.363776      -309.2241
   3   2.0000     -11.327853      -308.2466
   4   2.0000     -11.326206      -308.2017
   5   2.0000     -11.280556      -306.9595
   6   2.0000     -11.279475      -306.9301
   7   2.0000     -11.249768      -306.1217
   8   2.0000     -11.237308      -305.7827
   9   2.0000      -1.443758       -39.2866
  10   2.0000      -1.409336       -38.3500
  11   2.0000      -1.127452       -30.6795
  12   2.0000      -1.056941       -28.7608
  13   2.0000      -0.982340       -26.7308
  14   2.0000      -0.926795       -25.2194
  15   2.0000      -0.881938       -23.9988
  16   2.0000      -0.744119       -20.2485
  17   2.0000      -0.735427       -20.0120
  18   2.0000      -0.712724       -19.3942
  19   2.0000      -0.665003       -18.0957
  20   2.0000      -0.659170       -17.9369
  21   2.0000      -0.647128       -17.6093
  22   2.0000      -0.639348       -17.3976
  23   2.0000      -0.580295       -15.7906
  24   2.0000      -0.571141       -15.5415
  25   2.0000      -0.539724       -14.6866
  26   2.0000      -0.513133       -13.9630
  27   2.0000      -0.495928       -13.4949
  28   2.0000      -0.459106       -12.4929
  29   2.0000      -0.417805       -11.3690
  30   2.0000      -0.402591       -10.9551
  31   2.0000      -0.401263       -10.9189
  32   0.0000       0.117776         3.2048
  33   0.0000       0.150795         4.1033
  34   0.0000       0.158415         4.3107
  35   0.0000       0.162124         4.4116
  36   0.0000       0.164879         4.4866

MULLIKEN ATOMIC CHARGES
-----------------------
   0 O :   -0.220221
   1 C :    0.180266
   2 C :   -0.046158
   3 O :   -0.272241
   4 C :   -0.034788
   5 C :   -0.050345
   6 C :   -0.337219
   7 C :   -0.047994
   8 C :   -0.144581
   9 H :    0.163733
  10 H :    0.160431
  11 H :    0.136179
  12 H :    0.150959
  13 H :    0.166926
  14 H :    0.195051
Sum of atomic charges:    0.0000000

LOEWDIN ATOMIC CHARGES
----------------------
   0 O :    0.186632
   1 C :   -0.284410
   2 C :   -0.168266
   3 O :    0.166567
   4 C :   -0.175809
   5 C :   -0.182649
   6 C :   -0.223762
   7 C :   -0.108237
   8 C :   -0.095837
   9 H :    0.133015
  10 H :    0.130591
  11 H :    0.163023
  12 H :    0.163941
  13 H :    0.166835
  14 H :    0.128367

  Mayer bond orders larger than 0.1
B(  0-O ,  1-C ) :   2.0661 B(  1-C ,  2-C ) :   0.8567 B(  1-C ,  4-C ) :   0.8636
B(  2-C ,  3-O ) :   0.8914 B(  2-C ,  5-C ) :   0.9209 B(  2-C ,  9-H ) :   0.8782
B(  3-O ,  4-C ) :   0.8899 B(  4-C ,  5-C ) :   0.9009 B(  4-C , 10-H ) :   0.8804
B(  5-C ,  6-C ) :   0.8974 B(  5-C , 11-H ) :   0.8963 B(  6-C ,  7-C ) :   1.0662
B(  6-C , 12-H ) :   0.9131 B(  6-C , 13-H ) :   0.9211 B(  7-C ,  8-C ) :   2.6245
B(  8-C , 14-H ) :   0.8993

MP2 TOTAL ENERGY:     -419.807985467 Eh
FINAL SINGLE POINT ENERGY      -419.807985466783

DIPOLE MOMENT
-------------
                                X             Y             Z
Electronic contribution:     -0.30132      -2.52170       3.63324
Nuclear contribution   :      0.52316       3.19662      -4.37117
                        -----------------------------------------
Total Dipole Moment    :      0.22184       0.67492      -0.73793
                        -----------------------------------------
Magnitude (a.u.)       :      1.02434
Magnitude (Debye)      :      2.60366

                             ****ORCA TERMINATED NORMALLY****
TOTAL RUN TIME: 0 days 0 hours 14 minutes 45 seconds 927 msec
