                         Program Version 3.0.3 - RELEASE   -
|  1> ! RI-MP2 RIJK def2-TZVP def2-TZVP/C def2-TZVP/JK TIGHTSCF
|  2> % maxcore 2000
|  3> % mp2 density relaxed end
|  4> *xyz 0 1
|  5>  C        0.0655343754     1.5434680915     0.0295563603
|  6>  C        0.0114458101     0.0149507992    -0.0460307655
|  7>  C       -1.4060077821    -0.5490224972     0.0440384015
|  8>  C       -1.5095103040    -2.0816760713    -0.1144484212
|  9>  C       -2.7811992726    -2.4594625292     0.6785292477
| 10>  O       -2.7263113216    -3.7264380844     1.3173353432
| 11>  C       -2.8939621831    -1.3563147307     1.7183381626
| 12>  C       -1.6602204022    -1.0191972580     2.4703021977
| 13>  N       -2.0776879990    -0.1964431467     1.3239982164
| 14>  H        1.0974587002     1.9045826511    -0.0195628773
| 15>  H       -0.4871624167     1.9983046748    -0.8000652357
| 16>  H       -0.3820744099     1.9023441123     0.9599004294
| 17>  H        0.4587918844    -0.3289348118    -0.9873178957
| 18>  H        0.6187645884    -0.4211405971     0.7579530801
| 19>  H       -2.0169781875    -0.0718804488    -0.7345299108
| 20>  H       -1.5568654386    -2.3859862646    -1.1637050938
| 21>  H       -0.6512024861    -2.5922224312     0.3351451522
| 22>  H       -3.6630819610    -2.4073888890     0.0210343282
| 23>  H       -2.7609245683    -4.4050173025     0.6359655108
| 24>  H       -3.8713142320    -1.1525499936     2.1454247952
| 25>  H       -1.7382810705    -0.5196044493     3.4309953240
| 26>  H       -0.8039023933    -1.6805723433     2.3772717008
| 27> *
| 28>
| 29>                          ****END OF INPUT****

CARTESIAN COORDINATES (ANGSTROEM)
---------------------------------
  C      0.065534    1.543468    0.029556
  C      0.011446    0.014951   -0.046031
  C     -1.406008   -0.549022    0.044038
  C     -1.509510   -2.081676   -0.114448
  C     -2.781199   -2.459463    0.678529
  O     -2.726311   -3.726438    1.317335
  C     -2.893962   -1.356315    1.718338
  C     -1.660220   -1.019197    2.470302
  N     -2.077688   -0.196443    1.323998
  H      1.097459    1.904583   -0.019563
  H     -0.487162    1.998305   -0.800065
  H     -0.382074    1.902344    0.959900
  H      0.458792   -0.328935   -0.987318
  H      0.618765   -0.421141    0.757953
  H     -2.016978   -0.071880   -0.734530
  H     -1.556865   -2.385986   -1.163705
  H     -0.651202   -2.592222    0.335145
  H     -3.663082   -2.407389    0.021034
  H     -2.760925   -4.405017    0.635966
  H     -3.871314   -1.152550    2.145425
  H     -1.738281   -0.519604    3.430995
  H     -0.803902   -1.680572    2.377272

 Total Charge           Charge          ....    0
 Multiplicity           Mult            ....    1
 Number of Electrons    NEL             ....   70
 Basis Dimension        Dim             ....  357

ORBITAL ENERGIES
----------------

  NO   OCC          E(Eh)            E(eV)
   0   2.0000     -20.559597      -559.4551
   1   2.0000     -15.553109      -423.2216
   2   2.0000     -11.286006      -307.1078
   3   2.0000     -11.254437      -306.2488
   4   2.0000     -11.250192      -306.1333
   5   2.0000     -11.246861      -306.0427
   6   2.0000     -11.222608      -305.3827
   7   2.0000     -11.219401      -305.2954
   8   2.0000     -11.206238      -304.9372
   9   2.0000      -1.366302       -37.1790
  10   2.0000      -1.276433       -34.7335
  11   2.0000      -1.070404       -29.1272
  12   2.0000      -1.020413       -27.7668
  13   2.0000      -0.957008       -26.0415
  14   2.0000      -0.874879       -23.8067
  15   2.0000      -0.846206       -23.0264
  16   2.0000      -0.775925       -21.1140
  17   2.0000      -0.755458       -20.5571
  18   2.0000      -0.710721       -19.3397
  19   2.0000      -0.680059       -18.5054
  20   2.0000      -0.636499       -17.3200
  21   2.0000      -0.602942       -16.4069
  22   2.0000      -0.597467       -16.2579
  23   2.0000      -0.577846       -15.7240
  24   2.0000      -0.568442       -15.4681
  25   2.0000      -0.558327       -15.1929
  26   2.0000      -0.510855       -13.9011
  27   2.0000      -0.504228       -13.7208
  28   2.0000      -0.497845       -13.5471
  29   2.0000      -0.481476       -13.1016
  30   2.0000      -0.475765       -12.9462
  31   2.0000      -0.448452       -12.2030
  32   2.0000      -0.441707       -12.0195
  33   2.0000      -0.423696       -11.5294
  34   2.0000      -0.368841       -10.0367
  35   0.0000       0.129283         3.5180
  36   0.0000       0.144355         3.9281
  37   0.0000       0.154101         4.1933
  38   0.0000       0.171646         4.6707
  39   0.0000       0.178993         4.8706

MULLIKEN ATOMIC CHARGES
-----------------------
   0 C :   -0.394988
   1 C :   -0.200598
   2 C :   -0.026352
   3 C :   -0.243774
   4 C :    0.012767
   5 O :   -0.445532
   6 C :    0.015325
   7 C :   -0.206063
   8 N :   -0.236214
   9 H :    0.129484
  10 H :    0.117376
  11 H :    0.146022
  12 H :    0.110920
  13 H :    0.102218
  14 H :    0.091826
  15 H :    0.126977
  16 H :    0.122348
  17 H :    0.084601
  18 H :    0.314345
  19 H :    0.124269
  20 H :    0.128269
  21 H :    0.126774
Sum of atomic charges:   -0.0000000

LOEWDIN ATOMIC CHARGES
----------------------
   0 C :   -0.316318
   1 C :   -0.274599
   2 C :   -0.275655
   3 C :   -0.230412
   4 C :   -0.327061
   5 O :   -0.018684
   6 C :   -0.226066
   7 C :   -0.237747
   8 N :    0.129398
   9 H :    0.119127
  10 H :    0.120567
  11 H :    0.126232
  12 H :    0.139393
  13 H :    0.137208
  14 H :    0.150242
  15 H :    0.135055
  16 H :    0.141910
  17 H :    0.136321
  18 H :    0.174270
  19 H :    0.139615
  20 H :    0.127575
  21 H :    0.129630

  Mayer bond orders larger than 0.1
B(  0-C ,  1-C ) :   0.9287 B(  0-C ,  9-H ) :   0.9399 B(  0-C , 10-H ) :   0.9376
B(  0-C , 11-H ) :   0.9371 B(  1-C ,  2-C ) :   0.9229 B(  1-C , 12-H ) :   0.9370
B(  1-C , 13-H ) :   0.9181 B(  2-C ,  3-C ) :   0.9035 B(  2-C ,  8-N ) :   0.9182
B(  2-C , 14-H ) :   0.9246 B(  3-C ,  4-C ) :   0.9009 B(  3-C , 15-H ) :   0.9175
B(  3-C , 16-H ) :   0.9246 B(  4-C ,  5-O ) :   1.1058 B(  4-C ,  6-C ) :   0.9144
B(  4-C , 17-H ) :   0.9516 B(  5-O , 18-H ) :   0.8467 B(  6-C ,  7-C ) :   0.9267
B(  6-C ,  8-N ) :   0.9016 B(  6-C , 19-H ) :   0.9191 B(  7-C ,  8-N ) :   0.8783
B(  7-C , 20-H ) :   0.9250 B(  7-C , 21-H ) :   0.9084

MP2 TOTAL ENERGY:     -403.648577973 Eh
FINAL SINGLE POINT ENERGY      -403.648577973059

DIPOLE MOMENT
-------------
                                X             Y             Z
Electronic contribution:     -5.27150      -4.67527       2.73097
Nuclear contribution   :      5.41362       4.20153      -3.43929
                        -----------------------------------------
Total Dipole Moment    :      0.14212      -0.47374      -0.70832
                        -----------------------------------------
Magnitude (a.u.)       :      0.86391
Magnitude (Debye)      :      2.19589

                             ****ORCA TERMINATED NORMALLY****
TOTAL RUN TIME: 0 days 0 hours 30 minutes 38 seconds 344 msec
