                         Program Version 3.0.3 - RELEASE   -
|  1> ! RI-MP2 RIJK def2-TZVP def2-TZVP/C def2-TZVP/JK TIGHTSCF
|  2> % maxcore 2000
|  3> % mp2 density relaxed end
|  4> *xyz 0 1
|  5>  C       -0.0753943556    -1.2169800652     0.0047080997
|  6>  C       -0.0662177338    -0.0160170758     0.0382230259
|  7>  C       -0.0181258811     1.4361156909     0.0335816238
|  8>  N       -0.5657467607     1.9308669882     1.3728990890
|  9>  C        0.2911506281     2.8178015322     1.6569952039
| 10>  O        1.2859628585     2.6056292647     2.6225891514
| 11>  C        2.1314328627     2.5549453285     1.3862859050
| 12>  C        1.4238349756     2.0328401159     0.0312927916
| 13>  C        1.2627045028     3.4075911329     0.5839760874
| 14>  H       -0.0926790826    -2.2786458421    -0.0155628502
| 15>  H       -0.5732177912     1.8203327852    -0.8356352992
| 16>  H        3.1992630521     2.5255338225     1.5644534273
| 17>  H        2.1047122846     1.8065820197    -0.7855167649
| 18>  H        1.3427937605     4.4026695022     0.1696495792
| 19> *
| 20>
| 21>                          ****END OF INPUT****

CARTESIAN COORDINATES (ANGSTROEM)
---------------------------------
  C     -0.075394   -1.216980    0.004708
  C     -0.066218   -0.016017    0.038223
  C     -0.018126    1.436116    0.033582
  N     -0.565747    1.930867    1.372899
  C      0.291151    2.817802    1.656995
  O      1.285963    2.605629    2.622589
  C      2.131433    2.554945    1.386286
  C      1.423835    2.032840    0.031293
  C      1.262705    3.407591    0.583976
  H     -0.092679   -2.278646   -0.015563
  H     -0.573218    1.820333   -0.835635
  H      3.199263    2.525534    1.564453
  H      2.104712    1.806582   -0.785517
  H      1.342794    4.402670    0.169650

 Total Charge           Charge          ....    0
 Multiplicity           Mult            ....    1
 Number of Electrons    NEL             ....   62
 Basis Dimension        Dim             ....  309

ORBITAL ENERGIES
----------------

  NO   OCC          E(Eh)            E(eV)
   0   2.0000     -20.604247      -560.6701
   1   2.0000     -15.545418      -423.0123
   2   2.0000     -11.375374      -309.5397
   3   2.0000     -11.339049      -308.5512
   4   2.0000     -11.318553      -307.9935
   5   2.0000     -11.288984      -307.1889
   6   2.0000     -11.270860      -306.6957
   7   2.0000     -11.236868      -305.7707
   8   2.0000     -11.228671      -305.5477
   9   2.0000      -1.446905       -39.3723
  10   2.0000      -1.251839       -34.0643
  11   2.0000      -1.156540       -31.4710
  12   2.0000      -1.056446       -28.7473
  13   2.0000      -0.965485       -26.2722
  14   2.0000      -0.866639       -23.5824
  15   2.0000      -0.839663       -22.8484
  16   2.0000      -0.768273       -20.9058
  17   2.0000      -0.734833       -19.9958
  18   2.0000      -0.693595       -18.8737
  19   2.0000      -0.683769       -18.6063
  20   2.0000      -0.645467       -17.5641
  21   2.0000      -0.629092       -17.1185
  22   2.0000      -0.601060       -16.3557
  23   2.0000      -0.582243       -15.8436
  24   2.0000      -0.529726       -14.4146
  25   2.0000      -0.466086       -12.6829
  26   2.0000      -0.455889       -12.4054
  27   2.0000      -0.427496       -11.6328
  28   2.0000      -0.395364       -10.7584
  29   2.0000      -0.393981       -10.7208
  30   2.0000      -0.355608        -9.6766
  31   0.0000       0.074926         2.0388
  32   0.0000       0.139824         3.8048
  33   0.0000       0.155153         4.2219
  34   0.0000       0.163591         4.4515
  35   0.0000       0.167904         4.5689

MULLIKEN ATOMIC CHARGES
-----------------------
   0 C :   -0.110252
   1 C :   -0.044599
   2 C :   -0.014774
   3 N :   -0.232351
   4 C :    0.159336
   5 O :   -0.243707
   6 C :    0.014136
   7 C :   -0.202073
   8 C :   -0.125720
   9 H :    0.196061
  10 H :    0.130221
  11 H :    0.163654
  12 H :    0.137787
  13 H :    0.172282
Sum of atomic charges:    0.0000000

LOEWDIN ATOMIC CHARGES
----------------------
   0 C :   -0.072422
   1 C :   -0.079349
   2 C :   -0.202239
   3 N :    0.137406
   4 C :   -0.298352
   5 O :    0.204702
   6 C :   -0.150261
   7 C :   -0.123718
   8 C :   -0.144021
   9 H :    0.129165
  10 H :    0.163605
  11 H :    0.142141
  12 H :    0.150994
  13 H :    0.142350

  Mayer bond orders larger than 0.1
B(  0-C ,  1-C ) :   2.5543 B(  0-C ,  2-C ) :  -0.1144 B(  0-C ,  9-H ) :   0.8887
B(  1-C ,  2-C ) :   1.2134 B(  2-C ,  3-N ) :   0.8357 B(  2-C ,  7-C ) :   0.8972
B(  2-C , 10-H ) :   0.8840 B(  3-N ,  4-C ) :   1.8751 B(  4-C ,  5-O ) :   1.0345
B(  4-C ,  8-C ) :   0.9136 B(  5-O ,  6-C ) :   0.8558 B(  6-C ,  7-C ) :   0.8671
B(  6-C ,  8-C ) :   0.8824 B(  6-C , 11-H ) :   0.9035 B(  7-C ,  8-C ) :   0.8513
B(  7-C , 12-H ) :   0.9156 B(  8-C , 13-H ) :   0.8876

MP2 TOTAL ENERGY:     -398.655779541 Eh
FINAL SINGLE POINT ENERGY      -398.655779541341

DIPOLE MOMENT
-------------
                                X             Y             Z
Electronic contribution:     -1.60344       0.89101       2.89576
Nuclear contribution   :      2.53724      -0.46728      -4.06036
                        -----------------------------------------
Total Dipole Moment    :      0.93380       0.42373      -1.16460
                        -----------------------------------------
Magnitude (a.u.)       :      1.55171
Magnitude (Debye)      :      3.94414

                             ****ORCA TERMINATED NORMALLY****
TOTAL RUN TIME: 0 days 0 hours 16 minutes 22 seconds 191 msec
