                         Program Version 3.0.3 - RELEASE   -
|  1> ! RI-MP2 RIJK def2-TZVP def2-TZVP/C def2-TZVP/JK TIGHTSCF
|  2> % maxcore 2000
|  3> % mp2 density relaxed end
|  4> *xyz 0 1
|  5>  C       -0.0711330916     1.5737827374     0.2240388289
|  6>  C        0.0848153447     0.0957929917     0.0512973662
|  7>  N       -0.8397644017    -0.9036095388     0.6327823384
|  8>  C        0.6120762476    -0.9615586686     0.9466868349
|  9>  C        1.3387591396    -1.6375775468    -0.2658730112
| 10>  O        0.3621868508    -1.9689552935    -1.2667941867
| 11>  C        0.8182886432    -0.6116755615    -1.1655507993
| 12>  C        1.3707144622    -0.0011179323    -2.4202452500
| 13>  O        2.1661687567    -0.9265566918    -3.1271847875
| 14>  H        0.8540550928     2.1042806318    -0.0267514039
| 15>  H       -0.8675232405     1.9700753721    -0.4166639859
| 16>  H       -0.3221377953     1.8186351769     1.2617730691
| 17>  H       -1.2852368790    -0.4496329749     1.4321736295
| 18>  H        0.9857061271    -0.8966922377     1.9602821997
| 19>  H        2.2721280624    -2.1863399831    -0.2615489615
| 20>  H        0.5351059023     0.3741906212    -3.0363690275
| 21>  H        2.0043625757     0.8592829324    -2.1760504591
| 22>  H        1.6800926230    -1.7612115944    -3.1016214540
| 23> *
| 24>
| 25>                          ****END OF INPUT****

CARTESIAN COORDINATES (ANGSTROEM)
---------------------------------
  C     -0.071133    1.573783    0.224039
  C      0.084815    0.095793    0.051297
  N     -0.839764   -0.903610    0.632782
  C      0.612076   -0.961559    0.946687
  C      1.338759   -1.637578   -0.265873
  O      0.362187   -1.968955   -1.266794
  C      0.818289   -0.611676   -1.165551
  C      1.370714   -0.001118   -2.420245
  O      2.166169   -0.926557   -3.127185
  H      0.854055    2.104281   -0.026751
  H     -0.867523    1.970075   -0.416664
  H     -0.322138    1.818635    1.261773
  H     -1.285237   -0.449633    1.432174
  H      0.985706   -0.896692    1.960282
  H      2.272128   -2.186340   -0.261549
  H      0.535106    0.374191   -3.036369
  H      2.004363    0.859283   -2.176050
  H      1.680093   -1.761212   -3.101621

 Total Charge           Charge          ....    0
 Multiplicity           Mult            ....    1
 Number of Electrons    NEL             ....   68
 Basis Dimension        Dim             ....  333

ORBITAL ENERGIES
----------------

  NO   OCC          E(Eh)            E(eV)
   0   2.0000     -20.572557      -559.8077
   1   2.0000     -20.557425      -559.3960
   2   2.0000     -15.569045      -423.6552
   3   2.0000     -11.296632      -307.3970
   4   2.0000     -11.292999      -307.2981
   5   2.0000     -11.289358      -307.1990
   6   2.0000     -11.282461      -307.0114
   7   2.0000     -11.272659      -306.7447
   8   2.0000     -11.243791      -305.9591
   9   2.0000      -1.430112       -38.9153
  10   2.0000      -1.362574       -37.0775
  11   2.0000      -1.270609       -34.5750
  12   2.0000      -1.029518       -28.0146
  13   2.0000      -0.994531       -27.0626
  14   2.0000      -0.964443       -26.2438
  15   2.0000      -0.849946       -23.1282
  16   2.0000      -0.819995       -22.3132
  17   2.0000      -0.751945       -20.4615
  18   2.0000      -0.711397       -19.3581
  19   2.0000      -0.682150       -18.5622
  20   2.0000      -0.653883       -17.7931
  21   2.0000      -0.636143       -17.3103
  22   2.0000      -0.615024       -16.7357
  23   2.0000      -0.592141       -16.1130
  24   2.0000      -0.579949       -15.7812
  25   2.0000      -0.571654       -15.5555
  26   2.0000      -0.544649       -14.8207
  27   2.0000      -0.517919       -14.0933
  28   2.0000      -0.492679       -13.4065
  29   2.0000      -0.476762       -12.9734
  30   2.0000      -0.466821       -12.7028
  31   2.0000      -0.446345       -12.1457
  32   2.0000      -0.407147       -11.0790
  33   2.0000      -0.351137        -9.5549
  34   0.0000       0.124512         3.3881
  35   0.0000       0.151094         4.1115
  36   0.0000       0.160333         4.3629
  37   0.0000       0.175616         4.7788
  38   0.0000       0.184785         5.0283

MULLIKEN ATOMIC CHARGES
-----------------------
   0 C :   -0.390070
   1 C :    0.097446
   2 N :   -0.342601
   3 C :   -0.125986
   4 C :    0.023652
   5 O :   -0.322626
   6 C :    0.043056
   7 C :    0.000405
   8 O :   -0.471934
   9 H :    0.139803
  10 H :    0.152130
  11 H :    0.132183
  12 H :    0.214639
  13 H :    0.148568
  14 H :    0.149798
  15 H :    0.109085
  16 H :    0.111853
  17 H :    0.330601
Sum of atomic charges:   -0.0000000

LOEWDIN ATOMIC CHARGES
----------------------
   0 C :   -0.277487
   1 C :   -0.246409
   2 N :    0.033856
   3 C :   -0.198843
   4 C :   -0.198397
   5 O :    0.200370
   6 C :   -0.249777
   7 C :   -0.316035
   8 O :   -0.032436
   9 H :    0.133457
  10 H :    0.133535
  11 H :    0.132195
  12 H :    0.173726
  13 H :    0.132034
  14 H :    0.134300
  15 H :    0.128192
  16 H :    0.136292
  17 H :    0.181425

  Mayer bond orders larger than 0.1
B(  0-C ,  1-C ) :   0.8686 B(  0-C ,  9-H ) :   0.9299 B(  0-C , 10-H ) :   0.9520
B(  0-C , 11-H ) :   0.9310 B(  1-C ,  2-N ) :   0.9279 B(  1-C ,  3-C ) :   0.9492
B(  1-C ,  6-C ) :   0.8614 B(  2-N ,  3-C ) :   1.0223 B(  2-N , 12-H ) :   0.8608
B(  3-C ,  4-C ) :   0.8574 B(  3-C , 13-H ) :   0.9130 B(  4-C ,  5-O ) :   0.9015
B(  4-C ,  6-C ) :   0.9996 B(  4-C , 14-H ) :   0.9017 B(  5-O ,  6-C ) :   0.9168
B(  6-C ,  7-C ) :   0.9152 B(  7-C ,  8-O ) :   0.9541 B(  7-C , 15-H ) :   0.9261
B(  7-C , 16-H ) :   0.9333 B(  8-O , 17-H ) :   0.8217

MP2 TOTAL ENERGY:     -438.262005198 Eh
FINAL SINGLE POINT ENERGY      -438.262005198056

DIPOLE MOMENT
-------------
                                X             Y             Z
Electronic contribution:      0.24423      -5.77985      -1.36350
Nuclear contribution   :     -0.10639       6.71697       2.34015
                        -----------------------------------------
Total Dipole Moment    :      0.13784       0.93713       0.97665
                        -----------------------------------------
Magnitude (a.u.)       :      1.36053
Magnitude (Debye)      :      3.45819

                             ****ORCA TERMINATED NORMALLY****
TOTAL RUN TIME: 0 days 0 hours 16 minutes 39 seconds 578 msec
