                         Program Version 3.0.3 - RELEASE   -
|  1> ! RI-MP2 RIJK def2-TZVP def2-TZVP/C def2-TZVP/JK TIGHTSCF
|  2> % maxcore 2000
|  3> % mp2 density relaxed end
|  4> *xyz 0 1
|  5>  C       -0.4292659468     1.5435778799     0.3297548083
|  6>  C       -0.1303988593     0.0553501156     0.2172770962
|  7>  C        0.3141023524    -0.4899849107    -1.1455787241
|  8>  N        1.6339431738     0.1364872495    -1.4305521110
|  9>  C        1.5579462953    -1.0788935385    -0.5830776393
| 10>  C        2.3039970261    -2.3379218722    -0.8945319993
| 11>  C        1.2033520993    -0.5651656378     0.8290537232
| 12>  C        2.1951518289     0.3604333277     1.5140758527
| 13>  O        0.9243758024    -1.7084898680     1.6271894299
| 14>  H        0.3596389534     2.1348100126    -0.1417222824
| 15>  H       -1.3757585439     1.7858944192    -0.1667722739
| 16>  H       -0.5191443444     1.8588293047     1.3753739917
| 17>  H       -0.9572942026    -0.5455347970     0.6080752511
| 18>  H       -0.3114729858    -0.8430013709    -1.9578591322
| 19>  H        1.9187532396    -0.1699797970    -2.3605882909
| 20>  H        2.1734962980    -2.6201508441    -1.9452772632
| 21>  H        3.3785368096    -2.2228223665    -0.7088613070
| 22>  H        1.9402269500    -3.1567709969    -0.2685546992
| 23>  H        2.4926244986     1.1702150922     0.8453121907
| 24>  H        1.7582667649     0.8045810732     2.4175578734
| 25>  H        3.0870885280    -0.2005088793     1.8112145384
| 26>  H        0.6166753023    -1.4004863356     2.4862638468
| 27> *
| 28>
| 29>                          ****END OF INPUT****

CARTESIAN COORDINATES (ANGSTROEM)
---------------------------------
  C     -0.429266    1.543578    0.329755
  C     -0.130399    0.055350    0.217277
  C      0.314102   -0.489985   -1.145579
  N      1.633943    0.136487   -1.430552
  C      1.557946   -1.078894   -0.583078
  C      2.303997   -2.337922   -0.894532
  C      1.203352   -0.565166    0.829054
  C      2.195152    0.360433    1.514076
  O      0.924376   -1.708490    1.627189
  H      0.359639    2.134810   -0.141722
  H     -1.375759    1.785894   -0.166772
  H     -0.519144    1.858829    1.375374
  H     -0.957294   -0.545535    0.608075
  H     -0.311473   -0.843001   -1.957859
  H      1.918753   -0.169980   -2.360588
  H      2.173496   -2.620151   -1.945277
  H      3.378537   -2.222822   -0.708861
  H      1.940227   -3.156771   -0.268555
  H      2.492624    1.170215    0.845312
  H      1.758267    0.804581    2.417558
  H      3.087089   -0.200509    1.811215
  H      0.616675   -1.400486    2.486264

 Total Charge           Charge          ....    0
 Multiplicity           Mult            ....    1
 Number of Electrons    NEL             ....   70
 Basis Dimension        Dim             ....  357

ORBITAL ENERGIES
----------------

  NO   OCC          E(Eh)            E(eV)
   0   2.0000     -20.554004      -559.3029
   1   2.0000     -15.552627      -423.2085
   2   2.0000     -11.283840      -307.0489
   3   2.0000     -11.256695      -306.3102
   4   2.0000     -11.251497      -306.1688
   5   2.0000     -11.225953      -305.4737
   6   2.0000     -11.219428      -305.2962
   7   2.0000     -11.208477      -304.9982
   8   2.0000     -11.207118      -304.9612
   9   2.0000      -1.365254       -37.1504
  10   2.0000      -1.271886       -34.6098
  11   2.0000      -1.056459       -28.7477
  12   2.0000      -0.998667       -27.1751
  13   2.0000      -0.972771       -26.4704
  14   2.0000      -0.930092       -25.3091
  15   2.0000      -0.829719       -22.5778
  16   2.0000      -0.789709       -21.4891
  17   2.0000      -0.729085       -19.8394
  18   2.0000      -0.676533       -18.4094
  19   2.0000      -0.654043       -17.7974
  20   2.0000      -0.622635       -16.9428
  21   2.0000      -0.604122       -16.4390
  22   2.0000      -0.569976       -15.5098
  23   2.0000      -0.567486       -15.4421
  24   2.0000      -0.563559       -15.3352
  25   2.0000      -0.557498       -15.1703
  26   2.0000      -0.536858       -14.6087
  27   2.0000      -0.527110       -14.3434
  28   2.0000      -0.498843       -13.5742
  29   2.0000      -0.491500       -13.3744
  30   2.0000      -0.486637       -13.2421
  31   2.0000      -0.454898       -12.3784
  32   2.0000      -0.430682       -11.7195
  33   2.0000      -0.399394       -10.8681
  34   2.0000      -0.352556        -9.5935
  35   0.0000       0.129152         3.5144
  36   0.0000       0.146388         3.9834
  37   0.0000       0.164699         4.4817
  38   0.0000       0.175857         4.7853
  39   0.0000       0.186006         5.0615

MULLIKEN ATOMIC CHARGES
-----------------------
   0 C :   -0.438552
   1 C :   -0.028543
   2 C :   -0.133967
   3 N :   -0.417039
   4 C :    0.099676
   5 C :   -0.409300
   6 C :    0.255652
   7 C :   -0.458667
   8 O :   -0.468876
   9 H :    0.152648
  10 H :    0.130176
  11 H :    0.121458
  12 H :    0.096181
  13 H :    0.136597
  14 H :    0.211331
  15 H :    0.123189
  16 H :    0.136627
  17 H :    0.161187
  18 H :    0.157465
  19 H :    0.119448
  20 H :    0.139340
  21 H :    0.313967
Sum of atomic charges:    0.0000000

LOEWDIN ATOMIC CHARGES
----------------------
   0 C :   -0.298901
   1 C :   -0.202575
   2 C :   -0.193967
   3 N :    0.019730
   4 C :   -0.251473
   5 C :   -0.276344
   6 C :   -0.315275
   7 C :   -0.281064
   8 O :    0.012238
   9 H :    0.129692
  10 H :    0.124487
  11 H :    0.121340
  12 H :    0.152479
  13 H :    0.128204
  14 H :    0.170154
  15 H :    0.128457
  16 H :    0.130067
  17 H :    0.138885
  18 H :    0.136282
  19 H :    0.123057
  20 H :    0.128762
  21 H :    0.175764

  Mayer bond orders larger than 0.1
B(  0-C ,  1-C ) :   0.8543 B(  0-C ,  9-H ) :   0.9387 B(  0-C , 10-H ) :   0.9339
B(  0-C , 11-H ) :   0.9405 B(  1-C ,  2-C ) :   0.8958 B(  1-C ,  6-C ) :   0.9651
B(  1-C , 12-H ) :   0.9230 B(  2-C ,  3-N ) :   0.9617 B(  2-C ,  4-C ) :   0.8443
B(  2-C , 13-H ) :   0.9014 B(  3-N ,  4-C ) :   0.9053 B(  3-N , 14-H ) :   0.8720
B(  4-C ,  5-C ) :   0.8878 B(  4-C ,  6-C ) :   0.9158 B(  5-C , 15-H ) :   0.9263
B(  5-C , 16-H ) :   0.9415 B(  5-C , 17-H ) :   0.9303 B(  6-C ,  7-C ) :   0.9066
B(  6-C ,  8-O ) :   1.0012 B(  7-C , 18-H ) :   0.9340 B(  7-C , 19-H ) :   0.9222
B(  7-C , 20-H ) :   0.9402 B(  8-O , 21-H ) :   0.8415

MP2 TOTAL ENERGY:     -403.632241480 Eh
FINAL SINGLE POINT ENERGY      -403.632241479781

DIPOLE MOMENT
-------------
                                X             Y             Z
Electronic contribution:     -0.77011      -2.55981      -0.80692
Nuclear contribution   :      0.56240       2.45135       0.81009
                        -----------------------------------------
Total Dipole Moment    :     -0.20771      -0.10845       0.00317
                        -----------------------------------------
Magnitude (a.u.)       :      0.23434
Magnitude (Debye)      :      0.59565

                             ****ORCA TERMINATED NORMALLY****
TOTAL RUN TIME: 0 days 0 hours 20 minutes 20 seconds 571 msec
