                         Program Version 3.0.3 - RELEASE   -
|  1> ! RI-MP2 RIJK def2-TZVP def2-TZVP/C def2-TZVP/JK TIGHTSCF
|  2> % maxcore 2000
|  3> % mp2 density relaxed end
|  4> *xyz 0 1
|  5>  O       -0.0044848953     1.3756131201    -0.0375181061
|  6>  C        0.0664800515     0.0003747751    -0.0442393513
|  7>  C        0.7894464877    -0.8510945247    -1.0836211695
|  8>  C       -0.2228171684    -2.0125567839    -0.7441534430
|  9>  C       -1.1080211988    -0.9772594078    -0.0053191566
| 10>  C       -0.2295463777    -0.8296449210     1.1951748273
| 11>  O        0.5104847865    -2.0097699757     1.4657464029
| 12>  C        0.4247801273    -2.8300338248     0.3638100641
| 13>  O        0.8702389433    -3.9375597099     0.3471680031
| 14>  H        0.7439203200     1.7228938596     0.4614617894
| 15>  H        0.5957596655    -0.4712829035    -2.0884290770
| 16>  H        1.8589399688    -1.0504655205    -0.9594388280
| 17>  H       -0.6101401934    -2.6042836468    -1.5671742607
| 18>  H       -2.1801200253    -0.8447070716    -0.0490934501
| 19>  H       -0.5666697518    -0.3229372745     2.0893442355
| 20> *
| 21>
| 22>                          ****END OF INPUT****

CARTESIAN COORDINATES (ANGSTROEM)
---------------------------------
  O     -0.004485    1.375613   -0.037518
  C      0.066480    0.000375   -0.044239
  C      0.789446   -0.851095   -1.083621
  C     -0.222817   -2.012557   -0.744153
  C     -1.108021   -0.977259   -0.005319
  C     -0.229546   -0.829645    1.195175
  O      0.510485   -2.009770    1.465746
  C      0.424780   -2.830034    0.363810
  O      0.870239   -3.937560    0.347168
  H      0.743920    1.722894    0.461462
  H      0.595760   -0.471283   -2.088429
  H      1.858940   -1.050466   -0.959439
  H     -0.610140   -2.604284   -1.567174
  H     -2.180120   -0.844707   -0.049093
  H     -0.566670   -0.322937    2.089344

 Total Charge           Charge          ....    0
 Multiplicity           Mult            ....    1
 Number of Electrons    NEL             ....   66
 Basis Dimension        Dim             ....  315

ORBITAL ENERGIES
----------------

  NO   OCC          E(Eh)            E(eV)
   0   2.0000     -20.606791      -560.7393
   1   2.0000     -20.594012      -560.3916
   2   2.0000     -20.547440      -559.1243
   3   2.0000     -11.381706      -309.7120
   4   2.0000     -11.320876      -308.0567
   5   2.0000     -11.313648      -307.8600
   6   2.0000     -11.273665      -306.7720
   7   2.0000     -11.261852      -306.4506
   8   2.0000     -11.261200      -306.4328
   9   2.0000      -1.466249       -39.8987
  10   2.0000      -1.407229       -38.2927
  11   2.0000      -1.375496       -37.4291
  12   2.0000      -1.209794       -32.9202
  13   2.0000      -1.032310       -28.0906
  14   2.0000      -0.945593       -25.7309
  15   2.0000      -0.860013       -23.4021
  16   2.0000      -0.811389       -22.0790
  17   2.0000      -0.775254       -21.0957
  18   2.0000      -0.740131       -20.1400
  19   2.0000      -0.699518       -19.0349
  20   2.0000      -0.660172       -17.9642
  21   2.0000      -0.659816       -17.9545
  22   2.0000      -0.648516       -17.6470
  23   2.0000      -0.607239       -16.5238
  24   2.0000      -0.587147       -15.9771
  25   2.0000      -0.568743       -15.4763
  26   2.0000      -0.562709       -15.3121
  27   2.0000      -0.533695       -14.5226
  28   2.0000      -0.515466       -14.0265
  29   2.0000      -0.478529       -13.0214
  30   2.0000      -0.443339       -12.0639
  31   2.0000      -0.414692       -11.2843
  32   2.0000      -0.401894       -10.9361
  33   0.0000       0.125090         3.4039
  34   0.0000       0.139107         3.7853
  35   0.0000       0.150347         4.0912
  36   0.0000       0.167438         4.5562
  37   0.0000       0.183472         4.9925

MULLIKEN ATOMIC CHARGES
-----------------------
   0 O :   -0.447348
   1 C :    0.116679
   2 C :   -0.213592
   3 C :   -0.060418
   4 C :   -0.188150
   5 C :   -0.006750
   6 O :   -0.229202
   7 C :    0.222518
   8 O :   -0.270865
   9 H :    0.335611
  10 H :    0.134052
  11 H :    0.134467
  12 H :    0.156467
  13 H :    0.165070
  14 H :    0.151460
Sum of atomic charges:    0.0000000

LOEWDIN ATOMIC CHARGES
----------------------
   0 O :    0.041529
   1 C :   -0.320869
   2 C :   -0.156298
   3 C :   -0.144535
   4 C :   -0.111788
   5 C :   -0.222656
   6 O :    0.271798
   7 C :   -0.430502
   8 O :    0.149828
   9 H :    0.191697
  10 H :    0.149102
  11 H :    0.134267
  12 H :    0.153777
  13 H :    0.143267
  14 H :    0.151381

  Mayer bond orders larger than 0.1
B(  0-O ,  1-C ) :   1.0331 B(  0-O ,  9-H ) :   0.8297 B(  1-C ,  2-C ) :   0.9455
B(  1-C ,  4-C ) :   0.8248 B(  1-C ,  5-C ) :   0.8663 B(  2-C ,  3-C ) :   0.8775
B(  2-C , 10-H ) :   0.9174 B(  2-C , 11-H ) :   0.9087 B(  3-C ,  4-C ) :   0.8938
B(  3-C ,  7-C ) :   0.9190 B(  3-C , 12-H ) :   0.9138 B(  4-C ,  5-C ) :   0.8847
B(  4-C , 13-H ) :   0.8841 B(  5-C ,  6-O ) :   0.8948 B(  5-C , 14-H ) :   0.9360
B(  6-O ,  7-C ) :   1.0791 B(  7-C ,  8-O ) :   2.0472

MP2 TOTAL ENERGY:     -457.028457282 Eh
FINAL SINGLE POINT ENERGY      -457.028457281897

DIPOLE MOMENT
-------------
                                X             Y             Z
Electronic contribution:      0.63710      -2.81046       2.66680
Nuclear contribution   :     -0.96042       4.08752      -2.96642
                        -----------------------------------------
Total Dipole Moment    :     -0.32332       1.27706      -0.29962
                        -----------------------------------------
Magnitude (a.u.)       :      1.35100
Magnitude (Debye)      :      3.43396

                             ****ORCA TERMINATED NORMALLY****
TOTAL RUN TIME: 0 days 0 hours 14 minutes 38 seconds 851 msec
