                         Program Version 3.0.3 - RELEASE   -
|  1> ! RI-MP2 RIJK def2-TZVP def2-TZVP/C def2-TZVP/JK TIGHTSCF
|  2> % maxcore 2000
|  3> % mp2 density relaxed end
|  4> *xyz 0 1
|  5>  C       -0.2469503194     1.3075752653    -0.2652804852
|  6>  C       -0.1814587317    -0.1967481002    -0.0936055430
|  7>  O        0.7773732545    -0.8647619634    -0.4089509739
|  8>  N       -1.2849606229    -0.7656867643     0.5492930571
|  9>  C       -2.6901435419    -0.7136478478     0.2026972374
| 10>  C       -3.0410880888    -0.4245515573    -1.2468539328
| 11>  O       -2.1182188920    -1.1823537922    -2.0151797167
| 12>  C       -1.8042480999    -2.3772327187    -1.2986358966
| 13>  C       -1.9134195511    -2.0047671003     0.1711077665
| 14>  H        0.7618562825     1.7179686453    -0.2020296449
| 15>  H       -0.6378277131     1.5307676782    -1.2642416407
| 16>  H       -0.8954530187     1.7805149325     0.4753881743
| 17>  H       -3.3909140241    -0.4576654888     0.9916963738
| 18>  H       -4.0837790657    -0.7358661755    -1.4263121973
| 19>  H       -2.9398610449     0.6229225797    -1.5459873177
| 20>  H       -2.5195391027    -3.1829319417    -1.5255241100
| 21>  H       -0.8000554857    -2.6809839091    -1.6002006782
| 22>  H       -2.0090895144    -2.7793686718     0.9252003977
| 23> *
| 24>
| 25>                          ****END OF INPUT****

CARTESIAN COORDINATES (ANGSTROEM)
---------------------------------
  C     -0.246950    1.307575   -0.265280
  C     -0.181459   -0.196748   -0.093606
  O      0.777373   -0.864762   -0.408951
  N     -1.284961   -0.765687    0.549293
  C     -2.690144   -0.713648    0.202697
  C     -3.041088   -0.424552   -1.246854
  O     -2.118219   -1.182354   -2.015180
  C     -1.804248   -2.377233   -1.298636
  C     -1.913420   -2.004767    0.171108
  H      0.761856    1.717969   -0.202030
  H     -0.637828    1.530768   -1.264242
  H     -0.895453    1.780515    0.475388
  H     -3.390914   -0.457665    0.991696
  H     -4.083779   -0.735866   -1.426312
  H     -2.939861    0.622923   -1.545987
  H     -2.519539   -3.182932   -1.525524
  H     -0.800055   -2.680984   -1.600201
  H     -2.009090   -2.779369    0.925200

 Total Charge           Charge          ....    0
 Multiplicity           Mult            ....    1
 Number of Electrons    NEL             ....   68
 Basis Dimension        Dim             ....  333

ORBITAL ENERGIES
----------------

  NO   OCC          E(Eh)            E(eV)
   0   2.0000     -20.570311      -559.7466
   1   2.0000     -20.525168      -558.5182
   2   2.0000     -15.585655      -424.1072
   3   2.0000     -11.352318      -308.9123
   4   2.0000     -11.296323      -307.3886
   5   2.0000     -11.288734      -307.1821
   6   2.0000     -11.286600      -307.1240
   7   2.0000     -11.281852      -306.9948
   8   2.0000     -11.234275      -305.7002
   9   2.0000      -1.407751       -38.3068
  10   2.0000      -1.382906       -37.6308
  11   2.0000      -1.288847       -35.0713
  12   2.0000      -1.039069       -28.2745
  13   2.0000      -1.014995       -27.6194
  14   2.0000      -0.969152       -26.3720
  15   2.0000      -0.872819       -23.7506
  16   2.0000      -0.819343       -22.2954
  17   2.0000      -0.731643       -19.9090
  18   2.0000      -0.724259       -19.7081
  19   2.0000      -0.680879       -18.5277
  20   2.0000      -0.668117       -18.1804
  21   2.0000      -0.650204       -17.6929
  22   2.0000      -0.613407       -16.6916
  23   2.0000      -0.600543       -16.3416
  24   2.0000      -0.573855       -15.6154
  25   2.0000      -0.565487       -15.3877
  26   2.0000      -0.542380       -14.7589
  27   2.0000      -0.537567       -14.6279
  28   2.0000      -0.505988       -13.7686
  29   2.0000      -0.488324       -13.2880
  30   2.0000      -0.470780       -12.8106
  31   2.0000      -0.455037       -12.3822
  32   2.0000      -0.411570       -11.1994
  33   2.0000      -0.395811       -10.7706
  34   0.0000       0.133313         3.6276
  35   0.0000       0.155047         4.2190
  36   0.0000       0.160840         4.3767
  37   0.0000       0.172463         4.6930
  38   0.0000       0.177627         4.8335

MULLIKEN ATOMIC CHARGES
-----------------------
   0 C :   -0.426387
   1 C :    0.265183
   2 O :   -0.324080
   3 N :   -0.172450
   4 C :   -0.098815
   5 C :   -0.038339
   6 O :   -0.328422
   7 C :   -0.039708
   8 C :   -0.079684
   9 H :    0.160058
  10 H :    0.151982
  11 H :    0.144779
  12 H :    0.143555
  13 H :    0.109082
  14 H :    0.129579
  15 H :    0.110323
  16 H :    0.148725
  17 H :    0.144620
Sum of atomic charges:    0.0000000

LOEWDIN ATOMIC CHARGES
----------------------
   0 C :   -0.274290
   1 C :   -0.441693
   2 O :    0.121680
   3 N :    0.211765
   4 C :   -0.218005
   5 C :   -0.294582
   6 O :    0.161759
   7 C :   -0.279376
   8 C :   -0.212454
   9 H :    0.138407
  10 H :    0.140234
  11 H :    0.131076
  12 H :    0.143459
  13 H :    0.129548
  14 H :    0.130224
  15 H :    0.127966
  16 H :    0.139885
  17 H :    0.144398

  Mayer bond orders larger than 0.1
B(  0-C ,  1-C ) :   0.9090 B(  0-C ,  9-H ) :   0.9310 B(  0-C , 10-H ) :   0.9131
B(  0-C , 11-H ) :   0.9290 B(  1-C ,  2-O ) :   1.9775 B(  1-C ,  3-N ) :   1.0196
B(  3-N ,  4-C ) :   0.8934 B(  3-N ,  8-C ) :   0.8825 B(  4-C ,  5-C ) :   0.9490
B(  4-C ,  8-C ) :   0.8764 B(  4-C , 12-H ) :   0.9136 B(  5-C ,  6-O ) :   0.9206
B(  5-C , 13-H ) :   0.9173 B(  5-C , 14-H ) :   0.9243 B(  6-O ,  7-C ) :   0.8951
B(  7-C ,  8-C ) :   0.9578 B(  7-C , 15-H ) :   0.9217 B(  7-C , 16-H ) :   0.9157
B(  8-C , 17-H ) :   0.9097

MP2 TOTAL ENERGY:     -438.368130432 Eh
FINAL SINGLE POINT ENERGY      -438.368130431910

DIPOLE MOMENT
-------------
                                X             Y             Z
Electronic contribution:      2.42299      -2.52051       0.78689
Nuclear contribution   :     -3.86826       2.75192      -0.43727
                        -----------------------------------------
Total Dipole Moment    :     -1.44527       0.23141       0.34963
                        -----------------------------------------
Magnitude (a.u.)       :      1.50486
Magnitude (Debye)      :      3.82504

                             ****ORCA TERMINATED NORMALLY****
TOTAL RUN TIME: 0 days 0 hours 21 minutes 11 seconds 653 msec
