                         Program Version 3.0.3 - RELEASE   -
|  1> ! RI-MP2 RIJK def2-TZVP def2-TZVP/C def2-TZVP/JK TIGHTSCF
|  2> % maxcore 2000
|  3> % mp2 density relaxed end
|  4> *xyz 0 1
|  5>  C        0.0588217437     1.3442282004    -0.2237178515
|  6>  N        0.2360202419    -0.0884676963    -0.1181106636
|  7>  C        0.5774582407    -0.6277811131     1.1094883735
|  8>  C        1.1041498400     0.0194077354     2.2220817851
|  9>  N        1.1651189055    -0.9943286861     3.1722523529
| 10>  C        1.9242722507    -1.6968821902     4.2355094406
| 11>  C        1.3570500122    -3.0415961785     3.6393653659
| 12>  C        0.7856560782    -2.1368173357     2.5635014857
| 13>  N        0.4128056684    -1.9933669293     1.3150513858
| 14>  H        1.0144122173     1.8526017961    -0.0491886806
| 15>  H       -0.2665516614     1.5940265188    -1.2362025935
| 16>  H       -0.6729958581     1.7519194237     0.4934658021
| 17>  H       -0.4567796484    -0.6465117884    -0.5943667136
| 18>  H        1.2821384560     1.0581029512     2.4345746374
| 19>  H        3.0081224256    -1.5959158058     4.1317684079
| 20>  H        1.6181887480    -1.4282442206     5.2497136219
| 21>  H        2.1251155737    -3.7415775581     3.3028973860
| 22>  H        0.6383193158    -3.5692792237     4.2708950781
| 23> *
| 24>
| 25>                          ****END OF INPUT****

CARTESIAN COORDINATES (ANGSTROEM)
---------------------------------
  C      0.058822    1.344228   -0.223718
  N      0.236020   -0.088468   -0.118111
  C      0.577458   -0.627781    1.109488
  C      1.104150    0.019408    2.222082
  N      1.165119   -0.994329    3.172252
  C      1.924272   -1.696882    4.235509
  C      1.357050   -3.041596    3.639365
  C      0.785656   -2.136817    2.563501
  N      0.412806   -1.993367    1.315051
  H      1.014412    1.852602   -0.049189
  H     -0.266552    1.594027   -1.236203
  H     -0.672996    1.751919    0.493466
  H     -0.456780   -0.646512   -0.594367
  H      1.282138    1.058103    2.434575
  H      3.008122   -1.595916    4.131768
  H      1.618189   -1.428244    5.249714
  H      2.125116   -3.741578    3.302897
  H      0.638319   -3.569279    4.270895

 Total Charge           Charge          ....    0
 Multiplicity           Mult            ....    1
 Number of Electrons    NEL             ....   66
 Basis Dimension        Dim             ....  333

ORBITAL ENERGIES
----------------

  NO   OCC          E(Eh)            E(eV)
   0   2.0000     -15.591206      -424.2583
   1   2.0000     -15.550751      -423.1574
   2   2.0000     -15.533018      -422.6749
   3   2.0000     -11.293955      -307.3241
   4   2.0000     -11.290885      -307.2406
   5   2.0000     -11.281054      -306.9731
   6   2.0000     -11.260284      -306.4079
   7   2.0000     -11.248363      -306.0835
   8   2.0000     -11.232422      -305.6497
   9   2.0000      -1.351153       -36.7668
  10   2.0000      -1.233739       -33.5717
  11   2.0000      -1.163823       -31.6692
  12   2.0000      -1.062150       -28.9026
  13   2.0000      -0.945750       -25.7352
  14   2.0000      -0.905783       -24.6476
  15   2.0000      -0.890096       -24.2208
  16   2.0000      -0.779563       -21.2130
  17   2.0000      -0.731720       -19.9111
  18   2.0000      -0.696504       -18.9528
  19   2.0000      -0.678690       -18.4681
  20   2.0000      -0.655415       -17.8348
  21   2.0000      -0.610655       -16.6168
  22   2.0000      -0.587243       -15.9797
  23   2.0000      -0.569080       -15.4855
  24   2.0000      -0.550881       -14.9902
  25   2.0000      -0.542806       -14.7705
  26   2.0000      -0.533586       -14.5196
  27   2.0000      -0.521971       -14.2036
  28   2.0000      -0.504669       -13.7327
  29   2.0000      -0.435472       -11.8498
  30   2.0000      -0.426566       -11.6074
  31   2.0000      -0.364490        -9.9183
  32   2.0000      -0.274309        -7.4643
  33   0.0000       0.137679         3.7464
  34   0.0000       0.147930         4.0254
  35   0.0000       0.159120         4.3299
  36   0.0000       0.170954         4.6519
  37   0.0000       0.180510         4.9119

MULLIKEN ATOMIC CHARGES
-----------------------
   0 C :   -0.293978
   1 N :   -0.339576
   2 C :    0.212126
   3 C :   -0.253965
   4 N :   -0.064543
   5 C :   -0.131518
   6 C :   -0.202327
   7 C :    0.075900
   8 N :   -0.312622
   9 H :    0.133317
  10 H :    0.139423
  11 H :    0.121553
  12 H :    0.236185
  13 H :    0.147812
  14 H :    0.128589
  15 H :    0.127858
  16 H :    0.134743
  17 H :    0.141023
Sum of atomic charges:    0.0000000

LOEWDIN ATOMIC CHARGES
----------------------
   0 C :   -0.334218
   1 N :    0.036865
   2 C :   -0.327038
   3 C :   -0.244895
   4 N :    0.267338
   5 C :   -0.188706
   6 C :   -0.193920
   7 C :   -0.310446
   8 N :    0.106995
   9 H :    0.116984
  10 H :    0.118371
  11 H :    0.104848
  12 H :    0.184715
  13 H :    0.132170
  14 H :    0.130520
  15 H :    0.124585
  16 H :    0.139543
  17 H :    0.136289

  Mayer bond orders larger than 0.1
B(  0-C ,  1-N ) :   0.9266 B(  0-C ,  9-H ) :   0.9349 B(  0-C , 10-H ) :   0.9369
B(  0-C , 11-H ) :   0.9286 B(  1-N ,  2-C ) :   1.0914 B(  1-N , 12-H ) :   0.8706
B(  2-C ,  3-C ) :   1.4545 B(  2-C ,  8-N ) :   1.2295 B(  3-C ,  4-N ) :   1.0811
B(  3-C , 13-H ) :   0.9129 B(  4-N ,  5-C ) :   0.8637 B(  4-N ,  7-C ) :   1.1816
B(  5-C ,  6-C ) :   0.9623 B(  5-C , 14-H ) :   0.9122 B(  5-C , 15-H ) :   0.9145
B(  6-C ,  7-C ) :   0.9348 B(  6-C , 16-H ) :   0.9039 B(  6-C , 17-H ) :   0.9307
B(  7-C ,  8-N ) :   1.6153

MP2 TOTAL ENERGY:     -397.426829018 Eh
FINAL SINGLE POINT ENERGY      -397.426829018442

DIPOLE MOMENT
-------------
                                X             Y             Z
Electronic contribution:     -0.39409      -3.45639       0.58658
Nuclear contribution   :      0.67659       3.90271       0.28749
                        -----------------------------------------
Total Dipole Moment    :      0.28251       0.44632       0.87407
                        -----------------------------------------
Magnitude (a.u.)       :      1.02128
Magnitude (Debye)      :      2.59590

                             ****ORCA TERMINATED NORMALLY****
TOTAL RUN TIME: 0 days 0 hours 16 minutes 30 seconds 126 msec
