                         Program Version 3.0.3 - RELEASE   -
|  1> ! RI-MP2 RIJK def2-TZVP def2-TZVP/C def2-TZVP/JK TIGHTSCF
|  2> % maxcore 2000
|  3> % mp2 density relaxed end
|  4> *xyz 0 1
|  5>  C       -0.1969940429     1.4831161626    -0.2725677853
|  6>  C        0.0303139622     0.0228969159     0.0503149717
|  7>  N        1.2614943226    -0.7386903209    -0.2593426446
|  8>  C        2.4327329701     0.1351439095     0.1150200619
|  9>  C        2.0290841975     0.1437989229     1.6091041581
| 10>  C        1.9649078892     1.4173763392     2.4339500643
| 11>  O        3.3063019755     1.8194315681     2.6834661290
| 12>  C        0.7548820978    -0.5984356980     1.1870952688
| 13>  C        0.1940463462    -1.7585412332     1.9614098760
| 14>  H        0.6477643527     2.1279633444    -0.0315646288
| 15>  H       -0.4062656927     1.5973885482    -1.3422025743
| 16>  H       -1.0682306208     1.8562894650     0.2766900192
| 17>  H       -0.8268814561    -0.5812074456    -0.2481141990
| 18>  H        3.3642118832    -0.3942032226    -0.0897898413
| 19>  H        2.4653408508     1.0998661358    -0.3998440697
| 20>  H        2.6760682137    -0.5498956321     2.1562293149
| 21>  H        1.4091791097     2.2085861189     1.9126005616
| 22>  H        1.4273669644     1.2105533851     3.3749422810
| 23>  H        3.2875961440     2.6431548032     3.1792006564
| 24>  H       -0.3411613083    -1.4114773074     2.8539355296
| 25>  H       -0.5087095445    -2.3333410806     1.3514023066
| 26>  H        0.9901059256    -2.4355090183     2.2904647040
| 27> *
| 28>
| 29>                          ****END OF INPUT****

CARTESIAN COORDINATES (ANGSTROEM)
---------------------------------
  C     -0.196994    1.483116   -0.272568
  C      0.030314    0.022897    0.050315
  N      1.261494   -0.738690   -0.259343
  C      2.432733    0.135144    0.115020
  C      2.029084    0.143799    1.609104
  C      1.964908    1.417376    2.433950
  O      3.306302    1.819432    2.683466
  C      0.754882   -0.598436    1.187095
  C      0.194046   -1.758541    1.961410
  H      0.647764    2.127963   -0.031565
  H     -0.406266    1.597389   -1.342203
  H     -1.068231    1.856289    0.276690
  H     -0.826881   -0.581207   -0.248114
  H      3.364212   -0.394203   -0.089790
  H      2.465341    1.099866   -0.399844
  H      2.676068   -0.549896    2.156229
  H      1.409179    2.208586    1.912601
  H      1.427367    1.210553    3.374942
  H      3.287596    2.643155    3.179201
  H     -0.341161   -1.411477    2.853936
  H     -0.508710   -2.333341    1.351402
  H      0.990106   -2.435509    2.290465

 Total Charge           Charge          ....    0
 Multiplicity           Mult            ....    1
 Number of Electrons    NEL             ....   70
 Basis Dimension        Dim             ....  357

ORBITAL ENERGIES
----------------

  NO   OCC          E(Eh)            E(eV)
   0   2.0000     -20.559323      -559.4476
   1   2.0000     -15.548394      -423.0933
   2   2.0000     -11.278805      -306.9119
   3   2.0000     -11.261863      -306.4509
   4   2.0000     -11.257204      -306.3241
   5   2.0000     -11.244347      -305.9742
   6   2.0000     -11.230385      -305.5943
   7   2.0000     -11.223596      -305.4096
   8   2.0000     -11.219353      -305.2941
   9   2.0000      -1.362888       -37.0861
  10   2.0000      -1.278890       -34.8004
  11   2.0000      -1.038479       -28.2584
  12   2.0000      -1.003014       -27.2934
  13   2.0000      -0.991069       -26.9683
  14   2.0000      -0.914718       -24.8907
  15   2.0000      -0.846360       -23.0306
  16   2.0000      -0.773384       -21.0448
  17   2.0000      -0.731424       -19.9031
  18   2.0000      -0.684462       -18.6252
  19   2.0000      -0.667335       -18.1591
  20   2.0000      -0.630916       -17.1681
  21   2.0000      -0.615683       -16.7536
  22   2.0000      -0.593440       -16.1483
  23   2.0000      -0.582606       -15.8535
  24   2.0000      -0.565052       -15.3759
  25   2.0000      -0.559748       -15.2315
  26   2.0000      -0.544074       -14.8050
  27   2.0000      -0.537330       -14.6215
  28   2.0000      -0.512834       -13.9549
  29   2.0000      -0.487364       -13.2619
  30   2.0000      -0.465868       -12.6769
  31   2.0000      -0.443531       -12.0691
  32   2.0000      -0.434206       -11.8153
  33   2.0000      -0.404205       -10.9990
  34   2.0000      -0.353342        -9.6149
  35   0.0000       0.128074         3.4851
  36   0.0000       0.142776         3.8851
  37   0.0000       0.155731         4.2376
  38   0.0000       0.176995         4.8163
  39   0.0000       0.184055         5.0084

MULLIKEN ATOMIC CHARGES
-----------------------
   0 C :   -0.393051
   1 C :   -0.065350
   2 N :   -0.236241
   3 C :   -0.175149
   4 C :   -0.024255
   5 C :   -0.087713
   6 O :   -0.464047
   7 C :    0.101792
   8 C :   -0.414235
   9 H :    0.129264
  10 H :    0.141886
  11 H :    0.136251
  12 H :    0.107532
  13 H :    0.124634
  14 H :    0.115047
  15 H :    0.099002
  16 H :    0.092159
  17 H :    0.098890
  18 H :    0.314872
  19 H :    0.129733
  20 H :    0.137728
  21 H :    0.131251
Sum of atomic charges:    0.0000000

LOEWDIN ATOMIC CHARGES
----------------------
   0 C :   -0.298135
   1 C :   -0.255529
   2 N :    0.123160
   3 C :   -0.220214
   4 C :   -0.208620
   5 C :   -0.331930
   6 O :   -0.048014
   7 C :   -0.231022
   8 C :   -0.272163
   9 H :    0.119767
  10 H :    0.130066
  11 H :    0.130250
  12 H :    0.153537
  13 H :    0.128603
  14 H :    0.122048
  15 H :    0.162510
  16 H :    0.114982
  17 H :    0.118830
  18 H :    0.171879
  19 H :    0.129149
  20 H :    0.132497
  21 H :    0.128348

  Mayer bond orders larger than 0.1
B(  0-C ,  1-C ) :   0.8827 B(  0-C ,  9-H ) :   0.9392 B(  0-C , 10-H ) :   0.9356
B(  0-C , 11-H ) :   0.9298 B(  1-C ,  2-N ) :   0.9251 B(  1-C ,  7-C ) :   0.9736
B(  1-C , 12-H ) :   0.9209 B(  2-N ,  3-C ) :   0.9426 B(  2-N ,  7-C ) :   0.8429
B(  3-C ,  4-C ) :   0.9664 B(  3-C , 13-H ) :   0.9150 B(  3-C , 14-H ) :   0.9362
B(  4-C ,  5-C ) :   0.9298 B(  4-C ,  6-O ) :  -0.1016 B(  4-C ,  7-C ) :   0.8582
B(  4-C , 15-H ) :   0.9186 B(  5-C ,  6-O ) :   1.0237 B(  5-C , 16-H ) :   0.9227
B(  5-C , 17-H ) :   0.9295 B(  6-O , 18-H ) :   0.8481 B(  7-C ,  8-C ) :   0.8613
B(  8-C , 19-H ) :   0.9356 B(  8-C , 20-H ) :   0.9373 B(  8-C , 21-H ) :   0.9373

MP2 TOTAL ENERGY:     -403.614323799 Eh
FINAL SINGLE POINT ENERGY      -403.614323799499

DIPOLE MOMENT
-------------
                                X             Y             Z
Electronic contribution:      3.44167      -0.68508      -0.28078
Nuclear contribution   :     -4.00362       1.48431       0.94957
                        -----------------------------------------
Total Dipole Moment    :     -0.56194       0.79922       0.66878
                        -----------------------------------------
Magnitude (a.u.)       :      1.18398
Magnitude (Debye)      :      3.00944

                             ****ORCA TERMINATED NORMALLY****
TOTAL RUN TIME: 0 days 0 hours 33 minutes 31 seconds 160 msec
