                         Program Version 3.0.3 - RELEASE   -
|  1> ! RI-MP2 RIJK def2-TZVP def2-TZVP/C def2-TZVP/JK TIGHTSCF
|  2> % maxcore 2000
|  3> % mp2 density relaxed end
|  4> *xyz 0 1
|  5>  C        0.0654812309     1.5211197673     0.0223482715
|  6>  C       -0.0117755390     0.0164344509    -0.0180636625
|  7>  C       -0.8804467691    -0.7764063648     0.8990591306
|  8>  N        0.5776300747    -0.7778207538     1.0858458128
|  9>  C        1.2690516858    -1.9330810547     0.4763209157
| 10>  C        1.0304509620    -1.8239140897    -1.0089485338
| 11>  C        0.3291106358    -0.7159017097    -1.2952138474
| 12>  C       -0.0704968416    -0.2537709571    -2.5705731021
| 13>  C       -0.4285578966     0.1794510619    -3.6366990291
| 14>  H        1.0603363977     1.8703787193    -0.2731565515
| 15>  H       -0.6645802258     1.9620270550    -0.6639461917
| 16>  H       -0.1399486585     1.8857600383     1.0315792128
| 17>  H       -1.4299755846    -0.2781352108     1.6940680436
| 18>  H       -1.3580542869    -1.6679848916     0.4977498057
| 19>  H        2.3395254817    -1.8857968425     0.7199621142
| 20>  H        0.8930209782    -2.8738556108     0.8997064958
| 21>  H        1.3694708035    -2.5555671835    -1.7320111105
| 22>  H       -0.7374397381     0.5489997862    -4.5829816240
| 23> *
| 24>
| 25>                          ****END OF INPUT****

CARTESIAN COORDINATES (ANGSTROEM)
---------------------------------
  C      0.065481    1.521120    0.022348
  C     -0.011776    0.016434   -0.018064
  C     -0.880447   -0.776406    0.899059
  N      0.577630   -0.777821    1.085846
  C      1.269052   -1.933081    0.476321
  C      1.030451   -1.823914   -1.008949
  C      0.329111   -0.715902   -1.295214
  C     -0.070497   -0.253771   -2.570573
  C     -0.428558    0.179451   -3.636699
  H      1.060336    1.870379   -0.273157
  H     -0.664580    1.962027   -0.663946
  H     -0.139949    1.885760    1.031579
  H     -1.429976   -0.278135    1.694068
  H     -1.358054   -1.667985    0.497750
  H      2.339525   -1.885797    0.719962
  H      0.893021   -2.873856    0.899706
  H      1.369471   -2.555567   -1.732011
  H     -0.737440    0.549000   -4.582982

 Total Charge           Charge          ....    0
 Multiplicity           Mult            ....    1
 Number of Electrons    NEL             ....   64
 Basis Dimension        Dim             ....  333

ORBITAL ENERGIES
----------------

  NO   OCC          E(Eh)            E(eV)
   0   2.0000     -15.560521      -423.4233
   1   2.0000     -11.272595      -306.7429
   2   2.0000     -11.262481      -306.4677
   3   2.0000     -11.258901      -306.3703
   4   2.0000     -11.254273      -306.2444
   5   2.0000     -11.246440      -306.0312
   6   2.0000     -11.242637      -305.9277
   7   2.0000     -11.233144      -305.6694
   8   2.0000     -11.218030      -305.2581
   9   2.0000      -1.291615       -35.1466
  10   2.0000      -1.097253       -29.8578
  11   2.0000      -1.043773       -28.4025
  12   2.0000      -1.005045       -27.3487
  13   2.0000      -0.946543       -25.7567
  14   2.0000      -0.855133       -23.2693
  15   2.0000      -0.803122       -21.8541
  16   2.0000      -0.781281       -21.2597
  17   2.0000      -0.717023       -19.5112
  18   2.0000      -0.692583       -18.8461
  19   2.0000      -0.640215       -17.4211
  20   2.0000      -0.608185       -16.5495
  21   2.0000      -0.580822       -15.8050
  22   2.0000      -0.572319       -15.5736
  23   2.0000      -0.562205       -15.2984
  24   2.0000      -0.550813       -14.9884
  25   2.0000      -0.506702       -13.7881
  26   2.0000      -0.479954       -13.0602
  27   2.0000      -0.457161       -12.4400
  28   2.0000      -0.440668       -11.9912
  29   2.0000      -0.398987       -10.8570
  30   2.0000      -0.381777       -10.3887
  31   2.0000      -0.324230        -8.8227
  32   0.0000       0.103707         2.8220
  33   0.0000       0.148541         4.0420
  34   0.0000       0.155153         4.2219
  35   0.0000       0.165185         4.4949
  36   0.0000       0.173179         4.7124

MULLIKEN ATOMIC CHARGES
-----------------------
   0 C :   -0.422350
   1 C :    0.103781
   2 C :   -0.178846
   3 N :   -0.244117
   4 C :   -0.086899
   5 C :   -0.224468
   6 C :   -0.152165
   7 C :    0.072204
   8 C :   -0.124615
   9 H :    0.134839
  10 H :    0.139783
  11 H :    0.141084
  12 H :    0.124686
  13 H :    0.124746
  14 H :    0.130241
  15 H :    0.127411
  16 H :    0.140470
  17 H :    0.194213
Sum of atomic charges:    0.0000000

LOEWDIN ATOMIC CHARGES
----------------------
   0 C :   -0.257169
   1 C :   -0.248268
   2 C :   -0.213116
   3 N :    0.136190
   4 C :   -0.256438
   5 C :   -0.098190
   6 C :   -0.128946
   7 C :   -0.065356
   8 C :   -0.072978
   9 H :    0.131841
  10 H :    0.133308
  11 H :    0.133000
  12 H :    0.127677
  13 H :    0.131154
  14 H :    0.137725
  15 H :    0.137763
  16 H :    0.143442
  17 H :    0.128359

  Mayer bond orders larger than 0.1
B(  0-C ,  1-C ) :   0.8762 B(  0-C ,  9-H ) :   0.9354 B(  0-C , 10-H ) :   0.9369
B(  0-C , 11-H ) :   0.9355 B(  1-C ,  2-C ) :   0.9270 B(  1-C ,  3-N ) :   0.8694
B(  1-C ,  6-C ) :   0.9769 B(  2-C ,  3-N ) :   0.8930 B(  2-C , 12-H ) :   0.9133
B(  2-C , 13-H ) :   0.9032 B(  3-N ,  4-C ) :   0.9366 B(  4-C ,  5-C ) :   0.9859
B(  4-C , 14-H ) :   0.9082 B(  4-C , 15-H ) :   0.9237 B(  5-C ,  6-C ) :   1.6549
B(  5-C , 16-H ) :   0.9175 B(  6-C ,  7-C ) :   1.1536 B(  6-C ,  8-C ) :  -0.1625
B(  7-C ,  8-C ) :   2.5965 B(  8-C , 17-H ) :   0.8756

MP2 TOTAL ENERGY:     -364.092657567 Eh
FINAL SINGLE POINT ENERGY      -364.092657566623

DIPOLE MOMENT
-------------
                                X             Y             Z
Electronic contribution:      0.33861      -1.62336      -3.21600
Nuclear contribution   :     -0.52518       1.39731       2.91307
                        -----------------------------------------
Total Dipole Moment    :     -0.18657      -0.22605      -0.30293
                        -----------------------------------------
Magnitude (a.u.)       :      0.42151
Magnitude (Debye)      :      1.07140

                             ****ORCA TERMINATED NORMALLY****
TOTAL RUN TIME: 0 days 0 hours 20 minutes 1 seconds 121 msec
