                         Program Version 3.0.3 - RELEASE   -
|  1> ! RI-MP2 RIJK def2-TZVP def2-TZVP/C def2-TZVP/JK TIGHTSCF
|  2> % maxcore 2000
|  3> % mp2 density relaxed end
|  4> *xyz 0 1
|  5>  C       -0.5541007337     0.6489705620    -2.0759089184
|  6>  N       -0.1290417700    -0.3155566191    -1.0709763492
|  7>  C        1.2879104075    -0.4452791760    -0.7241750890
|  8>  C        2.3794855216     0.3706761195    -1.3795086653
|  9>  O        2.6048462983    -0.0187439893    -2.7306625446
| 10>  C        0.2996259196     0.0947553492     0.2715790904
| 11>  C        0.3182451475     1.5547314782     0.6924205381
| 12>  C       -0.1846592104    -0.8325880982     1.3726692388
| 13>  H       -0.0685994271     1.6336571435    -2.0357176804
| 14>  H       -0.3568921515     0.2272688082    -3.0652191047
| 15>  H       -1.6332687391     0.8044047427    -1.9755579262
| 16>  H        1.5909813241    -1.4883994752    -0.5896694348
| 17>  H        2.1364381589     1.4335834779    -1.4244114322
| 18>  H        3.3001369217     0.2761607197    -0.7809312663
| 19>  H        2.7662379898    -0.9681523933    -2.7385058483
| 20>  H        0.6705929723     2.2348029549    -0.0834061084
| 21>  H       -0.6896369965     1.8744044893     0.9817477535
| 22>  H        0.9644387825     1.6860018787     1.5670477526
| 23>  H        0.4771704811    -0.7884768403     2.2454135656
| 24>  H       -1.1912608404    -0.5491139127     1.7017257355
| 25>  H       -0.2260400162    -1.8638242996     1.0146989633
| 26> *
| 27>
| 28>                          ****END OF INPUT****

CARTESIAN COORDINATES (ANGSTROEM)
---------------------------------
  C     -0.554101    0.648971   -2.075909
  N     -0.129042   -0.315557   -1.070976
  C      1.287910   -0.445279   -0.724175
  C      2.379486    0.370676   -1.379509
  O      2.604846   -0.018744   -2.730663
  C      0.299626    0.094755    0.271579
  C      0.318245    1.554731    0.692421
  C     -0.184659   -0.832588    1.372669
  H     -0.068599    1.633657   -2.035718
  H     -0.356892    0.227269   -3.065219
  H     -1.633269    0.804405   -1.975558
  H      1.590981   -1.488399   -0.589669
  H      2.136438    1.433583   -1.424411
  H      3.300137    0.276161   -0.780931
  H      2.766238   -0.968152   -2.738506
  H      0.670593    2.234803   -0.083406
  H     -0.689637    1.874404    0.981748
  H      0.964439    1.686002    1.567048
  H      0.477170   -0.788477    2.245414
  H     -1.191261   -0.549114    1.701726
  H     -0.226040   -1.863824    1.014699

 Total Charge           Charge          ....    0
 Multiplicity           Mult            ....    1
 Number of Electrons    NEL             ....   64
 Basis Dimension        Dim             ....  326

ORBITAL ENERGIES
----------------

  NO   OCC          E(Eh)            E(eV)
   0   2.0000     -20.556557      -559.3724
   1   2.0000     -15.549039      -423.1109
   2   2.0000     -11.279787      -306.9386
   3   2.0000     -11.266985      -306.5902
   4   2.0000     -11.252766      -306.2033
   5   2.0000     -11.238383      -305.8120
   6   2.0000     -11.224136      -305.4243
   7   2.0000     -11.213726      -305.1410
   8   2.0000      -1.360563       -37.0228
   9   2.0000      -1.267508       -34.4906
  10   2.0000      -1.033891       -28.1336
  11   2.0000      -0.986998       -26.8576
  12   2.0000      -0.952085       -25.9076
  13   2.0000      -0.919483       -25.0204
  14   2.0000      -0.792000       -21.5514
  15   2.0000      -0.743595       -20.2343
  16   2.0000      -0.685339       -18.6490
  17   2.0000      -0.661393       -17.9974
  18   2.0000      -0.641196       -17.4478
  19   2.0000      -0.612724       -16.6731
  20   2.0000      -0.580699       -15.8016
  21   2.0000      -0.579691       -15.7742
  22   2.0000      -0.565241       -15.3810
  23   2.0000      -0.549118       -14.9423
  24   2.0000      -0.542440       -14.7605
  25   2.0000      -0.534709       -14.5502
  26   2.0000      -0.523130       -14.2351
  27   2.0000      -0.485772       -13.2185
  28   2.0000      -0.464619       -12.6429
  29   2.0000      -0.435099       -11.8397
  30   2.0000      -0.420245       -11.4354
  31   2.0000      -0.354852        -9.6560
  32   0.0000       0.128965         3.5093
  33   0.0000       0.146358         3.9826
  34   0.0000       0.164072         4.4646
  35   0.0000       0.181791         4.9468
  36   0.0000       0.191694         5.2163

MULLIKEN ATOMIC CHARGES
-----------------------
   0 C :   -0.284428
   1 N :   -0.235338
   2 C :   -0.164379
   3 C :    0.012311
   4 O :   -0.475014
   5 C :    0.132111
   6 C :   -0.381007
   7 C :   -0.396300
   8 H :    0.099127
   9 H :    0.142945
  10 H :    0.136124
  11 H :    0.103060
  12 H :    0.099792
  13 H :    0.111687
  14 H :    0.313729
  15 H :    0.123955
  16 H :    0.138085
  17 H :    0.140922
  18 H :    0.119645
  19 H :    0.124073
  20 H :    0.138902
Sum of atomic charges:   -0.0000000

LOEWDIN ATOMIC CHARGES
----------------------
   0 C :   -0.326566
   1 N :    0.124465
   2 C :   -0.244074
   3 C :   -0.332094
   4 O :   -0.049458
   5 C :   -0.310257
   6 C :   -0.270688
   7 C :   -0.267450
   8 H :    0.103135
   9 H :    0.122540
  10 H :    0.117654
  11 H :    0.140580
  12 H :    0.128256
  13 H :    0.124173
  14 H :    0.172732
  15 H :    0.122017
  16 H :    0.131228
  17 H :    0.132653
  18 H :    0.124420
  19 H :    0.126340
  20 H :    0.130394

  Mayer bond orders larger than 0.1
B(  0-C ,  1-N ) :   0.8971 B(  0-C ,  8-H ) :   0.9290 B(  0-C ,  9-H ) :   0.9349
B(  0-C , 10-H ) :   0.9338 B(  1-N ,  2-C ) :   0.9420 B(  1-N ,  5-C ) :   0.8319
B(  2-C ,  3-C ) :   0.9463 B(  2-C ,  5-C ) :   0.9253 B(  2-C , 11-H ) :   0.8808
B(  3-C ,  4-O ) :   0.8955 B(  3-C , 12-H ) :   0.9283 B(  3-C , 13-H ) :   0.9239
B(  4-O , 14-H ) :   0.8476 B(  5-C ,  6-C ) :   0.9235 B(  5-C ,  7-C ) :   0.8785
B(  6-C , 15-H ) :   0.9344 B(  6-C , 16-H ) :   0.9351 B(  6-C , 17-H ) :   0.9316
B(  7-C , 18-H ) :   0.9336 B(  7-C , 19-H ) :   0.9370 B(  7-C , 20-H ) :   0.9397

MP2 TOTAL ENERGY:     -365.612422406 Eh
FINAL SINGLE POINT ENERGY      -365.612422405861

DIPOLE MOMENT
-------------
                                X             Y             Z
Electronic contribution:      2.47109      -2.42537      -3.64863
Nuclear contribution   :     -2.27492       2.47706       4.21843
                        -----------------------------------------
Total Dipole Moment    :      0.19617       0.05169       0.56981
                        -----------------------------------------
Magnitude (a.u.)       :      0.60485
Magnitude (Debye)      :      1.53740

                             ****ORCA TERMINATED NORMALLY****
TOTAL RUN TIME: 0 days 0 hours 13 minutes 58 seconds 578 msec
