                         Program Version 3.0.3 - RELEASE   -
|  1> ! RI-MP2 RIJK def2-TZVP def2-TZVP/C def2-TZVP/JK TIGHTSCF
|  2> % maxcore 2000
|  3> % mp2 density relaxed end
|  4> *xyz 0 1
|  5>  C        0.3028559773     1.5073349186     0.2051899052
|  6>  C       -0.2871236183     0.1485892750    -0.1874682644
|  7>  C        0.4031238713    -0.4546622863    -1.3899019129
|  8>  N        1.7122495218    -1.1039360273    -1.1347083823
|  9>  C        0.5793549127    -1.9124428113    -1.5729096171
| 10>  C        0.1036928544    -3.1445502895    -0.7943237512
| 11>  N        0.1260458000    -3.9888060647    -2.0492321630
| 12>  C       -0.8251627623    -3.3517651041    -2.9763075024
| 13>  C        0.5155244040    -2.7444838192    -2.8315841007
| 14>  H        1.3678363990     1.4077726863     0.4357963434
| 15>  H        0.2007850868     2.2348005071    -0.6080523364
| 16>  H       -0.1998076643     1.9196109006     1.0853166530
| 17>  H       -0.1998098405    -0.5485277897     0.6534554348
| 18>  H       -1.3584372276     0.2511307867    -0.4049672858
| 19>  H        0.3195738563     0.1312449206    -2.3065738165
| 20>  H        2.3536085586    -0.9404757048    -1.9078416049
| 21>  H        0.8501324908    -3.5033513831    -0.0832035717
| 22>  H       -0.8790887643    -3.1035221641    -0.3123780273
| 23>  H       -1.0181010483    -3.9494049037    -3.8624327288
| 24>  H       -1.6961836856    -2.8369429443    -2.5746252026
| 25>  H        1.2681967681    -2.7695146627    -3.6150405584
| 26> *
| 27>
| 28>                          ****END OF INPUT****

CARTESIAN COORDINATES (ANGSTROEM)
---------------------------------
  C      0.302856    1.507335    0.205190
  C     -0.287124    0.148589   -0.187468
  C      0.403124   -0.454662   -1.389902
  N      1.712250   -1.103936   -1.134708
  C      0.579355   -1.912443   -1.572910
  C      0.103693   -3.144550   -0.794324
  N      0.126046   -3.988806   -2.049232
  C     -0.825163   -3.351765   -2.976308
  C      0.515524   -2.744484   -2.831584
  H      1.367836    1.407773    0.435796
  H      0.200785    2.234801   -0.608052
  H     -0.199808    1.919611    1.085317
  H     -0.199810   -0.548528    0.653455
  H     -1.358437    0.251131   -0.404967
  H      0.319574    0.131245   -2.306574
  H      2.353609   -0.940476   -1.907842
  H      0.850132   -3.503351   -0.083204
  H     -0.879089   -3.103522   -0.312378
  H     -1.018101   -3.949405   -3.862433
  H     -1.696184   -2.836943   -2.574625
  H      1.268197   -2.769515   -3.615041

 Total Charge           Charge          ....    0
 Multiplicity           Mult            ....    1
 Number of Electrons    NEL             ....   68
 Basis Dimension        Dim             ....  351

ORBITAL ENERGIES
----------------

  NO   OCC          E(Eh)            E(eV)
   0   2.0000     -15.564014      -423.5184
   1   2.0000     -15.558015      -423.3551
   2   2.0000     -11.270515      -306.6863
   3   2.0000     -11.266617      -306.5802
   4   2.0000     -11.260488      -306.4135
   5   2.0000     -11.260373      -306.4103
   6   2.0000     -11.254885      -306.2610
   7   2.0000     -11.225909      -305.4725
   8   2.0000     -11.213914      -305.1461
   9   2.0000      -1.304017       -35.4841
  10   2.0000      -1.251460       -34.0540
  11   2.0000      -1.040266       -28.3071
  12   2.0000      -0.984673       -26.7943
  13   2.0000      -0.913972       -24.8705
  14   2.0000      -0.895524       -24.3685
  15   2.0000      -0.834005       -22.6944
  16   2.0000      -0.799391       -21.7525
  17   2.0000      -0.739484       -20.1224
  18   2.0000      -0.711453       -19.3596
  19   2.0000      -0.649419       -17.6716
  20   2.0000      -0.630430       -17.1549
  21   2.0000      -0.615907       -16.7597
  22   2.0000      -0.585949       -15.9445
  23   2.0000      -0.569494       -15.4967
  24   2.0000      -0.541479       -14.7344
  25   2.0000      -0.529133       -14.3985
  26   2.0000      -0.512090       -13.9347
  27   2.0000      -0.488554       -13.2942
  28   2.0000      -0.476383       -12.9630
  29   2.0000      -0.453558       -12.3420
  30   2.0000      -0.445523       -12.1233
  31   2.0000      -0.433147       -11.7865
  32   2.0000      -0.420242       -11.4354
  33   2.0000      -0.350679        -9.5425
  34   0.0000       0.132656         3.6097
  35   0.0000       0.147919         4.0251
  36   0.0000       0.160098         4.3565
  37   0.0000       0.167474         4.5572
  38   0.0000       0.178638         4.8610

MULLIKEN ATOMIC CHARGES
-----------------------
   0 C :   -0.404227
   1 C :   -0.204322
   2 C :   -0.065904
   3 N :   -0.389161
   4 C :    0.080600
   5 C :   -0.128877
   6 N :   -0.224082
   7 C :   -0.146897
   8 C :   -0.112609
   9 H :    0.141716
  10 H :    0.117861
  11 H :    0.133306
  12 H :    0.118019
  13 H :    0.105792
  14 H :    0.125872
  15 H :    0.218094
  16 H :    0.127237
  17 H :    0.121186
  18 H :    0.129835
  19 H :    0.122949
  20 H :    0.133612
Sum of atomic charges:    0.0000000

LOEWDIN ATOMIC CHARGES
----------------------
   0 C :   -0.315137
   1 C :   -0.275544
   2 C :   -0.239185
   3 N :    0.030169
   4 C :   -0.276291
   5 C :   -0.200467
   6 N :    0.101864
   7 C :   -0.248085
   8 C :   -0.189352
   9 H :    0.125762
  10 H :    0.119373
  11 H :    0.120608
  12 H :    0.143771
  13 H :    0.138499
  14 H :    0.140903
  15 H :    0.167747
  16 H :    0.136514
  17 H :    0.124634
  18 H :    0.132632
  19 H :    0.127285
  20 H :    0.134300

  Mayer bond orders larger than 0.1
B(  0-C ,  1-C ) :   0.9213 B(  0-C ,  9-H ) :   0.9392 B(  0-C , 10-H ) :   0.9372
B(  0-C , 11-H ) :   0.9410 B(  1-C ,  2-C ) :   0.8934 B(  1-C , 12-H ) :   0.9352
B(  1-C , 13-H ) :   0.9351 B(  2-C ,  3-N ) :   0.9428 B(  2-C ,  4-C ) :   0.8863
B(  2-C , 14-H ) :   0.9131 B(  3-N ,  4-C ) :   0.9287 B(  3-N , 15-H ) :   0.8687
B(  4-C ,  5-C ) :   0.9401 B(  4-C ,  8-C ) :   0.9562 B(  5-C ,  6-N ) :   0.9283
B(  5-C , 16-H ) :   0.9073 B(  5-C , 17-H ) :   0.9382 B(  6-N ,  7-C ) :   0.8878
B(  6-N ,  8-C ) :   0.9284 B(  7-C ,  8-C ) :   0.9492 B(  7-C , 18-H ) :   0.9236
B(  7-C , 19-H ) :   0.9069 B(  8-C , 20-H ) :   0.8843

MP2 TOTAL ENERGY:     -382.518578772 Eh
FINAL SINGLE POINT ENERGY      -382.518578771525

DIPOLE MOMENT
-------------
                                X             Y             Z
Electronic contribution:      1.91443      -6.68505      -3.49017
Nuclear contribution   :     -2.33585       7.37932       3.00414
                        -----------------------------------------
Total Dipole Moment    :     -0.42142       0.69427      -0.48603
                        -----------------------------------------
Magnitude (a.u.)       :      0.94648
Magnitude (Debye)      :      2.40576

                             ****ORCA TERMINATED NORMALLY****
TOTAL RUN TIME: 0 days 0 hours 30 minutes 27 seconds 35 msec
