                         Program Version 3.0.3 - RELEASE   -
|  1> ! RI-MP2 RIJK def2-TZVP def2-TZVP/C def2-TZVP/JK TIGHTSCF
|  2> % maxcore 2000
|  3> % mp2 density relaxed end
|  4> *xyz 0 1
|  5>  O       -0.0964075321     0.0426059114     0.1121408241
|  6>  C        0.0705475820     1.1901605570    -0.1306390642
|  7>  O        0.9073304507     1.9715367021     0.6449067611
|  8>  C        0.9917954886     3.2807789841     0.3320053251
|  9>  C        2.0209714362     4.0281465073    -0.0759769157
| 10>  N        1.5278989482     5.3379860541    -0.1316213585
| 11>  C        0.2032451471     5.3768984385     0.2304882833
| 12>  O       -0.5631353315     6.2933223718     0.2945308601
| 13>  O       -0.1274746024     4.0508075405     0.5309553517
| 14>  H       -0.3809529340     1.7612538047    -0.9580959731
| 15>  H        3.0353672261     3.7617503550    -0.3108673637
| 16>  H        2.0355768712     6.1643153037    -0.3940243402
| 17> *
| 18>
| 19>                          ****END OF INPUT****

CARTESIAN COORDINATES (ANGSTROEM)
---------------------------------
  O     -0.096408    0.042606    0.112141
  C      0.070548    1.190161   -0.130639
  O      0.907330    1.971537    0.644907
  C      0.991795    3.280779    0.332005
  C      2.020971    4.028147   -0.075977
  N      1.527899    5.337986   -0.131621
  C      0.203245    5.376898    0.230488
  O     -0.563135    6.293322    0.294531
  O     -0.127475    4.050808    0.530955
  H     -0.380953    1.761254   -0.958096
  H      3.035367    3.761750   -0.310867
  H      2.035577    6.164315   -0.394024

 Total Charge           Charge          ....    0
 Multiplicity           Mult            ....    1
 Number of Electrons    NEL             ....   66
 Basis Dimension        Dim             ....  297

ORBITAL ENERGIES
----------------

  NO   OCC          E(Eh)            E(eV)
   0   2.0000     -20.657558      -562.1207
   1   2.0000     -20.654832      -562.0465
   2   2.0000     -20.587782      -560.2220
   3   2.0000     -20.552797      -559.2700
   4   2.0000     -15.640761      -425.6067
   5   2.0000     -11.434759      -311.1556
   6   2.0000     -11.416928      -310.6704
   7   2.0000     -11.389603      -309.9269
   8   2.0000     -11.311487      -307.8012
   9   2.0000      -1.536908       -41.8214
  10   2.0000      -1.492864       -40.6229
  11   2.0000      -1.421793       -38.6889
  12   2.0000      -1.394953       -37.9586
  13   2.0000      -1.290059       -35.1043
  14   2.0000      -1.061831       -28.8939
  15   2.0000      -0.925535       -25.1851
  16   2.0000      -0.896806       -24.4033
  17   2.0000      -0.862210       -23.4619
  18   2.0000      -0.805673       -21.9235
  19   2.0000      -0.731532       -19.9060
  20   2.0000      -0.721620       -19.6363
  21   2.0000      -0.704591       -19.1729
  22   2.0000      -0.688289       -18.7293
  23   2.0000      -0.663400       -18.0520
  24   2.0000      -0.643983       -17.5237
  25   2.0000      -0.630373       -17.1533
  26   2.0000      -0.614158       -16.7121
  27   2.0000      -0.554343       -15.0845
  28   2.0000      -0.527695       -14.3593
  29   2.0000      -0.515144       -14.0178
  30   2.0000      -0.495149       -13.4737
  31   2.0000      -0.484022       -13.1709
  32   2.0000      -0.351350        -9.5607
  33   0.0000       0.115246         3.1360
  34   0.0000       0.124597         3.3905
  35   0.0000       0.140813         3.8317
  36   0.0000       0.157857         4.2955
  37   0.0000       0.162321         4.4170

MULLIKEN ATOMIC CHARGES
-----------------------
   0 O :   -0.224089
   1 C :    0.202314
   2 O :   -0.215571
   3 C :    0.258120
   4 C :   -0.119344
   5 N :   -0.279560
   6 C :    0.327017
   7 O :   -0.307528
   8 O :   -0.207124
   9 H :    0.114988
  10 H :    0.180803
  11 H :    0.269976
Sum of atomic charges:    0.0000000

LOEWDIN ATOMIC CHARGES
----------------------
   0 O :    0.164310
   1 C :   -0.387050
   2 O :    0.304234
   3 C :   -0.397884
   4 C :   -0.207234
   5 N :    0.155356
   6 C :   -0.523904
   7 O :    0.109793
   8 O :    0.316094
   9 H :    0.116872
  10 H :    0.148424
  11 H :    0.200987

  Mayer bond orders larger than 0.1
B(  0-O ,  1-C ) :   2.0679 B(  1-C ,  2-O ) :   0.9458 B(  1-C ,  9-H ) :   0.9144
B(  2-O ,  3-C ) :   1.0315 B(  3-C ,  4-C ) :   1.7004 B(  3-C ,  8-O ) :   1.0238
B(  4-C ,  5-N ) :   1.0065 B(  4-C , 10-H ) :   0.8972 B(  5-N ,  6-C ) :   1.1366
B(  5-N , 11-H ) :   0.8626 B(  6-C ,  7-O ) :   2.0300 B(  6-C ,  8-O ) :   0.9955

MP2 TOTAL ENERGY:     -509.032807418 Eh
FINAL SINGLE POINT ENERGY      -509.032807418391

DIPOLE MOMENT
-------------
                                X             Y             Z
Electronic contribution:     -1.32957      -0.63465       1.23853
Nuclear contribution   :      2.90387       1.11792      -2.11912
                        -----------------------------------------
Total Dipole Moment    :      1.57430       0.48327      -0.88059
                        -----------------------------------------
Magnitude (a.u.)       :      1.86745
Magnitude (Debye)      :      4.74669

                             ****ORCA TERMINATED NORMALLY****
TOTAL RUN TIME: 0 days 0 hours 10 minutes 37 seconds 554 msec
