                         Program Version 3.0.3 - RELEASE   -
|  1> ! RI-MP2 RIJK def2-TZVP def2-TZVP/C def2-TZVP/JK TIGHTSCF
|  2> % maxcore 2000
|  3> % mp2 density relaxed end
|  4> *xyz 0 1
|  5>  C        0.4874153747     1.4303504100     0.1351145264
|  6>  O        1.0211190838     0.2138910733    -0.3995080436
|  7>  C       -0.3246434933     0.2089120171     0.0775463718
|  8>  C       -0.5847236730    -0.6259193742     1.2880161788
|  9>  C        0.5256162602    -1.0115987184     2.2428526095
| 10>  C       -0.1827845786    -2.0855153993     1.4705698431
| 11>  O       -1.2950497163    -2.6979966015     2.1100694221
| 12>  C       -2.1877611919    -1.6931942948     2.3001645163
| 13>  N       -1.9103514409    -0.5288046958     1.8680780486
| 14>  H        0.9085228991     1.7424613880     1.0888340018
| 15>  H        0.3209924102     2.2229703649    -0.5918146078
| 16>  H       -1.0837747091     0.1313488286    -0.7011951656
| 17>  H        1.5301858500    -0.7943894061     1.8979850548
| 18>  H        0.3480829775    -0.9177025837     3.3087987097
| 19>  H        0.3125252101    -2.7317997718     0.7585700522
| 20>  H       -3.0941211524    -1.9815339761     2.8181008018
| 21> *
| 22>
| 23>                          ****END OF INPUT****

CARTESIAN COORDINATES (ANGSTROEM)
---------------------------------
  C      0.487415    1.430350    0.135115
  O      1.021119    0.213891   -0.399508
  C     -0.324643    0.208912    0.077546
  C     -0.584724   -0.625919    1.288016
  C      0.525616   -1.011599    2.242853
  C     -0.182785   -2.085515    1.470570
  O     -1.295050   -2.697997    2.110069
  C     -2.187761   -1.693194    2.300165
  N     -1.910351   -0.528805    1.868078
  H      0.908523    1.742461    1.088834
  H      0.320992    2.222970   -0.591815
  H     -1.083775    0.131349   -0.701195
  H      1.530186   -0.794389    1.897985
  H      0.348083   -0.917703    3.308799
  H      0.312525   -2.731800    0.758570
  H     -3.094121   -1.981534    2.818101

 Total Charge           Charge          ....    0
 Multiplicity           Mult            ....    1
 Number of Electrons    NEL             ....   66
 Basis Dimension        Dim             ....  321

ORBITAL ENERGIES
----------------

  NO   OCC          E(Eh)            E(eV)
   0   2.0000     -20.611024      -560.8545
   1   2.0000     -20.576607      -559.9179
   2   2.0000     -15.562119      -423.4668
   3   2.0000     -11.342454      -308.6439
   4   2.0000     -11.301816      -307.5381
   5   2.0000     -11.296414      -307.3910
   6   2.0000     -11.288083      -307.1644
   7   2.0000     -11.282220      -307.0048
   8   2.0000     -11.240399      -305.8668
   9   2.0000      -1.458600       -39.6905
  10   2.0000      -1.419684       -38.6316
  11   2.0000      -1.236404       -33.6443
  12   2.0000      -1.130901       -30.7734
  13   2.0000      -0.958659       -26.0864
  14   2.0000      -0.900263       -24.4974
  15   2.0000      -0.886304       -24.1176
  16   2.0000      -0.812454       -22.1080
  17   2.0000      -0.777571       -21.1588
  18   2.0000      -0.739915       -20.1341
  19   2.0000      -0.695926       -18.9371
  20   2.0000      -0.669153       -18.2086
  21   2.0000      -0.646464       -17.5912
  22   2.0000      -0.614896       -16.7322
  23   2.0000      -0.610130       -16.6025
  24   2.0000      -0.563318       -15.3287
  25   2.0000      -0.556265       -15.1367
  26   2.0000      -0.537068       -14.6144
  27   2.0000      -0.506753       -13.7895
  28   2.0000      -0.487582       -13.2678
  29   2.0000      -0.462489       -12.5850
  30   2.0000      -0.456315       -12.4170
  31   2.0000      -0.395001       -10.7485
  32   2.0000      -0.374039       -10.1781
  33   0.0000       0.149851         4.0776
  34   0.0000       0.160426         4.3654
  35   0.0000       0.168538         4.5861
  36   0.0000       0.171530         4.6676
  37   0.0000       0.178500         4.8572

MULLIKEN ATOMIC CHARGES
-----------------------
   0 C :   -0.080926
   1 O :   -0.338223
   2 C :    0.013887
   3 C :    0.144449
   4 C :   -0.273041
   5 C :   -0.005185
   6 O :   -0.255157
   7 C :    0.090883
   8 N :   -0.285020
   9 H :    0.125219
  10 H :    0.123669
  11 H :    0.132397
  12 H :    0.157457
  13 H :    0.144982
  14 H :    0.153369
  15 H :    0.151240
Sum of atomic charges:    0.0000000

LOEWDIN ATOMIC CHARGES
----------------------
   0 C :   -0.248577
   1 O :    0.149830
   2 C :   -0.252873
   3 C :   -0.265005
   4 C :   -0.179831
   5 C :   -0.216888
   6 O :    0.258169
   7 C :   -0.327629
   8 N :    0.119925
   9 H :    0.124011
  10 H :    0.121820
  11 H :    0.145349
  12 H :    0.151446
  13 H :    0.142010
  14 H :    0.143216
  15 H :    0.135027

  Mayer bond orders larger than 0.1
B(  0-C ,  1-O ) :   0.8895 B(  0-C ,  2-C ) :   0.9744 B(  0-C ,  9-H ) :   0.9055
B(  0-C , 10-H ) :   0.9244 B(  1-O ,  2-C ) :   0.9054 B(  2-C ,  3-C ) :   0.9502
B(  2-C , 11-H ) :   0.9093 B(  3-C ,  4-C ) :   0.8438 B(  3-C ,  5-C ) :   0.8855
B(  3-C ,  8-N ) :   0.9360 B(  4-C ,  5-C ) :   0.8913 B(  4-C , 12-H ) :   0.9107
B(  4-C , 13-H ) :   0.8970 B(  5-C ,  6-O ) :   0.9023 B(  5-C , 14-H ) :   0.9102
B(  6-O ,  7-C ) :   1.0768 B(  7-C ,  8-N ) :   1.7954 B(  7-C , 15-H ) :   0.9230

MP2 TOTAL ENERGY:     -437.126461655 Eh
FINAL SINGLE POINT ENERGY      -437.126461654591

DIPOLE MOMENT
-------------
                                X             Y             Z
Electronic contribution:     -2.36627      -2.71639       0.13841
Nuclear contribution   :      2.39478       2.78109       0.04123
                        -----------------------------------------
Total Dipole Moment    :      0.02851       0.06470       0.17963
                        -----------------------------------------
Magnitude (a.u.)       :      0.19305
Magnitude (Debye)      :      0.49069

                             ****ORCA TERMINATED NORMALLY****
TOTAL RUN TIME: 0 days 0 hours 16 minutes 14 seconds 532 msec
