                         Program Version 3.0.3 - RELEASE   -
|  1> ! RI-MP2 RIJK def2-TZVP def2-TZVP/C def2-TZVP/JK TIGHTSCF
|  2> % maxcore 2000
|  3> % mp2 density relaxed end
|  4> *xyz 0 1
|  5>  O        0.0186757026     1.5462708727    -0.0910289738
|  6>  C        0.1338630514     0.1366939146    -0.0419513979
|  7>  C       -1.2471555022    -0.5084184317     0.0354182124
|  8>  C       -2.0023772327    -0.5588205040    -1.3434424683
|  9>  C       -1.5768134270    -2.0753887050    -1.4609157874
| 10>  C       -1.3748339914    -1.9974078778     0.0381032678
| 11>  C       -1.8832336938    -2.4173809525     1.1900802306
| 12>  C       -2.0270610495    -1.2031569452     2.0986742465
| 13>  O       -1.8855743190    -0.0578104947     1.2307155366
| 14>  H       -0.5443994442     1.7858899769     0.6553422008
| 15>  H        0.6614581534    -0.1715190513    -0.9507235706
| 16>  H        0.7318369228    -0.1913622921     0.8232003185
| 17>  H       -3.0794584161    -0.4560540324    -1.2046570869
| 18>  H       -1.6489120138     0.1242464626    -2.1185850973
| 19>  H       -2.3145978156    -2.7907861764    -1.8272888208
| 20>  H       -0.6521031744    -2.1910521736    -2.0336845375
| 21>  H       -2.2942920035    -3.3879649490     1.4377012625
| 22>  H       -3.0202459184    -1.1663351485     2.5641552535
| 23>  H       -1.2820989286    -1.1583540226     2.9085981913
| 24> *
| 25>
| 26>                          ****END OF INPUT****

CARTESIAN COORDINATES (ANGSTROEM)
---------------------------------
  O      0.018676    1.546271   -0.091029
  C      0.133863    0.136694   -0.041951
  C     -1.247156   -0.508418    0.035418
  C     -2.002377   -0.558821   -1.343442
  C     -1.576813   -2.075389   -1.460916
  C     -1.374834   -1.997408    0.038103
  C     -1.883234   -2.417381    1.190080
  C     -2.027061   -1.203157    2.098674
  O     -1.885574   -0.057810    1.230716
  H     -0.544399    1.785890    0.655342
  H      0.661458   -0.171519   -0.950724
  H      0.731837   -0.191362    0.823200
  H     -3.079458   -0.456054   -1.204657
  H     -1.648912    0.124246   -2.118585
  H     -2.314598   -2.790786   -1.827289
  H     -0.652103   -2.191052   -2.033685
  H     -2.294292   -3.387965    1.437701
  H     -3.020246   -1.166335    2.564155
  H     -1.282099   -1.158354    2.908598

 Total Charge           Charge          ....    0
 Multiplicity           Mult            ....    1
 Number of Electrons    NEL             ....   68
 Basis Dimension        Dim             ....  339

ORBITAL ENERGIES
----------------

  NO   OCC          E(Eh)            E(eV)
   0   2.0000     -20.559532      -559.4533
   1   2.0000     -20.548981      -559.1662
   2   2.0000     -11.287704      -307.1541
   3   2.0000     -11.282910      -307.0236
   4   2.0000     -11.273512      -306.7679
   5   2.0000     -11.248372      -306.0838
   6   2.0000     -11.240022      -305.8565
   7   2.0000     -11.236016      -305.7475
   8   2.0000     -11.235625      -305.7369
   9   2.0000      -1.387203       -37.7477
  10   2.0000      -1.350517       -36.7494
  11   2.0000      -1.148879       -31.2626
  12   2.0000      -1.043585       -28.3974
  13   2.0000      -0.962946       -26.2031
  14   2.0000      -0.903964       -24.5981
  15   2.0000      -0.868960       -23.6456
  16   2.0000      -0.794139       -21.6096
  17   2.0000      -0.736527       -20.0419
  18   2.0000      -0.684248       -18.6193
  19   2.0000      -0.675068       -18.3695
  20   2.0000      -0.651436       -17.7265
  21   2.0000      -0.635361       -17.2891
  22   2.0000      -0.612550       -16.6683
  23   2.0000      -0.587263       -15.9802
  24   2.0000      -0.578204       -15.7337
  25   2.0000      -0.539424       -14.6785
  26   2.0000      -0.519143       -14.1266
  27   2.0000      -0.508984       -13.8502
  28   2.0000      -0.503749       -13.7077
  29   2.0000      -0.481366       -13.0986
  30   2.0000      -0.459680       -12.5085
  31   2.0000      -0.448179       -12.1956
  32   2.0000      -0.416775       -11.3410
  33   2.0000      -0.344782        -9.3820
  34   0.0000       0.128246         3.4898
  35   0.0000       0.141310         3.8452
  36   0.0000       0.155023         4.2184
  37   0.0000       0.167668         4.5625
  38   0.0000       0.175306         4.7703

MULLIKEN ATOMIC CHARGES
-----------------------
   0 O :   -0.473283
   1 C :   -0.042931
   2 C :    0.239441
   3 C :   -0.229549
   4 C :   -0.225277
   5 C :   -0.076039
   6 C :   -0.261311
   7 C :    0.016492
   8 O :   -0.361915
   9 H :    0.327337
  10 H :    0.102552
  11 H :    0.099904
  12 H :    0.121246
  13 H :    0.135529
  14 H :    0.130063
  15 H :    0.137216
  16 H :    0.138434
  17 H :    0.119758
  18 H :    0.102334
Sum of atomic charges:   -0.0000000

LOEWDIN ATOMIC CHARGES
----------------------
   0 O :   -0.041263
   1 C :   -0.301934
   2 C :   -0.301361
   3 C :   -0.169499
   4 C :   -0.188544
   5 C :   -0.138790
   6 C :   -0.137699
   7 C :   -0.262615
   8 O :    0.170546
   9 H :    0.179493
  10 H :    0.132912
  11 H :    0.122992
  12 H :    0.140368
  13 H :    0.132356
  14 H :    0.132559
  15 H :    0.141000
  16 H :    0.138810
  17 H :    0.127912
  18 H :    0.122757

  Mayer bond orders larger than 0.1
B(  0-O ,  1-C ) :   0.9311 B(  0-O ,  9-H ) :   0.8315 B(  1-C ,  2-C ) :   0.9597
B(  1-C , 10-H ) :   0.9162 B(  1-C , 11-H ) :   0.9138 B(  2-C ,  3-C ) :   0.8499
B(  2-C ,  5-C ) :   0.8959 B(  2-C ,  8-O ) :   0.8816 B(  3-C ,  4-C ) :   0.9307
B(  3-C , 12-H ) :   0.9139 B(  3-C , 13-H ) :   0.9169 B(  4-C ,  5-C ) :   0.9210
B(  4-C , 14-H ) :   0.9159 B(  4-C , 15-H ) :   0.9223 B(  5-C ,  6-C ) :   1.7857
B(  6-C ,  7-C ) :   0.9683 B(  6-C , 16-H ) :   0.9147 B(  7-C ,  8-O ) :   0.9200
B(  7-C , 17-H ) :   0.9232 B(  7-C , 18-H ) :   0.9039

MP2 TOTAL ENERGY:     -422.285341814 Eh
FINAL SINGLE POINT ENERGY      -422.285341814187

DIPOLE MOMENT
-------------
                                X             Y             Z
Electronic contribution:      0.09615       1.39911       1.74249
Nuclear contribution   :     -0.45991      -2.31465      -1.58649
                        -----------------------------------------
Total Dipole Moment    :     -0.36376      -0.91553       0.15600
                        -----------------------------------------
Magnitude (a.u.)       :      0.99743
Magnitude (Debye)      :      2.53525

                             ****ORCA TERMINATED NORMALLY****
TOTAL RUN TIME: 0 days 0 hours 18 minutes 41 seconds 88 msec
