                         Program Version 3.0.3 - RELEASE   -
|  1> ! RI-MP2 RIJK def2-TZVP def2-TZVP/C def2-TZVP/JK TIGHTSCF
|  2> % maxcore 2000
|  3> % mp2 density relaxed end
|  4> *xyz 0 1
|  5>  O       -0.2417696813     1.5511847138    -0.4199527193
|  6>  C       -0.0660362736     0.1794278951    -0.0973957365
|  7>  C       -1.4489147094    -0.4504843370     0.0184621518
|  8>  C       -1.3875231322    -1.9245909918     0.3704827642
|  9>  C       -2.6813454222    -2.7541182036     0.2353595323
| 10>  C       -1.8820204318    -3.5832155898    -0.8071511900
| 11>  O       -0.7299656127    -2.7153390417    -0.6582439857
| 12>  C       -1.6089871408    -4.9715595920    -0.4693627732
| 13>  C       -1.3962166745    -6.1204193490    -0.1865474521
| 14>  H        0.6264168815     1.9369205886    -0.5678402030
| 15>  H        0.5071117341    -0.3493450182    -0.8724281680
| 16>  H        0.4774591784     0.0598872689     0.8548249715
| 17>  H       -2.0221930648     0.0790097113     0.7903294455
| 18>  H       -1.9803670082    -0.3178716765    -0.9310769548
| 19>  H       -0.8756070798    -2.0655287224     1.3328426235
| 20>  H       -2.9938825992    -3.3051603741     1.1214547931
| 21>  H       -3.5306859021    -2.2112113667    -0.1826158530
| 22>  H       -2.2768827813    -3.5252859948    -1.8291313000
| 23>  H       -1.2030314701    -7.1357242403     0.0581618735
| 24> *
| 25>
| 26>                          ****END OF INPUT****

CARTESIAN COORDINATES (ANGSTROEM)
---------------------------------
  O     -0.241770    1.551185   -0.419953
  C     -0.066036    0.179428   -0.097396
  C     -1.448915   -0.450484    0.018462
  C     -1.387523   -1.924591    0.370483
  C     -2.681345   -2.754118    0.235360
  C     -1.882020   -3.583216   -0.807151
  O     -0.729966   -2.715339   -0.658244
  C     -1.608987   -4.971560   -0.469363
  C     -1.396217   -6.120419   -0.186547
  H      0.626417    1.936921   -0.567840
  H      0.507112   -0.349345   -0.872428
  H      0.477459    0.059887    0.854825
  H     -2.022193    0.079010    0.790329
  H     -1.980367   -0.317872   -0.931077
  H     -0.875607   -2.065529    1.332843
  H     -2.993883   -3.305160    1.121455
  H     -3.530686   -2.211211   -0.182616
  H     -2.276883   -3.525286   -1.829131
  H     -1.203031   -7.135724    0.058162

 Total Charge           Charge          ....    0
 Multiplicity           Mult            ....    1
 Number of Electrons    NEL             ....   68
 Basis Dimension        Dim             ....  339

ORBITAL ENERGIES
----------------

  NO   OCC          E(Eh)            E(eV)
   0   2.0000     -20.555961      -559.3561
   1   2.0000     -20.554833      -559.3254
   2   2.0000     -11.313566      -307.8578
   3   2.0000     -11.289875      -307.2131
   4   2.0000     -11.274210      -306.7868
   5   2.0000     -11.241246      -305.8899
   6   2.0000     -11.236527      -305.7614
   7   2.0000     -11.230688      -305.6026
   8   2.0000     -11.223777      -305.4145
   9   2.0000      -1.386455       -37.7273
  10   2.0000      -1.358556       -36.9682
  11   2.0000      -1.062312       -28.9070
  12   2.0000      -1.054461       -28.6933
  13   2.0000      -1.001534       -27.2531
  14   2.0000      -0.930147       -25.3106
  15   2.0000      -0.842944       -22.9377
  16   2.0000      -0.784050       -21.3351
  17   2.0000      -0.725497       -19.7418
  18   2.0000      -0.704198       -19.1622
  19   2.0000      -0.689958       -18.7747
  20   2.0000      -0.661288       -17.9946
  21   2.0000      -0.655745       -17.8437
  22   2.0000      -0.614009       -16.7080
  23   2.0000      -0.591377       -16.0922
  24   2.0000      -0.561947       -15.2913
  25   2.0000      -0.548674       -14.9302
  26   2.0000      -0.523295       -14.2396
  27   2.0000      -0.503703       -13.7065
  28   2.0000      -0.485231       -13.2038
  29   2.0000      -0.458933       -12.4882
  30   2.0000      -0.443082       -12.0569
  31   2.0000      -0.431089       -11.7305
  32   2.0000      -0.398772       -10.8511
  33   2.0000      -0.387586       -10.5467
  34   0.0000       0.138926         3.7804
  35   0.0000       0.141622         3.8537
  36   0.0000       0.151838         4.1317
  37   0.0000       0.157443         4.2842
  38   0.0000       0.164261         4.4698

MULLIKEN ATOMIC CHARGES
-----------------------
   0 O :   -0.466370
   1 C :   -0.079969
   2 C :   -0.182391
   3 C :    0.082741
   4 C :   -0.284823
   5 C :    0.026877
   6 O :   -0.334217
   7 C :   -0.079194
   8 C :   -0.114634
   9 H :    0.316613
  10 H :    0.119699
  11 H :    0.087259
  12 H :    0.115693
  13 H :    0.109440
  14 H :    0.093286
  15 H :    0.143660
  16 H :    0.133880
  17 H :    0.118515
  18 H :    0.193934
Sum of atomic charges:   -0.0000000

LOEWDIN ATOMIC CHARGES
----------------------
   0 O :   -0.053149
   1 C :   -0.347495
   2 C :   -0.255862
   3 C :   -0.273921
   4 C :   -0.184511
   5 C :   -0.266331
   6 O :    0.159685
   7 C :   -0.086891
   8 C :   -0.082329
   9 H :    0.172406
  10 H :    0.121017
  11 H :    0.114579
  12 H :    0.147053
  13 H :    0.144385
  14 H :    0.137782
  15 H :    0.137238
  16 H :    0.136167
  17 H :    0.152028
  18 H :    0.128151

  Mayer bond orders larger than 0.1
B(  0-O ,  1-C ) :   1.0137 B(  0-O ,  9-H ) :   0.8490 B(  1-C ,  2-C ) :   0.9348
B(  1-C , 10-H ) :   0.9324 B(  1-C , 11-H ) :   0.9287 B(  2-C ,  3-C ) :   0.9338
B(  2-C , 12-H ) :   0.9206 B(  2-C , 13-H ) :   0.9117 B(  3-C ,  4-C ) :   0.9219
B(  3-C ,  6-O ) :   0.8973 B(  3-C , 14-H ) :   0.9095 B(  4-C ,  5-C ) :   0.9257
B(  4-C , 15-H ) :   0.9327 B(  4-C , 16-H ) :   0.9311 B(  5-C ,  6-O ) :   0.9353
B(  5-C ,  7-C ) :   1.1720 B(  5-C , 17-H ) :   0.9113 B(  7-C ,  8-C ) :   2.5729
B(  8-C , 18-H ) :   0.8946

MP2 TOTAL ENERGY:     -422.253467412 Eh
FINAL SINGLE POINT ENERGY      -422.253467412379

DIPOLE MOMENT
-------------
                                X             Y             Z
Electronic contribution:      0.83027      -4.55944      -1.56969
Nuclear contribution   :     -0.92526       4.42932       1.91518
                        -----------------------------------------
Total Dipole Moment    :     -0.09499      -0.13012       0.34549
                        -----------------------------------------
Magnitude (a.u.)       :      0.38120
Magnitude (Debye)      :      0.96894

                             ****ORCA TERMINATED NORMALLY****
TOTAL RUN TIME: 0 days 0 hours 15 minutes 58 seconds 825 msec
