                         Program Version 3.0.3 - RELEASE   -
|  1> ! RI-MP2 RIJK def2-TZVP def2-TZVP/C def2-TZVP/JK TIGHTSCF
|  2> % maxcore 2000
|  3> % mp2 density relaxed end
|  4> *xyz 0 1
|  5>  C       -0.3092306011     1.5032492966    -0.6213585538
|  6>  C       -0.1225992332     0.0358336740    -0.2707870548
|  7>  O        0.6360355868    -0.5739487123    -1.2933533848
|  8>  C        0.9292051364    -1.9504205329    -1.0842142751
|  9>  C       -0.2488579979    -2.8593649327    -1.4942584024
| 10>  C       -0.0724941725    -3.1151201341    -3.0203835634
| 11>  C        1.2822882111    -2.4694747919    -3.4004686949
| 12>  C        2.0456582682    -2.3446468065    -2.0685680964
| 13>  C        3.2528696554    -1.4107302713    -2.0909793458
| 14>  H        0.6596636499     2.0023388752    -0.7132083652
| 15>  H       -0.8372352296     1.6052731553    -1.5738865196
| 16>  H       -0.8908491293     2.0108598232     0.1541093691
| 17>  H        0.3971313705    -0.0681535576     0.6971004674
| 18>  H       -1.1035662985    -0.4541050045    -0.1593406875
| 19>  H        1.2273506799    -2.1012362725    -0.0351566579
| 20>  H       -0.1985516543    -3.7987856656    -0.9336321562
| 21>  H       -1.2101032174    -2.3997752104    -1.2503704073
| 22>  H       -0.0646017434    -4.1896849721    -3.2270144325
| 23>  H       -0.8954351642    -2.6925059819    -3.6023566559
| 24>  H        1.8334342150    -3.0483359548    -4.1473467579
| 25>  H        1.1243088289    -1.4677531258    -3.8135659758
| 26>  H        2.3762915257    -3.3493201646    -1.7676051422
| 27>  H        2.9448585572    -0.3905991639    -2.3322706684
| 28>  H        3.7577436600    -1.3880870712    -1.1188032936
| 29>  H        3.9848807065    -1.7371357177    -2.8371521652
| 30> *
| 31>
| 32>                          ****END OF INPUT****

CARTESIAN COORDINATES (ANGSTROEM)
---------------------------------
  C     -0.309231    1.503249   -0.621359
  C     -0.122599    0.035834   -0.270787
  O      0.636036   -0.573949   -1.293353
  C      0.929205   -1.950421   -1.084214
  C     -0.248858   -2.859365   -1.494258
  C     -0.072494   -3.115120   -3.020384
  C      1.282288   -2.469475   -3.400469
  C      2.045658   -2.344647   -2.068568
  C      3.252870   -1.410730   -2.090979
  H      0.659664    2.002339   -0.713208
  H     -0.837235    1.605273   -1.573887
  H     -0.890849    2.010860    0.154109
  H      0.397131   -0.068154    0.697100
  H     -1.103566   -0.454105   -0.159341
  H      1.227351   -2.101236   -0.035157
  H     -0.198552   -3.798786   -0.933632
  H     -1.210103   -2.399775   -1.250370
  H     -0.064602   -4.189685   -3.227014
  H     -0.895435   -2.692506   -3.602357
  H      1.833434   -3.048336   -4.147347
  H      1.124309   -1.467753   -3.813566
  H      2.376292   -3.349320   -1.767605
  H      2.944859   -0.390599   -2.332271
  H      3.757744   -1.388087   -1.118803
  H      3.984881   -1.737136   -2.837152

 Total Charge           Charge          ....    0
 Multiplicity           Mult            ....    1
 Number of Electrons    NEL             ....   72
 Basis Dimension        Dim             ....  375

ORBITAL ENERGIES
----------------

  NO   OCC          E(Eh)            E(eV)
   0   2.0000     -20.544201      -559.0361
   1   2.0000     -11.270464      -306.6849
   2   2.0000     -11.268448      -306.6301
   3   2.0000     -11.217055      -305.2316
   4   2.0000     -11.213172      -305.1259
   5   2.0000     -11.212141      -305.0979
   6   2.0000     -11.211598      -305.0831
   7   2.0000     -11.206962      -304.9569
   8   2.0000     -11.202035      -304.8229
   9   2.0000      -1.368233       -37.2315
  10   2.0000      -1.113890       -30.3105
  11   2.0000      -1.012468       -27.5507
  12   2.0000      -0.999818       -27.2064
  13   2.0000      -0.941998       -25.6331
  14   2.0000      -0.884888       -24.0790
  15   2.0000      -0.833388       -22.6776
  16   2.0000      -0.772687       -21.0259
  17   2.0000      -0.753213       -20.4960
  18   2.0000      -0.678931       -18.4746
  19   2.0000      -0.645707       -17.5706
  20   2.0000      -0.636766       -17.3273
  21   2.0000      -0.610567       -16.6144
  22   2.0000      -0.597589       -16.2612
  23   2.0000      -0.565767       -15.3953
  24   2.0000      -0.545343       -14.8395
  25   2.0000      -0.540073       -14.6961
  26   2.0000      -0.526522       -14.3274
  27   2.0000      -0.522848       -14.2274
  28   2.0000      -0.495958       -13.4957
  29   2.0000      -0.481405       -13.0997
  30   2.0000      -0.466031       -12.6814
  31   2.0000      -0.462269       -12.5790
  32   2.0000      -0.457023       -12.4362
  33   2.0000      -0.448439       -12.2026
  34   2.0000      -0.436629       -11.8813
  35   2.0000      -0.402680       -10.9575
  36   0.0000       0.132696         3.6108
  37   0.0000       0.150080         4.0839
  38   0.0000       0.158455         4.3118
  39   0.0000       0.164913         4.4875
  40   0.0000       0.185138         5.0379

MULLIKEN ATOMIC CHARGES
-----------------------
   0 C :   -0.366736
   1 C :   -0.056517
   2 O :   -0.313701
   3 C :    0.090565
   4 C :   -0.257315
   5 C :   -0.214589
   6 C :   -0.259051
   7 C :    0.000718
   8 C :   -0.417212
   9 H :    0.129349
  10 H :    0.127979
  11 H :    0.121160
  12 H :    0.090052
  13 H :    0.086121
  14 H :    0.077878
  15 H :    0.115964
  16 H :    0.114403
  17 H :    0.110701
  18 H :    0.112647
  19 H :    0.118309
  20 H :    0.112652
  21 H :    0.084327
  22 H :    0.142211
  23 H :    0.121877
  24 H :    0.128207
Sum of atomic charges:   -0.0000000

LOEWDIN ATOMIC CHARGES
----------------------
   0 C :   -0.318026
   1 C :   -0.356167
   2 O :    0.185692
   3 C :   -0.295597
   4 C :   -0.237899
   5 C :   -0.250020
   6 C :   -0.236781
   7 C :   -0.258439
   8 C :   -0.296648
   9 H :    0.123229
  10 H :    0.123287
  11 H :    0.123463
  12 H :    0.115602
  13 H :    0.114345
  14 H :    0.132177
  15 H :    0.136126
  16 H :    0.133289
  17 H :    0.131740
  18 H :    0.131919
  19 H :    0.130776
  20 H :    0.140343
  21 H :    0.155920
  22 H :    0.126785
  23 H :    0.122299
  24 H :    0.122587

  Mayer bond orders larger than 0.1
B(  0-C ,  1-C ) :   0.9551 B(  0-C ,  9-H ) :   0.9365 B(  0-C , 10-H ) :   0.9364
B(  0-C , 11-H ) :   0.9334 B(  1-C ,  2-O ) :   0.9263 B(  1-C , 12-H ) :   0.9250
B(  1-C , 13-H ) :   0.9189 B(  2-O ,  3-C ) :   0.9317 B(  3-C ,  4-C ) :   0.9284
B(  3-C ,  7-C ) :   0.8909 B(  3-C , 14-H ) :   0.9305 B(  4-C ,  5-C ) :   0.9465
B(  4-C , 15-H ) :   0.9254 B(  4-C , 16-H ) :   0.9253 B(  5-C ,  6-C ) :   0.9516
B(  5-C , 17-H ) :   0.9391 B(  5-C , 18-H ) :   0.9300 B(  6-C ,  7-C ) :   0.9492
B(  6-C , 19-H ) :   0.9297 B(  6-C , 20-H ) :   0.9193 B(  7-C ,  8-C ) :   0.8999
B(  7-C , 21-H ) :   0.9243 B(  8-C , 22-H ) :   0.9355 B(  8-C , 23-H ) :   0.9385
B(  8-C , 24-H ) :   0.9399

MP2 TOTAL ENERGY:     -388.833082150 Eh
FINAL SINGLE POINT ENERGY      -388.833082149921

DIPOLE MOMENT
-------------
                                X             Y             Z
Electronic contribution:     -0.21626      -1.39140       0.01598
Nuclear contribution   :      0.05310       1.21416       0.32084
                        -----------------------------------------
Total Dipole Moment    :     -0.16317      -0.17724       0.33682
                        -----------------------------------------
Magnitude (a.u.)       :      0.41410
Magnitude (Debye)      :      1.05257

                             ****ORCA TERMINATED NORMALLY****
TOTAL RUN TIME: 0 days 0 hours 20 minutes 50 seconds 171 msec
