                         Program Version 3.0.3 - RELEASE   -
|  1> ! RI-MP2 RIJK def2-TZVP def2-TZVP/C def2-TZVP/JK TIGHTSCF
|  2> % maxcore 2000
|  3> % mp2 density relaxed end
|  4> *xyz 0 1
|  5>  C       -0.0394945434     1.5431214250     0.0089858683
|  6>  C        1.4630042172     1.8496558417     0.0614528911
|  7>  C        2.1123124640     1.4506768260     1.3886980055
|  8>  C        1.6952735831     0.0259463217     1.6553049368
|  9>  O        0.4349551857    -0.4728116087     1.2833953389
| 10>  C        0.0065016885     0.0030378502    -0.0011522225
| 11>  C        1.1110131794    -0.2597803348    -1.0353924513
| 12>  N        2.1730056784     0.6921580156    -0.6395309190
| 13>  C        2.7745732331     0.2844772893     0.6490628806
| 14>  H       -0.5832934103     1.9359884128     0.8712750945
| 15>  H       -0.5034131498     1.9208922021    -0.9078444854
| 16>  H        1.7601071831     2.8186336927    -0.3425012320
| 17>  H        2.5053811480     2.1170575620     2.1457506798
| 18>  H        1.9969724312    -0.3954678580     2.6080461398
| 19>  H       -0.9493691884    -0.4845377454    -0.2006416351
| 20>  H        1.4860017917    -1.2861058308    -1.0036162590
| 21>  H        0.7648079877    -0.0399146868    -2.0517141209
| 22>  H        3.7824276109    -0.1158180547     0.6890934900
| 23> *
| 24>
| 25>                          ****END OF INPUT****

CARTESIAN COORDINATES (ANGSTROEM)
---------------------------------
  C     -0.039495    1.543121    0.008986
  C      1.463004    1.849656    0.061453
  C      2.112312    1.450677    1.388698
  C      1.695274    0.025946    1.655305
  O      0.434955   -0.472812    1.283395
  C      0.006502    0.003038   -0.001152
  C      1.111013   -0.259780   -1.035392
  N      2.173006    0.692158   -0.639531
  C      2.774573    0.284477    0.649063
  H     -0.583293    1.935988    0.871275
  H     -0.503413    1.920892   -0.907844
  H      1.760107    2.818634   -0.342501
  H      2.505381    2.117058    2.145751
  H      1.996972   -0.395468    2.608046
  H     -0.949369   -0.484538   -0.200642
  H      1.486002   -1.286106   -1.003616
  H      0.764808   -0.039915   -2.051714
  H      3.782428   -0.115818    0.689093

 Total Charge           Charge          ....    0
 Multiplicity           Mult            ....    1
 Number of Electrons    NEL             ....   66
 Basis Dimension        Dim             ....  333

ORBITAL ENERGIES
----------------

  NO   OCC          E(Eh)            E(eV)
   0   2.0000     -20.557137      -559.3881
   1   2.0000     -15.552765      -423.2123
   2   2.0000     -11.285552      -307.0955
   3   2.0000     -11.280797      -306.9661
   4   2.0000     -11.263302      -306.4900
   5   2.0000     -11.258557      -306.3609
   6   2.0000     -11.245126      -305.9954
   7   2.0000     -11.234322      -305.7014
   8   2.0000     -11.224252      -305.4274
   9   2.0000      -1.388046       -37.7707
  10   2.0000      -1.263869       -34.3916
  11   2.0000      -1.112036       -30.2600
  12   2.0000      -1.026586       -27.9348
  13   2.0000      -0.955796       -26.0085
  14   2.0000      -0.867393       -23.6030
  15   2.0000      -0.854288       -23.2464
  16   2.0000      -0.746936       -20.3251
  17   2.0000      -0.731519       -19.9057
  18   2.0000      -0.713489       -19.4150
  19   2.0000      -0.648871       -17.6567
  20   2.0000      -0.641445       -17.4546
  21   2.0000      -0.627178       -17.0664
  22   2.0000      -0.616865       -16.7858
  23   2.0000      -0.573673       -15.6104
  24   2.0000      -0.538766       -14.6606
  25   2.0000      -0.535542       -14.5728
  26   2.0000      -0.495580       -13.4854
  27   2.0000      -0.482808       -13.1379
  28   2.0000      -0.477490       -12.9932
  29   2.0000      -0.466921       -12.7056
  30   2.0000      -0.427697       -11.6382
  31   2.0000      -0.385252       -10.4832
  32   2.0000      -0.338697        -9.2164
  33   0.0000       0.143814         3.9134
  34   0.0000       0.162160         4.4126
  35   0.0000       0.168932         4.5969
  36   0.0000       0.181571         4.9408
  37   0.0000       0.189093         5.1455

MULLIKEN ATOMIC CHARGES
-----------------------
   0 C :   -0.309965
   1 C :    0.056894
   2 C :   -0.257129
   3 C :    0.022665
   4 O :   -0.312192
   5 C :    0.112319
   6 C :   -0.195564
   7 N :   -0.194582
   8 C :   -0.055195
   9 H :    0.124800
  10 H :    0.123318
  11 H :    0.123382
  12 H :    0.138167
  13 H :    0.127785
  14 H :    0.123189
  15 H :    0.124575
  16 H :    0.118778
  17 H :    0.128757
Sum of atomic charges:   -0.0000000

LOEWDIN ATOMIC CHARGES
----------------------
   0 C :   -0.219262
   1 C :   -0.195072
   2 C :   -0.152546
   3 C :   -0.268775
   4 O :    0.198561
   5 C :   -0.293647
   6 C :   -0.255342
   7 N :    0.127715
   8 C :   -0.196309
   9 H :    0.145340
  10 H :    0.141444
  11 H :    0.139960
  12 H :    0.135822
  13 H :    0.149469
  14 H :    0.139989
  15 H :    0.138680
  16 H :    0.133415
  17 H :    0.130556

  Mayer bond orders larger than 0.1
B(  0-C ,  1-C ) :   0.9685 B(  0-C ,  5-C ) :   0.9239 B(  0-C ,  9-H ) :   0.9079
B(  0-C , 10-H ) :   0.9202 B(  1-C ,  2-C ) :   0.9409 B(  1-C ,  7-N ) :   0.9459
B(  1-C , 11-H ) :   0.9141 B(  2-C ,  3-C ) :   0.8764 B(  2-C ,  8-C ) :   0.8404
B(  2-C , 12-H ) :   0.9104 B(  3-C ,  4-O ) :   0.9897 B(  3-C ,  8-C ) :   0.8813
B(  3-C , 13-H ) :   0.9423 B(  4-O ,  5-C ) :   0.8727 B(  5-C ,  6-C ) :   0.9331
B(  5-C , 14-H ) :   0.9177 B(  6-C ,  7-N ) :   0.9451 B(  6-C , 15-H ) :   0.9283
B(  6-C , 16-H ) :   0.9240 B(  7-N ,  8-C ) :   0.9536 B(  8-C , 17-H ) :   0.9170

MP2 TOTAL ENERGY:     -401.224524551 Eh
FINAL SINGLE POINT ENERGY      -401.224524551259

DIPOLE MOMENT
-------------
                                X             Y             Z
Electronic contribution:      1.05244      -1.15988       1.51270
Nuclear contribution   :     -1.16791       1.43042      -1.46021
                        -----------------------------------------
Total Dipole Moment    :     -0.11547       0.27054       0.05250
                        -----------------------------------------
Magnitude (a.u.)       :      0.29880
Magnitude (Debye)      :      0.75949

                             ****ORCA TERMINATED NORMALLY****
TOTAL RUN TIME: 0 days 0 hours 20 minutes 13 seconds 348 msec
