                         Program Version 3.0.3 - RELEASE   -
|  1> ! RI-MP2 RIJK def2-TZVP def2-TZVP/C def2-TZVP/JK TIGHTSCF
|  2> % maxcore 2000
|  3> % mp2 density relaxed end
|  4> *xyz 0 1
|  5>  C       -0.0747699084     1.5321893805     0.0327129880
|  6>  C        0.1453566829     0.0524331983     0.0254031896
|  7>  O       -0.7124094214    -0.7875299555     0.8200109341
|  8>  C        0.6972985148    -0.8033807635     1.0885718373
|  9>  C        1.3590900334    -1.9554504760     0.4125210322
| 10>  N        2.0790282916    -2.8322582952     0.9478134926
| 11>  O        1.0674351890    -1.8833536121    -0.9468472844
| 12>  C        0.4646223453    -0.6746946544    -1.2652584728
| 13>  O        0.2762676513    -0.3325759329    -2.3892037650
| 14>  H        0.8208617545     2.0561823066    -0.3131057280
| 15>  H       -0.8970870069     1.7906681376    -0.6400222590
| 16>  H       -0.3211840451     1.8704687776     1.0411742063
| 17>  H        1.0259524372    -0.4626057813     2.0626753488
| 18>  H        2.4262582718    -3.5018245095     0.2584585403
| 19> *
| 20>
| 21>                          ****END OF INPUT****

CARTESIAN COORDINATES (ANGSTROEM)
---------------------------------
  C     -0.074770    1.532189    0.032713
  C      0.145357    0.052433    0.025403
  O     -0.712409   -0.787530    0.820011
  C      0.697299   -0.803381    1.088572
  C      1.359090   -1.955450    0.412521
  N      2.079028   -2.832258    0.947813
  O      1.067435   -1.883354   -0.946847
  C      0.464622   -0.674695   -1.265258
  O      0.276268   -0.332576   -2.389204
  H      0.820862    2.056182   -0.313106
  H     -0.897087    1.790668   -0.640022
  H     -0.321184    1.870469    1.041174
  H      1.025952   -0.462606    2.062675
  H      2.426258   -3.501825    0.258459

 Total Charge           Charge          ....    0
 Multiplicity           Mult            ....    1
 Number of Electrons    NEL             ....   66
 Basis Dimension        Dim             ....  309

ORBITAL ENERGIES
----------------

  NO   OCC          E(Eh)            E(eV)
   0   2.0000     -20.645928      -561.8043
   1   2.0000     -20.621772      -561.1469
   2   2.0000     -20.584210      -560.1248
   3   2.0000     -15.577700      -423.8908
   4   2.0000     -11.415933      -310.6433
   5   2.0000     -11.376083      -309.5590
   6   2.0000     -11.346881      -308.7643
   7   2.0000     -11.338164      -308.5271
   8   2.0000     -11.259605      -306.3894
   9   2.0000      -1.514953       -41.2240
  10   2.0000      -1.454060       -39.5670
  11   2.0000      -1.414558       -38.4921
  12   2.0000      -1.238035       -33.6886
  13   2.0000      -1.068967       -29.0881
  14   2.0000      -1.006706       -27.3939
  15   2.0000      -0.936175       -25.4746
  16   2.0000      -0.855919       -23.2907
  17   2.0000      -0.813389       -22.1334
  18   2.0000      -0.734507       -19.9869
  19   2.0000      -0.718950       -19.5636
  20   2.0000      -0.689639       -18.7660
  21   2.0000      -0.678793       -18.4709
  22   2.0000      -0.646029       -17.5793
  23   2.0000      -0.616767       -16.7831
  24   2.0000      -0.611474       -16.6390
  25   2.0000      -0.589300       -16.0357
  26   2.0000      -0.573817       -15.6144
  27   2.0000      -0.538592       -14.6558
  28   2.0000      -0.535968       -14.5844
  29   2.0000      -0.498996       -13.5784
  30   2.0000      -0.468920       -12.7600
  31   2.0000      -0.463202       -12.6044
  32   2.0000      -0.436708       -11.8834
  33   0.0000       0.109642         2.9835
  34   0.0000       0.129421         3.5217
  35   0.0000       0.137666         3.7461
  36   0.0000       0.157344         4.2815
  37   0.0000       0.163260         4.4425

MULLIKEN ATOMIC CHARGES
-----------------------
   0 C :   -0.381891
   1 C :    0.139296
   2 O :   -0.294271
   3 C :    0.029055
   4 C :    0.147908
   5 N :   -0.325423
   6 O :   -0.206284
   7 C :    0.262245
   8 O :   -0.237157
   9 H :    0.148280
  10 H :    0.161703
  11 H :    0.154022
  12 H :    0.160218
  13 H :    0.242299
Sum of atomic charges:    0.0000000

LOEWDIN ATOMIC CHARGES
----------------------
   0 C :   -0.248685
   1 C :   -0.284100
   2 O :    0.219194
   3 C :   -0.187625
   4 C :   -0.356091
   5 N :   -0.006695
   6 O :    0.303016
   7 C :   -0.385234
   8 O :    0.187200
   9 H :    0.141413
  10 H :    0.144211
  11 H :    0.140185
  12 H :    0.153966
  13 H :    0.179245

  Mayer bond orders larger than 0.1
B(  0-C ,  1-C ) :   0.8899 B(  0-C ,  9-H ) :   0.9217 B(  0-C , 10-H ) :   0.9284
B(  0-C , 11-H ) :   0.9367 B(  1-C ,  2-O ) :   0.8759 B(  1-C ,  3-C ) :   0.9120
B(  1-C ,  7-C ) :   0.9169 B(  2-O ,  3-C ) :   0.8755 B(  3-C ,  4-C ) :   0.9082
B(  3-C , 12-H ) :   0.9281 B(  4-C ,  5-N ) :   2.0615 B(  4-C ,  6-O ) :   0.9978
B(  5-N , 13-H ) :   0.8486 B(  6-O ,  7-C ) :   1.0328 B(  7-C ,  8-O ) :   2.0716

MP2 TOTAL ENERGY:     -473.095619152 Eh
FINAL SINGLE POINT ENERGY      -473.095619152121

DIPOLE MOMENT
-------------
                                X             Y             Z
Electronic contribution:      0.19068      -4.82780      -2.46560
Nuclear contribution   :      0.14789       5.61899       3.01225
                        -----------------------------------------
Total Dipole Moment    :      0.33856       0.79119       0.54664
                        -----------------------------------------
Magnitude (a.u.)       :      1.01953
Magnitude (Debye)      :      2.59143

                             ****ORCA TERMINATED NORMALLY****
TOTAL RUN TIME: 0 days 0 hours 13 minutes 53 seconds 914 msec
