                         Program Version 3.0.3 - RELEASE   -
|  1> ! RI-MP2 RIJK def2-TZVP def2-TZVP/C def2-TZVP/JK TIGHTSCF
|  2> % maxcore 2000
|  3> % mp2 density relaxed end
|  4> *xyz 0 1
|  5>  O       -0.8503467479     1.0812277680    -0.2430524556
|  6>  C        0.3020195940     0.8162444907    -0.0146917236
|  7>  C        1.4110332675     1.8283364835    -0.0456742079
|  8>  C        1.6696110652     2.5495185543     1.3361339006
|  9>  C        3.1524108799     2.9780766726     1.1524410906
| 10>  C        3.4446769376     2.4268532690    -0.2825790172
| 11>  O        2.6833402766     1.2101796140    -0.2672953640
| 12>  C        2.6519431354     3.2884390376    -1.2599600261
| 13>  C        1.3804786181     2.9227996157    -1.1036254871
| 14>  H        0.6335256861    -0.2068949792     0.2686743539
| 15>  H        0.9773524549     3.3765913274     1.4982525140
| 16>  H        1.5598664162     1.8373896317     2.1580876693
| 17>  H        3.3040292306     4.0567674342     1.2270108074
| 18>  H        3.7985115267     2.4845860593     1.8815927368
| 19>  H        4.4891668387     2.2243191244    -0.5142369301
| 20>  H        3.0565576501     4.0950848902    -1.8559941397
| 21>  H        0.4753976402     3.3302931266    -1.5297929414
| 22> *
| 23>
| 24>                          ****END OF INPUT****

CARTESIAN COORDINATES (ANGSTROEM)
---------------------------------
  O     -0.850347    1.081228   -0.243052
  C      0.302020    0.816244   -0.014692
  C      1.411033    1.828336   -0.045674
  C      1.669611    2.549519    1.336134
  C      3.152411    2.978077    1.152441
  C      3.444677    2.426853   -0.282579
  O      2.683340    1.210180   -0.267295
  C      2.651943    3.288439   -1.259960
  C      1.380479    2.922800   -1.103625
  H      0.633526   -0.206895    0.268674
  H      0.977352    3.376591    1.498253
  H      1.559866    1.837390    2.158088
  H      3.304029    4.056767    1.227011
  H      3.798512    2.484586    1.881593
  H      4.489167    2.224319   -0.514237
  H      3.056558    4.095085   -1.855994
  H      0.475398    3.330293   -1.529793

 Total Charge           Charge          ....    0
 Multiplicity           Mult            ....    1
 Number of Electrons    NEL             ....   66
 Basis Dimension        Dim             ....  327

ORBITAL ENERGIES
----------------

  NO   OCC          E(Eh)            E(eV)
   0   2.0000     -20.569321      -559.7197
   1   2.0000     -20.564637      -559.5922
   2   2.0000     -11.337176      -308.5003
   3   2.0000     -11.306447      -307.6641
   4   2.0000     -11.299135      -307.4651
   5   2.0000     -11.245445      -306.0041
   6   2.0000     -11.242124      -305.9138
   7   2.0000     -11.240337      -305.8651
   8   2.0000     -11.239867      -305.8523
   9   2.0000      -1.416185       -38.5364
  10   2.0000      -1.399241       -38.0753
  11   2.0000      -1.105001       -30.0686
  12   2.0000      -1.035518       -28.1779
  13   2.0000      -1.031066       -28.0567
  14   2.0000      -0.875824       -23.8324
  15   2.0000      -0.824644       -22.4397
  16   2.0000      -0.795673       -21.6514
  17   2.0000      -0.753330       -20.4991
  18   2.0000      -0.718832       -19.5604
  19   2.0000      -0.681165       -18.5354
  20   2.0000      -0.659222       -17.9383
  21   2.0000      -0.630182       -17.1481
  22   2.0000      -0.598520       -16.2866
  23   2.0000      -0.578217       -15.7341
  24   2.0000      -0.570783       -15.5318
  25   2.0000      -0.548316       -14.9204
  26   2.0000      -0.522113       -14.2074
  27   2.0000      -0.506544       -13.7838
  28   2.0000      -0.504852       -13.7377
  29   2.0000      -0.466875       -12.7043
  30   2.0000      -0.444451       -12.0941
  31   2.0000      -0.429207       -11.6793
  32   2.0000      -0.366207        -9.9650
  33   0.0000       0.119143         3.2420
  34   0.0000       0.136008         3.7010
  35   0.0000       0.145738         3.9657
  36   0.0000       0.164398         4.4735
  37   0.0000       0.172708         4.6996

MULLIKEN ATOMIC CHARGES
-----------------------
   0 O :   -0.265808
   1 C :    0.059210
   2 C :    0.310355
   3 C :   -0.258481
   4 C :   -0.219273
   5 C :    0.070543
   6 O :   -0.303180
   7 C :   -0.182115
   8 C :   -0.256243
   9 H :    0.102200
  10 H :    0.134621
  11 H :    0.127420
  12 H :    0.116862
  13 H :    0.125726
  14 H :    0.143762
  15 H :    0.140711
  16 H :    0.153690
Sum of atomic charges:    0.0000000

LOEWDIN ATOMIC CHARGES
----------------------
   0 O :    0.145466
   1 C :   -0.241595
   2 C :   -0.322602
   3 C :   -0.189754
   4 C :   -0.221506
   5 C :   -0.264862
   6 O :    0.222752
   7 C :   -0.127410
   8 C :   -0.101192
   9 H :    0.121561
  10 H :    0.140340
  11 H :    0.139935
  12 H :    0.136605
  13 H :    0.137533
  14 H :    0.140026
  15 H :    0.138829
  16 H :    0.145875

  Mayer bond orders larger than 0.1
B(  0-O ,  1-C ) :   2.0087 B(  1-C ,  2-C ) :   0.7769 B(  1-C ,  9-H ) :   0.9615
B(  2-C ,  3-C ) :   0.8891 B(  2-C ,  6-O ) :   0.9583 B(  2-C ,  8-C ) :   0.9198
B(  3-C ,  4-C ) :   0.9808 B(  3-C , 10-H ) :   0.9153 B(  3-C , 11-H ) :   0.9194
B(  4-C ,  5-C ) :   0.9123 B(  4-C , 12-H ) :   0.9140 B(  4-C , 13-H ) :   0.9225
B(  5-C ,  6-O ) :   0.9302 B(  5-C ,  7-C ) :   0.9499 B(  5-C , 14-H ) :   0.9070
B(  7-C ,  8-C ) :   1.7806 B(  7-C , 15-H ) :   0.9249 B(  8-C , 16-H ) :   0.9210

MP2 TOTAL ENERGY:     -421.123878561 Eh
FINAL SINGLE POINT ENERGY      -421.123878561223

DIPOLE MOMENT
-------------
                                X             Y             Z
Electronic contribution:     -3.18783      -3.46445      -3.02377
Nuclear contribution   :      4.07565       4.14388       3.39509
                        -----------------------------------------
Total Dipole Moment    :      0.88782       0.67943       0.37132
                        -----------------------------------------
Magnitude (a.u.)       :      1.17802
Magnitude (Debye)      :      2.99429

                             ****ORCA TERMINATED NORMALLY****
TOTAL RUN TIME: 0 days 0 hours 17 minutes 37 seconds 769 msec
