                         Program Version 3.0.3 - RELEASE   -
|  1> ! RI-MP2 RIJK def2-TZVP def2-TZVP/C def2-TZVP/JK TIGHTSCF
|  2> % maxcore 2000
|  3> % mp2 density relaxed end
|  4> *xyz 0 1
|  5>  C       -0.1494826746     1.5621582508     0.0225680500
|  6>  C        0.0652265056     0.0474078507    -0.0201318296
|  7>  C        0.8904797200    -0.4877865423    -1.2069268508
|  8>  C        1.9266283548    -1.4328011727    -0.6018392472
|  9>  O        2.7134459454    -2.1415228688    -1.1739340505
| 10>  N        1.8138621626    -1.3131414301     0.7803733188
| 11>  C        0.8149177313    -0.4531877792     1.2212458625
| 12>  O        0.5937762086    -0.1762604778     2.3726621792
| 13>  H        0.8053034001     2.0955111229    -0.0349414184
| 14>  H       -0.7723370598     1.8897835448    -0.8144204824
| 15>  H       -0.6394424958     1.8453441014     0.9570373242
| 16>  H       -0.9135914901    -0.4469685089     0.0082128601
| 17>  H        0.3044654335    -1.0200271362    -1.9590935505
| 18>  H        1.4279681429     0.3121270221    -1.7276725413
| 19>  H        2.4251594955    -1.8054378866     1.4168980159
| 20> *
| 21>
| 22>                          ****END OF INPUT****

CARTESIAN COORDINATES (ANGSTROEM)
---------------------------------
  C     -0.149483    1.562158    0.022568
  C      0.065227    0.047408   -0.020132
  C      0.890480   -0.487787   -1.206927
  C      1.926628   -1.432801   -0.601839
  O      2.713446   -2.141523   -1.173934
  N      1.813862   -1.313141    0.780373
  C      0.814918   -0.453188    1.221246
  O      0.593776   -0.176260    2.372662
  H      0.805303    2.095511   -0.034941
  H     -0.772337    1.889784   -0.814420
  H     -0.639442    1.845344    0.957037
  H     -0.913591   -0.446969    0.008213
  H      0.304465   -1.020027   -1.959094
  H      1.427968    0.312127   -1.727673
  H      2.425159   -1.805438    1.416898

 Total Charge           Charge          ....    0
 Multiplicity           Mult            ....    1
 Number of Electrons    NEL             ....   60
 Basis Dimension        Dim             ....  290

ORBITAL ENERGIES
----------------

  NO   OCC          E(Eh)            E(eV)
   0   2.0000     -20.551906      -559.2458
   1   2.0000     -20.551833      -559.2438
   2   2.0000     -15.623104      -425.1263
   3   2.0000     -11.379781      -309.6596
   4   2.0000     -11.377119      -309.5871
   5   2.0000     -11.272189      -306.7318
   6   2.0000     -11.265005      -306.5364
   7   2.0000     -11.241698      -305.9022
   8   2.0000      -1.425377       -38.7865
   9   2.0000      -1.406021       -38.2598
  10   2.0000      -1.274750       -34.6877
  11   2.0000      -1.109234       -30.1838
  12   2.0000      -0.994947       -27.0739
  13   2.0000      -0.913460       -24.8565
  14   2.0000      -0.837219       -22.7819
  15   2.0000      -0.808146       -21.9908
  16   2.0000      -0.700322       -19.0567
  17   2.0000      -0.691150       -18.8071
  18   2.0000      -0.656527       -17.8650
  19   2.0000      -0.643930       -17.5222
  20   2.0000      -0.617714       -16.8089
  21   2.0000      -0.602700       -16.4003
  22   2.0000      -0.588946       -16.0260
  23   2.0000      -0.561660       -15.2835
  24   2.0000      -0.549515       -14.9531
  25   2.0000      -0.532799       -14.4982
  26   2.0000      -0.498680       -13.5698
  27   2.0000      -0.461383       -12.5549
  28   2.0000      -0.437064       -11.8931
  29   2.0000      -0.429696       -11.6926
  30   0.0000       0.112569         3.0632
  31   0.0000       0.140603         3.8260
  32   0.0000       0.149838         4.0773
  33   0.0000       0.157250         4.2790
  34   0.0000       0.165065         4.4916

MULLIKEN ATOMIC CHARGES
-----------------------
   0 C :   -0.422884
   1 C :   -0.020409
   2 C :   -0.234100
   3 C :    0.216019
   4 O :   -0.294090
   5 N :   -0.254603
   6 C :    0.193544
   7 O :   -0.296590
   8 H :    0.130919
   9 H :    0.142319
  10 H :    0.159849
  11 H :    0.126189
  12 H :    0.151213
  13 H :    0.147042
  14 H :    0.255584
Sum of atomic charges:    0.0000000

LOEWDIN ATOMIC CHARGES
----------------------
   0 C :   -0.280976
   1 C :   -0.232213
   2 C :   -0.189420
   3 C :   -0.408424
   4 O :    0.124448
   5 N :    0.181436
   6 C :   -0.391995
   7 O :    0.126960
   8 H :    0.127422
   9 H :    0.126781
  10 H :    0.134878
  11 H :    0.169787
  12 H :    0.153346
  13 H :    0.159436
  14 H :    0.198533

  Mayer bond orders larger than 0.1
B(  0-C ,  1-C ) :   0.9121 B(  0-C ,  8-H ) :   0.9298 B(  0-C ,  9-H ) :   0.9384
B(  0-C , 10-H ) :   0.9314 B(  1-C ,  2-C ) :   0.8925 B(  1-C ,  6-C ) :   0.8831
B(  1-C , 11-H ) :   0.9012 B(  2-C ,  3-C ) :   0.9181 B(  2-C , 12-H ) :   0.9129
B(  2-C , 13-H ) :   0.9032 B(  3-C ,  4-O ) :   2.0472 B(  3-C ,  5-N ) :   1.0416
B(  5-N ,  6-C ) :   1.0554 B(  5-N , 14-H ) :   0.8496 B(  6-C ,  7-O ) :   2.0428

MP2 TOTAL ENERGY:     -399.240154760 Eh
FINAL SINGLE POINT ENERGY      -399.240154760278

DIPOLE MOMENT
-------------
                                X             Y             Z
Electronic contribution:      4.16813      -5.82708       2.78374
Nuclear contribution   :     -4.68029       6.25622      -3.21928
                        -----------------------------------------
Total Dipole Moment    :     -0.51216       0.42913      -0.43555
                        -----------------------------------------
Magnitude (a.u.)       :      0.79760
Magnitude (Debye)      :      2.02733

                             ****ORCA TERMINATED NORMALLY****
TOTAL RUN TIME: 0 days 0 hours 16 minutes 42 seconds 647 msec
