                         Program Version 3.0.3 - RELEASE   -
|  1> ! RI-MP2 RIJK def2-TZVP def2-TZVP/C def2-TZVP/JK TIGHTSCF
|  2> % maxcore 2000
|  3> % mp2 density relaxed end
|  4> *xyz 0 1
|  5>  O       -0.0900322255     1.5033915152     0.1233406919
|  6>  C        0.0294230570     0.0880809754     0.1030353527
|  7>  C       -1.3695035804    -0.5030749996    -0.0067743409
|  8>  C       -1.3677251390    -2.0352325510    -0.0435794166
|  9>  C       -2.7639051177    -2.6606055295    -0.1006462000
| 10>  C       -3.5712653965    -2.3504660364    -1.3797133494
| 11>  C       -4.6447710440    -3.4678859035    -1.4803525126
| 12>  C       -4.2060495237    -4.5739695558    -0.4778389889
| 13>  C       -2.7714018226    -4.1988391519    -0.0672395451
| 14>  H        0.7927002385     1.8783348320     0.1911702364
| 15>  H        0.6427027512    -0.2471708286    -0.7500286486
| 16>  H        0.5192819660    -0.2831996681     1.0186950855
| 17>  H       -1.9633452671    -0.1472419972     0.8445967171
| 18>  H       -1.8434800881    -0.0980322491    -0.9082058951
| 19>  H       -0.7884648280    -2.3816368461    -0.9120454268
| 20>  H       -0.8422824438    -2.4162190920     0.8433200245
| 21>  H       -3.3391669129    -2.3019629213     0.7666653682
| 22>  H       -4.0093237472    -1.3488390815    -1.3737791884
| 23>  H       -2.8968470916    -2.3949962570    -2.2446809842
| 24>  H       -5.6396044408    -3.0884472373    -1.2296255266
| 25>  H       -4.7108176656    -3.8545799796    -2.5013979430
| 26>  H       -4.8561792018    -4.5609651501     0.4039344977
| 27>  H       -4.2739779258    -5.5791334782    -0.9031713080
| 28>  H       -2.0515109763    -4.5790939918    -0.8051424856
| 29>  H       -2.4821221643    -4.6081090470     0.9059727058
| 30> *
| 31>
| 32>                          ****END OF INPUT****

CARTESIAN COORDINATES (ANGSTROEM)
---------------------------------
  O     -0.090032    1.503392    0.123341
  C      0.029423    0.088081    0.103035
  C     -1.369504   -0.503075   -0.006774
  C     -1.367725   -2.035233   -0.043579
  C     -2.763905   -2.660606   -0.100646
  C     -3.571265   -2.350466   -1.379713
  C     -4.644771   -3.467886   -1.480353
  C     -4.206050   -4.573970   -0.477839
  C     -2.771402   -4.198839   -0.067240
  H      0.792700    1.878335    0.191170
  H      0.642703   -0.247171   -0.750029
  H      0.519282   -0.283200    1.018695
  H     -1.963345   -0.147242    0.844597
  H     -1.843480   -0.098032   -0.908206
  H     -0.788465   -2.381637   -0.912045
  H     -0.842282   -2.416219    0.843320
  H     -3.339167   -2.301963    0.766665
  H     -4.009324   -1.348839   -1.373779
  H     -2.896847   -2.394996   -2.244681
  H     -5.639604   -3.088447   -1.229626
  H     -4.710818   -3.854580   -2.501398
  H     -4.856179   -4.560965    0.403934
  H     -4.273978   -5.579133   -0.903171
  H     -2.051511   -4.579094   -0.805142
  H     -2.482122   -4.608109    0.905973

 Total Charge           Charge          ....    0
 Multiplicity           Mult            ....    1
 Number of Electrons    NEL             ....   72
 Basis Dimension        Dim             ....  375

ORBITAL ENERGIES
----------------

  NO   OCC          E(Eh)            E(eV)
   0   2.0000     -20.551282      -559.2288
   1   2.0000     -11.270800      -306.6941
   2   2.0000     -11.218049      -305.2586
   3   2.0000     -11.216411      -305.2141
   4   2.0000     -11.212600      -305.1103
   5   2.0000     -11.212545      -305.1089
   6   2.0000     -11.212029      -305.0948
   7   2.0000     -11.210992      -305.0666
   8   2.0000     -11.210665      -305.0577
   9   2.0000      -1.354924       -36.8693
  10   2.0000      -1.121525       -30.5182
  11   2.0000      -1.051731       -28.6191
  12   2.0000      -0.970899       -26.4195
  13   2.0000      -0.955113       -25.9899
  14   2.0000      -0.882556       -24.0156
  15   2.0000      -0.804760       -21.8986
  16   2.0000      -0.770342       -20.9621
  17   2.0000      -0.755817       -20.5668
  18   2.0000      -0.688675       -18.7398
  19   2.0000      -0.656956       -17.8767
  20   2.0000      -0.643404       -17.5079
  21   2.0000      -0.627179       -17.0664
  22   2.0000      -0.588669       -16.0185
  23   2.0000      -0.568810       -15.4781
  24   2.0000      -0.565491       -15.3878
  25   2.0000      -0.547912       -14.9094
  26   2.0000      -0.518366       -14.1054
  27   2.0000      -0.492827       -13.4105
  28   2.0000      -0.481954       -13.1146
  29   2.0000      -0.472586       -12.8597
  30   2.0000      -0.464218       -12.6320
  31   2.0000      -0.452552       -12.3146
  32   2.0000      -0.447133       -12.1671
  33   2.0000      -0.443603       -12.0710
  34   2.0000      -0.438798       -11.9403
  35   2.0000      -0.435958       -11.8630
  36   0.0000       0.134487         3.6596
  37   0.0000       0.140086         3.8119
  38   0.0000       0.155798         4.2395
  39   0.0000       0.160243         4.3604
  40   0.0000       0.168982         4.5982

MULLIKEN ATOMIC CHARGES
-----------------------
   0 O :   -0.465927
   1 C :   -0.066551
   2 C :   -0.159535
   3 C :   -0.269500
   4 C :   -0.045275
   5 C :   -0.289607
   6 C :   -0.201277
   7 C :   -0.224914
   8 C :   -0.202934
   9 H :    0.313760
  10 H :    0.090149
  11 H :    0.090600
  12 H :    0.109409
  13 H :    0.116938
  14 H :    0.105817
  15 H :    0.111314
  16 H :    0.083688
  17 H :    0.130020
  18 H :    0.106120
  19 H :    0.112410
  20 H :    0.112842
  21 H :    0.106525
  22 H :    0.119447
  23 H :    0.099768
  24 H :    0.116714
Sum of atomic charges:    0.0000000

LOEWDIN ATOMIC CHARGES
----------------------
   0 O :   -0.054289
   1 C :   -0.354173
   2 C :   -0.269352
   3 C :   -0.249986
   4 C :   -0.255929
   5 C :   -0.237424
   6 C :   -0.252194
   7 C :   -0.258641
   8 C :   -0.241144
   9 H :    0.170698
  10 H :    0.113380
  11 H :    0.113136
  12 H :    0.139997
  13 H :    0.140682
  14 H :    0.138255
  15 H :    0.139447
  16 H :    0.153238
  17 H :    0.132564
  18 H :    0.136702
  19 H :    0.131221
  20 H :    0.130987
  21 H :    0.133493
  22 H :    0.129753
  23 H :    0.137430
  24 H :    0.132149

  Mayer bond orders larger than 0.1
B(  0-O ,  1-C ) :   1.0265 B(  0-O ,  2-C ) :  -0.1028 B(  0-O ,  9-H ) :   0.8503
B(  1-C ,  2-C ) :   0.9387 B(  1-C , 10-H ) :   0.9317 B(  1-C , 11-H ) :   0.9343
B(  2-C ,  3-C ) :   0.9131 B(  2-C , 12-H ) :   0.9234 B(  2-C , 13-H ) :   0.9269
B(  3-C ,  4-C ) :   0.9214 B(  3-C , 14-H ) :   0.9187 B(  3-C , 15-H ) :   0.9303
B(  4-C ,  5-C ) :   0.9224 B(  4-C ,  8-C ) :   0.9226 B(  4-C , 16-H ) :   0.9272
B(  5-C ,  6-C ) :   0.9354 B(  5-C , 17-H ) :   0.9324 B(  5-C , 18-H ) :   0.9243
B(  6-C ,  7-C ) :   0.9319 B(  6-C , 19-H ) :   0.9376 B(  6-C , 20-H ) :   0.9383
B(  7-C ,  8-C ) :   0.9454 B(  7-C , 21-H ) :   0.9318 B(  7-C , 22-H ) :   0.9336
B(  8-C , 23-H ) :   0.9244 B(  8-C , 24-H ) :   0.9286

MP2 TOTAL ENERGY:     -388.836520847 Eh
FINAL SINGLE POINT ENERGY      -388.836520847425

DIPOLE MOMENT
-------------
                                X             Y             Z
Electronic contribution:      2.19052       4.28921       0.87300
Nuclear contribution   :     -1.69526      -4.59543      -0.82528
                        -----------------------------------------
Total Dipole Moment    :      0.49526      -0.30622       0.04771
                        -----------------------------------------
Magnitude (a.u.)       :      0.58423
Magnitude (Debye)      :      1.48500

                             ****ORCA TERMINATED NORMALLY****
TOTAL RUN TIME: 0 days 0 hours 18 minutes 36 seconds 367 msec
