                         Program Version 3.0.3 - RELEASE   -
|  1> ! RI-MP2 RIJK def2-TZVP def2-TZVP/C def2-TZVP/JK TIGHTSCF
|  2> % maxcore 2000
|  3> % mp2 density relaxed end
|  4> *xyz 0 1
|  5>  C       -0.3057817177     1.5507309673     0.0868911150
|  6>  C       -0.0104079720     0.0587147957     0.0348675102
|  7>  C       -1.1720442124    -0.7128367657    -0.5745249572
|  8>  O        1.2154847669    -0.1745463579    -0.7723864416
|  9>  C        1.8785918418    -0.7359351498     0.2807806115
| 10>  O        2.9899044096    -1.1655984331     0.2962286719
| 11>  C        0.7225439627    -0.5842243097     1.2754009565
| 12>  C        1.0529299427     0.3362536500     2.4546788402
| 13>  C        0.1884562360    -1.9230833347     1.7944012527
| 14>  H        0.5700461015     2.1294079581     0.3842384897
| 15>  H       -0.6191861075     1.9010855354    -0.9009674274
| 16>  H       -1.1165611760     1.7585332214     0.7927270213
| 17>  H       -1.4489794519    -0.2681519840    -1.5349401842
| 18>  H       -0.9181927829    -1.7590502577    -0.7515812090
| 19>  H       -2.0474263135    -0.6731451051     0.0818910035
| 20>  H        1.5140722709     1.2761121304     2.1451395717
| 21>  H        0.1500092205     0.5690010943     3.0293388211
| 22>  H        1.7565452947    -0.1686994429     3.1228075762
| 23>  H        0.9170015997    -2.3621116581     2.4820944773
| 24>  H       -0.7490088065    -1.7800348670     2.3424574844
| 25>  H        0.0127464635    -2.6489584969     0.9981385862
| 26> *
| 27>
| 28>                          ****END OF INPUT****

CARTESIAN COORDINATES (ANGSTROEM)
---------------------------------
  C     -0.305782    1.550731    0.086891
  C     -0.010408    0.058715    0.034868
  C     -1.172044   -0.712837   -0.574525
  O      1.215485   -0.174546   -0.772386
  C      1.878592   -0.735935    0.280781
  O      2.989904   -1.165598    0.296229
  C      0.722544   -0.584224    1.275401
  C      1.052930    0.336254    2.454679
  C      0.188456   -1.923083    1.794401
  H      0.570046    2.129408    0.384238
  H     -0.619186    1.901086   -0.900967
  H     -1.116561    1.758533    0.792727
  H     -1.448979   -0.268152   -1.534940
  H     -0.918193   -1.759050   -0.751581
  H     -2.047426   -0.673145    0.081891
  H      1.514072    1.276112    2.145140
  H      0.150009    0.569001    3.029339
  H      1.756545   -0.168699    3.122808
  H      0.917002   -2.362112    2.482094
  H     -0.749009   -1.780035    2.342457
  H      0.012746   -2.648958    0.998139

 Total Charge           Charge          ....    0
 Multiplicity           Mult            ....    1
 Number of Electrons    NEL             ....   70
 Basis Dimension        Dim             ....  351

ORBITAL ENERGIES
----------------

  NO   OCC          E(Eh)            E(eV)
   0   2.0000     -20.590641      -560.2998
   1   2.0000     -20.543121      -559.0068
   2   2.0000     -11.370746      -309.4137
   3   2.0000     -11.315513      -307.9108
   4   2.0000     -11.268481      -306.6310
   5   2.0000     -11.237889      -305.7985
   6   2.0000     -11.237872      -305.7980
   7   2.0000     -11.234028      -305.6935
   8   2.0000     -11.234012      -305.6930
   9   2.0000      -1.454637       -39.5827
  10   2.0000      -1.369105       -37.2552
  11   2.0000      -1.113701       -30.3053
  12   2.0000      -1.051284       -28.6069
  13   2.0000      -0.972437       -26.4613
  14   2.0000      -0.941129       -25.6094
  15   2.0000      -0.901217       -24.5234
  16   2.0000      -0.812696       -22.1146
  17   2.0000      -0.702895       -19.1268
  18   2.0000      -0.686654       -18.6848
  19   2.0000      -0.673285       -18.3210
  20   2.0000      -0.664723       -18.0880
  21   2.0000      -0.630503       -17.1569
  22   2.0000      -0.600304       -16.3351
  23   2.0000      -0.577063       -15.7027
  24   2.0000      -0.574473       -15.6322
  25   2.0000      -0.571825       -15.5602
  26   2.0000      -0.567305       -15.4371
  27   2.0000      -0.557260       -15.1638
  28   2.0000      -0.538746       -14.6600
  29   2.0000      -0.524360       -14.2686
  30   2.0000      -0.510083       -13.8801
  31   2.0000      -0.497741       -13.5442
  32   2.0000      -0.461608       -12.5610
  33   2.0000      -0.448236       -12.1971
  34   2.0000      -0.422679       -11.5017
  35   0.0000       0.115339         3.1385
  36   0.0000       0.153744         4.1836
  37   0.0000       0.157840         4.2950
  38   0.0000       0.172890         4.7046
  39   0.0000       0.183565         4.9951

MULLIKEN ATOMIC CHARGES
-----------------------
   0 C :   -0.391761
   1 C :    0.139479
   2 C :   -0.391690
   3 O :   -0.238022
   4 C :    0.196724
   5 O :   -0.271094
   6 C :    0.075553
   7 C :   -0.405336
   8 C :   -0.405363
   9 H :    0.138904
  10 H :    0.145179
  11 H :    0.134476
  12 H :    0.145186
  13 H :    0.138879
  14 H :    0.134466
  15 H :    0.138544
  16 H :    0.135392
  17 H :    0.153270
  18 H :    0.153261
  19 H :    0.135392
  20 H :    0.138563
Sum of atomic charges:    0.0000000

LOEWDIN ATOMIC CHARGES
----------------------
   0 C :   -0.264915
   1 C :   -0.282876
   2 C :   -0.264914
   3 O :    0.270049
   4 C :   -0.433654
   5 O :    0.147588
   6 C :   -0.240773
   7 C :   -0.256310
   8 C :   -0.256309
   9 H :    0.129766
  10 H :    0.133536
  11 H :    0.133171
  12 H :    0.133539
  13 H :    0.129763
  14 H :    0.133172
  15 H :    0.128763
  16 H :    0.129358
  17 H :    0.136464
  18 H :    0.136461
  19 H :    0.129357
  20 H :    0.128764

  Mayer bond orders larger than 0.1
B(  0-C ,  1-C ) :   0.9152 B(  0-C ,  9-H ) :   0.9377 B(  0-C , 10-H ) :   0.9303
B(  0-C , 11-H ) :   0.9273 B(  1-C ,  2-C ) :   0.9152 B(  1-C ,  3-O ) :   0.8755
B(  1-C ,  6-C ) :   0.8445 B(  2-C , 12-H ) :   0.9303 B(  2-C , 13-H ) :   0.9377
B(  2-C , 14-H ) :   0.9273 B(  3-O ,  4-C ) :   1.1163 B(  4-C ,  5-O ) :   2.0732
B(  4-C ,  6-C ) :   0.8970 B(  6-C ,  7-C ) :   0.9021 B(  6-C ,  8-C ) :   0.9021
B(  7-C , 15-H ) :   0.9316 B(  7-C , 16-H ) :   0.9347 B(  7-C , 17-H ) :   0.9307
B(  8-C , 18-H ) :   0.9307 B(  8-C , 19-H ) :   0.9347 B(  8-C , 20-H ) :   0.9316

MP2 TOTAL ENERGY:     -423.570190710 Eh
FINAL SINGLE POINT ENERGY      -423.570190710441

DIPOLE MOMENT
-------------
                                X             Y             Z
Electronic contribution:      8.47760      -1.88273      -4.65823
Nuclear contribution   :    -10.03439       2.27407       5.35749
                        -----------------------------------------
Total Dipole Moment    :     -1.55679       0.39134       0.69926
                        -----------------------------------------
Magnitude (a.u.)       :      1.75091
Magnitude (Debye)      :      4.45047

                             ****ORCA TERMINATED NORMALLY****
TOTAL RUN TIME: 0 days 0 hours 24 minutes 13 seconds 631 msec
