                         Program Version 3.0.3 - RELEASE   -
|  1> ! RI-MP2 RIJK def2-TZVP def2-TZVP/C def2-TZVP/JK TIGHTSCF
|  2> % maxcore 2000
|  3> % mp2 density relaxed end
|  4> *xyz 0 1
|  5>  C       -0.1713501368     1.4139492383    -0.0198970461
|  6>  N        0.0525726953    -0.0237952661     0.0188550493
|  7>  C        1.2405568778    -0.4932359337    -0.7801621833
|  8>  C        2.1572924112    -0.3072796033     0.4554315794
|  9>  C        0.8240760536    -0.5041752885     1.2205737293
| 10>  C        0.5215742812    -1.9989851722     1.3314985682
| 11>  O        1.0535378345    -2.7027782868     0.2125724292
| 12>  C        1.0107045939    -1.9861380365    -1.0182393249
| 13>  H        0.7233162994     2.0337486011     0.1697444088
| 14>  H       -0.5662304922     1.6891015830    -1.0037042081
| 15>  H       -0.9266176480     1.6796335141     0.7274307454
| 16>  H        1.4386530454     0.0532655879    -1.7065211439
| 17>  H        2.9604433639    -1.0288277358     0.6186735110
| 18>  H        2.5434419166     0.7088643795     0.5413697875
| 19>  H        0.6348851626     0.0321538030     2.1547069389
| 20>  H        0.9959693257    -2.4410883397     2.2149170444
| 21>  H       -0.5675356044    -2.1351782921     1.4045269417
| 22>  H        0.0414958528    -2.1191808187    -1.5212066526
| 23>  H        1.7991655274    -2.4199923936    -1.6435661540
| 24> *
| 25>
| 26>                          ****END OF INPUT****

CARTESIAN COORDINATES (ANGSTROEM)
---------------------------------
  C     -0.171350    1.413949   -0.019897
  N      0.052573   -0.023795    0.018855
  C      1.240557   -0.493236   -0.780162
  C      2.157292   -0.307280    0.455432
  C      0.824076   -0.504175    1.220574
  C      0.521574   -1.998985    1.331499
  O      1.053538   -2.702778    0.212572
  C      1.010705   -1.986138   -1.018239
  H      0.723316    2.033749    0.169744
  H     -0.566230    1.689102   -1.003704
  H     -0.926618    1.679634    0.727431
  H      1.438653    0.053266   -1.706521
  H      2.960443   -1.028828    0.618674
  H      2.543442    0.708864    0.541370
  H      0.634885    0.032154    2.154707
  H      0.995969   -2.441088    2.214917
  H     -0.567536   -2.135178    1.404527
  H      0.041496   -2.119181   -1.521207
  H      1.799166   -2.419992   -1.643566

 Total Charge           Charge          ....    0
 Multiplicity           Mult            ....    1
 Number of Electrons    NEL             ....   62
 Basis Dimension        Dim             ....  314

ORBITAL ENERGIES
----------------

  NO   OCC          E(Eh)            E(eV)
   0   2.0000     -20.546293      -559.0931
   1   2.0000     -15.543960      -422.9727
   2   2.0000     -11.268416      -306.6292
   3   2.0000     -11.268397      -306.6287
   4   2.0000     -11.259492      -306.3864
   5   2.0000     -11.259477      -306.3860
   6   2.0000     -11.243689      -305.9563
   7   2.0000     -11.225055      -305.4493
   8   2.0000      -1.369725       -37.2721
   9   2.0000      -1.245387       -33.8887
  10   2.0000      -1.026006       -27.9190
  11   2.0000      -1.017852       -27.6972
  12   2.0000      -0.903706       -24.5911
  13   2.0000      -0.863742       -23.5036
  14   2.0000      -0.849552       -23.1175
  15   2.0000      -0.712994       -19.4016
  16   2.0000      -0.695320       -18.9206
  17   2.0000      -0.659505       -17.9460
  18   2.0000      -0.628307       -17.0971
  19   2.0000      -0.620008       -16.8713
  20   2.0000      -0.610364       -16.6088
  21   2.0000      -0.564442       -15.3593
  22   2.0000      -0.551121       -14.9968
  23   2.0000      -0.542553       -14.7636
  24   2.0000      -0.531357       -14.4590
  25   2.0000      -0.530769       -14.4429
  26   2.0000      -0.468324       -12.7437
  27   2.0000      -0.439906       -11.9705
  28   2.0000      -0.436261       -11.8713
  29   2.0000      -0.416828       -11.3425
  30   2.0000      -0.353063        -9.6073
  31   0.0000       0.137959         3.7541
  32   0.0000       0.163374         4.4456
  33   0.0000       0.164499         4.4763
  34   0.0000       0.175235         4.7684
  35   0.0000       0.197493         5.3741

MULLIKEN ATOMIC CHARGES
-----------------------
   0 C :   -0.344575
   1 N :   -0.235851
   2 C :    0.022903
   3 C :   -0.330355
   4 C :    0.022903
   5 C :   -0.044087
   6 O :   -0.328916
   7 C :   -0.044087
   8 H :    0.103558
   9 H :    0.136988
  10 H :    0.136989
  11 H :    0.119567
  12 H :    0.133387
  13 H :    0.132668
  14 H :    0.119567
  15 H :    0.109379
  16 H :    0.090291
  17 H :    0.090291
  18 H :    0.109379
Sum of atomic charges:   -0.0000000

LOEWDIN ATOMIC CHARGES
----------------------
   0 C :   -0.341065
   1 N :    0.089079
   2 C :   -0.246641
   3 C :   -0.207879
   4 C :   -0.246640
   5 C :   -0.289857
   6 O :    0.146007
   7 C :   -0.289857
   8 H :    0.102078
   9 H :    0.118098
  10 H :    0.118098
  11 H :    0.136831
  12 H :    0.133367
  13 H :    0.133260
  14 H :    0.136831
  15 H :    0.128538
  16 H :    0.125607
  17 H :    0.125607
  18 H :    0.128538

  Mayer bond orders larger than 0.1
B(  0-C ,  1-N ) :   0.9150 B(  0-C ,  8-H ) :   0.9255 B(  0-C ,  9-H ) :   0.9395
B(  0-C , 10-H ) :   0.9395 B(  1-N ,  2-C ) :   0.8599 B(  1-N ,  4-C ) :   0.8599
B(  2-C ,  3-C ) :   0.9288 B(  2-C ,  7-C ) :   0.9262 B(  2-C , 11-H ) :   0.9135
B(  3-C ,  4-C ) :   0.9288 B(  3-C , 12-H ) :   0.9112 B(  3-C , 13-H ) :   0.9248
B(  4-C ,  5-C ) :   0.9262 B(  4-C , 14-H ) :   0.9135 B(  5-C ,  6-O ) :   0.9404
B(  5-C , 15-H ) :   0.9224 B(  5-C , 16-H ) :   0.9303 B(  6-O ,  7-C ) :   0.9404
B(  7-C , 17-H ) :   0.9303 B(  7-C , 18-H ) :   0.9224

MP2 TOTAL ENERGY:     -364.410168572 Eh
FINAL SINGLE POINT ENERGY      -364.410168571828

DIPOLE MOMENT
-------------
                                X             Y             Z
Electronic contribution:      0.29391      -4.11942       0.03866
Nuclear contribution   :     -0.03923       4.85569       0.01838
                        -----------------------------------------
Total Dipole Moment    :      0.25468       0.73627       0.05704
                        -----------------------------------------
Magnitude (a.u.)       :      0.78116
Magnitude (Debye)      :      1.98554

                             ****ORCA TERMINATED NORMALLY****
TOTAL RUN TIME: 0 days 0 hours 14 minutes 10 seconds 465 msec
