                         Program Version 3.0.3 - RELEASE   -
|  1> ! RI-MP2 RIJK def2-TZVP def2-TZVP/C def2-TZVP/JK TIGHTSCF
|  2> % maxcore 2000
|  3> % mp2 density relaxed end
|  4> *xyz 0 1
|  5>  O       -0.1412896186     0.0560821725    -0.4128356706
|  6>  C        0.0019041160     1.2204241777    -0.0997803717
|  7>  N        1.1933135025     1.8392218060     0.0950444157
|  8>  C        2.4459142104     1.1569967284     0.0049545963
|  9>  C        3.5260389800     1.6800735552    -0.9158652089
| 10>  C        3.6550123196     1.8468657537     0.5806435284
| 11>  N        3.4366492952     3.1659099796     1.1111522775
| 12>  C        3.7103258195     3.3541814976     2.5357216487
| 13>  C        4.6225814047     3.9231241115     1.5060515601
| 14>  H       -0.8477744369     1.9126982871     0.0659659311
| 15>  H        1.2262105587     2.8001013770     0.4030754665
| 16>  H        2.3371406972     0.0861177274     0.1211396015
| 17>  H        4.1719117546     0.9679166958    -1.4170793079
| 18>  H        3.2938853223     2.5748840202    -1.4824888860
| 19>  H        4.3912647061     1.2279294000     1.0988668334
| 20>  H        3.0152475738     3.9944335674     3.0706276086
| 21>  H        4.0650572948     2.4940349783     3.0997855761
| 22>  H        5.5910948334     3.4451513675     1.3766146077
| 23>  H        4.6020126867     4.9844713970     1.2771723535
| 24> *
| 25>
| 26>                          ****END OF INPUT****

CARTESIAN COORDINATES (ANGSTROEM)
---------------------------------
  O     -0.141290    0.056082   -0.412836
  C      0.001904    1.220424   -0.099780
  N      1.193314    1.839222    0.095044
  C      2.445914    1.156997    0.004955
  C      3.526039    1.680074   -0.915865
  C      3.655012    1.846866    0.580644
  N      3.436649    3.165910    1.111152
  C      3.710326    3.354181    2.535722
  C      4.622581    3.923124    1.506052
  H     -0.847774    1.912698    0.065966
  H      1.226211    2.800101    0.403075
  H      2.337141    0.086118    0.121140
  H      4.171912    0.967917   -1.417079
  H      3.293885    2.574884   -1.482489
  H      4.391265    1.227929    1.098867
  H      3.015248    3.994434    3.070628
  H      4.065057    2.494035    3.099786
  H      5.591095    3.445151    1.376615
  H      4.602013    4.984471    1.277172

 Total Charge           Charge          ....    0
 Multiplicity           Mult            ....    1
 Number of Electrons    NEL             ....   68
 Basis Dimension        Dim             ....  339

ORBITAL ENERGIES
----------------

  NO   OCC          E(Eh)            E(eV)
   0   2.0000     -20.513335      -558.1962
   1   2.0000     -15.582430      -424.0195
   2   2.0000     -15.579300      -423.9343
   3   2.0000     -11.341130      -308.6078
   4   2.0000     -11.271702      -306.7186
   5   2.0000     -11.271011      -306.6998
   6   2.0000     -11.269461      -306.6576
   7   2.0000     -11.268605      -306.6343
   8   2.0000     -11.229453      -305.5689
   9   2.0000      -1.374223       -37.3945
  10   2.0000      -1.296587       -35.2819
  11   2.0000      -1.238122       -33.6910
  12   2.0000      -1.126769       -30.6609
  13   2.0000      -0.937022       -25.4977
  14   2.0000      -0.876302       -23.8454
  15   2.0000      -0.855707       -23.2850
  16   2.0000      -0.809344       -22.0234
  17   2.0000      -0.783305       -21.3148
  18   2.0000      -0.732690       -19.9375
  19   2.0000      -0.691535       -18.8176
  20   2.0000      -0.678667       -18.4675
  21   2.0000      -0.636868       -17.3301
  22   2.0000      -0.625744       -17.0274
  23   2.0000      -0.590937       -16.0802
  24   2.0000      -0.573085       -15.5944
  25   2.0000      -0.546439       -14.8694
  26   2.0000      -0.541838       -14.7442
  27   2.0000      -0.535809       -14.5801
  28   2.0000      -0.490641       -13.3510
  29   2.0000      -0.470721       -12.8090
  30   2.0000      -0.424941       -11.5632
  31   2.0000      -0.410111       -11.1597
  32   2.0000      -0.403423       -10.9777
  33   2.0000      -0.357611        -9.7311
  34   0.0000       0.142079         3.8662
  35   0.0000       0.147121         4.0034
  36   0.0000       0.159928         4.3519
  37   0.0000       0.167868         4.5679
  38   0.0000       0.182102         4.9552

MULLIKEN ATOMIC CHARGES
-----------------------
   0 O :   -0.374053
   1 C :    0.185483
   2 N :   -0.311769
   3 C :    0.014065
   4 C :   -0.235180
   5 C :   -0.061453
   6 N :   -0.256136
   7 C :   -0.168983
   8 C :   -0.184443
   9 H :    0.077271
  10 H :    0.250180
  11 H :    0.153569
  12 H :    0.138503
  13 H :    0.135398
  14 H :    0.108844
  15 H :    0.137438
  16 H :    0.129489
  17 H :    0.127043
  18 H :    0.134736
Sum of atomic charges:    0.0000000

LOEWDIN ATOMIC CHARGES
----------------------
   0 O :    0.048391
   1 C :   -0.437358
   2 N :    0.114805
   3 C :   -0.228363
   4 C :   -0.199920
   5 C :   -0.260827
   6 N :    0.105597
   7 C :   -0.257563
   8 C :   -0.255831
   9 H :    0.108817
  10 H :    0.190211
  11 H :    0.155077
  12 H :    0.134937
  13 H :    0.140859
  14 H :    0.138491
  15 H :    0.125385
  16 H :    0.125102
  17 H :    0.126393
  18 H :    0.125799

  Mayer bond orders larger than 0.1
B(  0-O ,  1-C ) :   1.8798 B(  1-C ,  2-N ) :   1.1603 B(  1-C ,  9-H ) :   0.9297
B(  2-N ,  3-C ) :   0.8560 B(  2-N , 10-H ) :   0.8508 B(  3-C ,  4-C ) :   0.8844
B(  3-C ,  5-C ) :   0.8574 B(  3-C , 11-H ) :   0.9409 B(  4-C ,  5-C ) :   0.8775
B(  4-C , 12-H ) :   0.9276 B(  4-C , 13-H ) :   0.9290 B(  5-C ,  6-N ) :   0.9463
B(  5-C , 14-H ) :   0.9136 B(  6-N ,  7-C ) :   0.8552 B(  6-N ,  8-C ) :   0.8986
B(  7-C ,  8-C ) :   0.9442 B(  7-C , 15-H ) :   0.9279 B(  7-C , 16-H ) :   0.9244
B(  8-C , 17-H ) :   0.9249 B(  8-C , 18-H ) :   0.9248

MP2 TOTAL ENERGY:     -418.467907634 Eh
FINAL SINGLE POINT ENERGY      -418.467907633721

DIPOLE MOMENT
-------------
                                X             Y             Z
Electronic contribution:     -5.48209      -2.85964      -1.85137
Nuclear contribution   :      6.75204       4.06070       2.56905
                        -----------------------------------------
Total Dipole Moment    :      1.26995       1.20106       0.71768
                        -----------------------------------------
Magnitude (a.u.)       :      1.88955
Magnitude (Debye)      :      4.80284

                             ****ORCA TERMINATED NORMALLY****
TOTAL RUN TIME: 0 days 0 hours 15 minutes 23 seconds 414 msec
