                         Program Version 3.0.3 - RELEASE   -
|  1> ! RI-MP2 RIJK def2-TZVP def2-TZVP/C def2-TZVP/JK TIGHTSCF
|  2> % maxcore 2000
|  3> % mp2 density relaxed end
|  4> *xyz 0 1
|  5>  N        0.0043405599     1.3075603701     0.0313934139
|  6>  C       -0.0254415918    -0.0360662390     0.0081603228
|  7>  C       -1.1513894580    -0.8184499058     0.0045217574
|  8>  C       -2.4677797823    -0.3099285629     0.0128441425
|  9>  C       -3.5750022008     0.1690753782     0.0190106039
| 10>  C       -0.7752182107    -2.2391977888    -0.0106563743
| 11>  O       -1.5061212369    -3.2031036661    -0.0182462918
| 12>  C        0.7660757612    -2.3055205175    -0.0169989415
| 13>  C        1.2484120852    -0.8447368377    -0.0047199833
| 14>  H        0.8688437591     1.8152638362    -0.0243903300
| 15>  H       -0.8597517680     1.8249441153     0.0035772919
| 16>  H       -4.5633887270     0.5560979026     0.0257974275
| 17>  H        1.1049019220    -2.8713690396     0.8550277495
| 18>  H        1.0983166208    -2.8549821191    -0.9019350575
| 19>  H        1.8526487711    -0.5889240405    -0.8836851485
| 20>  H        1.8592288961    -0.6053436655     0.8740648375
| 21> *
| 22>
| 23>                          ****END OF INPUT****

CARTESIAN COORDINATES (ANGSTROEM)
---------------------------------
  N      0.004341    1.307560    0.031393
  C     -0.025442   -0.036066    0.008160
  C     -1.151389   -0.818450    0.004522
  C     -2.467780   -0.309929    0.012844
  C     -3.575002    0.169075    0.019011
  C     -0.775218   -2.239198   -0.010656
  O     -1.506121   -3.203104   -0.018246
  C      0.766076   -2.305521   -0.016999
  C      1.248412   -0.844737   -0.004720
  H      0.868844    1.815264   -0.024390
  H     -0.859752    1.824944    0.003577
  H     -4.563389    0.556098    0.025797
  H      1.104902   -2.871369    0.855028
  H      1.098317   -2.854982   -0.901935
  H      1.852649   -0.588924   -0.883685
  H      1.859229   -0.605344    0.874065

 Total Charge           Charge          ....    0
 Multiplicity           Mult            ....    1
 Number of Electrons    NEL             ....   64
 Basis Dimension        Dim             ....  321

ORBITAL ENERGIES
----------------

  NO   OCC          E(Eh)            E(eV)
   0   2.0000     -20.516347      -558.2782
   1   2.0000     -15.607175      -424.6928
   2   2.0000     -11.326243      -308.2027
   3   2.0000     -11.318651      -307.9962
   4   2.0000     -11.262571      -306.4701
   5   2.0000     -11.240924      -305.8811
   6   2.0000     -11.235284      -305.7276
   7   2.0000     -11.234053      -305.6941
   8   2.0000     -11.221002      -305.3390
   9   2.0000      -1.363592       -37.1052
  10   2.0000      -1.272502       -34.6265
  11   2.0000      -1.131824       -30.7985
  12   2.0000      -1.051179       -28.6040
  13   2.0000      -0.978576       -26.6284
  14   2.0000      -0.934664       -25.4335
  15   2.0000      -0.816455       -22.2169
  16   2.0000      -0.791104       -21.5270
  17   2.0000      -0.743936       -20.2435
  18   2.0000      -0.697639       -18.9837
  19   2.0000      -0.692581       -18.8461
  20   2.0000      -0.660176       -17.9643
  21   2.0000      -0.621738       -16.9183
  22   2.0000      -0.586185       -15.9509
  23   2.0000      -0.562885       -15.3169
  24   2.0000      -0.558911       -15.2087
  25   2.0000      -0.537112       -14.6156
  26   2.0000      -0.535166       -14.5626
  27   2.0000      -0.479469       -13.0470
  28   2.0000      -0.430784       -11.7222
  29   2.0000      -0.412300       -11.2193
  30   2.0000      -0.378337       -10.2951
  31   2.0000      -0.310224        -8.4416
  32   0.0000       0.110419         3.0047
  33   0.0000       0.116070         3.1584
  34   0.0000       0.139974         3.8089
  35   0.0000       0.155990         4.2447
  36   0.0000       0.160498         4.3674

MULLIKEN ATOMIC CHARGES
-----------------------
   0 N :   -0.475861
   1 C :    0.094804
   2 C :   -0.176832
   3 C :    0.053569
   4 C :   -0.160512
   5 C :    0.114228
   6 O :   -0.298708
   7 C :   -0.214572
   8 C :   -0.198743
   9 H :    0.261645
  10 H :    0.272140
  11 H :    0.191163
  12 H :    0.134082
  13 H :    0.133446
  14 H :    0.134021
  15 H :    0.136131
Sum of atomic charges:   -0.0000000

LOEWDIN ATOMIC CHARGES
----------------------
   0 N :    0.021600
   1 C :   -0.195890
   2 C :   -0.153716
   3 C :   -0.075759
   4 C :   -0.087581
   5 C :   -0.308119
   6 O :    0.128993
   7 C :   -0.203019
   8 C :   -0.205573
   9 H :    0.176676
  10 H :    0.184663
  11 H :    0.127039
  12 H :    0.148667
  13 H :    0.148565
  14 H :    0.146477
  15 H :    0.146977

  Mayer bond orders larger than 0.1
B(  0-N ,  1-C ) :   1.2129 B(  0-N ,  9-H ) :   0.8673 B(  0-N , 10-H ) :   0.8531
B(  1-C ,  2-C ) :   1.4219 B(  1-C ,  8-C ) :   0.9620 B(  2-C ,  3-C ) :   1.1463
B(  2-C ,  4-C ) :  -0.1387 B(  2-C ,  5-C ) :   0.9643 B(  2-C ,  6-O ) :  -0.1038
B(  2-C ,  7-C ) :  -0.1028 B(  3-C ,  4-C ) :   2.5994 B(  4-C , 11-H ) :   0.8855
B(  5-C ,  6-O ) :   2.0782 B(  5-C ,  7-C ) :   0.9670 B(  7-C ,  8-C ) :   0.9520
B(  7-C , 12-H ) :   0.9098 B(  7-C , 13-H ) :   0.9093 B(  8-C , 14-H ) :   0.8995
B(  8-C , 15-H ) :   0.9037

MP2 TOTAL ENERGY:     -400.066383076 Eh
FINAL SINGLE POINT ENERGY      -400.066383075681

DIPOLE MOMENT
-------------
                                X             Y             Z
Electronic contribution:     -4.98187      -1.54593       0.02457
Nuclear contribution   :      6.39299       3.51438      -0.06161
                        -----------------------------------------
Total Dipole Moment    :      1.41112       1.96846      -0.03704
                        -----------------------------------------
Magnitude (a.u.)       :      2.42228
Magnitude (Debye)      :      6.15695

                             ****ORCA TERMINATED NORMALLY****
TOTAL RUN TIME: 0 days 0 hours 16 minutes 23 seconds 978 msec
