                         Program Version 3.0.3 - RELEASE   -
|  1> ! RI-MP2 RIJK def2-TZVP def2-TZVP/C def2-TZVP/JK TIGHTSCF
|  2> % maxcore 2000
|  3> % mp2 density relaxed end
|  4> *xyz 0 1
|  5>  O       -0.5629785081     0.9385578842     0.8889313493
|  6>  C        0.0044388759     1.0751155913    -0.1636384787
|  7>  C        1.3814923933     1.6804297315    -0.3335488051
|  8>  C        1.3528474601     2.8783843191    -1.2807935056
|  9>  C        0.8837918724     4.2482063293    -0.7651055365
| 10>  C        2.2290825411     4.5802289518    -0.0464895538
| 11>  C        2.2955801363     5.8900565026    -0.8214402730
| 12>  N        1.6848962622     4.9756913855    -1.8804373128
| 13>  C        2.5703182734     3.8095256910    -1.3595957086
| 14>  H       -0.4768188642     0.7578688999    -1.1189257551
| 15>  H        1.7680100954     1.9477642005     0.6539225340
| 16>  H        2.0337262177     0.9050483567    -0.7613338935
| 17>  H        0.9404289255     2.6176169874    -2.2626584642
| 18>  H       -0.1165491767     4.5911713249    -0.4942890390
| 19>  H        2.5292426220     4.3446489820     0.9792365223
| 20>  H        1.6320468887     6.7059311272    -0.5169829916
| 21>  H        3.2807788226     6.2793437390    -1.0984876242
| 22>  H        3.5572441725     3.6311395962    -1.7919228740
| 23> *
| 24>
| 25>                          ****END OF INPUT****

CARTESIAN COORDINATES (ANGSTROEM)
---------------------------------
  O     -0.562979    0.938558    0.888931
  C      0.004439    1.075116   -0.163638
  C      1.381492    1.680430   -0.333549
  C      1.352847    2.878384   -1.280794
  C      0.883792    4.248206   -0.765106
  C      2.229083    4.580229   -0.046490
  C      2.295580    5.890057   -0.821440
  N      1.684896    4.975691   -1.880437
  C      2.570318    3.809526   -1.359596
  H     -0.476819    0.757869   -1.118926
  H      1.768010    1.947764    0.653923
  H      2.033726    0.905048   -0.761334
  H      0.940429    2.617617   -2.262658
  H     -0.116549    4.591171   -0.494289
  H      2.529243    4.344649    0.979237
  H      1.632047    6.705931   -0.516983
  H      3.280779    6.279344   -1.098488
  H      3.557244    3.631140   -1.791923

 Total Charge           Charge          ....    0
 Multiplicity           Mult            ....    1
 Number of Electrons    NEL             ....   66
 Basis Dimension        Dim             ....  333

ORBITAL ENERGIES
----------------

  NO   OCC          E(Eh)            E(eV)
   0   2.0000     -20.561219      -559.4992
   1   2.0000     -15.572717      -423.7552
   2   2.0000     -11.336302      -308.4765
   3   2.0000     -11.283004      -307.0262
   4   2.0000     -11.281436      -306.9835
   5   2.0000     -11.260052      -306.4016
   6   2.0000     -11.256408      -306.3024
   7   2.0000     -11.255122      -306.2674
   8   2.0000     -11.248632      -306.0908
   9   2.0000      -1.400084       -38.0982
  10   2.0000      -1.325826       -36.0776
  11   2.0000      -1.086687       -29.5703
  12   2.0000      -0.988821       -26.9072
  13   2.0000      -0.939414       -25.5628
  14   2.0000      -0.889781       -24.2122
  15   2.0000      -0.840686       -22.8762
  16   2.0000      -0.796614       -21.6770
  17   2.0000      -0.713359       -19.4115
  18   2.0000      -0.690261       -18.7830
  19   2.0000      -0.668674       -18.1955
  20   2.0000      -0.645359       -17.5611
  21   2.0000      -0.630021       -17.1437
  22   2.0000      -0.627165       -17.0660
  23   2.0000      -0.604461       -16.4482
  24   2.0000      -0.551784       -15.0148
  25   2.0000      -0.524490       -14.2721
  26   2.0000      -0.485475       -13.2104
  27   2.0000      -0.474860       -12.9216
  28   2.0000      -0.469137       -12.7659
  29   2.0000      -0.448163       -12.1951
  30   2.0000      -0.442500       -12.0410
  31   2.0000      -0.418127       -11.3778
  32   2.0000      -0.382085       -10.3971
  33   0.0000       0.126137         3.4324
  34   0.0000       0.141605         3.8533
  35   0.0000       0.150676         4.1001
  36   0.0000       0.155872         4.2415
  37   0.0000       0.166864         4.5406

MULLIKEN ATOMIC CHARGES
-----------------------
   0 O :   -0.260527
   1 C :    0.079144
   2 C :   -0.158590
   3 C :   -0.080626
   4 C :   -0.108818
   5 C :   -0.116820
   6 C :   -0.149531
   7 N :   -0.201448
   8 C :   -0.085494
   9 H :    0.078659
  10 H :    0.125011
  11 H :    0.130945
  12 H :    0.118476
  13 H :    0.139538
  14 H :    0.120194
  15 H :    0.118704
  16 H :    0.117409
  17 H :    0.133776
Sum of atomic charges:    0.0000000

LOEWDIN ATOMIC CHARGES
----------------------
   0 O :    0.133323
   1 C :   -0.292166
   2 C :   -0.238520
   3 C :   -0.199851
   4 C :   -0.154315
   5 C :   -0.174742
   6 C :   -0.240641
   7 N :    0.129901
   8 C :   -0.156720
   9 H :    0.110674
  10 H :    0.150503
  11 H :    0.155330
  12 H :    0.152295
  13 H :    0.129021
  14 H :    0.122575
  15 H :    0.123361
  16 H :    0.122762
  17 H :    0.127212

  Mayer bond orders larger than 0.1
B(  0-O ,  1-C ) :   2.0114 B(  1-C ,  2-C ) :   0.8707 B(  1-C ,  9-H ) :   0.9408
B(  2-C ,  3-C ) :   0.8781 B(  2-C , 10-H ) :   0.9019 B(  2-C , 11-H ) :   0.9111
B(  3-C ,  4-C ) :   0.9446 B(  3-C ,  8-C ) :   0.9293 B(  3-C , 12-H ) :   0.8834
B(  4-C ,  5-C ) :   0.9124 B(  4-C ,  7-N ) :   0.9230 B(  4-C , 13-H ) :   0.8792
B(  5-C ,  6-C ) :   0.9551 B(  5-C ,  8-C ) :   0.9097 B(  5-C , 14-H ) :   0.9160
B(  6-C ,  7-N ) :   0.9177 B(  6-C , 15-H ) :   0.9269 B(  6-C , 16-H ) :   0.9269
B(  7-N ,  8-C ) :   0.9133 B(  8-C , 17-H ) :   0.8856

MP2 TOTAL ENERGY:     -401.157600508 Eh
FINAL SINGLE POINT ENERGY      -401.157600507996

DIPOLE MOMENT
-------------
                                X             Y             Z
Electronic contribution:     -2.50015      -1.82548       0.66444
Nuclear contribution   :      3.31331       1.88890      -0.79740
                        -----------------------------------------
Total Dipole Moment    :      0.81316       0.06342      -0.13295
                        -----------------------------------------
Magnitude (a.u.)       :      0.82639
Magnitude (Debye)      :      2.10053

                             ****ORCA TERMINATED NORMALLY****
TOTAL RUN TIME: 0 days 0 hours 16 minutes 36 seconds 837 msec
