                         Program Version 3.0.3 - RELEASE   -
|  1> ! RI-MP2 RIJK def2-TZVP def2-TZVP/C def2-TZVP/JK TIGHTSCF
|  2> % maxcore 2000
|  3> % mp2 density relaxed end
|  4> *xyz 0 1
|  5>  C        0.2103756672     1.5171255870     0.0258512411
|  6>  O        1.1443580501     0.4715109300    -0.2478048602
|  7>  C       -0.2149456195     0.1110641579     0.0042655162
|  8>  C       -0.4862005986    -0.6696458919     1.2665162692
|  9>  C       -1.9777604384    -0.6215762180     1.6917460521
| 10>  O       -2.2681872192    -1.8502076674     2.3504216807
| 11>  C       -1.3660001639    -2.8213607083     1.8843989874
| 12>  C       -1.2182718139    -3.0139129791     0.3983491531
| 13>  C       -0.2180158963    -2.1677707651     1.1752782893
| 14>  H        0.3441261521     2.0225360469     0.9819484940
| 15>  H       -0.0237836790     2.1696340576    -0.8140634135
| 16>  H       -0.7474639373    -0.2444012191    -0.8802159900
| 17>  H        0.1454933293    -0.2576264396     2.0616249812
| 18>  H       -2.2013108795     0.1948041486     2.3835638280
| 19>  H       -2.6232739391    -0.4972996186     0.8091100900
| 20>  H       -1.2701972619    -3.6507145267     2.5746769473
| 21>  H       -0.8731663969    -3.9827148272     0.0539422602
| 22>  H       -1.9282965892    -2.5354903428    -0.2681901770
| 23>  H        0.8027480641    -2.5150162943     1.2755175608
| 24> *
| 25>
| 26>                          ****END OF INPUT****

CARTESIAN COORDINATES (ANGSTROEM)
---------------------------------
  C      0.210376    1.517126    0.025851
  O      1.144358    0.471511   -0.247805
  C     -0.214946    0.111064    0.004266
  C     -0.486201   -0.669646    1.266516
  C     -1.977760   -0.621576    1.691746
  O     -2.268187   -1.850208    2.350422
  C     -1.366000   -2.821361    1.884399
  C     -1.218272   -3.013913    0.398349
  C     -0.218016   -2.167771    1.175278
  H      0.344126    2.022536    0.981948
  H     -0.023784    2.169634   -0.814063
  H     -0.747464   -0.244401   -0.880216
  H      0.145493   -0.257626    2.061625
  H     -2.201311    0.194804    2.383564
  H     -2.623274   -0.497300    0.809110
  H     -1.270197   -3.650715    2.574677
  H     -0.873166   -3.982715    0.053942
  H     -1.928297   -2.535490   -0.268190
  H      0.802748   -2.515016    1.275518

 Total Charge           Charge          ....    0
 Multiplicity           Mult            ....    1
 Number of Electrons    NEL             ....   68
 Basis Dimension        Dim             ....  339

ORBITAL ENERGIES
----------------

  NO   OCC          E(Eh)            E(eV)
   0   2.0000     -20.570529      -559.7525
   1   2.0000     -20.561112      -559.4963
   2   2.0000     -11.291174      -307.2485
   3   2.0000     -11.286137      -307.1114
   4   2.0000     -11.283769      -307.0470
   5   2.0000     -11.283055      -307.0275
   6   2.0000     -11.244823      -305.9872
   7   2.0000     -11.235523      -305.7341
   8   2.0000     -11.231076      -305.6131
   9   2.0000      -1.414450       -38.4891
  10   2.0000      -1.390479       -37.8368
  11   2.0000      -1.139864       -31.0173
  12   2.0000      -1.052001       -28.6264
  13   2.0000      -0.927151       -25.2291
  14   2.0000      -0.895879       -24.3781
  15   2.0000      -0.849996       -23.1296
  16   2.0000      -0.793598       -21.5949
  17   2.0000      -0.774181       -21.0665
  18   2.0000      -0.724297       -19.7091
  19   2.0000      -0.686841       -18.6899
  20   2.0000      -0.671953       -18.2848
  21   2.0000      -0.635288       -17.2871
  22   2.0000      -0.602495       -16.3947
  23   2.0000      -0.586139       -15.9497
  24   2.0000      -0.573945       -15.6178
  25   2.0000      -0.563244       -15.3266
  26   2.0000      -0.537347       -14.6220
  27   2.0000      -0.514937       -14.0121
  28   2.0000      -0.494900       -13.4669
  29   2.0000      -0.480642       -13.0789
  30   2.0000      -0.451193       -12.2776
  31   2.0000      -0.435657       -11.8548
  32   2.0000      -0.413682       -11.2569
  33   2.0000      -0.379890       -10.3373
  34   0.0000       0.142726         3.8838
  35   0.0000       0.145487         3.9589
  36   0.0000       0.162947         4.4340
  37   0.0000       0.177886         4.8405
  38   0.0000       0.185671         5.0524

MULLIKEN ATOMIC CHARGES
-----------------------
   0 C :   -0.074644
   1 O :   -0.330322
   2 C :    0.020595
   3 C :   -0.076767
   4 C :   -0.069532
   5 O :   -0.305065
   6 C :    0.058647
   7 C :   -0.299882
   8 C :   -0.138785
   9 H :    0.115284
  10 H :    0.118145
  11 H :    0.122591
  12 H :    0.106076
  13 H :    0.121434
  14 H :    0.098018
  15 H :    0.129159
  16 H :    0.132882
  17 H :    0.135763
  18 H :    0.136404
Sum of atomic charges:   -0.0000000

LOEWDIN ATOMIC CHARGES
----------------------
   0 C :   -0.264950
   1 O :    0.147670
   2 C :   -0.272108
   3 C :   -0.219224
   4 C :   -0.262405
   5 O :    0.181349
   6 C :   -0.276819
   7 C :   -0.207674
   8 C :   -0.181493
   9 H :    0.120403
  10 H :    0.119339
  11 H :    0.140696
  12 H :    0.164484
  13 H :    0.128511
  14 H :    0.123240
  15 H :    0.137961
  16 H :    0.137330
  17 H :    0.135353
  18 H :    0.148340

  Mayer bond orders larger than 0.1
B(  0-C ,  1-O ) :   0.9132 B(  0-C ,  2-C ) :   0.9856 B(  0-C ,  9-H ) :   0.9066
B(  0-C , 10-H ) :   0.9204 B(  1-O ,  2-C ) :   0.8836 B(  2-C ,  3-C ) :   0.9176
B(  2-C , 11-H ) :   0.9024 B(  3-C ,  4-C ) :   0.9557 B(  3-C ,  8-C ) :   0.9273
B(  3-C , 12-H ) :   0.9081 B(  4-C ,  5-O ) :   0.9299 B(  4-C , 13-H ) :   0.9213
B(  4-C , 14-H ) :   0.9196 B(  5-O ,  6-C ) :   0.9709 B(  6-C ,  7-C ) :   0.8648
B(  6-C ,  8-C ) :   0.8936 B(  6-C , 15-H ) :   0.9408 B(  7-C ,  8-C ) :   0.8687
B(  7-C , 16-H ) :   0.9210 B(  7-C , 17-H ) :   0.9172 B(  8-C , 18-H ) :   0.9252

MP2 TOTAL ENERGY:     -422.275938807 Eh
FINAL SINGLE POINT ENERGY      -422.275938806617

DIPOLE MOMENT
-------------
                                X             Y             Z
Electronic contribution:      0.97955      -0.22679       1.07061
Nuclear contribution   :     -1.17997       0.47175      -1.19734
                        -----------------------------------------
Total Dipole Moment    :     -0.20042       0.24496      -0.12672
                        -----------------------------------------
Magnitude (a.u.)       :      0.34093
Magnitude (Debye)      :      0.86657

                             ****ORCA TERMINATED NORMALLY****
TOTAL RUN TIME: 0 days 0 hours 15 minutes 39 seconds 794 msec
