                         Program Version 3.0.3 - RELEASE   -
|  1> ! RI-MP2 RIJK def2-TZVP def2-TZVP/C def2-TZVP/JK TIGHTSCF
|  2> % maxcore 2000
|  3> % mp2 density relaxed end
|  4> *xyz 0 1
|  5>  O        0.2760172608     1.4856501661    -0.0937441152
|  6>  C        0.0488467098     0.0912147890    -0.0316007915
|  7>  C        0.5441858927    -0.6805914314    -1.2721483912
|  8>  C       -0.1268339062    -0.2265715886    -2.5488898195
|  9>  C        0.4235379830     0.9262637609    -3.3470407236
| 10>  C        0.5331024125    -0.4786773043    -3.8821308587
| 11>  C        0.6368832763    -0.4853252634     1.1978345074
| 12>  N        1.1310832275    -0.9270543849     2.1445215648
| 13>  H        1.2277442283     1.6355143697    -0.1299501004
| 14>  H       -1.0397629740    -0.0155271542     0.0415683921
| 15>  H        1.6328635756    -0.5605821481    -1.3499690157
| 16>  H        0.3633628381    -1.7491190788    -1.1005722777
| 17>  H       -1.2105691781    -0.3169831071    -2.5336159665
| 18>  H       -0.2764900989     1.6084349046    -3.8155371928
| 19>  H        1.3291676145     1.4039758541    -2.9892325873
| 20>  H        1.5115943986    -0.9482245452    -3.8821609648
| 21>  H       -0.0941259704    -0.7660352884    -4.7183897792
| 22> *
| 23>
| 24>                          ****END OF INPUT****

CARTESIAN COORDINATES (ANGSTROEM)
---------------------------------
  O      0.276017    1.485650   -0.093744
  C      0.048847    0.091215   -0.031601
  C      0.544186   -0.680591   -1.272148
  C     -0.126834   -0.226572   -2.548890
  C      0.423538    0.926264   -3.347041
  C      0.533102   -0.478677   -3.882131
  C      0.636883   -0.485325    1.197835
  N      1.131083   -0.927054    2.144522
  H      1.227744    1.635514   -0.129950
  H     -1.039763   -0.015527    0.041568
  H      1.632864   -0.560582   -1.349969
  H      0.363363   -1.749119   -1.100572
  H     -1.210569   -0.316983   -2.533616
  H     -0.276490    1.608435   -3.815537
  H      1.329168    1.403976   -2.989233
  H      1.511594   -0.948225   -3.882161
  H     -0.094126   -0.766035   -4.718390

 Total Charge           Charge          ....    0
 Multiplicity           Mult            ....    1
 Number of Electrons    NEL             ....   60
 Basis Dimension        Dim             ....  302

ORBITAL ENERGIES
----------------

  NO   OCC          E(Eh)            E(eV)
   0   2.0000     -20.590068      -560.2842
   1   2.0000     -15.579166      -423.9307
   2   2.0000     -11.342983      -308.6583
   3   2.0000     -11.276224      -306.8417
   4   2.0000     -11.257817      -306.3408
   5   2.0000     -11.248008      -306.0739
   6   2.0000     -11.237211      -305.7801
   7   2.0000     -11.236237      -305.7536
   8   2.0000      -1.400526       -38.1103
   9   2.0000      -1.223811       -33.3016
  10   2.0000      -1.161263       -31.5996
  11   2.0000      -1.059928       -28.8421
  12   2.0000      -0.928554       -25.2672
  13   2.0000      -0.834942       -22.7199
  14   2.0000      -0.805475       -21.9181
  15   2.0000      -0.758733       -20.6462
  16   2.0000      -0.692199       -18.8357
  17   2.0000      -0.668921       -18.2023
  18   2.0000      -0.651917       -17.7396
  19   2.0000      -0.631171       -17.1750
  20   2.0000      -0.581575       -15.8255
  21   2.0000      -0.561905       -15.2902
  22   2.0000      -0.552930       -15.0460
  23   2.0000      -0.525771       -14.3070
  24   2.0000      -0.513280       -13.9671
  25   2.0000      -0.502505       -13.6739
  26   2.0000      -0.473177       -12.8758
  27   2.0000      -0.467212       -12.7135
  28   2.0000      -0.428746       -11.6668
  29   2.0000      -0.420375       -11.4390
  30   0.0000       0.115540         3.1440
  31   0.0000       0.134425         3.6579
  32   0.0000       0.148698         4.0463
  33   0.0000       0.157720         4.2918
  34   0.0000       0.174221         4.7408

MULLIKEN ATOMIC CHARGES
-----------------------
   0 O :   -0.441327
   1 C :    0.187372
   2 C :   -0.334372
   3 C :   -0.023046
   4 C :   -0.258625
   5 C :   -0.272656
   6 C :   -0.182587
   7 N :   -0.052229
   8 H :    0.322598
   9 H :    0.132646
  10 H :    0.140902
  11 H :    0.142998
  12 H :    0.123326
  13 H :    0.135288
  14 H :    0.112028
  15 H :    0.132766
  16 H :    0.134916
Sum of atomic charges:   -0.0000000

LOEWDIN ATOMIC CHARGES
----------------------
   0 O :    0.016722
   1 C :   -0.336142
   2 C :   -0.224339
   3 C :   -0.230514
   4 C :   -0.227507
   5 C :   -0.227252
   6 C :   -0.173049
   7 N :    0.067190
   8 H :    0.183296
   9 H :    0.168902
  10 H :    0.149383
  11 H :    0.154965
  12 H :    0.150038
  13 H :    0.133249
  14 H :    0.129363
  15 H :    0.133122
  16 H :    0.132574

  Mayer bond orders larger than 0.1
B(  0-O ,  1-C ) :   0.9295 B(  0-O ,  8-H ) :   0.8370 B(  1-C ,  2-C ) :   0.9395
B(  1-C ,  6-C ) :   0.9235 B(  1-C ,  9-H ) :   0.9032 B(  2-C ,  3-C ) :   0.8933
B(  2-C , 10-H ) :   0.9246 B(  2-C , 11-H ) :   0.9203 B(  3-C ,  4-C ) :   0.8874
B(  3-C ,  5-C ) :   0.8911 B(  3-C , 12-H ) :   0.9209 B(  4-C ,  5-C ) :   0.8977
B(  4-C , 13-H ) :   0.9301 B(  4-C , 14-H ) :   0.9341 B(  5-C , 15-H ) :   0.9303
B(  5-C , 16-H ) :   0.9311 B(  6-C ,  7-N ) :   2.8650

MP2 TOTAL ENERGY:     -363.236590885 Eh
FINAL SINGLE POINT ENERGY      -363.236590884823

DIPOLE MOMENT
-------------
                                X             Y             Z
Electronic contribution:      0.31679      -0.10722       9.38345
Nuclear contribution   :     -0.44990       0.22757     -10.76224
                        -----------------------------------------
Total Dipole Moment    :     -0.13311       0.12034      -1.37879
                        -----------------------------------------
Magnitude (a.u.)       :      1.39042
Magnitude (Debye)      :      3.53417

                             ****ORCA TERMINATED NORMALLY****
TOTAL RUN TIME: 0 days 0 hours 11 minutes 28 seconds 905 msec
