                         Program Version 3.0.3 - RELEASE   -
|  1> ! RI-MP2 RIJK def2-TZVP def2-TZVP/C def2-TZVP/JK TIGHTSCF
|  2> % maxcore 2000
|  3> % mp2 density relaxed end
|  4> *xyz 0 1
|  5>  C       -0.0899937696     1.5630347485    -0.0860570586
|  6>  C        0.0014444939     0.0473567874    -0.0418590884
|  7>  C        0.7085927214    -0.6551158342    -1.2099829208
|  8>  O        2.0478579509    -0.1510669181    -1.2551029249
|  9>  C        1.7614640836    -1.2080437569    -0.3445881239
| 10>  C        1.1278149639    -0.5863899497     0.9160754741
| 11>  O        1.9958076122     0.3054988579     1.5766956519
| 12>  C        0.5789429690    -1.5894955569     1.8192507283
| 13>  C        0.1270652065    -2.3982217730     2.5865639555
| 14>  H        0.8845049031     1.9967921632    -0.3165195912
| 15>  H       -0.8079052152     1.8832833081    -0.8488107213
| 16>  H       -0.4255336806     1.9639299077     0.8759525821
| 17>  H       -0.9654673408    -0.4138529905     0.1756322361
| 18>  H        0.2907187286    -1.0477452222    -2.1292395686
| 19>  H        2.3537608082    -2.1131213897    -0.4072218584
| 20>  H        1.6217951360     0.4994042178     2.4428215905
| 21>  H       -0.2683509211    -3.1171713694     3.2612561875
| 22> *
| 23>
| 24>                          ****END OF INPUT****

CARTESIAN COORDINATES (ANGSTROEM)
---------------------------------
  C     -0.089994    1.563035   -0.086057
  C      0.001444    0.047357   -0.041859
  C      0.708593   -0.655116   -1.209983
  O      2.047858   -0.151067   -1.255103
  C      1.761464   -1.208044   -0.344588
  C      1.127815   -0.586390    0.916075
  O      1.995808    0.305499    1.576696
  C      0.578943   -1.589496    1.819251
  C      0.127065   -2.398222    2.586564
  H      0.884505    1.996792   -0.316520
  H     -0.807905    1.883283   -0.848811
  H     -0.425534    1.963930    0.875953
  H     -0.965467   -0.413853    0.175632
  H      0.290719   -1.047745   -2.129240
  H      2.353761   -2.113121   -0.407222
  H      1.621795    0.499404    2.442822
  H     -0.268351   -3.117171    3.261256

 Total Charge           Charge          ....    0
 Multiplicity           Mult            ....    1
 Number of Electrons    NEL             ....   66
 Basis Dimension        Dim             ....  327

ORBITAL ENERGIES
----------------

  NO   OCC          E(Eh)            E(eV)
   0   2.0000     -20.574759      -559.8677
   1   2.0000     -20.570933      -559.7635
   2   2.0000     -11.326169      -308.2007
   3   2.0000     -11.293796      -307.3198
   4   2.0000     -11.292033      -307.2718
   5   2.0000     -11.250022      -306.1287
   6   2.0000     -11.248316      -306.0822
   7   2.0000     -11.243108      -305.9405
   8   2.0000     -11.216206      -305.2085
   9   2.0000      -1.431337       -38.9486
  10   2.0000      -1.378463       -37.5099
  11   2.0000      -1.109746       -30.1977
  12   2.0000      -1.041791       -28.3486
  13   2.0000      -0.980515       -26.6812
  14   2.0000      -0.900458       -24.5027
  15   2.0000      -0.852071       -23.1860
  16   2.0000      -0.789017       -21.4702
  17   2.0000      -0.754539       -20.5320
  18   2.0000      -0.717442       -19.5226
  19   2.0000      -0.702816       -19.1246
  20   2.0000      -0.651957       -17.7406
  21   2.0000      -0.616734       -16.7822
  22   2.0000      -0.600226       -16.3330
  23   2.0000      -0.565284       -15.3822
  24   2.0000      -0.546977       -14.8840
  25   2.0000      -0.536917       -14.6103
  26   2.0000      -0.516054       -14.0425
  27   2.0000      -0.497273       -13.5315
  28   2.0000      -0.477418       -12.9912
  29   2.0000      -0.449131       -12.2215
  30   2.0000      -0.413716       -11.2578
  31   2.0000      -0.409516       -11.1435
  32   2.0000      -0.385522       -10.4906
  33   0.0000       0.128599         3.4994
  34   0.0000       0.150227         4.0879
  35   0.0000       0.156579         4.2607
  36   0.0000       0.162760         4.4289
  37   0.0000       0.169681         4.6172

MULLIKEN ATOMIC CHARGES
-----------------------
   0 C :   -0.440880
   1 C :   -0.033818
   2 C :   -0.042621
   3 O :   -0.313446
   4 C :   -0.031001
   5 C :    0.297351
   6 O :   -0.451991
   7 C :   -0.182874
   8 C :   -0.156499
   9 H :    0.168080
  10 H :    0.132403
  11 H :    0.120335
  12 H :    0.125829
  13 H :    0.141102
  14 H :    0.147826
  15 H :    0.322757
  16 H :    0.197449
Sum of atomic charges:   -0.0000000

LOEWDIN ATOMIC CHARGES
----------------------
   0 C :   -0.294045
   1 C :   -0.188552
   2 C :   -0.218081
   3 O :    0.196291
   4 C :   -0.198058
   5 C :   -0.313532
   6 O :    0.043300
   7 C :   -0.074352
   8 C :   -0.077891
   9 H :    0.135263
  10 H :    0.126783
  11 H :    0.124071
  12 H :    0.155901
  13 H :    0.131925
  14 H :    0.136546
  15 H :    0.184734
  16 H :    0.129698

  Mayer bond orders larger than 0.1
B(  0-C ,  1-C ) :   0.8676 B(  0-C ,  9-H ) :   0.9354 B(  0-C , 10-H ) :   0.9332
B(  0-C , 11-H ) :   0.9369 B(  1-C ,  2-C ) :   0.9171 B(  1-C ,  5-C ) :   0.8560
B(  1-C , 12-H ) :   0.9034 B(  2-C ,  3-O ) :   0.9166 B(  2-C ,  4-C ) :   0.9140
B(  2-C , 13-H ) :   0.9260 B(  3-O ,  4-C ) :   0.9393 B(  4-C ,  5-C ) :   0.7960
B(  4-C , 14-H ) :   0.9229 B(  5-C ,  6-O ) :   0.9588 B(  5-C ,  7-C ) :   1.1480
B(  6-O , 15-H ) :   0.8341 B(  7-C ,  8-C ) :   2.5675 B(  8-C , 16-H ) :   0.8893

MP2 TOTAL ENERGY:     -421.034085377 Eh
FINAL SINGLE POINT ENERGY      -421.034085376617

DIPOLE MOMENT
-------------
                                X             Y             Z
Electronic contribution:      3.60607      -3.56625       0.73689
Nuclear contribution   :     -4.58676       3.06570      -0.28261
                        -----------------------------------------
Total Dipole Moment    :     -0.98069      -0.50055       0.45428
                        -----------------------------------------
Magnitude (a.u.)       :      1.19109
Magnitude (Debye)      :      3.02750

                             ****ORCA TERMINATED NORMALLY****
TOTAL RUN TIME: 0 days 0 hours 17 minutes 5 seconds 828 msec
