                         Program Version 3.0.3 - RELEASE   -
|  1> ! RI-MP2 RIJK def2-TZVP def2-TZVP/C def2-TZVP/JK TIGHTSCF
|  2> % maxcore 2000
|  3> % mp2 density relaxed end
|  4> *xyz 0 1
|  5>  C       -0.3490935873     1.4940856994    -0.0042493209
|  6>  C        0.0198996556     0.0126074551    -0.0081630784
|  7>  O       -1.1364143944    -0.7870393059    -0.2542388448
|  8>  C        1.0429336284    -0.3809515159    -1.1040453200
|  9>  O        2.0584215035    -1.1677155498    -0.4905501058
| 10>  C        1.5432928030    -1.6667200844     0.7338423678
| 11>  C        0.7194518935    -0.5008911048     1.2999443124
| 12>  C        1.6215522176     0.5277448622     1.9441005375
| 13>  O        1.3395715815     1.1482690925     2.9389199353
| 14>  H        0.5340353809     2.1316525860     0.0967701906
| 15>  H       -0.8576530628     1.7501057367    -0.9382542679
| 16>  H       -1.0181065020     1.7296153389     0.8310665337
| 17>  H       -1.8168525366    -0.5287143889     0.3773879257
| 18>  H        0.5153596616    -0.9481776233    -1.8806140202
| 19>  H        1.5233289122     0.4890510982    -1.5617739329
| 20>  H        0.8968361491    -2.5424284932     0.5786621458
| 21>  H        2.3935966157    -1.9594879893     1.3569290398
| 22>  H       -0.0364023069    -0.7976950423     2.0310020996
| 23>  H        2.5965157174     0.6780652687     1.4277067229
| 24> *
| 25>
| 26>                          ****END OF INPUT****

CARTESIAN COORDINATES (ANGSTROEM)
---------------------------------
  C     -0.349094    1.494086   -0.004249
  C      0.019900    0.012607   -0.008163
  O     -1.136414   -0.787039   -0.254239
  C      1.042934   -0.380952   -1.104045
  O      2.058422   -1.167716   -0.490550
  C      1.543293   -1.666720    0.733842
  C      0.719452   -0.500891    1.299944
  C      1.621552    0.527745    1.944101
  O      1.339572    1.148269    2.938920
  H      0.534035    2.131653    0.096770
  H     -0.857653    1.750106   -0.938254
  H     -1.018107    1.729615    0.831067
  H     -1.816853   -0.528714    0.377388
  H      0.515360   -0.948178   -1.880614
  H      1.523329    0.489051   -1.561774
  H      0.896836   -2.542428    0.578662
  H      2.393597   -1.959488    1.356929
  H     -0.036402   -0.797695    2.031002
  H      2.596516    0.678065    1.427707

 Total Charge           Charge          ....    0
 Multiplicity           Mult            ....    1
 Number of Electrons    NEL             ....   70
 Basis Dimension        Dim             ....  339

ORBITAL ENERGIES
----------------

  NO   OCC          E(Eh)            E(eV)
   0   2.0000     -20.574383      -559.8574
   1   2.0000     -20.566658      -559.6472
   2   2.0000     -20.562752      -559.5409
   3   2.0000     -11.336284      -308.4760
   4   2.0000     -11.314297      -307.8777
   5   2.0000     -11.290633      -307.2337
   6   2.0000     -11.283097      -307.0287
   7   2.0000     -11.250946      -306.1538
   8   2.0000     -11.236975      -305.7736
   9   2.0000      -1.404381       -38.2151
  10   2.0000      -1.397673       -38.0326
  11   2.0000      -1.375608       -37.4322
  12   2.0000      -1.090258       -29.6674
  13   2.0000      -1.031961       -28.0811
  14   2.0000      -0.952198       -25.9106
  15   2.0000      -0.883303       -24.0359
  16   2.0000      -0.816218       -22.2104
  17   2.0000      -0.785197       -21.3663
  18   2.0000      -0.711947       -19.3731
  19   2.0000      -0.692820       -18.8526
  20   2.0000      -0.675366       -18.3776
  21   2.0000      -0.658064       -17.9068
  22   2.0000      -0.631910       -17.1951
  23   2.0000      -0.619057       -16.8454
  24   2.0000      -0.596373       -16.2281
  25   2.0000      -0.593490       -16.1497
  26   2.0000      -0.551035       -14.9944
  27   2.0000      -0.549701       -14.9581
  28   2.0000      -0.533315       -14.5122
  29   2.0000      -0.528084       -14.3699
  30   2.0000      -0.510808       -13.8998
  31   2.0000      -0.478276       -13.0146
  32   2.0000      -0.455972       -12.4076
  33   2.0000      -0.433944       -11.8082
  34   2.0000      -0.414712       -11.2849
  35   0.0000       0.119076         3.2402
  36   0.0000       0.126525         3.4429
  37   0.0000       0.152327         4.1450
  38   0.0000       0.167306         4.5526
  39   0.0000       0.180348         4.9075

MULLIKEN ATOMIC CHARGES
-----------------------
   0 C :   -0.423912
   1 C :    0.140737
   2 O :   -0.459016
   3 C :   -0.067205
   4 O :   -0.318179
   5 C :   -0.063705
   6 C :    0.022128
   7 C :   -0.022645
   8 O :   -0.256223
   9 H :    0.138554
  10 H :    0.154445
  11 H :    0.139657
  12 H :    0.319403
  13 H :    0.114730
  14 H :    0.116391
  15 H :    0.113450
  16 H :    0.130881
  17 H :    0.110486
  18 H :    0.110023
Sum of atomic charges:   -0.0000000

LOEWDIN ATOMIC CHARGES
----------------------
   0 C :   -0.275973
   1 C :   -0.368287
   2 O :    0.012597
   3 C :   -0.254024
   4 O :    0.151670
   5 C :   -0.284006
   6 C :   -0.220870
   7 C :   -0.275280
   8 O :    0.133739
   9 H :    0.133186
  10 H :    0.132831
  11 H :    0.130689
  12 H :    0.177185
  13 H :    0.133043
  14 H :    0.130280
  15 H :    0.129948
  16 H :    0.132430
  17 H :    0.160063
  18 H :    0.120777

  Mayer bond orders larger than 0.1
B(  0-C ,  1-C ) :   0.9402 B(  0-C ,  9-H ) :   0.9212 B(  0-C , 10-H ) :   0.9373
B(  0-C , 11-H ) :   0.9206 B(  1-C ,  2-O ) :   0.9589 B(  1-C ,  3-C ) :   0.8886
B(  1-C ,  6-C ) :   0.8659 B(  2-O , 12-H ) :   0.8390 B(  3-C ,  4-O ) :   0.9418
B(  3-C , 13-H ) :   0.9204 B(  3-C , 14-H ) :   0.9180 B(  4-O ,  5-C ) :   0.9154
B(  5-C ,  6-C ) :   0.9219 B(  5-C , 15-H ) :   0.9140 B(  5-C , 16-H ) :   0.9282
B(  6-C ,  7-C ) :   0.7847 B(  6-C , 17-H ) :   0.8905 B(  7-C ,  8-O ) :   1.9781
B(  7-C , 18-H ) :   0.9466

MP2 TOTAL ENERGY:     -459.442136573 Eh
FINAL SINGLE POINT ENERGY      -459.442136573421

DIPOLE MOMENT
-------------
                                X             Y             Z
Electronic contribution:      1.96969      -1.36101       2.73068
Nuclear contribution   :     -2.49448       1.37160      -2.99316
                        -----------------------------------------
Total Dipole Moment    :     -0.52479       0.01059      -0.26248
                        -----------------------------------------
Magnitude (a.u.)       :      0.58686
Magnitude (Debye)      :      1.49168

                             ****ORCA TERMINATED NORMALLY****
TOTAL RUN TIME: 0 days 0 hours 18 minutes 11 seconds 540 msec
