                         Program Version 3.0.3 - RELEASE   -
|  1> ! RI-MP2 RIJK def2-TZVP def2-TZVP/C def2-TZVP/JK TIGHTSCF
|  2> % maxcore 2000
|  3> % mp2 density relaxed end
|  4> *xyz 0 1
|  5>  C       -0.0133446902     1.4979049592    -0.0121555348
|  6>  C        1.4148131186     2.0568367004     0.0417857253
|  7>  O        2.1090825371     1.7122736489     1.2475680778
|  8>  C        1.9487309877     0.4000699682     1.5615288367
|  9>  C        1.0179025429    -0.4283807327     1.0150621759
| 10>  C       -0.0202594003    -0.0488953042     0.0239680988
| 11>  O        1.1401567023    -1.6752264512     1.5617566137
| 12>  C        2.1596750755    -1.6112142581     2.4600637986
| 13>  C        2.6999958487    -0.3636561165     2.5100335001
| 14>  H       -0.5742620328     1.8874413013     0.8444522464
| 15>  H       -0.5017119019     1.8673080373    -0.9192849872
| 16>  H        1.9943633070     1.6841556269    -0.8161064058
| 17>  H        1.4103350665     3.1488448038     0.0084938356
| 18>  H       -1.0109398409    -0.4190190066     0.3131051922
| 19>  H        0.1890792669    -0.4626959538    -0.9724009381
| 20>  H        2.3829896452    -2.5286098864     2.9788222832
| 21>  H        3.5175068779    -0.0288801864     3.1274793316
| 22> *
| 23>
| 24>                          ****END OF INPUT****

CARTESIAN COORDINATES (ANGSTROEM)
---------------------------------
  C     -0.013345    1.497905   -0.012156
  C      1.414813    2.056837    0.041786
  O      2.109083    1.712274    1.247568
  C      1.948731    0.400070    1.561529
  C      1.017903   -0.428381    1.015062
  C     -0.020259   -0.048895    0.023968
  O      1.140157   -1.675226    1.561757
  C      2.159675   -1.611214    2.460064
  C      2.699996   -0.363656    2.510034
  H     -0.574262    1.887441    0.844452
  H     -0.501712    1.867308   -0.919285
  H      1.994363    1.684156   -0.816106
  H      1.410335    3.148845    0.008494
  H     -1.010940   -0.419019    0.313105
  H      0.189079   -0.462696   -0.972401
  H      2.382990   -2.528610    2.978822
  H      3.517507   -0.028880    3.127479

 Total Charge           Charge          ....    0
 Multiplicity           Mult            ....    1
 Number of Electrons    NEL             ....   66
 Basis Dimension        Dim             ....  327

ORBITAL ENERGIES
----------------

  NO   OCC          E(Eh)            E(eV)
   0   2.0000     -20.613790      -560.9297
   1   2.0000     -20.577627      -559.9457
   2   2.0000     -11.286858      -307.1310
   3   2.0000     -11.286551      -307.1227
   4   2.0000     -11.276938      -306.8611
   5   2.0000     -11.267958      -306.6167
   6   2.0000     -11.240466      -305.8686
   7   2.0000     -11.236892      -305.7714
   8   2.0000     -11.225600      -305.4641
   9   2.0000      -1.450999       -39.4837
  10   2.0000      -1.401870       -38.1468
  11   2.0000      -1.087736       -29.5988
  12   2.0000      -1.076641       -29.2969
  13   2.0000      -1.006048       -27.3760
  14   2.0000      -0.910280       -24.7700
  15   2.0000      -0.850027       -23.1304
  16   2.0000      -0.807186       -21.9647
  17   2.0000      -0.737933       -20.0802
  18   2.0000      -0.713990       -19.4287
  19   2.0000      -0.666132       -18.1264
  20   2.0000      -0.649549       -17.6751
  21   2.0000      -0.631082       -17.1726
  22   2.0000      -0.614752       -16.7282
  23   2.0000      -0.595210       -16.1965
  24   2.0000      -0.585591       -15.9348
  25   2.0000      -0.566447       -15.4138
  26   2.0000      -0.541319       -14.7300
  27   2.0000      -0.530843       -14.4450
  28   2.0000      -0.499864       -13.6020
  29   2.0000      -0.479592       -13.0503
  30   2.0000      -0.461971       -12.5709
  31   2.0000      -0.371368       -10.1054
  32   2.0000      -0.296405        -8.0656
  33   0.0000       0.134061         3.6480
  34   0.0000       0.148421         4.0387
  35   0.0000       0.175080         4.7642
  36   0.0000       0.176549         4.8041
  37   0.0000       0.181373         4.9354

MULLIKEN ATOMIC CHARGES
-----------------------
   0 C :   -0.226280
   1 C :   -0.048250
   2 O :   -0.286339
   3 C :    0.171922
   4 C :    0.089313
   5 C :   -0.240016
   6 O :   -0.226993
   7 C :    0.009851
   8 C :   -0.283261
   9 H :    0.123095
  10 H :    0.130858
  11 H :    0.100995
  12 H :    0.134840
  13 H :    0.135941
  14 H :    0.127735
  15 H :    0.145723
  16 H :    0.140865
Sum of atomic charges:    0.0000000

LOEWDIN ATOMIC CHARGES
----------------------
   0 C :   -0.250642
   1 C :   -0.280830
   2 O :    0.232311
   3 C :   -0.273779
   4 C :   -0.253253
   5 C :   -0.231733
   6 O :    0.348461
   7 C :   -0.245038
   8 C :   -0.161296
   9 H :    0.144748
  10 H :    0.142133
  11 H :    0.128410
  12 H :    0.131408
  13 H :    0.147903
  14 H :    0.143515
  15 H :    0.131321
  16 H :    0.146362

  Mayer bond orders larger than 0.1
B(  0-C ,  1-C ) :   0.9229 B(  0-C ,  5-C ) :   0.9418 B(  0-C ,  9-H ) :   0.9238
B(  0-C , 10-H ) :   0.9259 B(  1-C ,  2-O ) :   0.8893 B(  1-C , 11-H ) :   0.9331
B(  1-C , 12-H ) :   0.9308 B(  2-O ,  3-C ) :   1.0659 B(  3-C ,  4-C ) :   1.4191
B(  3-C ,  8-C ) :   1.2105 B(  4-C ,  5-C ) :   0.9386 B(  4-C ,  6-O ) :   1.0038
B(  5-C , 13-H ) :   0.9270 B(  5-C , 14-H ) :   0.9197 B(  6-O ,  7-C ) :   1.0539
B(  7-C ,  8-C ) :   1.5412 B(  7-C , 15-H ) :   0.9370 B(  8-C , 16-H ) :   0.9193

MP2 TOTAL ENERGY:     -421.145984356 Eh
FINAL SINGLE POINT ENERGY      -421.145984355635

DIPOLE MOMENT
-------------
                                X             Y             Z
Electronic contribution:      3.01165      -3.20666       3.79903
Nuclear contribution   :     -3.32378       3.38430      -4.22446
                        -----------------------------------------
Total Dipole Moment    :     -0.31213       0.17764      -0.42544
                        -----------------------------------------
Magnitude (a.u.)       :      0.55676
Magnitude (Debye)      :      1.41517

                             ****ORCA TERMINATED NORMALLY****
TOTAL RUN TIME: 0 days 0 hours 18 minutes 39 seconds 495 msec
