                         Program Version 3.0.3 - RELEASE   -
|  1> ! RI-MP2 RIJK def2-TZVP def2-TZVP/C def2-TZVP/JK TIGHTSCF
|  2> % maxcore 2000
|  3> % mp2 density relaxed end
|  4> *xyz 0 1
|  5>  C        0.0187090548     1.5039179243     0.0228775650
|  6>  C        0.0155163096    -0.0118077752    -0.0003078708
|  7>  C       -1.2557319008    -0.6182499105    -0.5640522862
|  8>  C        1.3142996607    -0.7318846985    -0.2464619737
|  9>  C        0.7412956100    -0.7378804179     1.1607035004
| 10>  N        1.4545444512    -0.0550815896     2.2110146551
| 11>  C        0.1491902194    -1.9779679735     1.6227367559
| 12>  N       -0.3489218541    -2.9536781616     1.9948704393
| 13>  H        0.9270895552     1.9126503192     0.4714665489
| 14>  H       -0.0554981579     1.8975977229    -0.9967244324
| 15>  H       -0.8381100543     1.8887689444     0.5877725561
| 16>  H       -1.3918923401    -0.3082763144    -1.6064456551
| 17>  H       -1.2388637894    -1.7099416518    -0.5359654468
| 18>  H       -2.1329813148    -0.2845703545     0.0010255810
| 19>  H        1.2987268965    -1.6630281123    -0.8013812281
| 20>  H        2.2181741365    -0.1458906976    -0.3854731413
| 21>  H        2.2265545404     0.4905244721     1.8530634643
| 22>  H        0.8483692871     0.5524895843     2.7510404884
| 23> *
| 24>
| 25>                          ****END OF INPUT****

CARTESIAN COORDINATES (ANGSTROEM)
---------------------------------
  C      0.018709    1.503918    0.022878
  C      0.015516   -0.011808   -0.000308
  C     -1.255732   -0.618250   -0.564052
  C      1.314300   -0.731885   -0.246462
  C      0.741296   -0.737880    1.160704
  N      1.454544   -0.055082    2.211015
  C      0.149190   -1.977968    1.622737
  N     -0.348922   -2.953678    1.994870
  H      0.927090    1.912650    0.471467
  H     -0.055498    1.897598   -0.996724
  H     -0.838110    1.888769    0.587773
  H     -1.391892   -0.308276   -1.606446
  H     -1.238864   -1.709942   -0.535965
  H     -2.132981   -0.284570    0.001026
  H      1.298727   -1.663028   -0.801381
  H      2.218174   -0.145891   -0.385473
  H      2.226555    0.490524    1.853063
  H      0.848369    0.552490    2.751040

 Total Charge           Charge          ....    0
 Multiplicity           Mult            ....    1
 Number of Electrons    NEL             ....   60
 Basis Dimension        Dim             ....  308

ORBITAL ENERGIES
----------------

  NO   OCC          E(Eh)            E(eV)
   0   2.0000     -15.568631      -423.6440
   1   2.0000     -15.559248      -423.3887
   2   2.0000     -11.312761      -307.8359
   3   2.0000     -11.269432      -306.6568
   4   2.0000     -11.264113      -306.5121
   5   2.0000     -11.255076      -306.2662
   6   2.0000     -11.239118      -305.8319
   7   2.0000     -11.230606      -305.6003
   8   2.0000      -1.249834       -34.0097
   9   2.0000      -1.198572       -32.6148
  10   2.0000      -1.137566       -30.9547
  11   2.0000      -1.004644       -27.3377
  12   2.0000      -0.956387       -26.0246
  13   2.0000      -0.890689       -24.2369
  14   2.0000      -0.786394       -21.3989
  15   2.0000      -0.708895       -19.2900
  16   2.0000      -0.674824       -18.3629
  17   2.0000      -0.658259       -17.9121
  18   2.0000      -0.615497       -16.7485
  19   2.0000      -0.608497       -16.5580
  20   2.0000      -0.576189       -15.6789
  21   2.0000      -0.558990       -15.2109
  22   2.0000      -0.549254       -14.9460
  23   2.0000      -0.541981       -14.7480
  24   2.0000      -0.508390       -13.8340
  25   2.0000      -0.505341       -13.7510
  26   2.0000      -0.483418       -13.1545
  27   2.0000      -0.447373       -12.1736
  28   2.0000      -0.423496       -11.5239
  29   2.0000      -0.379659       -10.3311
  30   0.0000       0.112384         3.0581
  31   0.0000       0.145883         3.9697
  32   0.0000       0.155693         4.2366
  33   0.0000       0.167825         4.5667
  34   0.0000       0.177484         4.8296

MULLIKEN ATOMIC CHARGES
-----------------------
   0 C :   -0.392337
   1 C :    0.057949
   2 C :   -0.397321
   3 C :   -0.278423
   4 C :    0.178804
   5 N :   -0.507801
   6 C :   -0.200854
   7 N :   -0.055889
   8 H :    0.109719
   9 H :    0.143502
  10 H :    0.141032
  11 H :    0.136001
  12 H :    0.152318
  13 H :    0.137463
  14 H :    0.153729
  15 H :    0.141937
  16 H :    0.236658
  17 H :    0.243513
Sum of atomic charges:   -0.0000000

LOEWDIN ATOMIC CHARGES
----------------------
   0 C :   -0.266755
   1 C :   -0.254385
   2 C :   -0.256682
   3 C :   -0.147121
   4 C :   -0.291623
   5 N :   -0.082408
   6 C :   -0.154017
   7 N :    0.059920
   8 H :    0.122164
   9 H :    0.132900
  10 H :    0.130561
  11 H :    0.130351
  12 H :    0.136899
  13 H :    0.131745
  14 H :    0.146431
  15 H :    0.140309
  16 H :    0.157815
  17 H :    0.163896

  Mayer bond orders larger than 0.1
B(  0-C ,  1-C ) :   0.9006 B(  0-C ,  8-H ) :   0.9244 B(  0-C ,  9-H ) :   0.9373
B(  0-C , 10-H ) :   0.9387 B(  1-C ,  2-C ) :   0.9323 B(  1-C ,  3-C ) :   0.8688
B(  1-C ,  4-C ) :   0.8233 B(  2-C , 11-H ) :   0.9336 B(  2-C , 12-H ) :   0.9213
B(  2-C , 13-H ) :   0.9360 B(  3-C ,  4-C ) :   0.8446 B(  3-C , 14-H ) :   0.9223
B(  3-C , 15-H ) :   0.9209 B(  4-C ,  5-N ) :   0.9938 B(  4-C ,  6-C ) :   0.9534
B(  5-N , 16-H ) :   0.8914 B(  5-N , 17-H ) :   0.8899 B(  6-C ,  7-N ) :   2.8666

MP2 TOTAL ENERGY:     -343.382342759 Eh
FINAL SINGLE POINT ENERGY      -343.382342758964

DIPOLE MOMENT
-------------
                                X             Y             Z
Electronic contribution:      1.12840      -6.67546       4.96662
Nuclear contribution   :     -0.73487       8.45439      -5.90296
                        -----------------------------------------
Total Dipole Moment    :      0.39353       1.77893      -0.93634
                        -----------------------------------------
Magnitude (a.u.)       :      2.04846
Magnitude (Debye)      :      5.20678

                             ****ORCA TERMINATED NORMALLY****
TOTAL RUN TIME: 0 days 0 hours 14 minutes 28 seconds 400 msec
