                         Program Version 3.0.3 - RELEASE   -
|  1> ! RI-MP2 RIJK def2-TZVP def2-TZVP/C def2-TZVP/JK TIGHTSCF
|  2> % maxcore 2000
|  3> % mp2 density relaxed end
|  4> *xyz 0 1
|  5>  C        0.0230603798     1.6250148919    -0.0119006718
|  6>  C        0.0168671723     0.0861716083    -0.0659969898
|  7>  C       -1.3277324455    -0.4802089224    -0.0567258562
|  8>  C       -2.4439191421    -0.9344406673    -0.0463949276
|  9>  C       -3.7819183082    -1.4500707995    -0.0241247843
| 10>  C       -4.2561922030    -2.4226866445    -1.1075189722
| 11>  C       -4.0546063521    -2.9001883089     0.3040439867
| 12>  O       -2.9623976838    -3.6948987124     0.6097330351
| 13>  C       -3.1767138861    -5.0612868170     0.3176914080
| 14>  H        1.0495634452     2.0040439445    -0.0191505091
| 15>  H       -0.5064880942     2.0460801481    -0.8709588384
| 16>  H       -0.4701908173     1.9834291155     0.8957977864
| 17>  H        0.5483106697    -0.2484204998    -0.9666122404
| 18>  H        0.5879421984    -0.3107450210     0.7836040535
| 19>  H       -4.5329238133    -0.7541868861     0.3405573483
| 20>  H       -5.2624116812    -2.3080508984    -1.4951993351
| 21>  H       -3.5070808484    -2.7203005937    -1.8318176661
| 22>  H       -4.9460662514    -3.1084775674     0.8994802926
| 23>  H       -4.0186096949    -5.4722264233     0.8957211988
| 24>  H       -3.3801682166    -5.2213343007    -0.7508377167
| 25>  H       -2.2643306273    -5.5944588862     0.5939233282
| 26> *
| 27>
| 28>                          ****END OF INPUT****

CARTESIAN COORDINATES (ANGSTROEM)
---------------------------------
  C      0.023060    1.625015   -0.011901
  C      0.016867    0.086172   -0.065997
  C     -1.327732   -0.480209   -0.056726
  C     -2.443919   -0.934441   -0.046395
  C     -3.781918   -1.450071   -0.024125
  C     -4.256192   -2.422687   -1.107519
  C     -4.054606   -2.900188    0.304044
  O     -2.962398   -3.694899    0.609733
  C     -3.176714   -5.061287    0.317691
  H      1.049563    2.004044   -0.019151
  H     -0.506488    2.046080   -0.870959
  H     -0.470191    1.983429    0.895798
  H      0.548311   -0.248420   -0.966612
  H      0.587942   -0.310745    0.783604
  H     -4.532924   -0.754187    0.340557
  H     -5.262412   -2.308051   -1.495199
  H     -3.507081   -2.720301   -1.831818
  H     -4.946066   -3.108478    0.899480
  H     -4.018610   -5.472226    0.895721
  H     -3.380168   -5.221334   -0.750838
  H     -2.264331   -5.594459    0.593923

 Total Charge           Charge          ....    0
 Multiplicity           Mult            ....    1
 Number of Electrons    NEL             ....   68
 Basis Dimension        Dim             ....  351

ORBITAL ENERGIES
----------------

  NO   OCC          E(Eh)            E(eV)
   0   2.0000     -20.561205      -559.4988
   1   2.0000     -11.289322      -307.1981
   2   2.0000     -11.272101      -306.7295
   3   2.0000     -11.251334      -306.1644
   4   2.0000     -11.241378      -305.8934
   5   2.0000     -11.232128      -305.6417
   6   2.0000     -11.217173      -305.2348
   7   2.0000     -11.210995      -305.0667
   8   2.0000     -11.206991      -304.9577
   9   2.0000      -1.387071       -37.7441
  10   2.0000      -1.144867       -31.1534
  11   2.0000      -1.064562       -28.9682
  12   2.0000      -0.986555       -26.8455
  13   2.0000      -0.935700       -25.4617
  14   2.0000      -0.878689       -23.9103
  15   2.0000      -0.836072       -22.7507
  16   2.0000      -0.808906       -22.0115
  17   2.0000      -0.707024       -19.2391
  18   2.0000      -0.683667       -18.6035
  19   2.0000      -0.640805       -17.4372
  20   2.0000      -0.629586       -17.1319
  21   2.0000      -0.615512       -16.7489
  22   2.0000      -0.608835       -16.5672
  23   2.0000      -0.588980       -16.0270
  24   2.0000      -0.543672       -14.7941
  25   2.0000      -0.539212       -14.6727
  26   2.0000      -0.513767       -13.9803
  27   2.0000      -0.507214       -13.8020
  28   2.0000      -0.505404       -13.7527
  29   2.0000      -0.479759       -13.0549
  30   2.0000      -0.450303       -12.2534
  31   2.0000      -0.412791       -11.2326
  32   2.0000      -0.352561        -9.5937
  33   2.0000      -0.337439        -9.1822
  34   0.0000       0.138224         3.7613
  35   0.0000       0.148243         4.0339
  36   0.0000       0.160780         4.3750
  37   0.0000       0.172296         4.6884
  38   0.0000       0.183602         4.9961

MULLIKEN ATOMIC CHARGES
-----------------------
   0 C :   -0.361438
   1 C :   -0.304778
   2 C :    0.037273
   3 C :    0.023236
   4 C :   -0.249291
   5 C :   -0.258805
   6 C :    0.069879
   7 O :   -0.291652
   8 C :   -0.211979
   9 H :    0.129464
  10 H :    0.127819
  11 H :    0.128831
  12 H :    0.137529
  13 H :    0.140661
  14 H :    0.137333
  15 H :    0.131946
  16 H :    0.146461
  17 H :    0.100238
  18 H :    0.110450
  19 H :    0.115508
  20 H :    0.141314
Sum of atomic charges:    0.0000000

LOEWDIN ATOMIC CHARGES
----------------------
   0 C :   -0.301403
   1 C :   -0.279360
   2 C :   -0.072613
   3 C :   -0.062888
   4 C :   -0.193576
   5 C :   -0.194488
   6 C :   -0.295763
   7 O :    0.183098
   8 C :   -0.344682
   9 H :    0.119667
  10 H :    0.123242
  11 H :    0.123508
  12 H :    0.151617
  13 H :    0.152243
  14 H :    0.163012
  15 H :    0.131244
  16 H :    0.143908
  17 H :    0.133601
  18 H :    0.102557
  19 H :    0.103083
  20 H :    0.113995

  Mayer bond orders larger than 0.1
B(  0-C ,  1-C ) :   0.9426 B(  0-C ,  9-H ) :   0.9400 B(  0-C , 10-H ) :   0.9355
B(  0-C , 11-H ) :   0.9358 B(  1-C ,  2-C ) :   0.9462 B(  1-C , 12-H ) :   0.9405
B(  1-C , 13-H ) :   0.9398 B(  2-C ,  3-C ) :   2.6058 B(  2-C ,  4-C ) :  -0.1383
B(  3-C ,  4-C ) :   1.1247 B(  4-C ,  5-C ) :   0.8544 B(  4-C ,  6-C ) :   0.8979
B(  4-C , 14-H ) :   0.9227 B(  5-C ,  6-C ) :   0.8878 B(  5-C , 15-H ) :   0.9183
B(  5-C , 16-H ) :   0.9242 B(  6-C ,  7-O ) :   1.0208 B(  6-C , 17-H ) :   0.9367
B(  7-O ,  8-C ) :   0.8995 B(  8-C , 18-H ) :   0.9366 B(  8-C , 19-H ) :   0.9350
B(  8-C , 20-H ) :   0.9393

MP2 TOTAL ENERGY:     -386.345715673 Eh
FINAL SINGLE POINT ENERGY      -386.345715673399

DIPOLE MOMENT
-------------
                                X             Y             Z
Electronic contribution:     -2.68737      -1.49932       1.20726
Nuclear contribution   :      2.36760       1.20793      -1.41478
                        -----------------------------------------
Total Dipole Moment    :     -0.31977      -0.29140      -0.20752
                        -----------------------------------------
Magnitude (a.u.)       :      0.47982
Magnitude (Debye)      :      1.21961

                             ****ORCA TERMINATED NORMALLY****
TOTAL RUN TIME: 0 days 0 hours 16 minutes 6 seconds 175 msec
