                         Program Version 3.0.3 - RELEASE   -
|  1> ! RI-MP2 RIJK def2-TZVP def2-TZVP/C def2-TZVP/JK TIGHTSCF
|  2> % maxcore 2000
|  3> % mp2 density relaxed end
|  4> *xyz 0 1
|  5>  C       -0.2406880754     1.6060566384    -0.1457559395
|  6>  C        0.1092350610     0.1318269788    -0.0650325649
|  7>  C        0.9517010881    -0.5088705933    -1.1512475539
|  8>  N        1.5307034332    -0.1831358735     0.1271647343
|  9>  C        2.0260584939    -1.1421107088     1.0038561876
| 10>  O        2.7027780767    -2.0824684783     0.6738071986
| 11>  C       -0.8629670515    -0.7026016970     0.6017778736
| 12>  C       -1.6858442817    -1.3638068255     1.1770807361
| 13>  H        0.5554035580     2.1525028806    -0.6567252850
| 14>  H       -1.1780751569     1.7442100375    -0.6920310698
| 15>  H       -0.3645742043     2.0264732300     0.8562746573
| 16>  H        0.7929538253    -1.5612413141    -1.3676983166
| 17>  H        1.2659797523     0.1050390698    -1.9910967607
| 18>  H        1.7855166743    -0.8984670816     2.0546269251
| 19>  H       -2.4081631130    -1.9619674830     1.6760608576
| 20> *
| 21>
| 22>                          ****END OF INPUT****

CARTESIAN COORDINATES (ANGSTROEM)
---------------------------------
  C     -0.240688    1.606057   -0.145756
  C      0.109235    0.131827   -0.065033
  C      0.951701   -0.508871   -1.151248
  N      1.530703   -0.183136    0.127165
  C      2.026058   -1.142111    1.003856
  O      2.702778   -2.082468    0.673807
  C     -0.862967   -0.702602    0.601778
  C     -1.685844   -1.363807    1.177081
  H      0.555404    2.152503   -0.656725
  H     -1.178075    1.744210   -0.692031
  H     -0.364574    2.026473    0.856275
  H      0.792954   -1.561241   -1.367698
  H      1.265980    0.105039   -1.991097
  H      1.785517   -0.898467    2.054627
  H     -2.408163   -1.961967    1.676061

 Total Charge           Charge          ....    0
 Multiplicity           Mult            ....    1
 Number of Electrons    NEL             ....   58
 Basis Dimension        Dim             ....  290

ORBITAL ENERGIES
----------------

  NO   OCC          E(Eh)            E(eV)
   0   2.0000     -20.545368      -559.0679
   1   2.0000     -15.597013      -424.4163
   2   2.0000     -11.356779      -309.0337
   3   2.0000     -11.322751      -308.1077
   4   2.0000     -11.286875      -307.1315
   5   2.0000     -11.253611      -306.2263
   6   2.0000     -11.246484      -306.0324
   7   2.0000     -11.242275      -305.9179
   8   2.0000      -1.402697       -38.1693
   9   2.0000      -1.309886       -35.6438
  10   2.0000      -1.073716       -29.2173
  11   2.0000      -1.019854       -27.7516
  12   2.0000      -0.966664       -26.3043
  13   2.0000      -0.868204       -23.6250
  14   2.0000      -0.805586       -21.9211
  15   2.0000      -0.748049       -20.3554
  16   2.0000      -0.715583       -19.4720
  17   2.0000      -0.668504       -18.1909
  18   2.0000      -0.655868       -17.8471
  19   2.0000      -0.606215       -16.4960
  20   2.0000      -0.589787       -16.0489
  21   2.0000      -0.564671       -15.3655
  22   2.0000      -0.550041       -14.9674
  23   2.0000      -0.514158       -13.9910
  24   2.0000      -0.507615       -13.8129
  25   2.0000      -0.456508       -12.4222
  26   2.0000      -0.426427       -11.6037
  27   2.0000      -0.412970       -11.2375
  28   2.0000      -0.379370       -10.3232
  29   0.0000       0.130165         3.5420
  30   0.0000       0.145598         3.9619
  31   0.0000       0.151369         4.1190
  32   0.0000       0.160236         4.3603
  33   0.0000       0.163378         4.4457

MULLIKEN ATOMIC CHARGES
-----------------------
   0 C :   -0.396869
   1 C :   -0.082556
   2 C :   -0.143041
   3 N :   -0.164844
   4 C :    0.155854
   5 O :   -0.296031
   6 C :    0.015249
   7 C :   -0.096379
   8 H :    0.144705
   9 H :    0.141327
  10 H :    0.140800
  11 H :    0.147180
  12 H :    0.140162
  13 H :    0.094907
  14 H :    0.199534
Sum of atomic charges:    0.0000000

LOEWDIN ATOMIC CHARGES
----------------------
   0 C :   -0.242731
   1 C :   -0.276599
   2 C :   -0.175408
   3 N :    0.186368
   4 C :   -0.382858
   5 O :    0.111042
   6 C :   -0.071862
   7 C :   -0.070279
   8 H :    0.134188
   9 H :    0.134445
  10 H :    0.134221
  11 H :    0.139042
  12 H :    0.133315
  13 H :    0.116397
  14 H :    0.130720

  Mayer bond orders larger than 0.1
B(  0-C ,  1-C ) :   0.9412 B(  0-C ,  8-H ) :   0.9302 B(  0-C ,  9-H ) :   0.9322
B(  0-C , 10-H ) :   0.9319 B(  1-C ,  2-C ) :   0.9070 B(  1-C ,  3-N ) :   0.8299
B(  1-C ,  6-C ) :   1.2083 B(  1-C ,  7-C ) :  -0.1359 B(  2-C ,  3-N ) :   0.8808
B(  2-C , 11-H ) :   0.9150 B(  2-C , 12-H ) :   0.9100 B(  3-N ,  4-C ) :   1.0240
B(  4-C ,  5-O ) :   1.9693 B(  4-C , 13-H ) :   0.9283 B(  6-C ,  7-C ) :   2.5611
B(  7-C , 14-H ) :   0.8870

MP2 TOTAL ENERGY:     -361.990531384 Eh
FINAL SINGLE POINT ENERGY      -361.990531383804

DIPOLE MOMENT
-------------
                                X             Y             Z
Electronic contribution:      2.60234      -4.24259       1.73570
Nuclear contribution   :     -3.67790       4.97896      -1.88346
                        -----------------------------------------
Total Dipole Moment    :     -1.07556       0.73637      -0.14776
                        -----------------------------------------
Magnitude (a.u.)       :      1.31183
Magnitude (Debye)      :      3.33440

                             ****ORCA TERMINATED NORMALLY****
TOTAL RUN TIME: 0 days 0 hours 10 minutes 59 seconds 238 msec
