                         Program Version 3.0.3 - RELEASE   -
|  1> ! RI-MP2 RIJK def2-TZVP def2-TZVP/C def2-TZVP/JK TIGHTSCF
|  2> % maxcore 2000
|  3> % mp2 density relaxed end
|  4> *xyz 0 1
|  5>  C       -0.0158291939     1.5267924444    -0.0281476116
|  6>  C        1.5021991757     1.7237936101     0.0130055462
|  7>  O        1.9823977081     1.4109248147     1.3465640745
|  8>  C        1.0771566167     0.6553383131     2.1881846236
|  9>  C        0.5230562129    -0.4882478391     1.3655618944
| 10>  N       -0.8798351427    -0.6862810622     0.9185548154
| 11>  C        0.0491667922     0.0009101470     0.0359486062
| 12>  C        1.0390187590    -0.3306735402    -1.0564227491
| 13>  C        1.9283152209     0.6699987533    -1.0427726072
| 14>  H       -0.5590340100     1.9913148723     0.7944200233
| 15>  H       -0.4373591843     1.8666950355    -0.9769172597
| 16>  H        1.8622007671     2.7314780996    -0.2036059293
| 17>  H        1.6954541817     0.3151494034     3.0229144229
| 18>  H        0.2819256029     1.2904867571     2.5975158162
| 19>  H        1.1564081424    -1.3711653456     1.3287761843
| 20>  H       -1.0056602576    -1.6665652275     0.6764125507
| 21>  H        1.0680676364    -1.2418579940    -1.6410060758
| 22>  H        2.8312881325     0.7418863380    -1.6352374850
| 23> *
| 24>
| 25>                          ****END OF INPUT****

CARTESIAN COORDINATES (ANGSTROEM)
---------------------------------
  C     -0.015829    1.526792   -0.028148
  C      1.502199    1.723794    0.013006
  O      1.982398    1.410925    1.346564
  C      1.077157    0.655338    2.188185
  C      0.523056   -0.488248    1.365562
  N     -0.879835   -0.686281    0.918555
  C      0.049167    0.000910    0.035949
  C      1.039019   -0.330674   -1.056423
  C      1.928315    0.669999   -1.042773
  H     -0.559034    1.991315    0.794420
  H     -0.437359    1.866695   -0.976917
  H      1.862201    2.731478   -0.203606
  H      1.695454    0.315149    3.022914
  H      0.281926    1.290487    2.597516
  H      1.156408   -1.371165    1.328776
  H     -1.005660   -1.666565    0.676413
  H      1.068068   -1.241858   -1.641006
  H      2.831288    0.741886   -1.635237

 Total Charge           Charge          ....    0
 Multiplicity           Mult            ....    1
 Number of Electrons    NEL             ....   66
 Basis Dimension        Dim             ....  333

ORBITAL ENERGIES
----------------

  NO   OCC          E(Eh)            E(eV)
   0   2.0000     -20.547667      -559.1304
   1   2.0000     -15.578547      -423.9138
   2   2.0000     -11.286573      -307.1233
   3   2.0000     -11.279105      -306.9201
   4   2.0000     -11.269268      -306.6524
   5   2.0000     -11.254256      -306.2439
   6   2.0000     -11.245723      -306.0117
   7   2.0000     -11.228400      -305.5403
   8   2.0000     -11.224887      -305.4447
   9   2.0000      -1.359622       -36.9972
  10   2.0000      -1.273407       -34.6512
  11   2.0000      -1.122939       -30.5567
  12   2.0000      -0.989716       -26.9315
  13   2.0000      -0.976307       -26.5667
  14   2.0000      -0.886723       -24.1290
  15   2.0000      -0.846123       -23.0242
  16   2.0000      -0.753855       -20.5134
  17   2.0000      -0.732946       -19.9445
  18   2.0000      -0.715735       -19.4761
  19   2.0000      -0.676977       -18.4215
  20   2.0000      -0.622147       -16.9295
  21   2.0000      -0.613890       -16.7048
  22   2.0000      -0.605292       -16.4708
  23   2.0000      -0.562484       -15.3060
  24   2.0000      -0.547847       -14.9077
  25   2.0000      -0.537425       -14.6241
  26   2.0000      -0.516167       -14.0456
  27   2.0000      -0.496700       -13.5159
  28   2.0000      -0.461378       -12.5547
  29   2.0000      -0.435453       -11.8493
  30   2.0000      -0.419011       -11.4019
  31   2.0000      -0.409764       -11.1502
  32   2.0000      -0.326338        -8.8801
  33   0.0000       0.126966         3.4549
  34   0.0000       0.139133         3.7860
  35   0.0000       0.161031         4.3819
  36   0.0000       0.173475         4.7205
  37   0.0000       0.180229         4.9043

MULLIKEN ATOMIC CHARGES
-----------------------
   0 C :   -0.240799
   1 C :    0.094120
   2 O :   -0.320113
   3 C :   -0.064935
   4 C :   -0.092122
   5 N :   -0.340903
   6 C :    0.200049
   7 C :   -0.268561
   8 C :   -0.175886
   9 H :    0.133209
  10 H :    0.123676
  11 H :    0.111128
  12 H :    0.123570
  13 H :    0.104028
  14 H :    0.114763
  15 H :    0.227814
  16 H :    0.136057
  17 H :    0.134904
Sum of atomic charges:   -0.0000000

LOEWDIN ATOMIC CHARGES
----------------------
   0 C :   -0.181575
   1 C :   -0.257409
   2 O :    0.146703
   3 C :   -0.282394
   4 C :   -0.223872
   5 N :    0.039772
   6 C :   -0.274620
   7 C :   -0.113394
   8 C :   -0.126448
   9 H :    0.141995
  10 H :    0.147818
  11 H :    0.137722
  12 H :    0.131676
  13 H :    0.125889
  14 H :    0.141334
  15 H :    0.173625
  16 H :    0.138856
  17 H :    0.134322

  Mayer bond orders larger than 0.1
B(  0-C ,  1-C ) :   0.9574 B(  0-C ,  6-C ) :   0.9143 B(  0-C ,  9-H ) :   0.9260
B(  0-C , 10-H ) :   0.9075 B(  1-C ,  2-O ) :   0.9176 B(  1-C ,  8-C ) :   0.8750
B(  1-C , 11-H ) :   0.9344 B(  2-O ,  3-C ) :   0.9401 B(  3-C ,  4-C ) :   0.9569
B(  3-C , 12-H ) :   0.9221 B(  3-C , 13-H ) :   0.9078 B(  4-C ,  5-N ) :   0.9660
B(  4-C ,  6-C ) :   0.8209 B(  4-C , 14-H ) :   0.9287 B(  5-N ,  6-C ) :   1.0548
B(  5-N , 15-H ) :   0.8632 B(  6-C ,  7-C ) :   0.9116 B(  7-C ,  8-C ) :   1.7319
B(  7-C , 16-H ) :   0.9260 B(  8-C , 17-H ) :   0.9221

MP2 TOTAL ENERGY:     -401.197441062 Eh
FINAL SINGLE POINT ENERGY      -401.197441062334

DIPOLE MOMENT
-------------
                                X             Y             Z
Electronic contribution:      0.35943      -0.57031      -0.24487
Nuclear contribution   :     -0.35656       0.07119      -0.11402
                        -----------------------------------------
Total Dipole Moment    :      0.00287      -0.49913      -0.35889
                        -----------------------------------------
Magnitude (a.u.)       :      0.61477
Magnitude (Debye)      :      1.56261

                             ****ORCA TERMINATED NORMALLY****
TOTAL RUN TIME: 0 days 0 hours 19 minutes 49 seconds 967 msec
