                         Program Version 3.0.3 - RELEASE   -
|  1> ! RI-MP2 RIJK def2-TZVP def2-TZVP/C def2-TZVP/JK TIGHTSCF
|  2> % maxcore 2000
|  3> % mp2 density relaxed end
|  4> *xyz 0 1
|  5>  O       -0.1521230931     1.3357594385     0.0099590354
|  6>  N        0.0325732204    -0.0589937913     0.0037235888
|  7>  C       -1.0754591217    -0.6694425954     0.0104379663
|  8>  C       -1.3247349242    -2.1290210700     0.0074318826
|  9>  C       -2.6586709159    -2.2263527710     0.7670668375
| 10>  O       -3.0476657607    -0.9164372502     1.1531123728
| 11>  C       -2.5381733621    -0.2127298463     0.0236192291
| 12>  O       -3.0655844433    -0.9087315059    -1.1024207627
| 13>  C       -2.6705754266    -2.2212319626    -0.7315636134
| 14>  H        0.7548340832     1.6605153871     0.0038639062
| 15>  H       -0.5618024148    -2.8911733000    -0.0012321808
| 16>  H       -2.9606065261    -3.0195300845     1.4336849898
| 17>  H       -2.8012594196     0.8373657657     0.0292962328
| 18>  H       -2.9831053155    -3.0098532340    -1.3987043445
| 19> *
| 20>
| 21>                          ****END OF INPUT****

CARTESIAN COORDINATES (ANGSTROEM)
---------------------------------
  O     -0.152123    1.335759    0.009959
  N      0.032573   -0.058994    0.003724
  C     -1.075459   -0.669443    0.010438
  C     -1.324735   -2.129021    0.007432
  C     -2.658671   -2.226353    0.767067
  O     -3.047666   -0.916437    1.153112
  C     -2.538173   -0.212730    0.023619
  O     -3.065584   -0.908732   -1.102421
  C     -2.670575   -2.221232   -0.731564
  H      0.754834    1.660515    0.003864
  H     -0.561802   -2.891173   -0.001232
  H     -2.960607   -3.019530    1.433685
  H     -2.801259    0.837366    0.029296
  H     -2.983105   -3.009853   -1.398704

 Total Charge           Charge          ....    0
 Multiplicity           Mult            ....    1
 Number of Electrons    NEL             ....   66
 Basis Dimension        Dim             ....  309

ORBITAL ENERGIES
----------------

  NO   OCC          E(Eh)            E(eV)
   0   2.0000     -20.600128      -560.5580
   1   2.0000     -20.590395      -560.2931
   2   2.0000     -20.590373      -560.2925
   3   2.0000     -15.629603      -425.3031
   4   2.0000     -11.359619      -309.1109
   5   2.0000     -11.312529      -307.8296
   6   2.0000     -11.311803      -307.8098
   7   2.0000     -11.293719      -307.3177
   8   2.0000     -11.263412      -306.4930
   9   2.0000      -1.483725       -40.3742
  10   2.0000      -1.426101       -38.8062
  11   2.0000      -1.357686       -36.9445
  12   2.0000      -1.181654       -32.1544
  13   2.0000      -1.133503       -30.8442
  14   2.0000      -0.983960       -26.7749
  15   2.0000      -0.842149       -22.9160
  16   2.0000      -0.839900       -22.8548
  17   2.0000      -0.790167       -21.5015
  18   2.0000      -0.750712       -20.4279
  19   2.0000      -0.712581       -19.3903
  20   2.0000      -0.678437       -18.4612
  21   2.0000      -0.658867       -17.9287
  22   2.0000      -0.629106       -17.1188
  23   2.0000      -0.608108       -16.5475
  24   2.0000      -0.590474       -16.0676
  25   2.0000      -0.585761       -15.9394
  26   2.0000      -0.577614       -15.7177
  27   2.0000      -0.534927       -14.5561
  28   2.0000      -0.517061       -14.0699
  29   2.0000      -0.452663       -12.3176
  30   2.0000      -0.447320       -12.1722
  31   2.0000      -0.400303       -10.8928
  32   2.0000      -0.385422       -10.4879
  33   0.0000       0.143438         3.9031
  34   0.0000       0.147549         4.0150
  35   0.0000       0.152310         4.1446
  36   0.0000       0.178903         4.8682
  37   0.0000       0.182085         4.9548

MULLIKEN ATOMIC CHARGES
-----------------------
   0 O :   -0.363198
   1 N :   -0.057660
   2 C :    0.018746
   3 C :   -0.200968
   4 C :    0.013879
   5 O :   -0.286589
   6 C :    0.178336
   7 O :   -0.286589
   8 C :    0.013879
   9 H :    0.341024
  10 H :    0.154848
  11 H :    0.155566
  12 H :    0.163160
  13 H :    0.155566
Sum of atomic charges:    0.0000000

LOEWDIN ATOMIC CHARGES
----------------------
   0 O :   -0.073369
   1 N :    0.041117
   2 C :   -0.247343
   3 C :   -0.143026
   4 C :   -0.229575
   5 O :    0.216489
   6 C :   -0.309996
   7 O :    0.216488
   8 C :   -0.229576
   9 H :    0.171728
  10 H :    0.153892
  11 H :    0.142650
  12 H :    0.147871
  13 H :    0.142650

  Mayer bond orders larger than 0.1
B(  0-O ,  1-N ) :   0.7993 B(  0-O ,  9-H ) :   0.8406 B(  1-N ,  2-C ) :   1.8980
B(  2-C ,  3-C ) :   0.9887 B(  2-C ,  6-C ) :   0.9263 B(  3-C ,  4-C ) :   0.8395
B(  3-C ,  8-C ) :   0.8395 B(  3-C , 10-H ) :   0.9063 B(  4-C ,  5-O ) :   0.9547
B(  4-C ,  8-C ) :   0.9051 B(  4-C , 11-H ) :   0.9195 B(  5-O ,  6-C ) :   0.9586
B(  6-C ,  7-O ) :   0.9586 B(  6-C , 12-H ) :   0.8929 B(  7-O ,  8-C ) :   0.9547
B(  8-C , 13-H ) :   0.9195

MP2 TOTAL ENERGY:     -472.993416037 Eh
FINAL SINGLE POINT ENERGY      -472.993416036824

DIPOLE MOMENT
-------------
                                X             Y             Z
Electronic contribution:     -0.17777       1.52587       0.00663
Nuclear contribution   :      0.52768      -2.12722      -0.01146
                        -----------------------------------------
Total Dipole Moment    :      0.34991      -0.60135      -0.00483
                        -----------------------------------------
Magnitude (a.u.)       :      0.69576
Magnitude (Debye)      :      1.76848

                             ****ORCA TERMINATED NORMALLY****
TOTAL RUN TIME: 0 days 0 hours 13 minutes 29 seconds 296 msec
