                         Program Version 3.0.3 - RELEASE   -
|  1> ! RI-MP2 RIJK def2-TZVP def2-TZVP/C def2-TZVP/JK TIGHTSCF
|  2> % maxcore 2000
|  3> % mp2 density relaxed end
|  4> *xyz 0 1
|  5>  C       -0.1702185160     1.5880486422    -0.1045266887
|  6>  C        0.0420240831     0.0813749637    -0.0821350104
|  7>  C        0.7521402227    -0.6009967000    -1.2583526918
|  8>  C        2.2019855173    -0.1983880712    -1.3284507308
|  9>  C        1.7880046363    -1.2402171650    -0.3286241507
| 10>  C        2.3496029933    -2.6309404224    -0.2777817215
| 11>  C        1.1294678415    -0.5469505756     0.8877207428
| 12>  C        1.9635256541     0.3584436823     1.6654708617
| 13>  N        2.6276563069     1.0943288630     2.2619407811
| 14>  H        0.7595902687     2.1319242444    -0.2920212426
| 15>  H       -0.8821782328     1.8557164097    -0.8924324730
| 16>  H       -0.5736636164     1.9435457021     0.8490833362
| 17>  H       -0.9094056671    -0.4173360974     0.1234578059
| 18>  H        0.2460486441    -1.0479026905    -2.1062720775
| 19>  H        2.7431562998    -0.5883623018    -2.1847587652
| 20>  H        2.5352406624     0.7856557101    -1.0102178445
| 21>  H        2.5789837756    -2.9948789127    -1.2843119824
| 22>  H        3.2779957252    -2.6621911000     0.3046729111
| 23>  H        1.6444133320    -3.3340732235     0.1803942569
| 24>  H        0.6708199093    -1.2701996274     1.5670607334
| 25> *
| 26>
| 27>                          ****END OF INPUT****

CARTESIAN COORDINATES (ANGSTROEM)
---------------------------------
  C     -0.170219    1.588049   -0.104527
  C      0.042024    0.081375   -0.082135
  C      0.752140   -0.600997   -1.258353
  C      2.201986   -0.198388   -1.328451
  C      1.788005   -1.240217   -0.328624
  C      2.349603   -2.630940   -0.277782
  C      1.129468   -0.546951    0.887721
  C      1.963526    0.358444    1.665471
  N      2.627656    1.094329    2.261941
  H      0.759590    2.131924   -0.292021
  H     -0.882178    1.855716   -0.892432
  H     -0.573664    1.943546    0.849083
  H     -0.909406   -0.417336    0.123458
  H      0.246049   -1.047903   -2.106272
  H      2.743156   -0.588362   -2.184759
  H      2.535241    0.785656   -1.010218
  H      2.578984   -2.994879   -1.284312
  H      3.277996   -2.662191    0.304673
  H      1.644413   -3.334073    0.180394
  H      0.670820   -1.270200    1.567061

 Total Charge           Charge          ....    0
 Multiplicity           Mult            ....    1
 Number of Electrons    NEL             ....   66
 Basis Dimension        Dim             ....  345

ORBITAL ENERGIES
----------------

  NO   OCC          E(Eh)            E(eV)
   0   2.0000     -15.561956      -423.4624
   1   2.0000     -11.279374      -306.9274
   2   2.0000     -11.265026      -306.5369
   3   2.0000     -11.261166      -306.4319
   4   2.0000     -11.259000      -306.3730
   5   2.0000     -11.245725      -306.0117
   6   2.0000     -11.238546      -305.8164
   7   2.0000     -11.233366      -305.6754
   8   2.0000     -11.222767      -305.3870
   9   2.0000      -1.226424       -33.3727
  10   2.0000      -1.200459       -32.6662
  11   2.0000      -1.047512       -28.5042
  12   2.0000      -1.000548       -27.2263
  13   2.0000      -0.969389       -26.3784
  14   2.0000      -0.885584       -24.0980
  15   2.0000      -0.787973       -21.4418
  16   2.0000      -0.759799       -20.6752
  17   2.0000      -0.699047       -19.0220
  18   2.0000      -0.665351       -18.1051
  19   2.0000      -0.636263       -17.3136
  20   2.0000      -0.592433       -16.1209
  21   2.0000      -0.577964       -15.7272
  22   2.0000      -0.575788       -15.6680
  23   2.0000      -0.564647       -15.3648
  24   2.0000      -0.553095       -15.0505
  25   2.0000      -0.548144       -14.9158
  26   2.0000      -0.515917       -14.0388
  27   2.0000      -0.500123       -13.6090
  28   2.0000      -0.490577       -13.3493
  29   2.0000      -0.448722       -12.2104
  30   2.0000      -0.432722       -11.7750
  31   2.0000      -0.417621       -11.3640
  32   2.0000      -0.390179       -10.6173
  33   0.0000       0.121558         3.3078
  34   0.0000       0.143277         3.8988
  35   0.0000       0.154728         4.2104
  36   0.0000       0.163439         4.4474
  37   0.0000       0.182089         4.9549

MULLIKEN ATOMIC CHARGES
-----------------------
   0 C :   -0.394339
   1 C :   -0.064846
   2 C :   -0.097833
   3 C :   -0.308711
   4 C :    0.062093
   5 C :   -0.415115
   6 C :    0.012555
   7 C :   -0.240978
   8 N :   -0.049313
   9 H :    0.133102
  10 H :    0.135840
  11 H :    0.140567
  12 H :    0.109572
  13 H :    0.134172
  14 H :    0.135825
  15 H :    0.150218
  16 H :    0.133711
  17 H :    0.149190
  18 H :    0.131531
  19 H :    0.142759
Sum of atomic charges:    0.0000000

LOEWDIN ATOMIC CHARGES
----------------------
   0 C :   -0.287468
   1 C :   -0.192127
   2 C :   -0.142415
   3 C :   -0.176268
   4 C :   -0.196279
   5 C :   -0.269546
   6 C :   -0.150510
   7 C :   -0.172259
   8 N :    0.057717
   9 H :    0.128161
  10 H :    0.128612
  11 H :    0.129498
  12 H :    0.154942
  13 H :    0.137672
  14 H :    0.144271
  15 H :    0.137278
  16 H :    0.132910
  17 H :    0.134050
  18 H :    0.127852
  19 H :    0.173911

  Mayer bond orders larger than 0.1
B(  0-C ,  1-C ) :   0.9280 B(  0-C ,  9-H ) :   0.9299 B(  0-C , 10-H ) :   0.9350
B(  0-C , 11-H ) :   0.9350 B(  1-C ,  2-C ) :   0.9450 B(  1-C ,  6-C ) :   0.9400
B(  1-C , 12-H ) :   0.9227 B(  2-C ,  3-C ) :   0.8612 B(  2-C ,  4-C ) :   0.8036
B(  2-C , 13-H ) :   0.9192 B(  3-C ,  4-C ) :   0.8970 B(  3-C , 14-H ) :   0.9316
B(  3-C , 15-H ) :   0.9109 B(  4-C ,  5-C ) :   0.9019 B(  4-C ,  6-C ) :   0.8730
B(  5-C , 16-H ) :   0.9327 B(  5-C , 17-H ) :   0.9368 B(  5-C , 18-H ) :   0.9402
B(  6-C ,  7-C ) :   0.9583 B(  6-C , 19-H ) :   0.9028 B(  7-C ,  8-N ) :   2.8638

MP2 TOTAL ENERGY:     -365.347016420 Eh
FINAL SINGLE POINT ENERGY      -365.347016420025

DIPOLE MOMENT
-------------
                                X             Y             Z
Electronic contribution:      2.22811       1.80434       4.88006
Nuclear contribution   :     -3.10841      -2.80696      -5.88549
                        -----------------------------------------
Total Dipole Moment    :     -0.88030      -1.00261      -1.00543
                        -----------------------------------------
Magnitude (a.u.)       :      1.67064
Magnitude (Debye)      :      4.24644

                             ****ORCA TERMINATED NORMALLY****
TOTAL RUN TIME: 0 days 0 hours 19 minutes 25 seconds 841 msec
