                         Program Version 3.0.3 - RELEASE   -
|  1> ! RI-MP2 RIJK def2-TZVP def2-TZVP/C def2-TZVP/JK TIGHTSCF
|  2> % maxcore 2000
|  3> % mp2 density relaxed end
|  4> *xyz 0 1
|  5>  C       -0.3238217096     1.3737910824     0.0921232006
|  6>  C        0.0094639840    -0.0856442972     0.0531555602
|  7>  C        0.9153847282    -0.8580769220    -0.9023776138
|  8>  N        0.1891938553    -2.1404700602    -0.5516542723
|  9>  C        0.5698799301    -2.2932779833     0.9089938823
| 10>  C       -0.2068259668    -1.0225537435     1.2254828530
| 11>  C       -0.9734764399    -1.2571968071    -0.0726943401
| 12>  C       -2.3906640112    -1.3004425311    -0.3971452537
| 13>  O       -3.2104677785    -0.5412006384     0.0765655314
| 14>  H        0.4645358625     1.9474019615     0.5922406637
| 15>  H       -0.4444753780     1.7751549913    -0.9192982306
| 16>  H       -1.2633642959     1.5362975674     0.6280641567
| 17>  H        0.7240816613    -0.6033773903    -1.9480671735
| 18>  H        1.9957339766    -0.8825167595    -0.7179708122
| 19>  H        0.0975228159    -3.1891909935     1.3178800047
| 20>  H        1.6491965997    -2.3219873074     1.0946901326
| 21>  H       -0.6316500668    -0.6756956620     2.1590462723
| 22>  H       -2.6716839268    -2.0843600871    -1.1332979013
| 23> *
| 24>
| 25>                          ****END OF INPUT****

CARTESIAN COORDINATES (ANGSTROEM)
---------------------------------
  C     -0.323822    1.373791    0.092123
  C      0.009464   -0.085644    0.053156
  C      0.915385   -0.858077   -0.902378
  N      0.189194   -2.140470   -0.551654
  C      0.569880   -2.293278    0.908994
  C     -0.206826   -1.022554    1.225483
  C     -0.973476   -1.257197   -0.072694
  C     -2.390664   -1.300443   -0.397145
  O     -3.210468   -0.541201    0.076566
  H      0.464536    1.947402    0.592241
  H     -0.444475    1.775155   -0.919298
  H     -1.263364    1.536298    0.628064
  H      0.724082   -0.603377   -1.948067
  H      1.995734   -0.882517   -0.717971
  H      0.097523   -3.189191    1.317880
  H      1.649197   -2.321987    1.094690
  H     -0.631650   -0.675696    2.159046
  H     -2.671684   -2.084360   -1.133298

 Total Charge           Charge          ....    0
 Multiplicity           Mult            ....    1
 Number of Electrons    NEL             ....   66
 Basis Dimension        Dim             ....  333

ORBITAL ENERGIES
----------------

  NO   OCC          E(Eh)            E(eV)
   0   2.0000     -20.548360      -559.1493
   1   2.0000     -15.574625      -423.8071
   2   2.0000     -11.335656      -308.4589
   3   2.0000     -11.272983      -306.7535
   4   2.0000     -11.270043      -306.6735
   5   2.0000     -11.269181      -306.6500
   6   2.0000     -11.268201      -306.6233
   7   2.0000     -11.260894      -306.4245
   8   2.0000     -11.232447      -305.6504
   9   2.0000      -1.387013       -37.7425
  10   2.0000      -1.318825       -35.8870
  11   2.0000      -1.073574       -29.2134
  12   2.0000      -1.013620       -27.5820
  13   2.0000      -0.967728       -26.3332
  14   2.0000      -0.932567       -25.3764
  15   2.0000      -0.848644       -23.0928
  16   2.0000      -0.754730       -20.5372
  17   2.0000      -0.728211       -19.8156
  18   2.0000      -0.680442       -18.5158
  19   2.0000      -0.664572       -18.0839
  20   2.0000      -0.637324       -17.3425
  21   2.0000      -0.627506       -17.0753
  22   2.0000      -0.610615       -16.6157
  23   2.0000      -0.574869       -15.6430
  24   2.0000      -0.550213       -14.9721
  25   2.0000      -0.542658       -14.7665
  26   2.0000      -0.531574       -14.4649
  27   2.0000      -0.503949       -13.7131
  28   2.0000      -0.489783       -13.3277
  29   2.0000      -0.465376       -12.6635
  30   2.0000      -0.420505       -11.4425
  31   2.0000      -0.379100       -10.3158
  32   2.0000      -0.372395       -10.1334
  33   0.0000       0.108947         2.9646
  34   0.0000       0.136035         3.7017
  35   0.0000       0.157972         4.2986
  36   0.0000       0.173497         4.7211
  37   0.0000       0.177662         4.8344

MULLIKEN ATOMIC CHARGES
-----------------------
   0 C :   -0.436140
   1 C :   -0.006075
   2 C :   -0.091198
   3 N :   -0.208321
   4 C :   -0.109953
   5 C :   -0.161213
   6 C :    0.096047
   7 C :    0.038579
   8 O :   -0.297164
   9 H :    0.142599
  10 H :    0.138515
  11 H :    0.163831
  12 H :    0.121862
  13 H :    0.114338
  14 H :    0.128820
  15 H :    0.116364
  16 H :    0.149470
  17 H :    0.099639
Sum of atomic charges:   -0.0000000

LOEWDIN ATOMIC CHARGES
----------------------
   0 C :   -0.264353
   1 C :   -0.185369
   2 C :   -0.199302
   3 N :    0.123234
   4 C :   -0.219425
   5 C :   -0.118589
   6 C :   -0.169409
   7 C :   -0.279363
   8 O :    0.114597
   9 H :    0.131911
  10 H :    0.132967
  11 H :    0.141693
  12 H :    0.137695
  13 H :    0.123385
  14 H :    0.136456
  15 H :    0.122767
  16 H :    0.149183
  17 H :    0.121922

  Mayer bond orders larger than 0.1
B(  0-C ,  1-C ) :   0.8886 B(  0-C ,  9-H ) :   0.9346 B(  0-C , 10-H ) :   0.9378
B(  0-C , 11-H ) :   0.9268 B(  1-C ,  2-C ) :   0.9657 B(  1-C ,  5-C ) :   0.8572
B(  1-C ,  6-C ) :   0.7645 B(  2-C ,  3-N ) :   0.9244 B(  2-C , 12-H ) :   0.9164
B(  2-C , 13-H ) :   0.9231 B(  3-N ,  4-C ) :   0.9171 B(  3-N ,  6-C ) :   0.9119
B(  4-C ,  5-C ) :   0.9751 B(  4-C , 14-H ) :   0.9253 B(  4-C , 15-H ) :   0.9255
B(  5-C ,  6-C ) :   0.7726 B(  5-C , 16-H ) :   0.9187 B(  6-C ,  7-C ) :   0.8156
B(  6-C , 17-H ) :  -0.1023 B(  7-C ,  8-O ) :   1.9616 B(  7-C , 17-H ) :   0.9782

MP2 TOTAL ENERGY:     -401.193336745 Eh
FINAL SINGLE POINT ENERGY      -401.193336744745

DIPOLE MOMENT
-------------
                                X             Y             Z
Electronic contribution:     -4.16437      -3.00553      -0.37636
Nuclear contribution   :      5.21302       3.22054       0.62839
                        -----------------------------------------
Total Dipole Moment    :      1.04865       0.21501       0.25203
                        -----------------------------------------
Magnitude (a.u.)       :      1.09973
Magnitude (Debye)      :      2.79530

                             ****ORCA TERMINATED NORMALLY****
TOTAL RUN TIME: 0 days 0 hours 20 minutes 28 seconds 318 msec
