                         Program Version 3.0.3 - RELEASE   -
|  1> ! RI-MP2 RIJK def2-TZVP def2-TZVP/C def2-TZVP/JK TIGHTSCF
|  2> % maxcore 2000
|  3> % mp2 density relaxed end
|  4> *xyz 0 1
|  5>  O        0.0127354432     1.2707381534    -0.1597039473
|  6>  C        0.0797777874    -0.1407627162    -0.1039675708
|  7>  C       -1.2910699963    -0.6980939825     0.2511054395
|  8>  O       -2.2731658184    -0.2707289892    -0.7344136849
|  9>  C       -2.4351540600    -1.6181540146    -1.2313090509
| 10>  C       -1.5778096201    -2.1816443993    -0.0866485348
| 11>  O       -0.4779075143    -2.9613336517    -0.5070738171
| 12>  C       -0.1191963088    -4.0246904507     0.2469066479
| 13>  N        0.9059005103    -4.6903856170    -0.0564925100
| 14>  H       -0.7138421891     1.4762533119    -0.7613527337
| 15>  H        0.4260756784    -0.5736394198    -1.0530567763
| 16>  H        0.8110915040    -0.4034021853     0.6675112860
| 17>  H       -1.5871563832    -0.3671490861     1.2532859147
| 18>  H       -3.4866495847    -1.9211071655    -1.2620440466
| 19>  H       -1.9783024163    -1.7637288859    -2.2170652939
| 20>  H       -2.1479664802    -2.7070729090     0.6855841451
| 21>  H       -0.8032287428    -4.2122940704     1.0864931695
| 22>  H        1.0272840107    -5.4628314421     0.5948226934
| 23> *
| 24>
| 25>                          ****END OF INPUT****

CARTESIAN COORDINATES (ANGSTROEM)
---------------------------------
  O      0.012735    1.270738   -0.159704
  C      0.079778   -0.140763   -0.103968
  C     -1.291070   -0.698094    0.251105
  O     -2.273166   -0.270729   -0.734414
  C     -2.435154   -1.618154   -1.231309
  C     -1.577810   -2.181644   -0.086649
  O     -0.477908   -2.961334   -0.507074
  C     -0.119196   -4.024690    0.246907
  N      0.905901   -4.690386   -0.056493
  H     -0.713842    1.476253   -0.761353
  H      0.426076   -0.573639   -1.053057
  H      0.811092   -0.403402    0.667511
  H     -1.587156   -0.367149    1.253286
  H     -3.486650   -1.921107   -1.262044
  H     -1.978302   -1.763729   -2.217065
  H     -2.147966   -2.707073    0.685584
  H     -0.803229   -4.212294    1.086493
  H      1.027284   -5.462831    0.594823

 Total Charge           Charge          ....    0
 Multiplicity           Mult            ....    1
 Number of Electrons    NEL             ....   70
 Basis Dimension        Dim             ....  333

ORBITAL ENERGIES
----------------

  NO   OCC          E(Eh)            E(eV)
   0   2.0000     -20.610633      -560.8438
   1   2.0000     -20.569131      -559.7145
   2   2.0000     -20.553732      -559.2955
   3   2.0000     -15.552627      -423.2085
   4   2.0000     -11.352848      -308.9267
   5   2.0000     -11.319719      -308.0252
   6   2.0000     -11.298230      -307.4405
   7   2.0000     -11.297869      -307.4306
   8   2.0000     -11.278591      -306.9061
   9   2.0000      -1.450308       -39.4649
  10   2.0000      -1.399078       -38.0708
  11   2.0000      -1.356728       -36.9185
  12   2.0000      -1.213239       -33.0139
  13   2.0000      -1.038460       -28.2579
  14   2.0000      -0.995434       -27.0871
  15   2.0000      -0.890811       -24.2402
  16   2.0000      -0.855100       -23.2685
  17   2.0000      -0.799965       -21.7682
  18   2.0000      -0.733013       -19.9463
  19   2.0000      -0.725430       -19.7399
  20   2.0000      -0.680156       -18.5080
  21   2.0000      -0.674071       -18.3424
  22   2.0000      -0.667113       -18.1531
  23   2.0000      -0.631914       -17.1952
  24   2.0000      -0.609831       -16.5943
  25   2.0000      -0.591496       -16.0954
  26   2.0000      -0.572165       -15.5694
  27   2.0000      -0.553946       -15.0736
  28   2.0000      -0.531628       -14.4663
  29   2.0000      -0.494320       -13.4511
  30   2.0000      -0.477417       -12.9912
  31   2.0000      -0.467102       -12.7105
  32   2.0000      -0.449679       -12.2364
  33   2.0000      -0.425895       -11.5892
  34   2.0000      -0.408696       -11.1212
  35   0.0000       0.128217         3.4890
  36   0.0000       0.143491         3.9046
  37   0.0000       0.150555         4.0968
  38   0.0000       0.155243         4.2244
  39   0.0000       0.163280         4.4431

MULLIKEN ATOMIC CHARGES
-----------------------
   0 O :   -0.475128
   1 C :   -0.025822
   2 C :    0.047966
   3 O :   -0.350451
   4 C :   -0.035001
   5 C :    0.015706
   6 O :   -0.214930
   7 C :    0.056743
   8 N :   -0.333771
   9 H :    0.328608
  10 H :    0.120222
  11 H :    0.113012
  12 H :    0.102530
  13 H :    0.113588
  14 H :    0.117635
  15 H :    0.107684
  16 H :    0.082566
  17 H :    0.228843
Sum of atomic charges:   -0.0000000

LOEWDIN ATOMIC CHARGES
----------------------
   0 O :   -0.040346
   1 C :   -0.329835
   2 C :   -0.271991
   3 O :    0.123294
   4 C :   -0.245215
   5 C :   -0.276513
   6 O :    0.272096
   7 C :   -0.396304
   8 N :   -0.073853
   9 H :    0.179293
  10 H :    0.125428
  11 H :    0.133781
  12 H :    0.138172
  13 H :    0.121135
  14 H :    0.128071
  15 H :    0.135871
  16 H :    0.106447
  17 H :    0.170469

  Mayer bond orders larger than 0.1
B(  0-O ,  1-C ) :   0.9221 B(  0-O ,  9-H ) :   0.8306 B(  1-C ,  2-C ) :   0.9512
B(  1-C , 10-H ) :   0.9056 B(  1-C , 11-H ) :   0.9239 B(  2-C ,  3-O ) :   0.9057
B(  2-C ,  5-C ) :   0.9176 B(  2-C , 12-H ) :   0.9122 B(  3-O ,  4-C ) :   0.9422
B(  4-C ,  5-C ) :   0.9713 B(  4-C , 13-H ) :   0.9172 B(  4-C , 14-H ) :   0.9055
B(  5-C ,  6-O ) :   0.9234 B(  5-C , 15-H ) :   0.9233 B(  6-O ,  7-C ) :   1.0284
B(  7-C ,  8-N ) :   1.9755 B(  7-C , 16-H ) :   0.9233 B(  8-N , 17-H ) :   0.8483

MP2 TOTAL ENERGY:     -475.434309619 Eh
FINAL SINGLE POINT ENERGY      -475.434309619333

DIPOLE MOMENT
-------------
                                X             Y             Z
Electronic contribution:      0.14882      -0.02475      -0.60838
Nuclear contribution   :     -1.24098      -0.93673       1.32303
                        -----------------------------------------
Total Dipole Moment    :     -1.09216      -0.96147       0.71465
                        -----------------------------------------
Magnitude (a.u.)       :      1.62110
Magnitude (Debye)      :      4.12052

                             ****ORCA TERMINATED NORMALLY****
TOTAL RUN TIME: 0 days 0 hours 17 minutes 9 seconds 200 msec
