                         Program Version 3.0.3 - RELEASE   -
|  1> ! RI-MP2 RIJK def2-TZVP def2-TZVP/C def2-TZVP/JK TIGHTSCF
|  2> % maxcore 2000
|  3> % mp2 density relaxed end
|  4> *xyz 0 1
|  5>  C       -0.4442449963     1.5373413003     0.4269674833
|  6>  C       -0.1215516866     0.0594692339     0.2356091485
|  7>  C        0.2593968991    -0.4474691604    -1.1631361764
|  8>  O       -0.6414657236    -1.0430874806    -2.0341318039
|  9>  C        1.5756077282     0.1069222758    -1.6284780026
| 10>  C        1.5549842198    -1.0423711587    -0.6433753682
| 11>  C        1.2328489185    -0.5651325722     0.7880051145
| 12>  C        2.2361554621     0.3866463984     1.4398405386
| 13>  C        0.9555068992    -1.7530398000     1.7124472764
| 14>  H        0.3435335348     2.1882931513     0.0358310900
| 15>  H       -1.3750292339     1.7970245479    -0.0904829191
| 16>  H       -0.5808893632     1.7822518657     1.4858554617
| 17>  H       -0.9570453690    -0.5416567324     0.6089306044
| 18>  H       -0.9755209962    -0.3667058131    -2.6329767944
| 19>  H        1.8384609692    -0.1872290056    -2.6400695960
| 20>  H        1.9250444335     1.0963288865    -1.3457368232
| 21>  H        2.0105438046    -1.9962634140    -0.8850295491
| 22>  H        2.4975651538     1.2315757123     0.7970363075
| 23>  H        1.8402232645     0.7935243417     2.3773726129
| 24>  H        3.1656740815    -0.1430391056     1.6774995998
| 25>  H        1.8805237683    -2.2956597418     1.9413297236
| 26>  H        0.5204251458    -1.4195043688     2.6616055425
| 27>  H        0.2593470458    -2.4605964506     1.2504228392
| 28> *
| 29>
| 30>                          ****END OF INPUT****

CARTESIAN COORDINATES (ANGSTROEM)
---------------------------------
  C     -0.444245    1.537341    0.426967
  C     -0.121552    0.059469    0.235609
  C      0.259397   -0.447469   -1.163136
  O     -0.641466   -1.043087   -2.034132
  C      1.575608    0.106922   -1.628478
  C      1.554984   -1.042371   -0.643375
  C      1.232849   -0.565133    0.788005
  C      2.236155    0.386646    1.439841
  C      0.955507   -1.753040    1.712447
  H      0.343534    2.188293    0.035831
  H     -1.375029    1.797025   -0.090483
  H     -0.580889    1.782252    1.485855
  H     -0.957045   -0.541657    0.608931
  H     -0.975521   -0.366706   -2.632977
  H      1.838461   -0.187229   -2.640070
  H      1.925044    1.096329   -1.345737
  H      2.010544   -1.996263   -0.885030
  H      2.497565    1.231576    0.797036
  H      1.840223    0.793524    2.377373
  H      3.165674   -0.143039    1.677500
  H      1.880524   -2.295660    1.941330
  H      0.520425   -1.419504    2.661606
  H      0.259347   -2.460596    1.250423

 Total Charge           Charge          ....    0
 Multiplicity           Mult            ....    1
 Number of Electrons    NEL             ....   70
 Basis Dimension        Dim             ....  363

ORBITAL ENERGIES
----------------

  NO   OCC          E(Eh)            E(eV)
   0   2.0000     -20.562654      -559.5383
   1   2.0000     -11.280434      -306.9562
   2   2.0000     -11.236349      -305.7566
   3   2.0000     -11.225174      -305.4525
   4   2.0000     -11.224054      -305.4220
   5   2.0000     -11.222528      -305.3805
   6   2.0000     -11.213199      -305.1266
   7   2.0000     -11.210036      -305.0406
   8   2.0000     -11.209176      -305.0172
   9   2.0000      -1.372976       -37.3606
  10   2.0000      -1.182677       -32.1823
  11   2.0000      -1.044178       -28.4135
  12   2.0000      -1.000331       -27.2204
  13   2.0000      -0.932117       -25.3642
  14   2.0000      -0.887337       -24.1457
  15   2.0000      -0.821848       -22.3636
  16   2.0000      -0.784414       -21.3450
  17   2.0000      -0.700889       -19.0722
  18   2.0000      -0.695304       -18.9202
  19   2.0000      -0.647801       -17.6276
  20   2.0000      -0.628363       -17.0986
  21   2.0000      -0.591204       -16.0875
  22   2.0000      -0.589607       -16.0440
  23   2.0000      -0.570560       -15.5257
  24   2.0000      -0.557901       -15.1812
  25   2.0000      -0.545674       -14.8485
  26   2.0000      -0.532329       -14.4854
  27   2.0000      -0.528253       -14.3745
  28   2.0000      -0.508063       -13.8251
  29   2.0000      -0.495016       -13.4701
  30   2.0000      -0.472982       -12.8705
  31   2.0000      -0.452508       -12.3134
  32   2.0000      -0.419306       -11.4099
  33   2.0000      -0.386205       -10.5092
  34   2.0000      -0.369542       -10.0558
  35   0.0000       0.129989         3.5372
  36   0.0000       0.147604         4.0165
  37   0.0000       0.161535         4.3956
  38   0.0000       0.175528         4.7764
  39   0.0000       0.183464         4.9923

MULLIKEN ATOMIC CHARGES
-----------------------
   0 C :   -0.400134
   1 C :   -0.062872
   2 C :    0.149120
   3 O :   -0.454907
   4 C :   -0.338389
   5 C :   -0.130079
   6 C :    0.108537
   7 C :   -0.398562
   8 C :   -0.444613
   9 H :    0.118263
  10 H :    0.131408
  11 H :    0.132837
  12 H :    0.090742
  13 H :    0.326380
  14 H :    0.134039
  15 H :    0.125313
  16 H :    0.130080
  17 H :    0.119743
  18 H :    0.128451
  19 H :    0.132554
  20 H :    0.127163
  21 H :    0.130740
  22 H :    0.144187
Sum of atomic charges:   -0.0000000

LOEWDIN ATOMIC CHARGES
----------------------
   0 C :   -0.295712
   1 C :   -0.175070
   2 C :   -0.314249
   3 O :    0.024692
   4 C :   -0.196537
   5 C :   -0.127333
   6 C :   -0.255136
   7 C :   -0.269933
   8 C :   -0.269318
   9 H :    0.121266
  10 H :    0.125258
  11 H :    0.124841
  12 H :    0.157823
  13 H :    0.184074
  14 H :    0.142894
  15 H :    0.126023
  16 H :    0.140583
  17 H :    0.122014
  18 H :    0.125931
  19 H :    0.128004
  20 H :    0.124873
  21 H :    0.125359
  22 H :    0.129653

  Mayer bond orders larger than 0.1
B(  0-C ,  1-C ) :   0.8824 B(  0-C ,  9-H ) :   0.9351 B(  0-C , 10-H ) :   0.9368
B(  0-C , 11-H ) :   0.9412 B(  1-C ,  2-C ) :   0.9766 B(  1-C ,  6-C ) :   0.9280
B(  1-C , 12-H ) :   0.9089 B(  2-C ,  3-O ) :   1.0460 B(  2-C ,  4-C ) :   0.9204
B(  2-C ,  5-C ) :   0.8441 B(  3-O , 13-H ) :   0.8363 B(  4-C ,  5-C ) :   0.8470
B(  4-C , 14-H ) :   0.9300 B(  4-C , 15-H ) :   0.8993 B(  5-C ,  6-C ) :   0.9260
B(  5-C , 16-H ) :   0.8972 B(  6-C ,  7-C ) :   0.9117 B(  6-C ,  8-C ) :   0.8794
B(  7-C , 17-H ) :   0.9320 B(  7-C , 18-H ) :   0.9368 B(  7-C , 19-H ) :   0.9356
B(  8-C , 20-H ) :   0.9379 B(  8-C , 21-H ) :   0.9393 B(  8-C , 22-H ) :   0.9351

MP2 TOTAL ENERGY:     -387.596134538 Eh
FINAL SINGLE POINT ENERGY      -387.596134538166

DIPOLE MOMENT
-------------
                                X             Y             Z
Electronic contribution:     -2.26804      -2.94525      -6.30478
Nuclear contribution   :      2.31331       3.43838       6.26627
                        -----------------------------------------
Total Dipole Moment    :      0.04527       0.49313      -0.03850
                        -----------------------------------------
Magnitude (a.u.)       :      0.49670
Magnitude (Debye)      :      1.26250

                             ****ORCA TERMINATED NORMALLY****
TOTAL RUN TIME: 0 days 0 hours 22 minutes 16 seconds 130 msec
