                         Program Version 3.0.3 - RELEASE   -
|  1> ! RI-MP2 RIJK def2-TZVP def2-TZVP/C def2-TZVP/JK TIGHTSCF
|  2> % maxcore 2000
|  3> % mp2 density relaxed end
|  4> *xyz 0 1
|  5>  O        0.0694480852     0.1237905834     0.6694871923
|  6>  C       -0.0062594602     1.2585659348     0.2684176393
|  7>  C       -1.3406859528     1.9008091659    -0.1106214451
|  8>  O       -1.2983541014     3.3063878786    -0.2820530106
|  9>  C       -0.2201828851     3.8011124815    -1.0173705985
| 10>  C        1.0557647988     4.1606788258    -0.3157606932
| 11>  O        1.2284613199     3.3247257435     0.8284631864
| 12>  C        1.2074443610     2.1359525746    -0.0097192285
| 13>  C        1.0205879608     2.9788927548    -1.2768126304
| 14>  H       -1.6882922324     1.3928717804    -1.0258563517
| 15>  H       -2.0749104975     1.7006375317     0.6733414498
| 16>  H       -0.5191832386     4.4605318762    -1.8288616686
| 17>  H        1.5561715485     5.1213946316    -0.3266900981
| 18>  H        2.1361619671     1.5690657060     0.0801322646
| 19>  H        1.4592954069     2.7969027711    -2.2482709276
| 20> *
| 21>
| 22>                          ****END OF INPUT****

CARTESIAN COORDINATES (ANGSTROEM)
---------------------------------
  O      0.069448    0.123791    0.669487
  C     -0.006259    1.258566    0.268418
  C     -1.340686    1.900809   -0.110621
  O     -1.298354    3.306388   -0.282053
  C     -0.220183    3.801112   -1.017371
  C      1.055765    4.160679   -0.315761
  O      1.228461    3.324726    0.828463
  C      1.207444    2.135953   -0.009719
  C      1.020588    2.978893   -1.276813
  H     -1.688292    1.392872   -1.025856
  H     -2.074910    1.700638    0.673341
  H     -0.519183    4.460532   -1.828862
  H      1.556172    5.121395   -0.326690
  H      2.136162    1.569066    0.080132
  H      1.459295    2.796903   -2.248271

 Total Charge           Charge          ....    0
 Multiplicity           Mult            ....    1
 Number of Electrons    NEL             ....   66
 Basis Dimension        Dim             ....  315

ORBITAL ENERGIES
----------------

  NO   OCC          E(Eh)            E(eV)
   0   2.0000     -20.582920      -560.0897
   1   2.0000     -20.582884      -560.0888
   2   2.0000     -20.565195      -559.6074
   3   2.0000     -11.343145      -308.6627
   4   2.0000     -11.316199      -307.9294
   5   2.0000     -11.312059      -307.8168
   6   2.0000     -11.311342      -307.7973
   7   2.0000     -11.301871      -307.5396
   8   2.0000     -11.266710      -306.5828
   9   2.0000      -1.438620       -39.1468
  10   2.0000      -1.404071       -38.2067
  11   2.0000      -1.391612       -37.8677
  12   2.0000      -1.136443       -30.9242
  13   2.0000      -1.039803       -28.2945
  14   2.0000      -0.959080       -26.0979
  15   2.0000      -0.857815       -23.3423
  16   2.0000      -0.805743       -21.9254
  17   2.0000      -0.759528       -20.6678
  18   2.0000      -0.733702       -19.9650
  19   2.0000      -0.709578       -19.3086
  20   2.0000      -0.682882       -18.5822
  21   2.0000      -0.659130       -17.9358
  22   2.0000      -0.630643       -17.1607
  23   2.0000      -0.615739       -16.7551
  24   2.0000      -0.593620       -16.1532
  25   2.0000      -0.570772       -15.5315
  26   2.0000      -0.538503       -14.6534
  27   2.0000      -0.530487       -14.4353
  28   2.0000      -0.522675       -14.2227
  29   2.0000      -0.479014       -13.0346
  30   2.0000      -0.444939       -12.1074
  31   2.0000      -0.404244       -11.0000
  32   2.0000      -0.394193       -10.7265
  33   0.0000       0.112204         3.0532
  34   0.0000       0.137897         3.7524
  35   0.0000       0.151165         4.1134
  36   0.0000       0.169278         4.6063
  37   0.0000       0.180678         4.9165

MULLIKEN ATOMIC CHARGES
-----------------------
   0 O :   -0.258220
   1 C :    0.100470
   2 C :   -0.056699
   3 O :   -0.302636
   4 C :    0.039640
   5 C :    0.040177
   6 O :   -0.313639
   7 C :    0.145426
   8 C :   -0.221210
   9 H :    0.124773
  10 H :    0.153002
  11 H :    0.124109
  12 H :    0.141974
  13 H :    0.129316
  14 H :    0.153516
Sum of atomic charges:   -0.0000000

LOEWDIN ATOMIC CHARGES
----------------------
   0 O :    0.171599
   1 C :   -0.304918
   2 C :   -0.270449
   3 O :    0.200055
   4 C :   -0.274801
   5 C :   -0.216342
   6 O :    0.188778
   7 C :   -0.206620
   8 C :   -0.149193
   9 H :    0.140458
  10 H :    0.148124
  11 H :    0.149431
  12 H :    0.133337
  13 H :    0.150335
  14 H :    0.140205

  Mayer bond orders larger than 0.1
B(  0-O ,  1-C ) :   1.9883 B(  1-C ,  2-C ) :   0.9145 B(  1-C ,  7-C ) :   0.8912
B(  2-C ,  3-O ) :   0.9360 B(  2-C ,  9-H ) :   0.9153 B(  2-C , 10-H ) :   0.9118
B(  3-O ,  4-C ) :   0.9766 B(  4-C ,  5-C ) :   0.8392 B(  4-C ,  8-C ) :   0.9051
B(  4-C , 11-H ) :   0.9425 B(  5-C ,  6-O ) :   0.9488 B(  5-C ,  8-C ) :   0.8986
B(  5-C , 12-H ) :   0.9187 B(  6-O ,  7-C ) :   0.9218 B(  7-C ,  8-C ) :   0.8746
B(  7-C , 13-H ) :   0.9148 B(  8-C , 14-H ) :   0.9071

MP2 TOTAL ENERGY:     -456.975957918 Eh
FINAL SINGLE POINT ENERGY      -456.975957917894

DIPOLE MOMENT
-------------
                                X             Y             Z
Electronic contribution:      0.39902      -1.09285       2.48658
Nuclear contribution   :     -0.15120       1.68002      -3.70196
                        -----------------------------------------
Total Dipole Moment    :      0.24782       0.58717      -1.21538
                        -----------------------------------------
Magnitude (a.u.)       :      1.37235
Magnitude (Debye)      :      3.48823

                             ****ORCA TERMINATED NORMALLY****
TOTAL RUN TIME: 0 days 0 hours 15 minutes 7 seconds 55 msec
