                         Program Version 3.0.3 - RELEASE   -
|  1> ! RI-MP2 RIJK def2-TZVP def2-TZVP/C def2-TZVP/JK TIGHTSCF
|  2> % maxcore 2000
|  3> % mp2 density relaxed end
|  4> *xyz 0 1
|  5>  C        0.5205666981     1.8476908589    -0.5218677149
|  6>  O       -0.1450709242     0.6614117586    -0.8882570071
|  7>  C        0.7150594589    -0.4358167686    -1.1853190419
|  8>  C        1.3317331008    -1.0716287190     0.0627736372
|  9>  C       -0.0873975157    -1.4292443565    -2.0288002700
| 10>  O       -0.3398289534    -2.7345086782    -1.4962958272
| 11>  C       -1.4601654190    -1.8728797044    -1.7289457940
| 12>  C       -2.2845287559    -1.4438747855    -0.5430781790
| 13>  H        1.0431983836     1.7641605951     0.4418103755
| 14>  H        1.2544672236     2.1520932579    -1.2851566296
| 15>  H       -0.2400164790     2.6278735597    -0.4353949012
| 16>  H        1.5350999732    -0.0613906528    -1.8207015852
| 17>  H        0.5623672292    -1.4674369714     0.7280496717
| 18>  H        1.9809352585    -1.9032442892    -0.2252115419
| 19>  H        1.9361611525    -0.3437067900     0.6110341939
| 20>  H        0.2056028549    -1.4479318841    -3.0796082000
| 21>  H       -2.0558019103    -2.1777465266    -2.5932047077
| 22>  H       -1.6677025130    -1.0750041102     0.2751305766
| 23>  H       -2.9647754267    -0.6388286850    -0.8384378533
| 24>  H       -2.8887088860    -2.2853534987    -0.1866147418
| 25> *
| 26>
| 27>                          ****END OF INPUT****

CARTESIAN COORDINATES (ANGSTROEM)
---------------------------------
  C      0.520567    1.847691   -0.521868
  O     -0.145071    0.661412   -0.888257
  C      0.715059   -0.435817   -1.185319
  C      1.331733   -1.071629    0.062774
  C     -0.087398   -1.429244   -2.028800
  O     -0.339829   -2.734509   -1.496296
  C     -1.460165   -1.872880   -1.728946
  C     -2.284529   -1.443875   -0.543078
  H      1.043198    1.764161    0.441810
  H      1.254467    2.152093   -1.285157
  H     -0.240016    2.627874   -0.435395
  H      1.535100   -0.061391   -1.820702
  H      0.562367   -1.467437    0.728050
  H      1.980935   -1.903244   -0.225212
  H      1.936161   -0.343707    0.611034
  H      0.205603   -1.447932   -3.079608
  H     -2.055802   -2.177747   -2.593205
  H     -1.667703   -1.075004    0.275131
  H     -2.964775   -0.638829   -0.838438
  H     -2.888709   -2.285353   -0.186615

 Total Charge           Charge          ....    0
 Multiplicity           Mult            ....    1
 Number of Electrons    NEL             ....   64
 Basis Dimension        Dim             ....  320

ORBITAL ENERGIES
----------------

  NO   OCC          E(Eh)            E(eV)
   0   2.0000     -20.557771      -559.4054
   1   2.0000     -20.557080      -559.3866
   2   2.0000     -11.288694      -307.1810
   3   2.0000     -11.281499      -306.9852
   4   2.0000     -11.278954      -306.9159
   5   2.0000     -11.273496      -306.7674
   6   2.0000     -11.214212      -305.1542
   7   2.0000     -11.214080      -305.1506
   8   2.0000      -1.404716       -38.2243
   9   2.0000      -1.375037       -37.4166
  10   2.0000      -1.040536       -28.3144
  11   2.0000      -1.001840       -27.2614
  12   2.0000      -0.937830       -25.5197
  13   2.0000      -0.902502       -24.5583
  14   2.0000      -0.829200       -22.5637
  15   2.0000      -0.769352       -20.9351
  16   2.0000      -0.706713       -19.2306
  17   2.0000      -0.662694       -18.0328
  18   2.0000      -0.647101       -17.6085
  19   2.0000      -0.635169       -17.2838
  20   2.0000      -0.588658       -16.0182
  21   2.0000      -0.584404       -15.9024
  22   2.0000      -0.569727       -15.5031
  23   2.0000      -0.553382       -15.0583
  24   2.0000      -0.540975       -14.7207
  25   2.0000      -0.521263       -14.1843
  26   2.0000      -0.499651       -13.5962
  27   2.0000      -0.494833       -13.4651
  28   2.0000      -0.473935       -12.8964
  29   2.0000      -0.440051       -11.9744
  30   2.0000      -0.424336       -11.5468
  31   2.0000      -0.415035       -11.2937
  32   0.0000       0.140350         3.8191
  33   0.0000       0.160246         4.3605
  34   0.0000       0.163553         4.4505
  35   0.0000       0.175263         4.7691
  36   0.0000       0.193181         5.2567

MULLIKEN ATOMIC CHARGES
-----------------------
   0 C :   -0.228067
   1 O :   -0.301129
   2 C :    0.086644
   3 C :   -0.397370
   4 C :    0.041678
   5 O :   -0.341538
   6 C :    0.038912
   7 C :   -0.355733
   8 H :    0.114523
   9 H :    0.111013
  10 H :    0.140203
  11 H :    0.072776
  12 H :    0.135838
  13 H :    0.139468
  14 H :    0.127654
  15 H :    0.123376
  16 H :    0.101646
  17 H :    0.134229
  18 H :    0.124464
  19 H :    0.131413
Sum of atomic charges:    0.0000000

LOEWDIN ATOMIC CHARGES
----------------------
   0 C :   -0.361073
   1 O :    0.157379
   2 C :   -0.333382
   3 C :   -0.292215
   4 C :   -0.244053
   5 O :    0.161081
   6 C :   -0.285964
   7 C :   -0.295171
   8 H :    0.100538
   9 H :    0.102358
  10 H :    0.114198
  11 H :    0.139000
  12 H :    0.126286
  13 H :    0.132839
  14 H :    0.120396
  15 H :    0.136950
  16 H :    0.135660
  17 H :    0.126395
  18 H :    0.132143
  19 H :    0.126635

  Mayer bond orders larger than 0.1
B(  0-C ,  1-O ) :   0.9229 B(  0-C ,  8-H ) :   0.9339 B(  0-C ,  9-H ) :   0.9356
B(  0-C , 10-H ) :   0.9402 B(  1-O ,  2-C ) :   0.9286 B(  2-C ,  3-C ) :   0.9393
B(  2-C ,  4-C ) :   0.8848 B(  2-C , 11-H ) :   0.9310 B(  3-C , 12-H ) :   0.9267
B(  3-C , 13-H ) :   0.9302 B(  3-C , 14-H ) :   0.9339 B(  4-C ,  5-O ) :   0.9024
B(  4-C ,  6-C ) :   1.0052 B(  4-C , 15-H ) :   0.9185 B(  5-O ,  6-C ) :   0.9007
B(  6-C ,  7-C ) :   0.9011 B(  6-C , 16-H ) :   0.9219 B(  7-C , 17-H ) :   0.9377
B(  7-C , 18-H ) :   0.9267 B(  7-C , 19-H ) :   0.9291

MP2 TOTAL ENERGY:     -385.471246372 Eh
FINAL SINGLE POINT ENERGY      -385.471246372306

DIPOLE MOMENT
-------------
                                X             Y             Z
Electronic contribution:     -0.93796      -3.53172      -3.60830
Nuclear contribution   :      1.13123       4.25397       3.54609
                        -----------------------------------------
Total Dipole Moment    :      0.19327       0.72225      -0.06222
                        -----------------------------------------
Magnitude (a.u.)       :      0.75025
Magnitude (Debye)      :      1.90698

                             ****ORCA TERMINATED NORMALLY****
TOTAL RUN TIME: 0 days 0 hours 12 minutes 48 seconds 844 msec
