                         Program Version 3.0.3 - RELEASE   -
|  1> ! RI-MP2 RIJK def2-TZVP def2-TZVP/C def2-TZVP/JK TIGHTSCF
|  2> % maxcore 2000
|  3> % mp2 density relaxed end
|  4> *xyz 0 1
|  5>  C       -0.0369453436     1.5260691032     0.0769703292
|  6>  C        0.0103222187     0.0259706940    -0.0283842265
|  7>  C       -0.0407652277    -0.6136425421    -1.1988451897
|  8>  C       -0.0278408281    -2.1111631852    -1.3504828351
|  9>  C       -0.3161807213    -2.8326579155    -0.0285187860
| 10>  C        0.4959386988    -2.2041309284     1.1218343078
| 11>  C        0.1181109689    -0.7181069182     1.2851082788
| 12>  C        0.2347860391    -2.9512269427     2.4099499683
| 13>  O        1.0583819401    -3.5494073103     3.0523858065
| 14>  H        0.8732500155     1.9211946776     0.5465831698
| 15>  H       -0.1459990692     1.9962244972    -0.9039010097
| 16>  H       -0.8757391904     1.8528475582     0.7057862356
| 17>  H       -0.0983984189    -0.0316675195    -2.1165708725
| 18>  H       -0.7663704426    -2.4136911609    -2.1035774577
| 19>  H        0.9446281738    -2.4360489696    -1.7495992247
| 20>  H       -1.3860053556    -2.7538367999     0.2054106447
| 21>  H       -0.0857225919    -3.8994607771    -0.1180890686
| 22>  H        1.5657542730    -2.2928298670     0.9038002123
| 23>  H        0.8579793992    -0.2220762647     1.9267418067
| 24>  H       -0.8375202859    -0.6329798424     1.8276156720
| 25>  H       -0.8326730322    -2.9141071665     2.7406770787
| 26> *
| 27>
| 28>                          ****END OF INPUT****

CARTESIAN COORDINATES (ANGSTROEM)
---------------------------------
  C     -0.036945    1.526069    0.076970
  C      0.010322    0.025971   -0.028384
  C     -0.040765   -0.613643   -1.198845
  C     -0.027841   -2.111163   -1.350483
  C     -0.316181   -2.832658   -0.028519
  C      0.495939   -2.204131    1.121834
  C      0.118111   -0.718107    1.285108
  C      0.234786   -2.951227    2.409950
  O      1.058382   -3.549407    3.052386
  H      0.873250    1.921195    0.546583
  H     -0.145999    1.996224   -0.903901
  H     -0.875739    1.852848    0.705786
  H     -0.098398   -0.031668   -2.116571
  H     -0.766370   -2.413691   -2.103577
  H      0.944628   -2.436049   -1.749599
  H     -1.386005   -2.753837    0.205411
  H     -0.085723   -3.899461   -0.118089
  H      1.565754   -2.292830    0.903800
  H      0.857979   -0.222076    1.926742
  H     -0.837520   -0.632980    1.827616
  H     -0.832673   -2.914107    2.740677

 Total Charge           Charge          ....    0
 Multiplicity           Mult            ....    1
 Number of Electrons    NEL             ....   68
 Basis Dimension        Dim             ....  351

ORBITAL ENERGIES
----------------

  NO   OCC          E(Eh)            E(eV)
   0   2.0000     -20.555131      -559.3335
   1   2.0000     -11.327465      -308.2360
   2   2.0000     -11.243067      -305.9394
   3   2.0000     -11.241465      -305.8958
   4   2.0000     -11.239506      -305.8425
   5   2.0000     -11.237307      -305.7827
   6   2.0000     -11.233678      -305.6839
   7   2.0000     -11.225919      -305.4728
   8   2.0000     -11.224503      -305.4342
   9   2.0000      -1.393717       -37.9250
  10   2.0000      -1.143220       -31.1086
  11   2.0000      -1.056534       -28.7497
  12   2.0000      -1.027090       -27.9485
  13   2.0000      -0.936328       -25.4788
  14   2.0000      -0.885612       -24.0987
  15   2.0000      -0.839675       -22.8487
  16   2.0000      -0.785504       -21.3746
  17   2.0000      -0.705598       -19.2003
  18   2.0000      -0.673247       -18.3200
  19   2.0000      -0.641525       -17.4568
  20   2.0000      -0.637775       -17.3547
  21   2.0000      -0.609357       -16.5815
  22   2.0000      -0.599597       -16.3159
  23   2.0000      -0.583550       -15.8792
  24   2.0000      -0.565265       -15.3817
  25   2.0000      -0.541219       -14.7273
  26   2.0000      -0.535764       -14.5789
  27   2.0000      -0.530092       -14.4245
  28   2.0000      -0.509535       -13.8652
  29   2.0000      -0.488775       -13.3002
  30   2.0000      -0.475714       -12.9448
  31   2.0000      -0.457246       -12.4423
  32   2.0000      -0.409041       -11.1306
  33   2.0000      -0.344614        -9.3774
  34   0.0000       0.127030         3.4567
  35   0.0000       0.135119         3.6768
  36   0.0000       0.146952         3.9988
  37   0.0000       0.149694         4.0734
  38   0.0000       0.164492         4.4760

MULLIKEN ATOMIC CHARGES
-----------------------
   0 C :   -0.414197
   1 C :    0.063489
   2 C :   -0.240342
   3 C :   -0.125200
   4 C :   -0.300062
   5 C :    0.071112
   6 C :   -0.306827
   7 C :    0.064013
   8 O :   -0.258630
   9 H :    0.137983
  10 H :    0.133216
  11 H :    0.134034
  12 H :    0.115130
  13 H :    0.127612
  14 H :    0.119564
  15 H :    0.115201
  16 H :    0.139570
  17 H :    0.097343
  18 H :    0.138767
  19 H :    0.120033
  20 H :    0.068189
Sum of atomic charges:   -0.0000000

LOEWDIN ATOMIC CHARGES
----------------------
   0 C :   -0.271664
   1 C :   -0.197682
   2 C :   -0.152897
   3 C :   -0.251441
   4 C :   -0.226402
   5 C :   -0.241780
   6 C :   -0.196691
   7 C :   -0.276481
   8 O :    0.134465
   9 H :    0.129296
  10 H :    0.128567
  11 H :    0.129777
  12 H :    0.143377
  13 H :    0.144425
  14 H :    0.145834
  15 H :    0.143676
  16 H :    0.142000
  17 H :    0.161841
  18 H :    0.151003
  19 H :    0.149277
  20 H :    0.111497

  Mayer bond orders larger than 0.1
B(  0-C ,  1-C ) :   0.8920 B(  0-C ,  9-H ) :   0.9338 B(  0-C , 10-H ) :   0.9446
B(  0-C , 11-H ) :   0.9281 B(  1-C ,  2-C ) :   1.7618 B(  1-C ,  6-C ) :   0.9249
B(  2-C ,  3-C ) :   0.9512 B(  2-C , 12-H ) :   0.9250 B(  3-C ,  4-C ) :   0.9429
B(  3-C , 13-H ) :   0.9289 B(  3-C , 14-H ) :   0.9099 B(  4-C ,  5-C ) :   0.8947
B(  4-C , 15-H ) :   0.9191 B(  4-C , 16-H ) :   0.9331 B(  5-C ,  6-C ) :   0.9322
B(  5-C ,  7-C ) :   0.8353 B(  5-C , 17-H ) :   0.8970 B(  6-C , 18-H ) :   0.9236
B(  6-C , 19-H ) :   0.9005 B(  7-C ,  8-O ) :   2.0149 B(  7-C , 20-H ) :   0.9421

MP2 TOTAL ENERGY:     -386.442038708 Eh
FINAL SINGLE POINT ENERGY      -386.442038708301

DIPOLE MOMENT
-------------
                                X             Y             Z
Electronic contribution:      2.10647      -5.24956       4.56570
Nuclear contribution   :     -2.66458       5.86043      -5.30324
                        -----------------------------------------
Total Dipole Moment    :     -0.55811       0.61087      -0.73755
                        -----------------------------------------
Magnitude (a.u.)       :      1.10843
Magnitude (Debye)      :      2.81741

                             ****ORCA TERMINATED NORMALLY****
TOTAL RUN TIME: 0 days 0 hours 18 minutes 58 seconds 196 msec
