                         Program Version 3.0.3 - RELEASE   -
|  1> ! RI-MP2 RIJK def2-TZVP def2-TZVP/C def2-TZVP/JK TIGHTSCF
|  2> % maxcore 2000
|  3> % mp2 density relaxed end
|  4> *xyz 0 1
|  5>  C        0.0344352137     1.5527824169    -0.0367390732
|  6>  C        0.0887603072     0.0301401803     0.0332491096
|  7>  N        0.7092505267    -0.5624955348    -1.1701571492
|  8>  C        1.5257352422    -1.4290121754    -0.7494237397
|  9>  O        1.6667421895    -1.6190976197     0.5970516277
| 10>  C        0.9148044687    -0.5600492440     1.2079195089
| 11>  O        1.7961012966     0.4014926152     1.7289657307
| 12>  C        2.4388814470     0.0805786087     2.8800310255
| 13>  N        3.3150399148     0.8588818384     3.3390525889
| 14>  H        1.0370665097     1.9751214866    -0.1190183769
| 15>  H       -0.5461296051     1.8483611532    -0.9136189214
| 16>  H       -0.4417031079     1.9687937756     0.8555568215
| 17>  H       -0.9332821181    -0.3637382448     0.0991230342
| 18>  H        2.1470340941    -2.0748678334    -1.3586817996
| 19>  H        0.3194079527    -1.0037501110     2.0114510635
| 20>  H        2.1027515349    -0.8682912709     3.3172634908
| 21>  H        3.6863222533     0.4904982888     4.2124690188
| 22> *
| 23>
| 24>                          ****END OF INPUT****

CARTESIAN COORDINATES (ANGSTROEM)
---------------------------------
  C      0.034435    1.552782   -0.036739
  C      0.088760    0.030140    0.033249
  N      0.709251   -0.562496   -1.170157
  C      1.525735   -1.429012   -0.749424
  O      1.666742   -1.619098    0.597052
  C      0.914804   -0.560049    1.207920
  O      1.796101    0.401493    1.728966
  C      2.438881    0.080579    2.880031
  N      3.315040    0.858882    3.339053
  H      1.037067    1.975121   -0.119018
  H     -0.546130    1.848361   -0.913619
  H     -0.441703    1.968794    0.855557
  H     -0.933282   -0.363738    0.099123
  H      2.147034   -2.074868   -1.358682
  H      0.319408   -1.003750    2.011451
  H      2.102752   -0.868291    3.317263
  H      3.686322    0.490498    4.212469

 Total Charge           Charge          ....    0
 Multiplicity           Mult            ....    1
 Number of Electrons    NEL             ....   68
 Basis Dimension        Dim             ....  327

ORBITAL ENERGIES
----------------

  NO   OCC          E(Eh)            E(eV)
   0   2.0000     -20.611460      -560.8663
   1   2.0000     -20.607351      -560.7545
   2   2.0000     -15.559671      -423.4002
   3   2.0000     -15.550850      -423.1601
   4   2.0000     -11.369146      -309.3702
   5   2.0000     -11.348629      -308.8119
   6   2.0000     -11.341688      -308.6230
   7   2.0000     -11.280106      -306.9473
   8   2.0000     -11.220058      -305.3133
   9   2.0000      -1.481660       -40.3180
  10   2.0000      -1.421293       -38.6754
  11   2.0000      -1.228938       -33.4411
  12   2.0000      -1.210922       -32.9509
  13   2.0000      -1.057158       -28.7667
  14   2.0000      -0.956319       -26.0228
  15   2.0000      -0.871045       -23.7023
  16   2.0000      -0.831217       -22.6186
  17   2.0000      -0.812490       -22.1090
  18   2.0000      -0.742852       -20.2140
  19   2.0000      -0.728708       -19.8292
  20   2.0000      -0.686909       -18.6918
  21   2.0000      -0.662126       -18.0174
  22   2.0000      -0.625599       -17.0234
  23   2.0000      -0.611316       -16.6347
  24   2.0000      -0.597777       -16.2663
  25   2.0000      -0.565653       -15.3922
  26   2.0000      -0.543489       -14.7891
  27   2.0000      -0.537790       -14.6340
  28   2.0000      -0.520942       -14.1755
  29   2.0000      -0.502975       -13.6867
  30   2.0000      -0.450248       -12.2519
  31   2.0000      -0.445511       -12.1230
  32   2.0000      -0.419299       -11.4097
  33   2.0000      -0.402244       -10.9456
  34   0.0000       0.123892         3.3713
  35   0.0000       0.147604         4.0165
  36   0.0000       0.154867         4.2141
  37   0.0000       0.166432         4.5289
  38   0.0000       0.168287         4.5793

MULLIKEN ATOMIC CHARGES
-----------------------
   0 C :   -0.376260
   1 C :    0.041336
   2 N :   -0.266937
   3 C :    0.098938
   4 O :   -0.269747
   5 C :    0.132429
   6 O :   -0.198414
   7 C :    0.053829
   8 N :   -0.327520
   9 H :    0.148361
  10 H :    0.143654
  11 H :    0.125918
  12 H :    0.108000
  13 H :    0.152457
  14 H :    0.112530
  15 H :    0.092249
  16 H :    0.229177
Sum of atomic charges:   -0.0000000

LOEWDIN ATOMIC CHARGES
----------------------
   0 C :   -0.286353
   1 C :   -0.276979
   2 N :    0.092458
   3 C :   -0.331475
   4 O :    0.225128
   5 C :   -0.335234
   6 O :    0.272003
   7 C :   -0.384994
   8 N :   -0.067959
   9 H :    0.132343
  10 H :    0.130065
  11 H :    0.127208
  12 H :    0.153520
  13 H :    0.135539
  14 H :    0.132714
  15 H :    0.111113
  16 H :    0.170904

  Mayer bond orders larger than 0.1
B(  0-C ,  1-C ) :   0.9325 B(  0-C ,  9-H ) :   0.9243 B(  0-C , 10-H ) :   0.9332
B(  0-C , 11-H ) :   0.9343 B(  1-C ,  2-N ) :   0.9202 B(  1-C ,  5-C ) :   0.9358
B(  1-C , 12-H ) :   0.9171 B(  2-N ,  3-C ) :   1.8398 B(  3-C ,  4-O ) :   1.0343
B(  3-C , 13-H ) :   0.9190 B(  4-O ,  5-C ) :   0.9101 B(  5-C ,  6-O ) :   0.9515
B(  5-C , 14-H ) :   0.9233 B(  6-O ,  7-C ) :   1.0161 B(  7-C ,  8-N ) :   1.9766
B(  7-C , 15-H ) :   0.9251 B(  8-N , 16-H ) :   0.8490

MP2 TOTAL ENERGY:     -454.419871523 Eh
FINAL SINGLE POINT ENERGY      -454.419871522709

DIPOLE MOMENT
-------------
                                X             Y             Z
Electronic contribution:      2.94580      -3.77027      -0.06422
Nuclear contribution   :     -3.56962       2.84981       0.82885
                        -----------------------------------------
Total Dipole Moment    :     -0.62383      -0.92046       0.76463
                        -----------------------------------------
Magnitude (a.u.)       :      1.34947
Magnitude (Debye)      :      3.43008

                             ****ORCA TERMINATED NORMALLY****
TOTAL RUN TIME: 0 days 0 hours 14 minutes 10 seconds 505 msec
