                         Program Version 3.0.3 - RELEASE   -
|  1> ! RI-MP2 RIJK def2-TZVP def2-TZVP/C def2-TZVP/JK TIGHTSCF
|  2> % maxcore 2000
|  3> % mp2 density relaxed end
|  4> *xyz 0 1
|  5>  C       -0.2966488025     1.4183493200    -0.0724630728
|  6>  C        0.0431506998    -0.0491915833     0.1707509096
|  7>  C        1.1127169518    -0.6294257014    -0.8016125360
|  8>  C        2.1860121779    -0.4625990203     0.3166934358
|  9>  C        1.0356081491    -0.2916721791     1.3469283612
| 10>  C        3.1691272636    -1.5856275307     0.5040856350
| 11>  C        3.5765752431    -2.0831142126     1.8237111201
| 12>  O        2.6565308290    -2.8214735241     1.0152006514
| 13>  H        0.6084662633     2.0336978882    -0.1385399912
| 14>  H       -0.8519585881     1.5458801368    -1.0083107431
| 15>  H       -0.9111173810     1.8214378046     0.7402171849
| 16>  H       -0.8805456651    -0.6321005932     0.2296775309
| 17>  H        0.9364747234    -1.6843593277    -1.0284555065
| 18>  H        1.2764240038    -0.0885693441    -1.7379882678
| 19>  H        2.7484215990     0.4680976660     0.1827615660
| 20>  H        1.1365044759     0.5106387442     2.0832950697
| 21>  H        0.8331811788    -1.2326558433     1.8645949958
| 22>  H        3.8752335973    -1.7193534561    -0.3189035882
| 23>  H        4.5557951740    -2.5414055048     1.9552680180
| 24>  H        3.1497262469    -1.6346525590     2.7196827372
| 25> *
| 26>
| 27>                          ****END OF INPUT****

CARTESIAN COORDINATES (ANGSTROEM)
---------------------------------
  C     -0.296649    1.418349   -0.072463
  C      0.043151   -0.049192    0.170751
  C      1.112717   -0.629426   -0.801613
  C      2.186012   -0.462599    0.316693
  C      1.035608   -0.291672    1.346928
  C      3.169127   -1.585628    0.504086
  C      3.576575   -2.083114    1.823711
  O      2.656531   -2.821474    1.015201
  H      0.608466    2.033698   -0.138540
  H     -0.851959    1.545880   -1.008311
  H     -0.911117    1.821438    0.740217
  H     -0.880546   -0.632101    0.229678
  H      0.936475   -1.684359   -1.028456
  H      1.276424   -0.088569   -1.737988
  H      2.748422    0.468098    0.182762
  H      1.136504    0.510639    2.083295
  H      0.833181   -1.232656    1.864595
  H      3.875234   -1.719353   -0.318904
  H      4.555795   -2.541406    1.955268
  H      3.149726   -1.634653    2.719683

 Total Charge           Charge          ....    0
 Multiplicity           Mult            ....    1
 Number of Electrons    NEL             ....   62
 Basis Dimension        Dim             ....  320

ORBITAL ENERGIES
----------------

  NO   OCC          E(Eh)            E(eV)
   0   2.0000     -20.562353      -559.5301
   1   2.0000     -11.282192      -307.0040
   2   2.0000     -11.278362      -306.8998
   3   2.0000     -11.230475      -305.5968
   4   2.0000     -11.224375      -305.4308
   5   2.0000     -11.216405      -305.2139
   6   2.0000     -11.215491      -305.1890
   7   2.0000     -11.212919      -305.1191
   8   2.0000      -1.405325       -38.2408
   9   2.0000      -1.134208       -30.8634
  10   2.0000      -0.995489       -27.0886
  11   2.0000      -0.930348       -25.3160
  12   2.0000      -0.900376       -24.5005
  13   2.0000      -0.880274       -23.9535
  14   2.0000      -0.799123       -21.7452
  15   2.0000      -0.724087       -19.7034
  16   2.0000      -0.700843       -19.0709
  17   2.0000      -0.663887       -18.0653
  18   2.0000      -0.635860       -17.3026
  19   2.0000      -0.601076       -16.3561
  20   2.0000      -0.575392       -15.6572
  21   2.0000      -0.547721       -14.9042
  22   2.0000      -0.534498       -14.5444
  23   2.0000      -0.530494       -14.4355
  24   2.0000      -0.514779       -14.0079
  25   2.0000      -0.489923       -13.3315
  26   2.0000      -0.460238       -12.5237
  27   2.0000      -0.448310       -12.1991
  28   2.0000      -0.436444       -11.8762
  29   2.0000      -0.423085       -11.5127
  30   2.0000      -0.407785       -11.0964
  31   0.0000       0.138698         3.7742
  32   0.0000       0.150502         4.0954
  33   0.0000       0.164975         4.4892
  34   0.0000       0.175567         4.7774
  35   0.0000       0.190702         5.1893

MULLIKEN ATOMIC CHARGES
-----------------------
   0 C :   -0.448827
   1 C :    0.041433
   2 C :   -0.290395
   3 C :   -0.008707
   4 C :   -0.301405
   5 C :   -0.026963
   6 C :   -0.070588
   7 O :   -0.343378
   8 H :    0.125919
   9 H :    0.131295
  10 H :    0.130797
  11 H :    0.101348
  12 H :    0.130852
  13 H :    0.114124
  14 H :    0.104769
  15 H :    0.113499
  16 H :    0.136209
  17 H :    0.122543
  18 H :    0.117794
  19 H :    0.119682
Sum of atomic charges:    0.0000000

LOEWDIN ATOMIC CHARGES
----------------------
   0 C :   -0.299563
   1 C :   -0.250427
   2 C :   -0.194186
   3 C :   -0.221731
   4 C :   -0.199254
   5 C :   -0.281540
   6 C :   -0.265762
   7 O :    0.140252
   8 H :    0.123372
   9 H :    0.123117
  10 H :    0.123146
  11 H :    0.138163
  12 H :    0.139722
  13 H :    0.125346
  14 H :    0.154279
  15 H :    0.125067
  16 H :    0.141514
  17 H :    0.139353
  18 H :    0.118373
  19 H :    0.120757

  Mayer bond orders larger than 0.1
B(  0-C ,  1-C ) :   0.9046 B(  0-C ,  8-H ) :   0.9339 B(  0-C ,  9-H ) :   0.9418
B(  0-C , 10-H ) :   0.9418 B(  1-C ,  2-C ) :   0.8983 B(  1-C ,  4-C ) :   0.9037
B(  1-C , 11-H ) :   0.9221 B(  2-C ,  3-C ) :   0.9289 B(  2-C , 12-H ) :   0.9118
B(  2-C , 13-H ) :   0.9316 B(  3-C ,  4-C ) :   0.9502 B(  3-C ,  5-C ) :   0.9221
B(  3-C , 14-H ) :   0.9159 B(  4-C , 15-H ) :   0.9279 B(  4-C , 16-H ) :   0.9083
B(  5-C ,  6-C ) :   0.9814 B(  5-C ,  7-O ) :   0.8763 B(  5-C , 17-H ) :   0.9192
B(  6-C ,  7-O ) :   0.9054 B(  6-C , 18-H ) :   0.9233 B(  6-C , 19-H ) :   0.9065

MP2 TOTAL ENERGY:     -348.365476134 Eh
FINAL SINGLE POINT ENERGY      -348.365476133601

DIPOLE MOMENT
-------------
                                X             Y             Z
Electronic contribution:      3.80641      -5.69959       1.00273
Nuclear contribution   :     -3.51147       6.30177      -0.94716
                        -----------------------------------------
Total Dipole Moment    :      0.29494       0.60218       0.05557
                        -----------------------------------------
Magnitude (a.u.)       :      0.67283
Magnitude (Debye)      :      1.71019

                             ****ORCA TERMINATED NORMALLY****
TOTAL RUN TIME: 0 days 0 hours 12 minutes 56 seconds 966 msec
