                         Program Version 3.0.3 - RELEASE   -
|  1> ! RI-MP2 RIJK def2-TZVP def2-TZVP/C def2-TZVP/JK TIGHTSCF
|  2> % maxcore 2000
|  3> % mp2 density relaxed end
|  4> *xyz 0 1
|  5>  C       -0.4007056133     1.4484894811     0.2215238753
|  6>  C        0.0906623641     0.0143177288    -0.0640483300
|  7>  C        0.8158813284    -0.0377146237    -1.3950980576
|  8>  O        1.8978784811    -0.5316627249    -1.5883011732
|  9>  C        0.8942550547    -0.5933547287     1.0797231276
| 10>  C        2.1167466608     0.1758420516     1.5354068353
| 11>  O        0.0796436072    -1.1085422496     2.1519277690
| 12>  C        0.8322871852    -2.0400537154     1.3598688206
| 13>  C        0.0758879227    -3.0773005316     0.5695118857
| 14>  H        0.4300282202     2.1524441871     0.3214818814
| 15>  H       -1.0464582418     1.8048101572    -0.5871706420
| 16>  H       -0.9780785980     1.4626961474     1.1492199729
| 17>  H       -0.8120633358    -0.5943180723    -0.2067385274
| 18>  H        0.2462642034     0.4302329205    -2.2325972799
| 19>  H        1.8474472452     1.1727043984     1.8983732476
| 20>  H        2.6079498972    -0.3537528821     2.3549693866
| 21>  H        2.8264671280     0.2843015075     0.7108968422
| 22>  H        1.6981576535    -2.4473077125     1.8872468893
| 23>  H       -0.8077304822    -2.6675265514     0.0768546304
| 24>  H        0.7285221091    -3.5183670248    -0.1912050719
| 25>  H       -0.2582462997    -3.8813204627     1.2336292883
| 26> *
| 27>
| 28>                          ****END OF INPUT****

CARTESIAN COORDINATES (ANGSTROEM)
---------------------------------
  C     -0.400706    1.448489    0.221524
  C      0.090662    0.014318   -0.064048
  C      0.815881   -0.037715   -1.395098
  O      1.897878   -0.531663   -1.588301
  C      0.894255   -0.593355    1.079723
  C      2.116747    0.175842    1.535407
  O      0.079644   -1.108542    2.151928
  C      0.832287   -2.040054    1.359869
  C      0.075888   -3.077301    0.569512
  H      0.430028    2.152444    0.321482
  H     -1.046458    1.804810   -0.587171
  H     -0.978079    1.462696    1.149220
  H     -0.812063   -0.594318   -0.206739
  H      0.246264    0.430233   -2.232597
  H      1.847447    1.172704    1.898373
  H      2.607950   -0.353753    2.354969
  H      2.826467    0.284302    0.710897
  H      1.698158   -2.447308    1.887247
  H     -0.807730   -2.667527    0.076855
  H      0.728522   -3.518367   -0.191205
  H     -0.258246   -3.881320    1.233629

 Total Charge           Charge          ....    0
 Multiplicity           Mult            ....    1
 Number of Electrons    NEL             ....   70
 Basis Dimension        Dim             ....  351

ORBITAL ENERGIES
----------------

  NO   OCC          E(Eh)            E(eV)
   0   2.0000     -20.563876      -559.5715
   1   2.0000     -20.559567      -559.4542
   2   2.0000     -11.338834      -308.5454
   3   2.0000     -11.292875      -307.2947
   4   2.0000     -11.284402      -307.0642
   5   2.0000     -11.255095      -306.2667
   6   2.0000     -11.237360      -305.7841
   7   2.0000     -11.225971      -305.4742
   8   2.0000     -11.218715      -305.2768
   9   2.0000      -1.407075       -38.2885
  10   2.0000      -1.401474       -38.1360
  11   2.0000      -1.093163       -29.7465
  12   2.0000      -1.011451       -27.5230
  13   2.0000      -0.995295       -27.0833
  14   2.0000      -0.913845       -24.8670
  15   2.0000      -0.853507       -23.2251
  16   2.0000      -0.828759       -22.5517
  17   2.0000      -0.737614       -20.0715
  18   2.0000      -0.688895       -18.7458
  19   2.0000      -0.667650       -18.1677
  20   2.0000      -0.654009       -17.7965
  21   2.0000      -0.638656       -17.3787
  22   2.0000      -0.591653       -16.0997
  23   2.0000      -0.580194       -15.7879
  24   2.0000      -0.566060       -15.4033
  25   2.0000      -0.560872       -15.2621
  26   2.0000      -0.554337       -15.0843
  27   2.0000      -0.543403       -14.7868
  28   2.0000      -0.541961       -14.7475
  29   2.0000      -0.513673       -13.9778
  30   2.0000      -0.500286       -13.6135
  31   2.0000      -0.482403       -13.1269
  32   2.0000      -0.443973       -12.0811
  33   2.0000      -0.423078       -11.5125
  34   2.0000      -0.411429       -11.1956
  35   0.0000       0.120394         3.2761
  36   0.0000       0.138883         3.7792
  37   0.0000       0.151744         4.1292
  38   0.0000       0.157891         4.2964
  39   0.0000       0.184703         5.0260

MULLIKEN ATOMIC CHARGES
-----------------------
   0 C :   -0.456971
   1 C :    0.004636
   2 C :    0.066355
   3 O :   -0.271279
   4 C :    0.237300
   5 C :   -0.458049
   6 O :   -0.351661
   7 C :    0.019276
   8 C :   -0.389851
   9 H :    0.144182
  10 H :    0.142529
  11 H :    0.163316
  12 H :    0.111717
  13 H :    0.089518
  14 H :    0.138870
  15 H :    0.137852
  16 H :    0.158832
  17 H :    0.102396
  18 H :    0.124955
  19 H :    0.141647
  20 H :    0.144426
Sum of atomic charges:    0.0000000

LOEWDIN ATOMIC CHARGES
----------------------
   0 C :   -0.276243
   1 C :   -0.247350
   2 C :   -0.268117
   3 O :    0.138866
   4 C :   -0.300244
   5 C :   -0.261819
   6 O :    0.172084
   7 C :   -0.267813
   8 C :   -0.293608
   9 H :    0.126285
  10 H :    0.126524
  11 H :    0.135456
  12 H :    0.174793
  13 H :    0.115736
  14 H :    0.127887
  15 H :    0.132810
  16 H :    0.136025
  17 H :    0.139548
  18 H :    0.123786
  19 H :    0.134487
  20 H :    0.130907

  Mayer bond orders larger than 0.1
B(  0-C ,  1-C ) :   0.9019 B(  0-C ,  9-H ) :   0.9329 B(  0-C , 10-H ) :   0.9323
B(  0-C , 11-H ) :   0.9345 B(  1-C ,  2-C ) :   0.8584 B(  1-C ,  4-C ) :   0.8538
B(  1-C , 12-H ) :   0.9149 B(  2-C ,  3-O ) :   1.9861 B(  2-C , 13-H ) :   0.9442
B(  4-C ,  5-C ) :   0.8616 B(  4-C ,  6-O ) :   0.8690 B(  4-C ,  7-C ) :   0.9731
B(  5-C , 14-H ) :   0.9387 B(  5-C , 15-H ) :   0.9361 B(  5-C , 16-H ) :   0.9298
B(  6-O ,  7-C ) :   0.8957 B(  7-C ,  8-C ) :   0.8820 B(  7-C , 17-H ) :   0.9133
B(  8-C , 18-H ) :   0.9425 B(  8-C , 19-H ) :   0.9235 B(  8-C , 20-H ) :   0.9344

MP2 TOTAL ENERGY:     -423.518868548 Eh
FINAL SINGLE POINT ENERGY      -423.518868547538

DIPOLE MOMENT
-------------
                                X             Y             Z
Electronic contribution:      1.51956      -1.19591      -1.40427
Nuclear contribution   :     -1.93169       1.40558       1.16513
                        -----------------------------------------
Total Dipole Moment    :     -0.41214       0.20967      -0.23914
                        -----------------------------------------
Magnitude (a.u.)       :      0.52058
Magnitude (Debye)      :      1.32321

                             ****ORCA TERMINATED NORMALLY****
TOTAL RUN TIME: 0 days 0 hours 23 minutes 17 seconds 929 msec
