                         Program Version 3.0.3 - RELEASE   -
|  1> ! RI-MP2 RIJK def2-TZVP def2-TZVP/C def2-TZVP/JK TIGHTSCF
|  2> % maxcore 2000
|  3> % mp2 density relaxed end
|  4> *xyz 0 1
|  5>  O       -0.1682472687     1.2517599315     0.0101659611
|  6>  C        0.0332766829    -0.0553153720     0.0023970955
|  7>  N        1.1750859138    -0.6080685124    -0.0066044978
|  8>  C        1.2302531890    -2.0258738056    -0.0140156626
|  9>  O        2.2769659230    -2.6117283118    -0.0233331974
| 10>  N       -0.0071430762    -2.7202165999    -0.0111564786
| 11>  C       -1.0753643304    -2.0359923432    -0.0018726346
| 12>  O       -2.2949035774    -2.5476835717     0.0019741941
| 13>  O       -1.1741348211    -0.6801122680     0.0057167804
| 14>  H        0.7086518529     1.6640317237     0.0075305050
| 15>  H       -2.1877995278    -3.5107123505    -0.0036407150
| 16> *
| 17>
| 18>                          ****END OF INPUT****

CARTESIAN COORDINATES (ANGSTROEM)
---------------------------------
  O     -0.168247    1.251760    0.010166
  C      0.033277   -0.055315    0.002397
  N      1.175086   -0.608069   -0.006604
  C      1.230253   -2.025874   -0.014016
  O      2.276966   -2.611728   -0.023333
  N     -0.007143   -2.720217   -0.011156
  C     -1.075364   -2.035992   -0.001873
  O     -2.294904   -2.547684    0.001974
  O     -1.174135   -0.680112    0.005717
  H      0.708652    1.664032    0.007531
  H     -2.187800   -3.510712   -0.003641

 Total Charge           Charge          ....    0
 Multiplicity           Mult            ....    1
 Number of Electrons    NEL             ....   66
 Basis Dimension        Dim             ....  291

ORBITAL ENERGIES
----------------

  NO   OCC          E(Eh)            E(eV)
   0   2.0000     -20.697269      -563.2013
   1   2.0000     -20.661063      -562.2161
   2   2.0000     -20.661063      -562.2161
   3   2.0000     -20.540524      -558.9361
   4   2.0000     -15.590454      -424.2378
   5   2.0000     -15.590430      -424.2372
   6   2.0000     -11.467008      -312.0332
   7   2.0000     -11.466993      -312.0327
   8   2.0000     -11.397355      -310.1378
   9   2.0000      -1.580392       -43.0047
  10   2.0000      -1.504089       -40.9283
  11   2.0000      -1.454932       -39.5907
  12   2.0000      -1.413538       -38.4643
  13   2.0000      -1.284389       -34.9500
  14   2.0000      -1.240965       -33.7684
  15   2.0000      -1.000065       -27.2132
  16   2.0000      -0.918417       -24.9914
  17   2.0000      -0.840765       -22.8784
  18   2.0000      -0.824367       -22.4322
  19   2.0000      -0.757706       -20.6182
  20   2.0000      -0.753274       -20.4976
  21   2.0000      -0.741915       -20.1885
  22   2.0000      -0.680257       -18.5107
  23   2.0000      -0.666318       -18.1314
  24   2.0000      -0.666315       -18.1314
  25   2.0000      -0.631265       -17.1776
  26   2.0000      -0.594598       -16.1798
  27   2.0000      -0.591181       -16.0869
  28   2.0000      -0.532708       -14.4957
  29   2.0000      -0.482939       -13.1414
  30   2.0000      -0.461876       -12.5683
  31   2.0000      -0.448640       -12.2081
  32   2.0000      -0.433004       -11.7826
  33   0.0000       0.112834         3.0704
  34   0.0000       0.116037         3.1575
  35   0.0000       0.129734         3.5302
  36   0.0000       0.135562         3.6888
  37   0.0000       0.164132         4.4663

MULLIKEN ATOMIC CHARGES
-----------------------
   0 O :   -0.368465
   1 C :    0.382217
   2 N :   -0.283039
   3 C :    0.246299
   4 O :   -0.254321
   5 N :   -0.283039
   6 C :    0.382217
   7 O :   -0.368465
   8 O :   -0.188812
   9 H :    0.367704
  10 H :    0.367704
Sum of atomic charges:   -0.0000000

LOEWDIN ATOMIC CHARGES
----------------------
   0 O :    0.141151
   1 C :   -0.488563
   2 N :    0.114501
   3 C :   -0.487549
   4 O :    0.153175
   5 N :    0.114501
   6 C :   -0.488563
   7 O :    0.141151
   8 O :    0.356512
   9 H :    0.221841
  10 H :    0.221841

  Mayer bond orders larger than 0.1
B(  0-O ,  1-C ) :   1.1992 B(  0-O ,  9-H ) :   0.7975 B(  1-C ,  2-N ) :   1.7021
B(  1-C ,  8-O ) :   1.0292 B(  2-N ,  3-C ) :   1.0484 B(  3-C ,  4-O ) :   2.0581
B(  3-C ,  5-N ) :   1.0484 B(  5-N ,  6-C ) :   1.7021 B(  6-C ,  7-O ) :   1.1992
B(  6-C ,  8-O ) :   1.0292 B(  7-O , 10-H ) :   0.7975

MP2 TOTAL ENERGY:     -525.100436589 Eh
FINAL SINGLE POINT ENERGY      -525.100436589408

DIPOLE MOMENT
-------------
                                X             Y             Z
Electronic contribution:      0.11393      -0.06377      -0.00045
Nuclear contribution   :     -1.33201       0.74554       0.01087
                        -----------------------------------------
Total Dipole Moment    :     -1.21809       0.68178       0.01042
                        -----------------------------------------
Magnitude (a.u.)       :      1.39594
Magnitude (Debye)      :      3.54821

                             ****ORCA TERMINATED NORMALLY****
TOTAL RUN TIME: 0 days 0 hours 10 minutes 0 seconds 2 msec
