                         Program Version 3.0.3 - RELEASE   -
|  1> ! RI-MP2 RIJK def2-TZVP def2-TZVP/C def2-TZVP/JK TIGHTSCF
|  2> % maxcore 2000
|  3> % mp2 density relaxed end
|  4> *xyz 0 1
|  5>  C        0.0621406370     1.1309907960    -0.5101054248
|  6>  O       -0.1798844097     0.1300579565     0.4690381310
|  7>  C       -1.3696964066    -0.5468870099     0.2651391101
|  8>  C       -1.4283995207    -1.6567294861    -0.7333764430
|  9>  O       -0.2836578972    -1.8702953082    -1.4935258780
| 10>  C       -1.4252171734    -1.9797462191     0.7765142112
| 11>  C       -0.2135914536    -2.5859107418     1.3839003258
| 12>  O       -0.2620970800    -3.4374030988     2.2406740082
| 13>  H        1.0002187311     1.6172450678    -0.2348604229
| 14>  H        0.1548023416     0.6942894350    -1.5107406639
| 15>  H       -0.7403979254     1.8832481777    -0.5164274826
| 16>  H       -2.2702870706     0.0556751987     0.3994137818
| 17>  H       -2.3743811439    -1.8276653724    -1.2470661158
| 18>  H       -0.2125329927    -2.8111363565    -1.6869565318
| 19>  H       -2.3564431325    -2.3247363119     1.2120109877
| 20>  H        0.7497745364    -2.2103380870     0.9921675070
| 21> *
| 22>
| 23>                          ****END OF INPUT****

CARTESIAN COORDINATES (ANGSTROEM)
---------------------------------
  C      0.062141    1.130991   -0.510105
  O     -0.179884    0.130058    0.469038
  C     -1.369696   -0.546887    0.265139
  C     -1.428400   -1.656729   -0.733376
  O     -0.283658   -1.870295   -1.493526
  C     -1.425217   -1.979746    0.776514
  C     -0.213591   -2.585911    1.383900
  O     -0.262097   -3.437403    2.240674
  H      1.000219    1.617245   -0.234860
  H      0.154802    0.694289   -1.510741
  H     -0.740398    1.883248   -0.516427
  H     -2.270287    0.055675    0.399414
  H     -2.374381   -1.827665   -1.247066
  H     -0.212533   -2.811136   -1.686957
  H     -2.356443   -2.324736    1.212011
  H      0.749775   -2.210338    0.992168

 Total Charge           Charge          ....    0
 Multiplicity           Mult            ....    1
 Number of Electrons    NEL             ....   62
 Basis Dimension        Dim             ....  296

ORBITAL ENERGIES
----------------

  NO   OCC          E(Eh)            E(eV)
   0   2.0000     -20.588993      -560.2550
   1   2.0000     -20.576934      -559.9268
   2   2.0000     -20.546329      -559.0940
   3   2.0000     -11.326066      -308.1979
   4   2.0000     -11.312621      -307.8321
   5   2.0000     -11.308239      -307.7128
   6   2.0000     -11.279004      -306.9173
   7   2.0000     -11.249400      -306.1117
   8   2.0000      -1.413646       -38.4673
   9   2.0000      -1.387784       -37.7635
  10   2.0000      -1.384055       -37.6620
  11   2.0000      -1.146822       -31.2066
  12   2.0000      -0.946340       -25.7512
  13   2.0000      -0.918947       -25.0058
  14   2.0000      -0.822885       -22.3918
  15   2.0000      -0.785072       -21.3629
  16   2.0000      -0.733149       -19.9500
  17   2.0000      -0.717438       -19.5225
  18   2.0000      -0.665514       -18.1096
  19   2.0000      -0.650619       -17.7042
  20   2.0000      -0.634384       -17.2625
  21   2.0000      -0.622605       -16.9419
  22   2.0000      -0.602367       -16.3912
  23   2.0000      -0.585851       -15.9418
  24   2.0000      -0.547874       -14.9084
  25   2.0000      -0.522032       -14.2052
  26   2.0000      -0.515689       -14.0326
  27   2.0000      -0.483583       -13.1590
  28   2.0000      -0.428538       -11.6611
  29   2.0000      -0.413839       -11.2611
  30   2.0000      -0.402102       -10.9417
  31   0.0000       0.117822         3.2061
  32   0.0000       0.138000         3.7552
  33   0.0000       0.150261         4.0888
  34   0.0000       0.162402         4.4192
  35   0.0000       0.188727         5.1355

MULLIKEN ATOMIC CHARGES
-----------------------
   0 C :   -0.218928
   1 O :   -0.312725
   2 C :    0.082046
   3 C :   -0.003290
   4 O :   -0.457928
   5 C :   -0.087737
   6 C :    0.040878
   7 O :   -0.276071
   8 H :    0.142029
   9 H :    0.141650
  10 H :    0.111664
  11 H :    0.122640
  12 H :    0.121946
  13 H :    0.333592
  14 H :    0.140683
  15 H :    0.119551
Sum of atomic charges:    0.0000000

LOEWDIN ATOMIC CHARGES
----------------------
   0 C :   -0.333064
   1 O :    0.179136
   2 C :   -0.284768
   3 C :   -0.297601
   4 O :    0.015352
   5 C :   -0.186237
   6 C :   -0.283704
   7 O :    0.121627
   8 H :    0.115211
   9 H :    0.110007
  10 H :    0.103616
  11 H :    0.139313
  12 H :    0.134908
  13 H :    0.187570
  14 H :    0.156341
  15 H :    0.122294

  Mayer bond orders larger than 0.1
B(  0-C ,  1-O ) :   0.8813 B(  0-C ,  8-H ) :   0.9390 B(  0-C ,  9-H ) :   0.9336
B(  0-C , 10-H ) :   0.9345 B(  1-O ,  2-C ) :   1.0063 B(  2-C ,  3-C ) :   0.8586
B(  2-C ,  5-C ) :   0.8410 B(  2-C , 11-H ) :   0.9287 B(  3-C ,  4-O ) :   1.0583
B(  3-C ,  5-C ) :   0.7971 B(  3-C , 12-H ) :   0.9423 B(  4-O , 13-H ) :   0.8359
B(  5-C ,  6-C ) :   0.9094 B(  5-C , 14-H ) :   0.9089 B(  6-C ,  7-O ) :   1.9574
B(  6-C , 15-H ) :   0.9395

MP2 TOTAL ENERGY:     -420.175695065 Eh
FINAL SINGLE POINT ENERGY      -420.175695065454

DIPOLE MOMENT
-------------
                                X             Y             Z
Electronic contribution:      0.47704      -4.85356       3.19947
Nuclear contribution   :     -1.11823       5.41627      -4.43255
                        -----------------------------------------
Total Dipole Moment    :     -0.64119       0.56272      -1.23308
                        -----------------------------------------
Magnitude (a.u.)       :      1.49942
Magnitude (Debye)      :      3.81122

                             ****ORCA TERMINATED NORMALLY****
TOTAL RUN TIME: 0 days 0 hours 10 minutes 31 seconds 780 msec
