                         Program Version 3.0.3 - RELEASE   -
|  1> ! RI-MP2 RIJK def2-TZVP def2-TZVP/C def2-TZVP/JK TIGHTSCF
|  2> % maxcore 2000
|  3> % mp2 density relaxed end
|  4> *xyz 0 1
|  5>  O        0.0243448491     1.4419468423     0.0126225038
|  6>  C        0.0423874266     0.0277476045     0.0004413625
|  7>  C        0.8449424798    -0.5446005070     1.1791336197
|  8>  C        0.8516815727    -2.0851759068     1.1765539877
|  9>  C       -0.5584089095    -2.6521721635     1.1010131472
| 10>  O       -0.9688543008    -3.5108836845     1.8440428157
| 11>  C       -1.4171884654    -2.0582558965    -0.0129274707
| 12>  C       -1.3916855279    -0.5231567730    -0.0029582336
| 13>  O       -1.9889385148     0.0027331961     1.1839186215
| 14>  H       -0.6064484873     1.6903757657     0.7004117100
| 15>  H        0.5217812569    -0.2620182836    -0.9433831395
| 16>  H        1.8663642406    -0.1563186543     1.1370444104
| 17>  H        0.3966708316    -0.1824925317     2.1104571882
| 18>  H        1.3970845724    -2.4441582110     0.2911216051
| 19>  H        1.3482250170    -2.4949077380     2.0587880524
| 20>  H       -1.0185589416    -2.4093253099    -0.9753020096
| 21>  H       -2.4371420977    -2.4435160981     0.0799019617
| 22>  H       -1.9120055654    -0.1334596586    -0.8892984871
| 23>  H       -2.9211984962    -0.2333357320     1.1972734845
| 24> *
| 25>
| 26>                          ****END OF INPUT****

CARTESIAN COORDINATES (ANGSTROEM)
---------------------------------
  O      0.024345    1.441947    0.012623
  C      0.042387    0.027748    0.000441
  C      0.844942   -0.544601    1.179134
  C      0.851682   -2.085176    1.176554
  C     -0.558409   -2.652172    1.101013
  O     -0.968854   -3.510884    1.844043
  C     -1.417188   -2.058256   -0.012927
  C     -1.391686   -0.523157   -0.002958
  O     -1.988939    0.002733    1.183919
  H     -0.606448    1.690376    0.700412
  H      0.521781   -0.262018   -0.943383
  H      1.866364   -0.156319    1.137044
  H      0.396671   -0.182493    2.110457
  H      1.397085   -2.444158    0.291122
  H      1.348225   -2.494908    2.058788
  H     -1.018559   -2.409325   -0.975302
  H     -2.437142   -2.443516    0.079902
  H     -1.912006   -0.133460   -0.889298
  H     -2.921198   -0.233336    1.197273

 Total Charge           Charge          ....    0
 Multiplicity           Mult            ....    1
 Number of Electrons    NEL             ....   70
 Basis Dimension        Dim             ....  339

ORBITAL ENERGIES
----------------

  NO   OCC          E(Eh)            E(eV)
   0   2.0000     -20.580079      -560.0124
   1   2.0000     -20.556969      -559.3836
   2   2.0000     -20.548141      -559.1433
   3   2.0000     -11.332525      -308.3737
   4   2.0000     -11.303433      -307.5821
   5   2.0000     -11.290785      -307.2379
   6   2.0000     -11.248762      -306.0944
   7   2.0000     -11.241493      -305.8966
   8   2.0000     -11.234289      -305.7005
   9   2.0000      -1.396644       -38.0046
  10   2.0000      -1.389869       -37.8202
  11   2.0000      -1.359186       -36.9853
  12   2.0000      -1.111260       -30.2389
  13   2.0000      -1.029365       -28.0105
  14   2.0000      -0.979483       -26.6531
  15   2.0000      -0.874060       -23.7844
  16   2.0000      -0.819323       -22.2949
  17   2.0000      -0.769279       -20.9331
  18   2.0000      -0.697892       -18.9906
  19   2.0000      -0.685633       -18.6570
  20   2.0000      -0.665294       -18.1036
  21   2.0000      -0.649782       -17.6815
  22   2.0000      -0.624899       -17.0044
  23   2.0000      -0.622733       -16.9454
  24   2.0000      -0.611367       -16.6361
  25   2.0000      -0.576854       -15.6970
  26   2.0000      -0.549621       -14.9559
  27   2.0000      -0.543622       -14.7927
  28   2.0000      -0.539289       -14.6748
  29   2.0000      -0.528886       -14.3917
  30   2.0000      -0.489899       -13.3308
  31   2.0000      -0.484726       -13.1901
  32   2.0000      -0.464927       -12.6513
  33   2.0000      -0.436794       -11.8858
  34   2.0000      -0.404440       -11.0054
  35   0.0000       0.108560         2.9541
  36   0.0000       0.135006         3.6737
  37   0.0000       0.154706         4.2098
  38   0.0000       0.157989         4.2991
  39   0.0000       0.183375         4.9899

MULLIKEN ATOMIC CHARGES
-----------------------
   0 O :   -0.471146
   1 C :    0.061188
   2 C :   -0.218409
   3 C :   -0.216934
   4 C :    0.162782
   5 O :   -0.268769
   6 C :   -0.278765
   7 C :    0.060441
   8 O :   -0.493796
   9 H :    0.330205
  10 H :    0.103177
  11 H :    0.135036
  12 H :    0.126556
  13 H :    0.122834
  14 H :    0.139800
  15 H :    0.131683
  16 H :    0.135453
  17 H :    0.113559
  18 H :    0.325105
Sum of atomic charges:   -0.0000000

LOEWDIN ATOMIC CHARGES
----------------------
   0 O :   -0.011262
   1 C :   -0.335346
   2 C :   -0.239453
   3 C :   -0.223793
   4 C :   -0.322387
   5 O :    0.153580
   6 C :   -0.216003
   7 C :   -0.330590
   8 O :   -0.019057
   9 H :    0.180843
  10 H :    0.148923
  11 H :    0.142344
  12 H :    0.146100
  13 H :    0.153032
  14 H :    0.147973
  15 H :    0.158822
  16 H :    0.146516
  17 H :    0.139612
  18 H :    0.180146

  Mayer bond orders larger than 0.1
B(  0-O ,  1-C ) :   0.9632 B(  0-O ,  9-H ) :   0.8241 B(  1-C ,  2-C ) :   0.9294
B(  1-C ,  7-C ) :   0.9024 B(  1-C , 10-H ) :   0.9269 B(  2-C ,  3-C ) :   0.8780
B(  2-C , 11-H ) :   0.9272 B(  2-C , 12-H ) :   0.9129 B(  3-C ,  4-C ) :   0.9147
B(  3-C , 13-H ) :   0.9028 B(  3-C , 14-H ) :   0.9141 B(  4-C ,  5-O ) :   2.0458
B(  4-C ,  6-C ) :   0.9113 B(  6-C ,  7-C ) :   0.9001 B(  6-C , 15-H ) :   0.9029
B(  6-C , 16-H ) :   0.9126 B(  7-C ,  8-O ) :   0.9271 B(  7-C , 17-H ) :   0.9317
B(  8-O , 18-H ) :   0.8404

MP2 TOTAL ENERGY:     -459.471674339 Eh
FINAL SINGLE POINT ENERGY      -459.471674338829

DIPOLE MOMENT
-------------
                                X             Y             Z
Electronic contribution:     -2.18703      -1.22186       1.71037
Nuclear contribution   :      1.86089       1.33395      -2.34787
                        -----------------------------------------
Total Dipole Moment    :     -0.32614       0.11209      -0.63750
                        -----------------------------------------
Magnitude (a.u.)       :      0.72480
Magnitude (Debye)      :      1.84230

                             ****ORCA TERMINATED NORMALLY****
TOTAL RUN TIME: 0 days 0 hours 18 minutes 40 seconds 153 msec
