                         Program Version 3.0.3 - RELEASE   -
|  1> ! RI-MP2 RIJK def2-TZVP def2-TZVP/C def2-TZVP/JK TIGHTSCF
|  2> % maxcore 2000
|  3> % mp2 density relaxed end
|  4> *xyz 0 1
|  5>  O        0.3763595762     1.1873155868    -0.4647283812
|  6>  C        0.0500822423    -0.0687869085     0.0591117899
|  7>  C        0.1941223522    -0.2546621433     1.5828466291
|  8>  C       -0.6165512533    -1.5291229569     1.8209418724
|  9>  O       -1.6379442653    -1.5693217451     0.7989703808
| 10>  C       -1.4143390631    -0.5299428329    -0.1443056686
| 11>  C       -2.4632506282     0.5479316257     0.1213848431
| 12>  O       -2.2811503757     1.7427850325     0.0774036374
| 13>  H       -0.3577010383     1.7845664602    -0.2564737410
| 14>  H        0.7003964444    -0.7931626522    -0.4457088331
| 15>  H        1.2341611781    -0.3443838022     1.9014377881
| 16>  H       -0.2496063508     0.6050203714     2.0970703254
| 17>  H        0.0064822627    -2.4269633671     1.7191754496
| 18>  H       -1.1046138349    -1.5630867668     2.7997976284
| 19>  H       -1.5883186593    -0.9221211028    -1.1563841589
| 20>  H       -3.4514755670     0.1270973913     0.4052820385
| 21> *
| 22>
| 23>                          ****END OF INPUT****

CARTESIAN COORDINATES (ANGSTROEM)
---------------------------------
  O      0.376360    1.187316   -0.464728
  C      0.050082   -0.068787    0.059112
  C      0.194122   -0.254662    1.582847
  C     -0.616551   -1.529123    1.820942
  O     -1.637944   -1.569322    0.798970
  C     -1.414339   -0.529943   -0.144306
  C     -2.463251    0.547932    0.121385
  O     -2.281150    1.742785    0.077404
  H     -0.357701    1.784566   -0.256474
  H      0.700396   -0.793163   -0.445709
  H      1.234161   -0.344384    1.901438
  H     -0.249606    0.605020    2.097070
  H      0.006482   -2.426963    1.719175
  H     -1.104614   -1.563087    2.799798
  H     -1.588319   -0.922121   -1.156384
  H     -3.451476    0.127097    0.405282

 Total Charge           Charge          ....    0
 Multiplicity           Mult            ....    1
 Number of Electrons    NEL             ....   62
 Basis Dimension        Dim             ....  296

ORBITAL ENERGIES
----------------

  NO   OCC          E(Eh)            E(eV)
   0   2.0000     -20.582200      -560.0701
   1   2.0000     -20.576669      -559.9196
   2   2.0000     -20.554216      -559.3086
   3   2.0000     -11.351058      -308.8780
   4   2.0000     -11.306213      -307.6577
   5   2.0000     -11.297753      -307.4275
   6   2.0000     -11.292101      -307.2737
   7   2.0000     -11.237117      -305.7775
   8   2.0000      -1.424762       -38.7697
   9   2.0000      -1.396648       -38.0047
  10   2.0000      -1.364822       -37.1387
  11   2.0000      -1.061473       -28.8841
  12   2.0000      -1.032681       -28.1007
  13   2.0000      -0.891027       -24.2461
  14   2.0000      -0.833599       -22.6834
  15   2.0000      -0.800788       -21.7906
  16   2.0000      -0.729821       -19.8594
  17   2.0000      -0.697471       -18.9791
  18   2.0000      -0.677016       -18.4225
  19   2.0000      -0.645985       -17.5781
  20   2.0000      -0.636785       -17.3278
  21   2.0000      -0.608769       -16.5654
  22   2.0000      -0.598190       -16.2776
  23   2.0000      -0.571898       -15.5621
  24   2.0000      -0.551468       -15.0062
  25   2.0000      -0.530407       -14.4331
  26   2.0000      -0.514206       -13.9923
  27   2.0000      -0.502027       -13.6609
  28   2.0000      -0.462796       -12.5933
  29   2.0000      -0.431438       -11.7400
  30   2.0000      -0.414985       -11.2923
  31   0.0000       0.109167         2.9706
  32   0.0000       0.138181         3.7601
  33   0.0000       0.159395         4.3374
  34   0.0000       0.169934         4.6241
  35   0.0000       0.177512         4.8304

MULLIKEN ATOMIC CHARGES
-----------------------
   0 O :   -0.468174
   1 C :    0.032806
   2 C :   -0.247855
   3 C :   -0.048702
   4 O :   -0.331605
   5 C :    0.120073
   6 C :    0.086072
   7 O :   -0.304111
   8 H :    0.338777
   9 H :    0.104345
  10 H :    0.138496
  11 H :    0.120992
  12 H :    0.108208
  13 H :    0.115372
  14 H :    0.123359
  15 H :    0.111948
Sum of atomic charges:   -0.0000000

LOEWDIN ATOMIC CHARGES
----------------------
   0 O :   -0.002786
   1 C :   -0.332817
   2 C :   -0.246557
   3 C :   -0.281982
   4 O :    0.162629
   5 C :   -0.303364
   6 C :   -0.254473
   7 O :    0.125045
   8 H :    0.174349
   9 H :    0.149708
  10 H :    0.141258
  11 H :    0.141471
  12 H :    0.124273
  13 H :    0.125103
  14 H :    0.155182
  15 H :    0.122963

  Mayer bond orders larger than 0.1
B(  0-O ,  1-C ) :   1.0069 B(  0-O ,  8-H ) :   0.8013 B(  1-C ,  2-C ) :   0.8963
B(  1-C ,  5-C ) :   0.9046 B(  1-C ,  9-H ) :   0.9299 B(  2-C ,  3-C ) :   0.9471
B(  2-C , 10-H ) :   0.9253 B(  2-C , 11-H ) :   0.9200 B(  3-C ,  4-O ) :   0.9042
B(  3-C , 12-H ) :   0.9303 B(  3-C , 13-H ) :   0.9215 B(  4-O ,  5-C ) :   0.9239
B(  5-C ,  6-C ) :   0.8834 B(  5-C , 14-H ) :   0.8795 B(  6-C ,  7-O ) :   1.8862
B(  6-C , 15-H ) :   0.9314

MP2 TOTAL ENERGY:     -420.219489852 Eh
FINAL SINGLE POINT ENERGY      -420.219489852008

DIPOLE MOMENT
-------------
                                X             Y             Z
Electronic contribution:     -2.82783       2.37187      -2.61699
Nuclear contribution   :      2.75391      -3.04576       3.05591
                        -----------------------------------------
Total Dipole Moment    :     -0.07392      -0.67389       0.43892
                        -----------------------------------------
Magnitude (a.u.)       :      0.80761
Magnitude (Debye)      :      2.05279

                             ****ORCA TERMINATED NORMALLY****
TOTAL RUN TIME: 0 days 0 hours 12 minutes 31 seconds 209 msec
