                         Program Version 3.0.3 - RELEASE   -
|  1> ! RI-MP2 RIJK def2-TZVP def2-TZVP/C def2-TZVP/JK TIGHTSCF
|  2> % maxcore 2000
|  3> % mp2 density relaxed end
|  4> *xyz 0 1
|  5>  C        0.0016966446     1.3037174534    -0.0055692680
|  6>  O       -0.1061094191    -0.0140249270     0.4888303557
|  7>  C       -1.3277517276    -0.6038215370     0.2094619986
|  8>  C       -1.5297304569    -1.3761951028    -1.1393479335
|  9>  N       -0.5070948523    -2.3677305716    -0.6328128093
| 10>  C       -1.4419683120    -2.1083530222     0.5453779986
| 11>  C       -2.6663493401    -2.1989296343    -0.4106657541
| 12>  C       -4.0189911482    -1.6127735010    -0.1051177318
| 13>  O       -4.3117972464    -0.9837120023     0.8822525085
| 14>  H        0.9643807188     1.6952556779     0.3297143513
| 15>  H       -0.0288601828     1.3335824009    -1.1048263079
| 16>  H       -0.8012866525     1.9502659003     0.3813510812
| 17>  H       -2.1643823891     0.0231838537     0.5293884400
| 18>  H       -1.5328368039    -1.0134792039    -2.1681084876
| 19>  H       -0.7131628393    -3.2918223711    -1.0263321141
| 20>  H       -1.3081570612    -2.5929559818     1.5121803042
| 21>  H       -2.7950574387    -3.1824951748    -0.8769743193
| 22>  H       -4.7802776729    -1.8118287365    -0.8955829624
| 23> *
| 24>
| 25>                          ****END OF INPUT****

CARTESIAN COORDINATES (ANGSTROEM)
---------------------------------
  C      0.001697    1.303717   -0.005569
  O     -0.106109   -0.014025    0.488830
  C     -1.327752   -0.603822    0.209462
  C     -1.529730   -1.376195   -1.139348
  N     -0.507095   -2.367731   -0.632813
  C     -1.441968   -2.108353    0.545378
  C     -2.666349   -2.198930   -0.410666
  C     -4.018991   -1.612774   -0.105118
  O     -4.311797   -0.983712    0.882253
  H      0.964381    1.695256    0.329714
  H     -0.028860    1.333582   -1.104826
  H     -0.801287    1.950266    0.381351
  H     -2.164382    0.023184    0.529388
  H     -1.532837   -1.013479   -2.168108
  H     -0.713163   -3.291822   -1.026332
  H     -1.308157   -2.592956    1.512180
  H     -2.795057   -3.182495   -0.876974
  H     -4.780278   -1.811829   -0.895583

 Total Charge           Charge          ....    0
 Multiplicity           Mult            ....    1
 Number of Electrons    NEL             ....   68
 Basis Dimension        Dim             ....  333

ORBITAL ENERGIES
----------------

  NO   OCC          E(Eh)            E(eV)
   0   2.0000     -20.567473      -559.6694
   1   2.0000     -20.558047      -559.4129
   2   2.0000     -15.561784      -423.4577
   3   2.0000     -11.342850      -308.6547
   4   2.0000     -11.294386      -307.3359
   5   2.0000     -11.293574      -307.3138
   6   2.0000     -11.286233      -307.1140
   7   2.0000     -11.272955      -306.7527
   8   2.0000     -11.263380      -306.4922
   9   2.0000      -1.405920       -38.2570
  10   2.0000      -1.389909       -37.8214
  11   2.0000      -1.286917       -35.0188
  12   2.0000      -1.035288       -28.1716
  13   2.0000      -0.977299       -26.5937
  14   2.0000      -0.912429       -24.8284
  15   2.0000      -0.886100       -24.1120
  16   2.0000      -0.815121       -22.1806
  17   2.0000      -0.759167       -20.6580
  18   2.0000      -0.706690       -19.2300
  19   2.0000      -0.689949       -18.7745
  20   2.0000      -0.676985       -18.4217
  21   2.0000      -0.648715       -17.6524
  22   2.0000      -0.632661       -17.2156
  23   2.0000      -0.607747       -16.5376
  24   2.0000      -0.575171       -15.6512
  25   2.0000      -0.545904       -14.8548
  26   2.0000      -0.520428       -14.1616
  27   2.0000      -0.504251       -13.7214
  28   2.0000      -0.501407       -13.6440
  29   2.0000      -0.466070       -12.6824
  30   2.0000      -0.461143       -12.5483
  31   2.0000      -0.451411       -12.2835
  32   2.0000      -0.412756       -11.2317
  33   2.0000      -0.387457       -10.5432
  34   0.0000       0.109435         2.9779
  35   0.0000       0.137869         3.7516
  36   0.0000       0.149486         4.0677
  37   0.0000       0.163961         4.4616
  38   0.0000       0.177064         4.8182

MULLIKEN ATOMIC CHARGES
-----------------------
   0 C :   -0.219930
   1 O :   -0.292985
   2 C :    0.081249
   3 C :   -0.148724
   4 N :   -0.289414
   5 C :   -0.053058
   6 C :   -0.079433
   7 C :    0.081263
   8 O :   -0.266630
   9 H :    0.144954
  10 H :    0.112951
  11 H :    0.114285
  12 H :    0.121125
  13 H :    0.145108
  14 H :    0.194457
  15 H :    0.151017
  16 H :    0.121023
  17 H :    0.082743
Sum of atomic charges:   -0.0000000

LOEWDIN ATOMIC CHARGES
----------------------
   0 C :   -0.347388
   1 O :    0.185549
   2 C :   -0.283747
   3 C :   -0.185385
   4 N :    0.013671
   5 C :   -0.169495
   6 C :   -0.204407
   7 C :   -0.283398
   8 O :    0.136091
   9 H :    0.115599
  10 H :    0.102517
  11 H :    0.103131
  12 H :    0.140965
  13 H :    0.124132
  14 H :    0.154462
  15 H :    0.130360
  16 H :    0.154101
  17 H :    0.113241

  Mayer bond orders larger than 0.1
B(  0-C ,  1-O ) :   0.9072 B(  0-C ,  9-H ) :   0.9412 B(  0-C , 10-H ) :   0.9336
B(  0-C , 11-H ) :   0.9353 B(  1-O ,  2-C ) :   0.9969 B(  2-C ,  3-C ) :   0.8907
B(  2-C ,  5-C ) :   0.8833 B(  2-C , 12-H ) :   0.9146 B(  3-C ,  4-N ) :   0.9882
B(  3-C ,  6-C ) :   0.9189 B(  3-C , 13-H ) :   0.8819 B(  4-N ,  5-C ) :   0.9676
B(  4-N , 14-H ) :   0.8801 B(  5-C ,  6-C ) :   0.9237 B(  5-C , 15-H ) :   0.8802
B(  6-C ,  7-C ) :   0.8940 B(  6-C , 16-H ) :   0.8916 B(  7-C ,  8-O ) :   1.9755
B(  7-C , 17-H ) :   0.9343

MP2 TOTAL ENERGY:     -438.272475587 Eh
FINAL SINGLE POINT ENERGY      -438.272475586846

DIPOLE MOMENT
-------------
                                X             Y             Z
Electronic contribution:     -2.84004      -2.76258       2.08357
Nuclear contribution   :      2.45466       2.53065      -3.02024
                        -----------------------------------------
Total Dipole Moment    :     -0.38537      -0.23193      -0.93667
                        -----------------------------------------
Magnitude (a.u.)       :      1.03907
Magnitude (Debye)      :      2.64110

                             ****ORCA TERMINATED NORMALLY****
TOTAL RUN TIME: 0 days 0 hours 28 minutes 58 seconds 717 msec
