                         Program Version 3.0.3 - RELEASE   -
|  1> ! RI-MP2 RIJK def2-TZVP def2-TZVP/C def2-TZVP/JK TIGHTSCF
|  2> % maxcore 2000
|  3> % mp2 density relaxed end
|  4> *xyz 0 1
|  5>  C       -0.2847038720     1.4804512418    -0.4582738934
|  6>  C        0.0058481791     0.0309926788    -0.1472660890
|  7>  C        1.0597428369    -0.7054760729    -0.8570716741
|  8>  O        1.2566285136    -0.2451304159     0.4867507514
|  9>  C       -1.1483172612    -0.7774607312     0.4784974451
| 10>  C       -1.4736917686    -0.2210745274     1.8740172362
| 11>  O       -2.5619155873     0.1167981187     2.2436776977
| 12>  C       -2.3187755113    -0.8353418646    -0.3931068155
| 13>  N       -3.2210412312    -0.8760944558    -1.1124931734
| 14>  H        0.6093683729     1.9644539524    -0.8562625595
| 15>  H       -1.0904461484     1.5626291402    -1.1936044675
| 16>  H       -0.5949632303     2.0207664775     0.4423270116
| 17>  H        0.9852345607    -1.7849306269    -0.9777376027
| 18>  H        1.6493549355    -0.1915241091    -1.6133242432
| 19>  H       -0.7735089739    -1.7967540392     0.6412708311
| 20>  H       -0.5745078244    -0.1639050065     2.5210710452
| 21> *
| 22>
| 23>                          ****END OF INPUT****

CARTESIAN COORDINATES (ANGSTROEM)
---------------------------------
  C     -0.284704    1.480451   -0.458274
  C      0.005848    0.030993   -0.147266
  C      1.059743   -0.705476   -0.857072
  O      1.256629   -0.245130    0.486751
  C     -1.148317   -0.777461    0.478497
  C     -1.473692   -0.221075    1.874017
  O     -2.561916    0.116798    2.243678
  C     -2.318776   -0.835342   -0.393107
  N     -3.221041   -0.876094   -1.112493
  H      0.609368    1.964454   -0.856263
  H     -1.090446    1.562629   -1.193604
  H     -0.594963    2.020766    0.442327
  H      0.985235   -1.784931   -0.977738
  H      1.649355   -0.191524   -1.613324
  H     -0.773509   -1.796754    0.641271
  H     -0.574508   -0.163905    2.521071

 Total Charge           Charge          ....    0
 Multiplicity           Mult            ....    1
 Number of Electrons    NEL             ....   66
 Basis Dimension        Dim             ....  321

ORBITAL ENERGIES
----------------

  NO   OCC          E(Eh)            E(eV)
   0   2.0000     -20.603031      -560.6370
   1   2.0000     -20.589059      -560.2568
   2   2.0000     -15.585784      -424.1108
   3   2.0000     -11.365794      -309.2790
   4   2.0000     -11.340231      -308.5834
   5   2.0000     -11.316743      -307.9442
   6   2.0000     -11.315417      -307.9081
   7   2.0000     -11.287552      -307.1499
   8   2.0000     -11.251177      -306.1601
   9   2.0000      -1.450176       -39.4613
  10   2.0000      -1.429969       -38.9114
  11   2.0000      -1.234125       -33.5822
  12   2.0000      -1.117600       -30.4114
  13   2.0000      -1.020797       -27.7773
  14   2.0000      -0.947269       -25.7765
  15   2.0000      -0.860608       -23.4183
  16   2.0000      -0.833360       -22.6769
  17   2.0000      -0.742275       -20.1983
  18   2.0000      -0.702860       -19.1258
  19   2.0000      -0.701472       -19.0880
  20   2.0000      -0.687157       -18.6985
  21   2.0000      -0.644081       -17.5263
  22   2.0000      -0.616179       -16.7671
  23   2.0000      -0.593894       -16.1607
  24   2.0000      -0.571806       -15.5596
  25   2.0000      -0.567630       -15.4460
  26   2.0000      -0.553581       -15.0637
  27   2.0000      -0.538159       -14.6441
  28   2.0000      -0.496161       -13.5012
  29   2.0000      -0.491321       -13.3695
  30   2.0000      -0.476403       -12.9636
  31   2.0000      -0.464789       -12.6476
  32   2.0000      -0.438019       -11.9191
  33   0.0000       0.104754         2.8505
  34   0.0000       0.120800         3.2871
  35   0.0000       0.145155         3.9499
  36   0.0000       0.147298         4.0082
  37   0.0000       0.165791         4.5114

MULLIKEN ATOMIC CHARGES
-----------------------
   0 C :   -0.428958
   1 C :    0.143245
   2 C :   -0.079993
   3 O :   -0.330239
   4 C :    0.129492
   5 C :    0.037116
   6 O :   -0.220558
   7 C :   -0.228669
   8 N :   -0.038039
   9 H :    0.149503
  10 H :    0.169521
  11 H :    0.153435
  12 H :    0.125572
  13 H :    0.131237
  14 H :    0.158642
  15 H :    0.128692
Sum of atomic charges:   -0.0000000

LOEWDIN ATOMIC CHARGES
----------------------
   0 C :   -0.250985
   1 C :   -0.326212
   2 C :   -0.226568
   3 O :    0.172381
   4 C :   -0.205975
   5 C :   -0.252803
   6 O :    0.172770
   7 C :   -0.158936
   8 N :    0.081955
   9 H :    0.137673
  10 H :    0.143356
  11 H :    0.136911
  12 H :    0.125356
  13 H :    0.127555
  14 H :    0.195227
  15 H :    0.128296

  Mayer bond orders larger than 0.1
B(  0-C ,  1-C ) :   0.9162 B(  0-C ,  9-H ) :   0.9331 B(  0-C , 10-H ) :   0.9272
B(  0-C , 11-H ) :   0.9248 B(  1-C ,  2-C ) :   0.9761 B(  1-C ,  3-O ) :   0.8644
B(  1-C ,  4-C ) :   0.8277 B(  2-C ,  3-O ) :   0.8942 B(  2-C , 12-H ) :   0.8989
B(  2-C , 13-H ) :   0.9190 B(  4-C ,  5-C ) :   0.8057 B(  4-C ,  7-C ) :   0.9061
B(  4-C , 14-H ) :   0.8983 B(  5-C ,  6-O ) :   2.0349 B(  5-C , 15-H ) :   0.9443
B(  7-C ,  8-N ) :   2.8486

MP2 TOTAL ENERGY:     -437.158157883 Eh
FINAL SINGLE POINT ENERGY      -437.158157882539

DIPOLE MOMENT
-------------
                                X             Y             Z
Electronic contribution:     -4.66884      -2.91656       2.50460
Nuclear contribution   :      6.26816       2.82605      -2.68044
                        -----------------------------------------
Total Dipole Moment    :      1.59932      -0.09052      -0.17584
                        -----------------------------------------
Magnitude (a.u.)       :      1.61150
Magnitude (Debye)      :      4.09611

                             ****ORCA TERMINATED NORMALLY****
TOTAL RUN TIME: 0 days 0 hours 15 minutes 9 seconds 988 msec
