                         Program Version 3.0.3 - RELEASE   -
|  1> ! RI-MP2 RIJK def2-TZVP def2-TZVP/C def2-TZVP/JK TIGHTSCF
|  2> % maxcore 2000
|  3> % mp2 density relaxed end
|  4> *xyz 0 1
|  5>  O        0.1756285365     1.4376283438     0.0629751022
|  6>  C        0.0337352139     0.0365145390     0.0575398866
|  7>  C       -1.4236051494    -0.4434557989     0.0382301406
|  8>  N       -2.1329308623    -0.1266994206     1.2745899474
|  9>  C       -3.4706909600    -0.6905019271     1.3320092171
| 10>  C       -4.2537701180    -0.3418583235     0.1025640794
| 11>  C       -3.6703384429     0.1036007857    -1.0164783431
| 12>  C       -2.2038715793     0.1962692243    -1.1173458847
| 13>  O       -1.6424795775     0.7101324068    -2.0689443298
| 14>  H       -0.1486655770     1.7359353420    -0.7956569356
| 15>  H        0.5504155983    -0.4221878288    -0.7974979928
| 16>  H        0.5186583012    -0.3350791741     0.9688492987
| 17>  H       -1.4027888941    -1.5366072753    -0.1700030129
| 18>  H       -1.5866377512    -0.4124845107     2.0789766206
| 19>  H       -3.4861088200    -1.7977997399     1.4354320070
| 20>  H       -3.9891172213    -0.2988027512     2.2160251731
| 21>  H       -5.3324957641    -0.4628220204     0.1573850136
| 22>  H       -4.2363253727     0.3992361391    -1.8939409572
| 23> *
| 24>
| 25>                          ****END OF INPUT****

CARTESIAN COORDINATES (ANGSTROEM)
---------------------------------
  O      0.175629    1.437628    0.062975
  C      0.033735    0.036515    0.057540
  C     -1.423605   -0.443456    0.038230
  N     -2.132931   -0.126699    1.274590
  C     -3.470691   -0.690502    1.332009
  C     -4.253770   -0.341858    0.102564
  C     -3.670338    0.103601   -1.016478
  C     -2.203872    0.196269   -1.117346
  O     -1.642480    0.710132   -2.068944
  H     -0.148666    1.735935   -0.795657
  H      0.550416   -0.422188   -0.797498
  H      0.518658   -0.335079    0.968849
  H     -1.402789   -1.536607   -0.170003
  H     -1.586638   -0.412485    2.078977
  H     -3.486109   -1.797800    1.435432
  H     -3.989117   -0.298803    2.216025
  H     -5.332496   -0.462822    0.157385
  H     -4.236325    0.399236   -1.893941

 Total Charge           Charge          ....    0
 Multiplicity           Mult            ....    1
 Number of Electrons    NEL             ....   68
 Basis Dimension        Dim             ....  333

ORBITAL ENERGIES
----------------

  NO   OCC          E(Eh)            E(eV)
   0   2.0000     -20.550524      -559.2082
   1   2.0000     -20.543539      -559.0181
   2   2.0000     -15.563880      -423.5147
   3   2.0000     -11.337125      -308.4988
   4   2.0000     -11.281406      -306.9827
   5   2.0000     -11.278686      -306.9086
   6   2.0000     -11.275685      -306.8270
   7   2.0000     -11.273520      -306.7681
   8   2.0000     -11.243878      -305.9615
   9   2.0000      -1.394515       -37.9467
  10   2.0000      -1.352140       -36.7936
  11   2.0000      -1.241944       -33.7950
  12   2.0000      -1.089771       -29.6542
  13   2.0000      -1.032906       -28.1068
  14   2.0000      -0.936447       -25.4820
  15   2.0000      -0.873304       -23.7638
  16   2.0000      -0.824094       -22.4247
  17   2.0000      -0.719034       -19.5659
  18   2.0000      -0.705548       -19.1989
  19   2.0000      -0.692827       -18.8528
  20   2.0000      -0.654155       -17.8005
  21   2.0000      -0.647264       -17.6129
  22   2.0000      -0.625515       -17.0211
  23   2.0000      -0.618664       -16.8347
  24   2.0000      -0.608813       -16.5667
  25   2.0000      -0.571090       -15.5402
  26   2.0000      -0.541887       -14.7455
  27   2.0000      -0.540979       -14.7208
  28   2.0000      -0.518804       -14.1174
  29   2.0000      -0.500554       -13.6208
  30   2.0000      -0.442968       -12.0538
  31   2.0000      -0.423479       -11.5235
  32   2.0000      -0.393075       -10.6961
  33   2.0000      -0.379825       -10.3356
  34   0.0000       0.084015         2.2862
  35   0.0000       0.121102         3.2954
  36   0.0000       0.148459         4.0398
  37   0.0000       0.165912         4.5147
  38   0.0000       0.174531         4.7492

MULLIKEN ATOMIC CHARGES
-----------------------
   0 O :   -0.475819
   1 C :   -0.055597
   2 C :    0.093567
   3 N :   -0.365744
   4 C :   -0.108961
   5 C :   -0.095922
   6 C :   -0.247648
   7 C :    0.197884
   8 O :   -0.327492
   9 H :    0.332781
  10 H :    0.115368
  11 H :    0.111364
  12 H :    0.087383
  13 H :    0.205443
  14 H :    0.113919
  15 H :    0.137506
  16 H :    0.141227
  17 H :    0.140742
Sum of atomic charges:   -0.0000000

LOEWDIN ATOMIC CHARGES
----------------------
   0 O :   -0.035089
   1 C :   -0.333500
   2 C :   -0.280533
   3 N :    0.017963
   4 C :   -0.295022
   5 C :   -0.117708
   6 C :   -0.133096
   7 C :   -0.294486
   8 O :    0.135448
   9 H :    0.178301
  10 H :    0.126037
  11 H :    0.129211
  12 H :    0.149238
  13 H :    0.173834
  14 H :    0.133256
  15 H :    0.143951
  16 H :    0.148551
  17 H :    0.153643

  Mayer bond orders larger than 0.1
B(  0-O ,  1-C ) :   0.9721 B(  0-O ,  9-H ) :   0.8288 B(  1-C ,  2-C ) :   0.8870
B(  1-C , 10-H ) :   0.9329 B(  1-C , 11-H ) :   0.9390 B(  2-C ,  3-N ) :   0.8331
B(  2-C ,  7-C ) :   0.8570 B(  2-C , 12-H ) :   0.8780 B(  3-N ,  4-C ) :   0.9655
B(  3-N , 13-H ) :   0.8772 B(  4-C ,  5-C ) :   0.9385 B(  4-C , 14-H ) :   0.9139
B(  4-C , 15-H ) :   0.9147 B(  5-C ,  6-C ) :   1.7119 B(  5-C , 16-H ) :   0.9178
B(  6-C ,  7-C ) :   1.0516 B(  6-C , 17-H ) :   0.9173 B(  7-C ,  8-O ) :   1.8888

MP2 TOTAL ENERGY:     -438.374940804 Eh
FINAL SINGLE POINT ENERGY      -438.374940804414

DIPOLE MOMENT
-------------
                                X             Y             Z
Electronic contribution:      0.19172       2.71159      -3.54180
Nuclear contribution   :     -1.11746      -3.95604       4.19704
                        -----------------------------------------
Total Dipole Moment    :     -0.92574      -1.24445       0.65524
                        -----------------------------------------
Magnitude (a.u.)       :      1.68374
Magnitude (Debye)      :      4.27973

                             ****ORCA TERMINATED NORMALLY****
TOTAL RUN TIME: 0 days 0 hours 16 minutes 55 seconds 513 msec
