                         Program Version 3.0.3 - RELEASE   -
|  1> ! RI-MP2 RIJK def2-TZVP def2-TZVP/C def2-TZVP/JK TIGHTSCF
|  2> % maxcore 2000
|  3> % mp2 density relaxed end
|  4> *xyz 0 1
|  5>  C       -0.1587345912     1.4326145932     0.0432250671
|  6>  C       -0.1050372642    -0.0919036382     0.1668012115
|  7>  C        0.8622336170    -0.5546260894     1.2475408194
|  8>  O        0.8430538715    -1.9657062344     1.3026275818
|  9>  C        1.7176407216    -2.4999789289     2.2720758014
| 10>  C        1.6594539796    -4.0015214837     2.2099727553
| 11>  C        1.8494941035    -4.7905221456     3.4523702754
| 12>  N        0.5286936734    -4.7255718503     2.8070102612
| 13>  H        0.8226562547     1.8485442129    -0.2106480221
| 14>  H       -0.8597841161     1.7386866337    -0.7384537077
| 15>  H       -0.4830147788     1.8986536158     0.9803498041
| 16>  H       -1.0993424165    -0.4909742866     0.3975120141
| 17>  H        0.1976742102    -0.5413842339    -0.7857646106
| 18>  H        1.8831978520    -0.1933670248     1.0302578311
| 19>  H        0.5760458596    -0.1288833567     2.2259721182
| 20>  H        2.7504123646    -2.1527206361     2.0915612121
| 21>  H        1.4337393304    -2.1548362650     3.2834585400
| 22>  H        1.9933257824    -4.4237844516     1.2647400316
| 23>  H        2.3342133771    -5.7615453994     3.4108239480
| 24>  H        2.0087157384    -4.2476283031     4.3812743308
| 25>  H       -0.0715125891    -4.0700994979     3.3027824973
| 26> *
| 27>
| 28>                          ****END OF INPUT****

CARTESIAN COORDINATES (ANGSTROEM)
---------------------------------
  C     -0.158735    1.432615    0.043225
  C     -0.105037   -0.091904    0.166801
  C      0.862234   -0.554626    1.247541
  O      0.843054   -1.965706    1.302628
  C      1.717641   -2.499979    2.272076
  C      1.659454   -4.001521    2.209973
  C      1.849494   -4.790522    3.452370
  N      0.528694   -4.725572    2.807010
  H      0.822656    1.848544   -0.210648
  H     -0.859784    1.738687   -0.738454
  H     -0.483015    1.898654    0.980350
  H     -1.099342   -0.490974    0.397512
  H      0.197674   -0.541384   -0.785765
  H      1.883198   -0.193367    1.030258
  H      0.576046   -0.128883    2.225972
  H      2.750412   -2.152721    2.091561
  H      1.433739   -2.154836    3.283459
  H      1.993326   -4.423784    1.264740
  H      2.334213   -5.761545    3.410824
  H      2.008716   -4.247628    4.381274
  H     -0.071513   -4.070099    3.302782

 Total Charge           Charge          ....    0
 Multiplicity           Mult            ....    1
 Number of Electrons    NEL             ....   64
 Basis Dimension        Dim             ....  326

ORBITAL ENERGIES
----------------

  NO   OCC          E(Eh)            E(eV)
   0   2.0000     -20.556295      -559.3652
   1   2.0000     -15.554117      -423.2490
   2   2.0000     -11.283418      -307.0374
   3   2.0000     -11.274891      -306.8054
   4   2.0000     -11.256565      -306.3067
   5   2.0000     -11.254104      -306.2397
   6   2.0000     -11.220160      -305.3161
   7   2.0000     -11.217754      -305.2506
   8   2.0000      -1.380227       -37.5579
   9   2.0000      -1.257994       -34.2318
  10   2.0000      -1.059452       -28.8291
  11   2.0000      -0.981087       -26.6967
  12   2.0000      -0.905490       -24.6396
  13   2.0000      -0.873357       -23.7652
  14   2.0000      -0.814503       -22.1637
  15   2.0000      -0.799350       -21.7514
  16   2.0000      -0.688275       -18.7289
  17   2.0000      -0.675377       -18.3779
  18   2.0000      -0.665749       -18.1159
  19   2.0000      -0.638833       -17.3835
  20   2.0000      -0.602311       -16.3897
  21   2.0000      -0.593339       -16.1456
  22   2.0000      -0.547522       -14.8988
  23   2.0000      -0.540862       -14.7176
  24   2.0000      -0.508080       -13.8256
  25   2.0000      -0.500995       -13.6328
  26   2.0000      -0.482693       -13.1347
  27   2.0000      -0.472120       -12.8470
  28   2.0000      -0.466736       -12.7005
  29   2.0000      -0.463790       -12.6204
  30   2.0000      -0.425812       -11.5869
  31   2.0000      -0.389360       -10.5950
  32   0.0000       0.132272         3.5993
  33   0.0000       0.146824         3.9953
  34   0.0000       0.164478         4.4757
  35   0.0000       0.173775         4.7287
  36   0.0000       0.178691         4.8624

MULLIKEN ATOMIC CHARGES
-----------------------
   0 C :   -0.408941
   1 C :   -0.158363
   2 C :   -0.064711
   3 O :   -0.277364
   4 C :   -0.104222
   5 C :    0.009574
   6 C :   -0.203525
   7 N :   -0.359286
   8 H :    0.123324
   9 H :    0.138962
  10 H :    0.123048
  11 H :    0.113191
  12 H :    0.112946
  13 H :    0.086847
  14 H :    0.084404
  15 H :    0.099944
  16 H :    0.092036
  17 H :    0.125106
  18 H :    0.124590
  19 H :    0.123689
  20 H :    0.218750
Sum of atomic charges:   -0.0000000

LOEWDIN ATOMIC CHARGES
----------------------
   0 C :   -0.319946
   1 C :   -0.294250
   2 C :   -0.332733
   3 O :    0.163292
   4 C :   -0.326641
   5 C :   -0.282269
   6 C :   -0.268994
   7 N :   -0.014177
   8 H :    0.120540
   9 H :    0.123084
  10 H :    0.120424
  11 H :    0.137993
  12 H :    0.137946
  13 H :    0.117600
  14 H :    0.117054
  15 H :    0.125323
  16 H :    0.121772
  17 H :    0.144037
  18 H :    0.124304
  19 H :    0.119867
  20 H :    0.165771

  Mayer bond orders larger than 0.1
B(  0-C ,  1-C ) :   0.9122 B(  0-C ,  8-H ) :   0.9366 B(  0-C ,  9-H ) :   0.9400
B(  0-C , 10-H ) :   0.9369 B(  1-C ,  2-C ) :   0.9530 B(  1-C , 11-H ) :   0.9308
B(  1-C , 12-H ) :   0.9297 B(  2-C ,  3-O ) :   0.9425 B(  2-C , 13-H ) :   0.9230
B(  2-C , 14-H ) :   0.9219 B(  3-O ,  4-C ) :   0.9317 B(  4-C ,  5-C ) :   0.9648
B(  4-C , 15-H ) :   0.9170 B(  4-C , 16-H ) :   0.9162 B(  5-C ,  6-C ) :   0.9321
B(  5-C ,  7-N ) :   0.9219 B(  5-C , 17-H ) :   0.9173 B(  6-C ,  7-N ) :   0.9365
B(  6-C , 18-H ) :   0.9191 B(  6-C , 19-H ) :   0.9174 B(  7-N , 20-H ) :   0.8742

MP2 TOTAL ENERGY:     -365.603790962 Eh
FINAL SINGLE POINT ENERGY      -365.603790962079

DIPOLE MOMENT
-------------
                                X             Y             Z
Electronic contribution:      0.58434      -7.34231       1.60259
Nuclear contribution   :     -0.07373       8.15864      -1.15947
                        -----------------------------------------
Total Dipole Moment    :      0.51061       0.81633       0.44313
                        -----------------------------------------
Magnitude (a.u.)       :      1.05995
Magnitude (Debye)      :      2.69417

                             ****ORCA TERMINATED NORMALLY****
TOTAL RUN TIME: 0 days 0 hours 11 minutes 35 seconds 448 msec
