                         Program Version 3.0.3 - RELEASE   -
|  1> ! RI-MP2 RIJK def2-TZVP def2-TZVP/C def2-TZVP/JK TIGHTSCF
|  2> % maxcore 2000
|  3> % mp2 density relaxed end
|  4> *xyz 0 1
|  5>  C        0.0771850628     1.5213990328    -0.0143255388
|  6>  C       -0.0036986838    -0.0037231264     0.0384500352
|  7>  O        0.7017542588    -0.5132511881     1.1708112072
|  8>  C       -1.4429978446    -0.5374488309     0.0140027811
|  9>  C       -2.2634208645    -0.1376068823    -1.2424280258
| 10>  C       -3.2859016820    -1.2786242888    -1.4648741126
| 11>  C       -2.6036233220    -2.4940829950    -0.8697771359
| 12>  O       -1.2328623148    -2.6319224501    -1.2734548543
| 13>  C       -1.5176588889    -2.0558812030     0.0126989361
| 14>  H        1.1204788451     1.8430429324     0.0455140434
| 15>  H       -0.3550662611     1.9184067090    -0.9375331782
| 16>  H       -0.4677220238     1.9685740025     0.8277509612
| 17>  H        0.5239880492    -0.4272581603    -0.8245171152
| 18>  H        0.3450966366    -0.0804044798     1.9546742810
| 19>  H       -1.9548947253    -0.1811630064     0.9226094890
| 20>  H       -2.7448777777     0.8366613193    -1.1338715922
| 21>  H       -1.5930013991    -0.0779114473    -2.1042498907
| 22>  H       -4.2191070505    -1.0932792119    -0.9182301284
| 23>  H       -3.5453565334    -1.4090394059    -2.5201074966
| 24>  H       -3.1421914362    -3.4276519650    -0.7257925815
| 25>  H       -1.1669350547    -2.6275249446     0.8661736960
| 26> *
| 27>
| 28>                          ****END OF INPUT****

CARTESIAN COORDINATES (ANGSTROEM)
---------------------------------
  C      0.077185    1.521399   -0.014326
  C     -0.003699   -0.003723    0.038450
  O      0.701754   -0.513251    1.170811
  C     -1.442998   -0.537449    0.014003
  C     -2.263421   -0.137607   -1.242428
  C     -3.285902   -1.278624   -1.464874
  C     -2.603623   -2.494083   -0.869777
  O     -1.232862   -2.631922   -1.273455
  C     -1.517659   -2.055881    0.012699
  H      1.120479    1.843043    0.045514
  H     -0.355066    1.918407   -0.937533
  H     -0.467722    1.968574    0.827751
  H      0.523988   -0.427258   -0.824517
  H      0.345097   -0.080404    1.954674
  H     -1.954895   -0.181163    0.922609
  H     -2.744878    0.836661   -1.133872
  H     -1.593001   -0.077911   -2.104250
  H     -4.219107   -1.093279   -0.918230
  H     -3.545357   -1.409039   -2.520107
  H     -3.142191   -3.427652   -0.725793
  H     -1.166935   -2.627525    0.866174

 Total Charge           Charge          ....    0
 Multiplicity           Mult            ....    1
 Number of Electrons    NEL             ....   70
 Basis Dimension        Dim             ....  351

ORBITAL ENERGIES
----------------

  NO   OCC          E(Eh)            E(eV)
   0   2.0000     -20.558544      -559.4264
   1   2.0000     -20.553079      -559.2777
   2   2.0000     -11.279306      -306.9255
   3   2.0000     -11.278715      -306.9094
   4   2.0000     -11.275301      -306.8165
   5   2.0000     -11.234063      -305.6944
   6   2.0000     -11.230184      -305.5889
   7   2.0000     -11.227538      -305.5168
   8   2.0000     -11.220310      -305.3201
   9   2.0000      -1.404863       -38.2283
  10   2.0000      -1.358954       -36.9790
  11   2.0000      -1.101154       -29.9639
  12   2.0000      -1.026580       -27.9347
  13   2.0000      -0.966118       -26.2894
  14   2.0000      -0.917419       -24.9642
  15   2.0000      -0.846504       -23.0345
  16   2.0000      -0.785741       -21.3811
  17   2.0000      -0.775296       -21.0969
  18   2.0000      -0.716573       -19.4989
  19   2.0000      -0.659954       -17.9582
  20   2.0000      -0.649638       -17.6776
  21   2.0000      -0.624389       -16.9905
  22   2.0000      -0.606475       -16.5030
  23   2.0000      -0.584224       -15.8975
  24   2.0000      -0.557435       -15.1686
  25   2.0000      -0.550533       -14.9808
  26   2.0000      -0.529761       -14.4155
  27   2.0000      -0.521940       -14.2027
  28   2.0000      -0.506888       -13.7931
  29   2.0000      -0.495267       -13.4769
  30   2.0000      -0.483095       -13.1457
  31   2.0000      -0.469549       -12.7771
  32   2.0000      -0.442483       -12.0406
  33   2.0000      -0.431518       -11.7422
  34   2.0000      -0.405913       -11.0455
  35   0.0000       0.127608         3.4724
  36   0.0000       0.148171         4.0319
  37   0.0000       0.154819         4.2128
  38   0.0000       0.176041         4.7903
  39   0.0000       0.186978         5.0879

MULLIKEN ATOMIC CHARGES
-----------------------
   0 C :   -0.396505
   1 C :    0.053081
   2 O :   -0.468849
   3 C :   -0.059357
   4 C :   -0.303003
   5 C :   -0.149806
   6 C :   -0.022400
   7 O :   -0.337512
   8 C :    0.050147
   9 H :    0.151682
  10 H :    0.134745
  11 H :    0.112574
  12 H :    0.113463
  13 H :    0.307108
  14 H :    0.081965
  15 H :    0.130872
  16 H :    0.124354
  17 H :    0.107853
  18 H :    0.122891
  19 H :    0.120374
  20 H :    0.126324
Sum of atomic charges:   -0.0000000

LOEWDIN ATOMIC CHARGES
----------------------
   0 C :   -0.302043
   1 C :   -0.348754
   2 O :   -0.020634
   3 C :   -0.225766
   4 C :   -0.221644
   5 C :   -0.237004
   6 C :   -0.261505
   7 O :    0.164663
   8 C :   -0.233603
   9 H :    0.127501
  10 H :    0.127473
  11 H :    0.120802
  12 H :    0.151976
  13 H :    0.171744
  14 H :    0.155276
  15 H :    0.133877
  16 H :    0.144761
  17 H :    0.142377
  18 H :    0.139047
  19 H :    0.133559
  20 H :    0.137897

  Mayer bond orders larger than 0.1
B(  0-C ,  1-C ) :   0.9406 B(  0-C ,  9-H ) :   0.9439 B(  0-C , 10-H ) :   0.9333
B(  0-C , 11-H ) :   0.9188 B(  1-C ,  2-O ) :   0.9025 B(  1-C ,  3-C ) :   0.9236
B(  1-C , 12-H ) :   0.9176 B(  2-O , 13-H ) :   0.8446 B(  3-C ,  4-C ) :   0.9078
B(  3-C ,  8-C ) :   0.9023 B(  3-C , 14-H ) :   0.8934 B(  4-C ,  5-C ) :   0.9506
B(  4-C , 15-H ) :   0.9319 B(  4-C , 16-H ) :   0.9232 B(  5-C ,  6-C ) :   0.9287
B(  5-C , 17-H ) :   0.9111 B(  5-C , 18-H ) :   0.9205 B(  6-C ,  7-O ) :   0.9398
B(  6-C ,  8-C ) :   0.9346 B(  6-C , 19-H ) :   0.9345 B(  7-O ,  8-C ) :   0.8789
B(  8-C , 20-H ) :   0.9268

MP2 TOTAL ENERGY:     -423.525911351 Eh
FINAL SINGLE POINT ENERGY      -423.525911351408

DIPOLE MOMENT
-------------
                                X             Y             Z
Electronic contribution:      1.24377      -6.56649       0.42138
Nuclear contribution   :     -2.19094       7.31678       0.01037
                        -----------------------------------------
Total Dipole Moment    :     -0.94717       0.75030       0.43174
                        -----------------------------------------
Magnitude (a.u.)       :      1.28315
Magnitude (Debye)      :      3.26152

                             ****ORCA TERMINATED NORMALLY****
TOTAL RUN TIME: 0 days 0 hours 19 minutes 26 seconds 226 msec
