                         Program Version 3.0.3 - RELEASE   -
|  1> ! RI-MP2 RIJK def2-TZVP def2-TZVP/C def2-TZVP/JK TIGHTSCF
|  2> % maxcore 2000
|  3> % mp2 density relaxed end
|  4> *xyz 0 1
|  5>  C       -0.0587863710     1.4833772280     0.0089118592
|  6>  O        1.1662080606     0.7537113090    -0.0951556793
|  7>  C       -0.0679422938     0.0149868069     0.0203937847
|  8>  C       -0.2417204476    -0.7229013975     1.3411124725
|  9>  C        0.1627190765    -2.1745926402     1.2515694528
| 10>  C        0.1632995001    -2.8529848852     0.1032270940
| 11>  C       -0.2447450008    -2.2493393945    -1.1892095954
| 12>  C       -1.6296997558    -1.6329648028    -1.3055404112
| 13>  C       -0.4192634547    -0.7417508831    -1.2224701032
| 14>  H       -0.2000598365     2.0329013486     0.9400379666
| 15>  H       -0.3644368044     2.0201011810    -0.8891879818
| 16>  H        0.3524654951    -0.2016457041     2.0984929491
| 17>  H       -1.2890378304    -0.6452523499     1.6689165232
| 18>  H        0.4439840376    -2.6681078845     2.1771458722
| 19>  H        0.4587588899    -3.8984236415     0.0888699504
| 20>  H        0.1491914409    -2.7216316923    -2.0827669667
| 21>  H       -2.1403843247    -1.6943178479    -2.2603230698
| 22>  H       -2.2803277042    -1.7171743714    -0.4422246857
| 23>  H       -0.1210330568    -0.2336873486    -2.1334271817
| 24> *
| 25>
| 26>                          ****END OF INPUT****

CARTESIAN COORDINATES (ANGSTROEM)
---------------------------------
  C     -0.058786    1.483377    0.008912
  O      1.166208    0.753711   -0.095156
  C     -0.067942    0.014987    0.020394
  C     -0.241720   -0.722901    1.341112
  C      0.162719   -2.174593    1.251569
  C      0.163300   -2.852985    0.103227
  C     -0.244745   -2.249339   -1.189210
  C     -1.629700   -1.632965   -1.305540
  C     -0.419263   -0.741751   -1.222470
  H     -0.200060    2.032901    0.940038
  H     -0.364437    2.020101   -0.889188
  H      0.352465   -0.201646    2.098493
  H     -1.289038   -0.645252    1.668917
  H      0.443984   -2.668108    2.177146
  H      0.458759   -3.898424    0.088870
  H      0.149191   -2.721632   -2.082767
  H     -2.140384   -1.694318   -2.260323
  H     -2.280328   -1.717174   -0.442225
  H     -0.121033   -0.233687   -2.133427

 Total Charge           Charge          ....    0
 Multiplicity           Mult            ....    1
 Number of Electrons    NEL             ....   66
 Basis Dimension        Dim             ....  339

ORBITAL ENERGIES
----------------

  NO   OCC          E(Eh)            E(eV)
   0   2.0000     -20.558098      -559.4143
   1   2.0000     -11.292134      -307.2746
   2   2.0000     -11.276390      -306.8462
   3   2.0000     -11.238283      -305.8092
   4   2.0000     -11.237525      -305.7886
   5   2.0000     -11.234467      -305.7054
   6   2.0000     -11.233806      -305.6874
   7   2.0000     -11.228684      -305.5480
   8   2.0000     -11.225412      -305.4590
   9   2.0000      -1.402746       -38.1707
  10   2.0000      -1.169499       -31.8237
  11   2.0000      -1.063051       -28.9271
  12   2.0000      -0.995111       -27.0783
  13   2.0000      -0.906891       -24.6777
  14   2.0000      -0.872783       -23.7496
  15   2.0000      -0.840785       -22.8789
  16   2.0000      -0.781514       -21.2661
  17   2.0000      -0.703676       -19.1480
  18   2.0000      -0.689858       -18.7720
  19   2.0000      -0.675808       -18.3897
  20   2.0000      -0.628761       -17.1094
  21   2.0000      -0.610826       -16.6214
  22   2.0000      -0.587377       -15.9833
  23   2.0000      -0.584722       -15.9111
  24   2.0000      -0.540050       -14.6955
  25   2.0000      -0.524886       -14.2829
  26   2.0000      -0.507682       -13.8147
  27   2.0000      -0.489338       -13.3156
  28   2.0000      -0.468681       -12.7535
  29   2.0000      -0.454650       -12.3717
  30   2.0000      -0.435678       -11.8554
  31   2.0000      -0.390623       -10.6294
  32   2.0000      -0.333259        -9.0684
  33   0.0000       0.138397         3.7660
  34   0.0000       0.148048         4.0286
  35   0.0000       0.159189         4.3318
  36   0.0000       0.170512         4.6399
  37   0.0000       0.181112         4.9283

MULLIKEN ATOMIC CHARGES
-----------------------
   0 C :   -0.087522
   1 O :   -0.334347
   2 C :    0.146373
   3 C :   -0.174340
   4 C :   -0.180625
   5 C :   -0.214384
   6 C :   -0.010233
   7 C :   -0.303657
   8 C :   -0.103661
   9 H :    0.111212
  10 H :    0.111084
  11 H :    0.135590
  12 H :    0.126954
  13 H :    0.122660
  14 H :    0.119298
  15 H :    0.127574
  16 H :    0.133785
  17 H :    0.142617
  18 H :    0.131621
Sum of atomic charges:    0.0000000

LOEWDIN ATOMIC CHARGES
----------------------
   0 C :   -0.246656
   1 O :    0.159925
   2 C :   -0.290892
   3 C :   -0.205715
   4 C :   -0.161609
   5 C :   -0.151286
   6 C :   -0.181640
   7 C :   -0.183037
   8 C :   -0.158157
   9 H :    0.120238
  10 H :    0.120569
  11 H :    0.155200
  12 H :    0.152194
  13 H :    0.141930
  14 H :    0.146123
  15 H :    0.150581
  16 H :    0.134145
  17 H :    0.139262
  18 H :    0.158827

  Mayer bond orders larger than 0.1
B(  0-C ,  1-O ) :   0.9024 B(  0-C ,  2-C ) :   0.9829 B(  0-C ,  9-H ) :   0.9098
B(  0-C , 10-H ) :   0.9016 B(  1-O ,  2-C ) :   0.8532 B(  2-C ,  3-C ) :   0.8984
B(  2-C ,  8-C ) :   0.9307 B(  3-C ,  4-C ) :   0.9478 B(  3-C , 11-H ) :   0.9185
B(  3-C , 12-H ) :   0.9061 B(  4-C ,  5-C ) :   1.8069 B(  4-C , 13-H ) :   0.9278
B(  5-C ,  6-C ) :   0.9491 B(  5-C , 14-H ) :   0.9326 B(  6-C ,  7-C ) :   0.8417
B(  6-C ,  8-C ) :   0.8640 B(  6-C , 15-H ) :   0.9245 B(  7-C ,  8-C ) :   0.8829
B(  7-C , 16-H ) :   0.9245 B(  7-C , 17-H ) :   0.9207 B(  8-C , 18-H ) :   0.9235

MP2 TOTAL ENERGY:     -385.186881046 Eh
FINAL SINGLE POINT ENERGY      -385.186881045676

DIPOLE MOMENT
-------------
                                X             Y             Z
Electronic contribution:      2.77047       1.01551      -0.32870
Nuclear contribution   :     -3.55503      -1.08795       0.31396
                        -----------------------------------------
Total Dipole Moment    :     -0.78456      -0.07244      -0.01474
                        -----------------------------------------
Magnitude (a.u.)       :      0.78804
Magnitude (Debye)      :      2.00303

                             ****ORCA TERMINATED NORMALLY****
TOTAL RUN TIME: 0 days 0 hours 18 minutes 32 seconds 851 msec
