                         Program Version 3.0.3 - RELEASE   -
|  1> ! RI-MP2 RIJK def2-TZVP def2-TZVP/C def2-TZVP/JK TIGHTSCF
|  2> % maxcore 2000
|  3> % mp2 density relaxed end
|  4> *xyz 0 1
|  5>  C        0.0283142523     1.3456975354     0.0086462576
|  6>  O       -0.0412347728    -0.0847664651     0.0018419773
|  7>  C       -1.2858405184    -0.6050484623     0.0113714990
|  8>  O       -2.2818421351     0.0773900300     0.0244316208
|  9>  C       -1.2552962522    -2.1314552824     0.0027035374
| 10>  C       -0.5377533680    -2.6236072867    -1.2724738993
| 11>  C       -0.5137056776    -2.6374413511     1.2585682756
| 12>  C       -2.7132853092    -2.6198950172     0.0138913458
| 13>  O       -2.6991859699    -4.0411808345     0.0058601048
| 14>  H        1.0903334175     1.5914553940    -0.0003634149
| 15>  H       -0.4683234603     1.7607851179    -0.8720997164
| 16>  H       -0.4511271014     1.7515028148     0.9031375924
| 17>  H        0.5040716664    -2.2968641753    -1.2842421802
| 18>  H       -0.5722229427    -3.7144929289    -1.3085923700
| 19>  H       -1.0277406109    -2.2394850522    -2.1737521653
| 20>  H       -0.9864484009    -2.2632458579     2.1731344484
| 21>  H       -0.5475949374    -3.7286597703     1.2834047264
| 22>  H        0.5281880687    -2.3107358408     1.2541140155
| 23>  H       -3.2218565049    -2.2289443847     0.9059045297
| 24>  H       -3.2387253270    -2.2191249264    -0.8638758232
| 25>  H       -3.6098414863    -4.3476378063     0.0128201684
| 26> *
| 27>
| 28>                          ****END OF INPUT****

CARTESIAN COORDINATES (ANGSTROEM)
---------------------------------
  C      0.028314    1.345698    0.008646
  O     -0.041235   -0.084766    0.001842
  C     -1.285841   -0.605048    0.011371
  O     -2.281842    0.077390    0.024432
  C     -1.255296   -2.131455    0.002704
  C     -0.537753   -2.623607   -1.272474
  C     -0.513706   -2.637441    1.258568
  C     -2.713285   -2.619895    0.013891
  O     -2.699186   -4.041181    0.005860
  H      1.090333    1.591455   -0.000363
  H     -0.468323    1.760785   -0.872100
  H     -0.451127    1.751503    0.903138
  H      0.504072   -2.296864   -1.284242
  H     -0.572223   -3.714493   -1.308592
  H     -1.027741   -2.239485   -2.173752
  H     -0.986448   -2.263246    2.173134
  H     -0.547595   -3.728660    1.283405
  H      0.528188   -2.310736    1.254114
  H     -3.221857   -2.228944    0.905905
  H     -3.238725   -2.219125   -0.863876
  H     -3.609841   -4.347638    0.012820

 Total Charge           Charge          ....    0
 Multiplicity           Mult            ....    1
 Number of Electrons    NEL             ....   72
 Basis Dimension        Dim             ....  351

ORBITAL ENERGIES
----------------

  NO   OCC          E(Eh)            E(eV)
   0   2.0000     -20.600203      -560.5600
   1   2.0000     -20.557705      -559.4036
   2   2.0000     -20.542034      -558.9772
   3   2.0000     -11.373619      -309.4919
   4   2.0000     -11.284701      -307.0723
   5   2.0000     -11.274597      -306.7974
   6   2.0000     -11.252364      -306.1924
   7   2.0000     -11.217054      -305.2316
   8   2.0000     -11.217038      -305.2311
   9   2.0000      -1.459555       -39.7165
  10   2.0000      -1.363660       -37.1071
  11   2.0000      -1.357570       -36.9413
  12   2.0000      -1.102992       -30.0139
  13   2.0000      -0.972510       -26.4633
  14   2.0000      -0.936664       -25.4879
  15   2.0000      -0.923069       -25.1180
  16   2.0000      -0.832038       -22.6409
  17   2.0000      -0.752488       -20.4762
  18   2.0000      -0.716623       -19.5003
  19   2.0000      -0.678279       -18.4569
  20   2.0000      -0.672320       -18.2947
  21   2.0000      -0.654484       -17.8094
  22   2.0000      -0.640140       -17.4191
  23   2.0000      -0.606298       -16.4982
  24   2.0000      -0.585611       -15.9353
  25   2.0000      -0.570386       -15.5210
  26   2.0000      -0.558022       -15.1845
  27   2.0000      -0.535520       -14.5722
  28   2.0000      -0.531759       -14.4699
  29   2.0000      -0.526686       -14.3318
  30   2.0000      -0.520476       -14.1629
  31   2.0000      -0.482020       -13.1164
  32   2.0000      -0.465134       -12.6569
  33   2.0000      -0.463126       -12.6023
  34   2.0000      -0.442406       -12.0385
  35   2.0000      -0.435390       -11.8476
  36   0.0000       0.129952         3.5362
  37   0.0000       0.149727         4.0743
  38   0.0000       0.168276         4.5790
  39   0.0000       0.170366         4.6359
  40   0.0000       0.192213         5.2304

MULLIKEN ATOMIC CHARGES
-----------------------
   0 C :   -0.229058
   1 O :   -0.259459
   2 C :    0.268938
   3 O :   -0.327795
   4 C :    0.158827
   5 C :   -0.447029
   6 C :   -0.447070
   7 C :   -0.070941
   8 O :   -0.474614
   9 H :    0.143831
  10 H :    0.139179
  11 H :    0.139180
  12 H :    0.145366
  13 H :    0.157413
  14 H :    0.128617
  15 H :    0.128625
  16 H :    0.157414
  17 H :    0.145363
  18 H :    0.112100
  19 H :    0.112112
  20 H :    0.319001
Sum of atomic charges:    0.0000000

LOEWDIN ATOMIC CHARGES
----------------------
   0 C :   -0.310996
   1 O :    0.237708
   2 C :   -0.435587
   3 O :    0.128199
   4 C :   -0.299988
   5 C :   -0.259317
   6 C :   -0.259320
   7 C :   -0.302218
   8 O :   -0.043027
   9 H :    0.114415
  10 H :    0.114079
  11 H :    0.114081
  12 H :    0.127872
  13 H :    0.133407
  14 H :    0.127756
  15 H :    0.127755
  16 H :    0.133407
  17 H :    0.127871
  18 H :    0.124805
  19 H :    0.124806
  20 H :    0.174293

  Mayer bond orders larger than 0.1
B(  0-C ,  1-O ) :   0.8466 B(  0-C ,  9-H ) :   0.9347 B(  0-C , 10-H ) :   0.9391
B(  0-C , 11-H ) :   0.9391 B(  1-O ,  2-C ) :   1.1308 B(  2-C ,  3-O ) :   1.9263
B(  2-C ,  4-C ) :   0.8949 B(  4-C ,  5-C ) :   0.8948 B(  4-C ,  6-C ) :   0.8948
B(  4-C ,  7-C ) :   0.9267 B(  5-C , 12-H ) :   0.9320 B(  5-C , 13-H ) :   0.9291
B(  5-C , 14-H ) :   0.9325 B(  6-C , 15-H ) :   0.9325 B(  6-C , 16-H ) :   0.9291
B(  6-C , 17-H ) :   0.9320 B(  7-C ,  8-O ) :   1.0153 B(  7-C , 18-H ) :   0.9234
B(  7-C , 19-H ) :   0.9234 B(  8-O , 20-H ) :   0.8476

MP2 TOTAL ENERGY:     -460.667973871 Eh
FINAL SINGLE POINT ENERGY      -460.667973871000

DIPOLE MOMENT
-------------
                                X             Y             Z
Electronic contribution:     -2.89156       2.35961       0.04093
Nuclear contribution   :      3.02110      -2.24493      -0.04161
                        -----------------------------------------
Total Dipole Moment    :      0.12954       0.11468      -0.00068
                        -----------------------------------------
Magnitude (a.u.)       :      0.17301
Magnitude (Debye)      :      0.43976

                             ****ORCA TERMINATED NORMALLY****
TOTAL RUN TIME: 0 days 0 hours 18 minutes 16 seconds 843 msec
