                         Program Version 3.0.3 - RELEASE   -
|  1> ! RI-MP2 RIJK def2-TZVP def2-TZVP/C def2-TZVP/JK TIGHTSCF
|  2> % maxcore 2000
|  3> % mp2 density relaxed end
|  4> *xyz 0 1
|  5>  C       -0.0683589584     1.4652279677     0.0451802564
|  6>  N       -0.1089885021     0.0117634144     0.0468353558
|  7>  C        0.6196284040    -0.6351191104     0.8384946484
|  8>  O        1.5146030892    -0.1166622190     1.7391042650
|  9>  C        2.0084120373    -1.1918198337     2.5323222806
| 10>  O        1.7904860900    -2.3738957438     1.8130551828
| 11>  C        0.6577524929    -2.1481392760     0.9688512711
| 12>  C       -0.6349421587    -2.7280029680     1.5406918575
| 13>  H        0.5116594634     1.9003987215     0.8668432334
| 14>  H        0.3566863117     1.8125227669    -0.9038455087
| 15>  H       -1.0933000905     1.8485153575     0.0917905037
| 16>  H        3.0819739932    -1.0557849374     2.6921807878
| 17>  H        1.4770716187    -1.1903756603     3.4978241685
| 18>  H        0.8772038000    -2.6037555586    -0.0007983066
| 19>  H       -0.8653370169    -2.2947979735     2.5190158774
| 20>  H       -1.4627240804    -2.5033738198     0.8629334024
| 21>  H       -0.5455071135    -3.8116637477     1.6518619144
| 22> *
| 23>
| 24>                          ****END OF INPUT****

CARTESIAN COORDINATES (ANGSTROEM)
---------------------------------
  C     -0.068359    1.465228    0.045180
  N     -0.108989    0.011763    0.046835
  C      0.619628   -0.635119    0.838495
  O      1.514603   -0.116662    1.739104
  C      2.008412   -1.191820    2.532322
  O      1.790486   -2.373896    1.813055
  C      0.657752   -2.148139    0.968851
  C     -0.634942   -2.728003    1.540692
  H      0.511659    1.900399    0.866843
  H      0.356686    1.812523   -0.903846
  H     -1.093300    1.848515    0.091791
  H      3.081974   -1.055785    2.692181
  H      1.477072   -1.190376    3.497824
  H      0.877204   -2.603756   -0.000798
  H     -0.865337   -2.294798    2.519016
  H     -1.462724   -2.503374    0.862933
  H     -0.545507   -3.811664    1.651862

 Total Charge           Charge          ....    0
 Multiplicity           Mult            ....    1
 Number of Electrons    NEL             ....   62
 Basis Dimension        Dim             ....  302

ORBITAL ENERGIES
----------------

  NO   OCC          E(Eh)            E(eV)
   0   2.0000     -20.602109      -560.6119
   1   2.0000     -20.579868      -560.0067
   2   2.0000     -15.542683      -422.9379
   3   2.0000     -11.350105      -308.8521
   4   2.0000     -11.335374      -308.4512
   5   2.0000     -11.303217      -307.5762
   6   2.0000     -11.240992      -305.8830
   7   2.0000     -11.229050      -305.5580
   8   2.0000      -1.473446       -40.0945
   9   2.0000      -1.367564       -37.2133
  10   2.0000      -1.220778       -33.2190
  11   2.0000      -1.054773       -28.7018
  12   2.0000      -0.957227       -26.0475
  13   2.0000      -0.927679       -25.2434
  14   2.0000      -0.856077       -23.2950
  15   2.0000      -0.787316       -21.4240
  16   2.0000      -0.722364       -19.6565
  17   2.0000      -0.706319       -19.2199
  18   2.0000      -0.647758       -17.6264
  19   2.0000      -0.620651       -16.8888
  20   2.0000      -0.606809       -16.5121
  21   2.0000      -0.597460       -16.2577
  22   2.0000      -0.586328       -15.9548
  23   2.0000      -0.568376       -15.4663
  24   2.0000      -0.549150       -14.9431
  25   2.0000      -0.537468       -14.6252
  26   2.0000      -0.524766       -14.2796
  27   2.0000      -0.502915       -13.6850
  28   2.0000      -0.440391       -11.9836
  29   2.0000      -0.410982       -11.1834
  30   2.0000      -0.385763       -10.4972
  31   0.0000       0.134853         3.6695
  32   0.0000       0.162460         4.4208
  33   0.0000       0.167862         4.5678
  34   0.0000       0.181171         4.9299
  35   0.0000       0.187784         5.1099

MULLIKEN ATOMIC CHARGES
-----------------------
   0 C :   -0.276656
   1 N :   -0.270601
   2 C :    0.131136
   3 O :   -0.282403
   4 C :    0.112718
   5 O :   -0.325455
   6 C :    0.163974
   7 C :   -0.417978
   8 H :    0.128300
   9 H :    0.136907
  10 H :    0.136997
  11 H :    0.128361
  12 H :    0.094531
  13 H :    0.122375
  14 H :    0.125711
  15 H :    0.148797
  16 H :    0.143287
Sum of atomic charges:    0.0000000

LOEWDIN ATOMIC CHARGES
----------------------
   0 C :   -0.329256
   1 N :    0.077499
   2 C :   -0.360009
   3 O :    0.231005
   4 C :   -0.344262
   5 O :    0.175434
   6 C :   -0.290373
   7 C :   -0.282344
   8 H :    0.109590
   9 H :    0.120224
  10 H :    0.118033
  11 H :    0.120664
  12 H :    0.109390
  13 H :    0.155399
  14 H :    0.126052
  15 H :    0.135775
  16 H :    0.127180

  Mayer bond orders larger than 0.1
B(  0-C ,  1-N ) :   0.8587 B(  0-C ,  8-H ) :   0.9313 B(  0-C ,  9-H ) :   0.9340
B(  0-C , 10-H ) :   0.9367 B(  1-N ,  2-C ) :   1.9413 B(  2-C ,  3-O ) :   1.0402
B(  2-C ,  6-C ) :   0.9158 B(  3-O ,  4-C ) :   0.9165 B(  4-C ,  5-O ) :   0.9834
B(  4-C , 11-H ) :   0.9283 B(  4-C , 12-H ) :   0.9208 B(  5-O ,  6-C ) :   0.8854
B(  6-C ,  7-C ) :   0.9267 B(  6-C , 13-H ) :   0.9083 B(  7-C , 14-H ) :   0.9249
B(  7-C , 15-H ) :   0.9281 B(  7-C , 16-H ) :   0.9366

MP2 TOTAL ENERGY:     -400.356298283 Eh
FINAL SINGLE POINT ENERGY      -400.356298282733

DIPOLE MOMENT
-------------
                                X             Y             Z
Electronic contribution:      4.05489      -0.69004       0.18048
Nuclear contribution   :     -3.99802       0.69483       0.32137
                        -----------------------------------------
Total Dipole Moment    :      0.05687       0.00479       0.50185
                        -----------------------------------------
Magnitude (a.u.)       :      0.50508
Magnitude (Debye)      :      1.28382

                             ****ORCA TERMINATED NORMALLY****
TOTAL RUN TIME: 0 days 0 hours 17 minutes 47 seconds 213 msec
