                         Program Version 3.0.3 - RELEASE   -
|  1> ! RI-MP2 RIJK def2-TZVP def2-TZVP/C def2-TZVP/JK TIGHTSCF
|  2> % maxcore 2000
|  3> % mp2 density relaxed end
|  4> *xyz 0 1
|  5>  O        0.1269931649     0.0492258871    -0.1588475197
|  6>  C        0.0346495104     1.2506383346    -0.0703711884
|  7>  C       -1.1270101515     2.0580137878     0.5200758718
|  8>  C       -0.8398266642     3.5115755780     0.1100291787
|  9>  C        0.6854990276     3.5478547178    -0.1748162520
| 10>  C        1.4969435162     4.0805228693     1.0371256128
| 11>  C        2.9356135523     3.9903833790     0.8045643175
| 12>  N        4.0651875326     3.8989365479     0.5779713345
| 13>  N        0.9793258334     2.1637748884    -0.4761965173
| 14>  H       -2.0798582941     1.6743449854     0.1523755486
| 15>  H       -1.1205024879     1.9144415698     1.6060634726
| 16>  H       -1.3771801899     3.7583588261    -0.8090452586
| 17>  H       -1.1289336347     4.2456336270     0.8656890364
| 18>  H        0.9133749716     4.1860146919    -1.0349289097
| 19>  H        1.2315907292     5.1265424250     1.2272571234
| 20>  H        1.2458000718     3.5070991065     1.9365304234
| 21>  H        1.8831967123     1.8547856585    -0.8010715340
| 22> *
| 23>
| 24>                          ****END OF INPUT****

CARTESIAN COORDINATES (ANGSTROEM)
---------------------------------
  O      0.126993    0.049226   -0.158848
  C      0.034650    1.250638   -0.070371
  C     -1.127010    2.058014    0.520076
  C     -0.839827    3.511576    0.110029
  C      0.685499    3.547855   -0.174816
  C      1.496944    4.080523    1.037126
  C      2.935614    3.990383    0.804564
  N      4.065188    3.898937    0.577971
  N      0.979326    2.163775   -0.476197
  H     -2.079858    1.674345    0.152376
  H     -1.120502    1.914442    1.606063
  H     -1.377180    3.758359   -0.809045
  H     -1.128934    4.245634    0.865689
  H      0.913375    4.186015   -1.034929
  H      1.231591    5.126542    1.227257
  H      1.245800    3.507099    1.936530
  H      1.883197    1.854786   -0.801072

 Total Charge           Charge          ....    0
 Multiplicity           Mult            ....    1
 Number of Electrons    NEL             ....   66
 Basis Dimension        Dim             ....  327

ORBITAL ENERGIES
----------------

  NO   OCC          E(Eh)            E(eV)
   0   2.0000     -20.526760      -558.5615
   1   2.0000     -15.595501      -424.3752
   2   2.0000     -15.582579      -424.0235
   3   2.0000     -11.358343      -309.0762
   4   2.0000     -11.313992      -307.8694
   5   2.0000     -11.298199      -307.4396
   6   2.0000     -11.285991      -307.1074
   7   2.0000     -11.264143      -306.5129
   8   2.0000     -11.256624      -306.3083
   9   2.0000      -1.392436       -37.8901
  10   2.0000      -1.272178       -34.6177
  11   2.0000      -1.230424       -33.4815
  12   2.0000      -1.091087       -29.6900
  13   2.0000      -1.065855       -29.0034
  14   2.0000      -0.958016       -26.0689
  15   2.0000      -0.844611       -22.9830
  16   2.0000      -0.808906       -22.0114
  17   2.0000      -0.727579       -19.7984
  18   2.0000      -0.717674       -19.5289
  19   2.0000      -0.670196       -18.2370
  20   2.0000      -0.654076       -17.7983
  21   2.0000      -0.621558       -16.9135
  22   2.0000      -0.601913       -16.3789
  23   2.0000      -0.588378       -16.0106
  24   2.0000      -0.577489       -15.7143
  25   2.0000      -0.569505       -15.4970
  26   2.0000      -0.566046       -15.4029
  27   2.0000      -0.523483       -14.2447
  28   2.0000      -0.505524       -13.7560
  29   2.0000      -0.472527       -12.8581
  30   2.0000      -0.470824       -12.8118
  31   2.0000      -0.426339       -11.6013
  32   2.0000      -0.406629       -11.0649
  33   0.0000       0.103635         2.8200
  34   0.0000       0.136912         3.7256
  35   0.0000       0.141463         3.8494
  36   0.0000       0.148934         4.0527
  37   0.0000       0.165986         4.5167

MULLIKEN ATOMIC CHARGES
-----------------------
   0 O :   -0.325667
   1 C :    0.196440
   2 C :   -0.226211
   3 C :   -0.256743
   4 C :    0.066366
   5 C :   -0.150355
   6 C :   -0.207738
   7 N :   -0.049731
   8 N :   -0.319545
   9 H :    0.147209
  10 H :    0.136650
  11 H :    0.138712
  12 H :    0.135279
  13 H :    0.133664
  14 H :    0.160071
  15 H :    0.164520
  16 H :    0.257080
Sum of atomic charges:   -0.0000000

LOEWDIN ATOMIC CHARGES
----------------------
   0 O :    0.095449
   1 C :   -0.444812
   2 C :   -0.218314
   3 C :   -0.219799
   4 C :   -0.259119
   5 C :   -0.226753
   6 C :   -0.198021
   7 N :    0.062710
   8 N :    0.144878
   9 H :    0.149965
  10 H :    0.151152
  11 H :    0.145375
  12 H :    0.139616
  13 H :    0.151856
  14 H :    0.166141
  15 H :    0.167840
  16 H :    0.191834

  Mayer bond orders larger than 0.1
B(  0-O ,  1-C ) :   2.0200 B(  1-C ,  2-C ) :   0.9076 B(  1-C ,  8-N ) :   1.1441
B(  2-C ,  3-C ) :   0.9334 B(  2-C ,  9-H ) :   0.9235 B(  2-C , 10-H ) :   0.9127
B(  3-C ,  4-C ) :   0.8833 B(  3-C , 11-H ) :   0.9243 B(  3-C , 12-H ) :   0.9352
B(  4-C ,  5-C ) :   0.8946 B(  4-C ,  8-N ) :   0.8793 B(  4-C , 13-H ) :   0.9304
B(  5-C ,  6-C ) :   0.9345 B(  5-C , 14-H ) :   0.9053 B(  5-C , 15-H ) :   0.9026
B(  6-C ,  7-N ) :   2.8612 B(  8-N , 16-H ) :   0.8565

MP2 TOTAL ENERGY:     -417.369800174 Eh
FINAL SINGLE POINT ENERGY      -417.369800173891

DIPOLE MOMENT
-------------
                                X             Y             Z
Electronic contribution:      5.69052      -2.92517      -0.94019
Nuclear contribution   :     -7.08087       4.43595       1.19985
                        -----------------------------------------
Total Dipole Moment    :     -1.39035       1.51077       0.25966
                        -----------------------------------------
Magnitude (a.u.)       :      2.06953
Magnitude (Debye)      :      5.26031

                             ****ORCA TERMINATED NORMALLY****
TOTAL RUN TIME: 0 days 0 hours 16 minutes 9 seconds 668 msec
