                         Program Version 3.0.3 - RELEASE   -
|  1> ! RI-MP2 RIJK def2-TZVP def2-TZVP/C def2-TZVP/JK TIGHTSCF
|  2> % maxcore 2000
|  3> % mp2 density relaxed end
|  4> *xyz 0 1
|  5>  C       -0.2164836871     1.5705256831    -0.0478548361
|  6>  C        0.0513271057     0.0617830557    -0.0020468573
|  7>  C        0.8657238665    -0.4686963614    -1.1628553252
|  8>  C        1.6750463536    -1.4555971486    -0.7904142617
|  9>  C        1.5453375672    -1.7845613416     0.6875404824
| 10>  C        0.6128489612    -3.0058767437     0.8620764057
| 11>  C        2.9025358294    -2.1143116220     1.3290304991
| 12>  C        0.8387682794    -0.4867950135     1.2373486654
| 13>  C        1.8137044823     0.5435769448     1.8207323003
| 14>  H        0.7088811660     2.1522908937    -0.0870189081
| 15>  H       -0.8012628357     1.8213402160    -0.9395567467
| 16>  H       -0.7896534335     1.9030964471     0.8241544957
| 17>  H       -0.9337004766    -0.4304870485    -0.0254091761
| 18>  H        0.7465268686    -0.0962205653    -2.1755524991
| 19>  H        2.3249965203    -2.0246266394    -1.4483642511
| 20>  H        1.0154591369    -3.8846919597     0.3463492111
| 21>  H        0.5026112182    -3.2630873814     1.9220315280
| 22>  H       -0.3831163968    -2.8091864164     0.4539364757
| 23>  H        3.6335601225    -1.3147425678     1.1851630301
| 24>  H        2.8048987436    -2.2970143528     2.4051033336
| 25>  H        3.3162861554    -3.0246977399     0.8805254230
| 26>  H        0.1353222240    -0.7644404031     2.0313783015
| 27>  H        2.5482570953     0.8756136252     1.0793958696
| 28>  H        1.2789929682     1.4280871706     2.1782529214
| 29>  H        2.3611745955     0.1305862389     2.6720879090
| 30> *
| 31>
| 32>                          ****END OF INPUT****

CARTESIAN COORDINATES (ANGSTROEM)
---------------------------------
  C     -0.216484    1.570526   -0.047855
  C      0.051327    0.061783   -0.002047
  C      0.865724   -0.468696   -1.162855
  C      1.675046   -1.455597   -0.790414
  C      1.545338   -1.784561    0.687540
  C      0.612849   -3.005877    0.862076
  C      2.902536   -2.114312    1.329030
  C      0.838768   -0.486795    1.237349
  C      1.813704    0.543577    1.820732
  H      0.708881    2.152291   -0.087019
  H     -0.801263    1.821340   -0.939557
  H     -0.789653    1.903096    0.824154
  H     -0.933700   -0.430487   -0.025409
  H      0.746527   -0.096221   -2.175552
  H      2.324997   -2.024627   -1.448364
  H      1.015459   -3.884692    0.346349
  H      0.502611   -3.263087    1.922032
  H     -0.383116   -2.809186    0.453936
  H      3.633560   -1.314743    1.185163
  H      2.804899   -2.297014    2.405103
  H      3.316286   -3.024698    0.880525
  H      0.135322   -0.764440    2.031378
  H      2.548257    0.875614    1.079396
  H      1.278993    1.428087    2.178253
  H      2.361175    0.130586    2.672088

 Total Charge           Charge          ....    0
 Multiplicity           Mult            ....    1
 Number of Electrons    NEL             ....   70
 Basis Dimension        Dim             ....  375

ORBITAL ENERGIES
----------------

  NO   OCC          E(Eh)            E(eV)
   0   2.0000     -11.232550      -305.6532
   1   2.0000     -11.224890      -305.4448
   2   2.0000     -11.222401      -305.3770
   3   2.0000     -11.215409      -305.1868
   4   2.0000     -11.213229      -305.1275
   5   2.0000     -11.210786      -305.0610
   6   2.0000     -11.208908      -305.0099
   7   2.0000     -11.208534      -304.9997
   8   2.0000     -11.205699      -304.9226
   9   2.0000      -1.146783       -31.2055
  10   2.0000      -1.040674       -28.3182
  11   2.0000      -1.005132       -27.3510
  12   2.0000      -0.960438       -26.1349
  13   2.0000      -0.926432       -25.2095
  14   2.0000      -0.869580       -23.6625
  15   2.0000      -0.831722       -22.6323
  16   2.0000      -0.730240       -19.8708
  17   2.0000      -0.709876       -19.3167
  18   2.0000      -0.657054       -17.8794
  19   2.0000      -0.623755       -16.9732
  20   2.0000      -0.601076       -16.3561
  21   2.0000      -0.582132       -15.8406
  22   2.0000      -0.564392       -15.3579
  23   2.0000      -0.561841       -15.2885
  24   2.0000      -0.540297       -14.7022
  25   2.0000      -0.537303       -14.6208
  26   2.0000      -0.519064       -14.1244
  27   2.0000      -0.512127       -13.9357
  28   2.0000      -0.496602       -13.5132
  29   2.0000      -0.484800       -13.1921
  30   2.0000      -0.456697       -12.4274
  31   2.0000      -0.451059       -12.2739
  32   2.0000      -0.447663       -12.1815
  33   2.0000      -0.425191       -11.5700
  34   2.0000      -0.338241        -9.2040
  35   0.0000       0.131142         3.5685
  36   0.0000       0.150489         4.0950
  37   0.0000       0.155440         4.2297
  38   0.0000       0.169698         4.6177
  39   0.0000       0.175638         4.7793

MULLIKEN ATOMIC CHARGES
-----------------------
   0 C :   -0.428603
   1 C :   -0.001118
   2 C :   -0.210148
   3 C :   -0.248864
   4 C :    0.235743
   5 C :   -0.432456
   6 C :   -0.429761
   7 C :   -0.043655
   8 C :   -0.496747
   9 H :    0.135972
  10 H :    0.134009
  11 H :    0.134109
  12 H :    0.095248
  13 H :    0.118578
  14 H :    0.119281
  15 H :    0.127608
  16 H :    0.127390
  17 H :    0.135130
  18 H :    0.141582
  19 H :    0.132973
  20 H :    0.131076
  21 H :    0.093938
  22 H :    0.147474
  23 H :    0.140776
  24 H :    0.140464
Sum of atomic charges:   -0.0000000

LOEWDIN ATOMIC CHARGES
----------------------
   0 C :   -0.295687
   1 C :   -0.235247
   2 C :   -0.135869
   3 C :   -0.120248
   4 C :   -0.275751
   5 C :   -0.265304
   6 C :   -0.272614
   7 C :   -0.186956
   8 C :   -0.292069
   9 H :    0.124144
  10 H :    0.123992
  11 H :    0.123208
  12 H :    0.155660
  13 H :    0.137113
  14 H :    0.139091
  15 H :    0.124089
  16 H :    0.123121
  17 H :    0.126560
  18 H :    0.126223
  19 H :    0.124902
  20 H :    0.126421
  21 H :    0.150039
  22 H :    0.126872
  23 H :    0.124152
  24 H :    0.124158

  Mayer bond orders larger than 0.1
B(  0-C ,  1-C ) :   0.8906 B(  0-C ,  9-H ) :   0.9348 B(  0-C , 10-H ) :   0.9384
B(  0-C , 11-H ) :   0.9444 B(  1-C ,  2-C ) :   0.9186 B(  1-C ,  7-C ) :   0.9416
B(  1-C , 12-H ) :   0.9109 B(  2-C ,  3-C ) :   1.7884 B(  2-C , 13-H ) :   0.9317
B(  3-C ,  4-C ) :   0.9094 B(  3-C , 14-H ) :   0.9261 B(  4-C ,  5-C ) :   0.8789
B(  4-C ,  6-C ) :   0.8827 B(  4-C ,  7-C ) :   0.8595 B(  5-C , 15-H ) :   0.9381
B(  5-C , 16-H ) :   0.9325 B(  5-C , 17-H ) :   0.9360 B(  6-C , 18-H ) :   0.9366
B(  6-C , 19-H ) :   0.9436 B(  6-C , 20-H ) :   0.9342 B(  7-C ,  8-C ) :   0.8651
B(  7-C , 21-H ) :   0.9167 B(  8-C , 22-H ) :   0.9471 B(  8-C , 23-H ) :   0.9385
B(  8-C , 24-H ) :   0.9375

MP2 TOTAL ENERGY:     -351.731269616 Eh
FINAL SINGLE POINT ENERGY      -351.731269615831

DIPOLE MOMENT
-------------
                                X             Y             Z
Electronic contribution:     -0.51109      -0.90207      -3.45749
Nuclear contribution   :      0.43560       0.89399       3.51816
                        -----------------------------------------
Total Dipole Moment    :     -0.07550      -0.00808       0.06067
                        -----------------------------------------
Magnitude (a.u.)       :      0.09719
Magnitude (Debye)      :      0.24704

                             ****ORCA TERMINATED NORMALLY****
TOTAL RUN TIME: 0 days 0 hours 25 minutes 2 seconds 231 msec
