                         Program Version 3.0.3 - RELEASE   -
|  1> ! RI-MP2 RIJK def2-TZVP def2-TZVP/C def2-TZVP/JK TIGHTSCF
|  2> % maxcore 2000
|  3> % mp2 density relaxed end
|  4> *xyz 0 1
|  5>  C       -0.0608676951     1.4463841233     0.0092776325
|  6>  O       -0.0128863480     0.0175546796     0.0054547238
|  7>  C       -1.1874600774    -0.6135920529     0.0124769979
|  8>  C       -1.3450433275    -1.9997971081     0.0103055168
|  9>  N       -2.7240484664    -2.1694143315     0.0199346561
| 10>  C       -3.2887156780    -0.9522166352     0.0268748977
| 11>  N       -2.3857481695     0.0228340740     0.0226836137
| 12>  C       -0.4464662322    -3.1193289900     0.0011393569
| 13>  O       -0.8241028794    -4.2806330668     0.0011683545
| 14>  H        0.9790671344     1.7738691383     0.0022946051
| 15>  H       -0.5835342860     1.8217104604    -0.8750617307
| 16>  H       -0.5702158344     1.8173926565     0.9031643321
| 17>  H       -3.1637024830    -3.0766067342     0.0209933292
| 18>  H       -4.3578976410    -0.8020250220     0.0349724401
| 19>  H        0.6286538236    -2.8525941316    -0.0059953457
| 20> *
| 21>
| 22>                          ****END OF INPUT****

CARTESIAN COORDINATES (ANGSTROEM)
---------------------------------
  C     -0.060868    1.446384    0.009278
  O     -0.012886    0.017555    0.005455
  C     -1.187460   -0.613592    0.012477
  C     -1.345043   -1.999797    0.010306
  N     -2.724048   -2.169414    0.019935
  C     -3.288716   -0.952217    0.026875
  N     -2.385748    0.022834    0.022684
  C     -0.446466   -3.119329    0.001139
  O     -0.824103   -4.280633    0.001168
  H      0.979067    1.773869    0.002295
  H     -0.583534    1.821710   -0.875062
  H     -0.570216    1.817393    0.903164
  H     -3.163702   -3.076607    0.020993
  H     -4.357898   -0.802025    0.034972
  H      0.628654   -2.852594   -0.005995

 Total Charge           Charge          ....    0
 Multiplicity           Mult            ....    1
 Number of Electrons    NEL             ....   66
 Basis Dimension        Dim             ....  315

ORBITAL ENERGIES
----------------

  NO   OCC          E(Eh)            E(eV)
   0   2.0000     -20.603258      -560.6431
   1   2.0000     -20.538405      -558.8784
   2   2.0000     -15.636236      -425.4836
   3   2.0000     -15.566530      -423.5868
   4   2.0000     -11.344879      -308.7099
   5   2.0000     -11.333555      -308.4017
   6   2.0000     -11.330496      -308.3185
   7   2.0000     -11.288684      -307.1807
   8   2.0000     -11.259645      -306.3905
   9   2.0000      -1.441383       -39.2220
  10   2.0000      -1.380012       -37.5520
  11   2.0000      -1.355130       -36.8750
  12   2.0000      -1.191419       -32.4202
  13   2.0000      -1.050681       -28.5905
  14   2.0000      -0.960393       -26.1336
  15   2.0000      -0.894201       -24.3324
  16   2.0000      -0.846853       -23.0440
  17   2.0000      -0.796547       -21.6752
  18   2.0000      -0.748098       -20.3568
  19   2.0000      -0.693282       -18.8652
  20   2.0000      -0.676862       -18.4183
  21   2.0000      -0.665538       -18.1102
  22   2.0000      -0.634635       -17.2693
  23   2.0000      -0.626021       -17.0349
  24   2.0000      -0.617047       -16.7907
  25   2.0000      -0.580584       -15.7985
  26   2.0000      -0.532172       -14.4811
  27   2.0000      -0.526487       -14.3264
  28   2.0000      -0.511972       -13.9315
  29   2.0000      -0.474389       -12.9088
  30   2.0000      -0.425100       -11.5676
  31   2.0000      -0.414634       -11.2828
  32   2.0000      -0.321429        -8.7465
  33   0.0000       0.087568         2.3828
  34   0.0000       0.138599         3.7715
  35   0.0000       0.151969         4.1353
  36   0.0000       0.174788         4.7562
  37   0.0000       0.179638         4.8882

MULLIKEN ATOMIC CHARGES
-----------------------
   0 C :   -0.208067
   1 O :   -0.286232
   2 C :    0.250550
   3 C :    0.043390
   4 N :   -0.244776
   5 C :    0.063685
   6 N :   -0.329594
   7 C :    0.089413
   8 O :   -0.333324
   9 H :    0.145875
  10 H :    0.136167
  11 H :    0.136150
  12 H :    0.271504
  13 H :    0.160110
  14 H :    0.105148
Sum of atomic charges:    0.0000000

LOEWDIN ATOMIC CHARGES
----------------------
   0 C :   -0.308297
   1 O :    0.238067
   2 C :   -0.344752
   3 C :   -0.226353
   4 N :    0.228480
   5 C :   -0.288122
   6 N :    0.102210
   7 C :   -0.295834
   8 O :    0.086311
   9 H :    0.114858
  10 H :    0.113031
  11 H :    0.113028
  12 H :    0.206563
  13 H :    0.135183
  14 H :    0.125625

  Mayer bond orders larger than 0.1
B(  0-C ,  1-O ) :   0.8442 B(  0-C ,  9-H ) :   0.9347 B(  0-C , 10-H ) :   0.9372
B(  0-C , 11-H ) :   0.9372 B(  1-O ,  2-C ) :   1.1501 B(  2-C ,  3-C ) :   1.2953
B(  2-C ,  6-N ) :   1.2934 B(  3-C ,  4-N ) :   1.0825 B(  3-C ,  7-C ) :   0.9438
B(  4-N ,  5-C ) :   1.2506 B(  4-N , 12-H ) :   0.8491 B(  5-C ,  6-N ) :   1.4464
B(  5-C , 13-H ) :   0.9239 B(  7-C ,  8-O ) :   1.9003 B(  7-C , 14-H ) :   0.9799

MP2 TOTAL ENERGY:     -453.250393800 Eh
FINAL SINGLE POINT ENERGY      -453.250393800268

DIPOLE MOMENT
-------------
                                X             Y             Z
Electronic contribution:     -1.45605      -5.28684      -0.00223
Nuclear contribution   :      0.88595       5.99471       0.00805
                        -----------------------------------------
Total Dipole Moment    :     -0.57010       0.70787       0.00582
                        -----------------------------------------
Magnitude (a.u.)       :      0.90892
Magnitude (Debye)      :      2.31028

                             ****ORCA TERMINATED NORMALLY****
TOTAL RUN TIME: 0 days 0 hours 14 minutes 30 seconds 459 msec
