                         Program Version 3.0.3 - RELEASE   -
|  1> ! RI-MP2 RIJK def2-TZVP def2-TZVP/C def2-TZVP/JK TIGHTSCF
|  2> % maxcore 2000
|  3> % mp2 density relaxed end
|  4> *xyz 0 1
|  5>  C       -0.0893596086     1.4735308078     0.0063105017
|  6>  C        0.0401727721    -0.0377514795    -0.0240284954
|  7>  C        0.8420190223    -0.6166042763    -1.1773584616
|  8>  C        2.0798279770    -0.5727516818    -0.3154149247
|  9>  N        1.1474685127    -0.5193188883     0.9156453512
| 10>  C        1.0020126046    -2.0277786206     0.8074268457
| 11>  C        1.4668378569    -1.9106907710    -0.6335889002
| 12>  O        1.8618485934    -2.8852905891    -1.5231749972
| 13>  H        0.8728635299     1.9540271164    -0.1965671979
| 14>  H       -0.8079199338     1.8159581146    -0.7461077720
| 15>  H       -0.4358448228     1.8031248280     0.9904576890
| 16>  H       -0.9277751192    -0.5048645699     0.1987900092
| 17>  H        0.7633714878    -0.4608862176    -2.2468661233
| 18>  H        3.0609024453    -0.1282207048    -0.3990072121
| 19>  H        1.7418464727    -2.5110642662     1.4539222443
| 20>  H        0.0016851095    -2.4123649640     1.0372887556
| 21>  H        2.6373312603    -3.3294830975    -1.1622345524
| 22> *
| 23>
| 24>                          ****END OF INPUT****

CARTESIAN COORDINATES (ANGSTROEM)
---------------------------------
  C     -0.089360    1.473531    0.006311
  C      0.040173   -0.037751   -0.024028
  C      0.842019   -0.616604   -1.177358
  C      2.079828   -0.572752   -0.315415
  N      1.147469   -0.519319    0.915645
  C      1.002013   -2.027779    0.807427
  C      1.466838   -1.910691   -0.633589
  O      1.861849   -2.885291   -1.523175
  H      0.872864    1.954027   -0.196567
  H     -0.807920    1.815958   -0.746108
  H     -0.435845    1.803125    0.990458
  H     -0.927775   -0.504865    0.198790
  H      0.763371   -0.460886   -2.246866
  H      3.060902   -0.128221   -0.399007
  H      1.741846   -2.511064    1.453922
  H      0.001685   -2.412365    1.037289
  H      2.637331   -3.329483   -1.162235

 Total Charge           Charge          ....    0
 Multiplicity           Mult            ....    1
 Number of Electrons    NEL             ....   60
 Basis Dimension        Dim             ....  302

ORBITAL ENERGIES
----------------

  NO   OCC          E(Eh)            E(eV)
   0   2.0000     -20.579235      -559.9894
   1   2.0000     -15.559772      -423.4029
   2   2.0000     -11.297028      -307.4078
   3   2.0000     -11.260186      -306.4052
   4   2.0000     -11.258615      -306.3625
   5   2.0000     -11.255799      -306.2859
   6   2.0000     -11.237542      -305.7891
   7   2.0000     -11.212282      -305.1017
   8   2.0000      -1.392482       -37.8914
   9   2.0000      -1.296157       -35.2702
  10   2.0000      -1.033777       -28.1305
  11   2.0000      -1.023762       -27.8580
  12   2.0000      -0.921944       -25.0874
  13   2.0000      -0.866734       -23.5850
  14   2.0000      -0.773275       -21.0419
  15   2.0000      -0.732671       -19.9370
  16   2.0000      -0.720022       -19.5928
  17   2.0000      -0.654136       -17.7999
  18   2.0000      -0.640490       -17.4286
  19   2.0000      -0.613231       -16.6869
  20   2.0000      -0.599142       -16.3035
  21   2.0000      -0.568695       -15.4750
  22   2.0000      -0.537666       -14.6306
  23   2.0000      -0.520786       -14.1713
  24   2.0000      -0.504118       -13.7177
  25   2.0000      -0.469308       -12.7705
  26   2.0000      -0.464587       -12.6420
  27   2.0000      -0.438526       -11.9329
  28   2.0000      -0.371700       -10.1145
  29   2.0000      -0.360814        -9.8183
  30   0.0000       0.133033         3.6200
  31   0.0000       0.148749         4.0477
  32   0.0000       0.169093         4.6013
  33   0.0000       0.180585         4.9140
  34   0.0000       0.190573         5.1858

MULLIKEN ATOMIC CHARGES
-----------------------
   0 C :   -0.416641
   1 C :    0.087963
   2 C :   -0.198375
   3 C :   -0.154479
   4 N :   -0.221109
   5 C :   -0.098553
   6 C :    0.115711
   7 O :   -0.451323
   8 H :    0.132424
   9 H :    0.126015
  10 H :    0.134591
  11 H :    0.098564
  12 H :    0.135432
  13 H :    0.159768
  14 H :    0.108839
  15 H :    0.109962
  16 H :    0.331211
Sum of atomic charges:    0.0000000

LOEWDIN ATOMIC CHARGES
----------------------
   0 C :   -0.288681
   1 C :   -0.255503
   2 C :   -0.142375
   3 C :   -0.151634
   4 N :    0.126536
   5 C :   -0.218539
   6 C :   -0.339285
   7 O :    0.037460
   8 H :    0.128200
   9 H :    0.125141
  10 H :    0.127430
  11 H :    0.136640
  12 H :    0.143279
  13 H :    0.130909
  14 H :    0.131494
  15 H :    0.121542
  16 H :    0.187386

  Mayer bond orders larger than 0.1
B(  0-C ,  1-C ) :   0.9065 B(  0-C ,  8-H ) :   0.9383 B(  0-C ,  9-H ) :   0.9366
B(  0-C , 10-H ) :   0.9360 B(  1-C ,  2-C ) :   0.9159 B(  1-C ,  4-N ) :   0.8680
B(  1-C , 11-H ) :   0.9207 B(  2-C ,  3-C ) :   0.8891 B(  2-C ,  6-C ) :   0.8328
B(  2-C , 12-H ) :   0.9256 B(  3-C ,  4-N ) :   0.9153 B(  3-C ,  6-C ) :   0.8473
B(  3-C , 13-H ) :   0.8916 B(  4-N ,  5-C ) :   0.9305 B(  5-C ,  6-C ) :   1.0108
B(  5-C , 14-H ) :   0.9092 B(  5-C , 15-H ) :   0.9180 B(  6-C ,  7-O ) :   1.0720
B(  7-O , 16-H ) :   0.8331

MP2 TOTAL ENERGY:     -363.164566461 Eh
FINAL SINGLE POINT ENERGY      -363.164566461296

DIPOLE MOMENT
-------------
                                X             Y             Z
Electronic contribution:      2.64541      -4.36306      -1.29976
Nuclear contribution   :     -2.39489       4.14995       1.16221
                        -----------------------------------------
Total Dipole Moment    :      0.25051      -0.21311      -0.13756
                        -----------------------------------------
Magnitude (a.u.)       :      0.35651
Magnitude (Debye)      :      0.90616

                             ****ORCA TERMINATED NORMALLY****
TOTAL RUN TIME: 0 days 0 hours 11 minutes 50 seconds 259 msec
