                         Program Version 3.0.3 - RELEASE   -
|  1> ! RI-MP2 RIJK def2-TZVP def2-TZVP/C def2-TZVP/JK TIGHTSCF
|  2> % maxcore 2000
|  3> % mp2 density relaxed end
|  4> *xyz 0 1
|  5>  C       -0.0072615674    -2.6592739887     3.1161176989
|  6>  C       -0.0495733114    -2.0001860747     1.7545433064
|  7>  C       -1.0622710008    -0.9213402558     1.4770582353
|  8>  C        0.4156480348    -0.5850779602     1.4495827429
|  9>  C        1.0283984842     0.4116314927     2.3949872926
| 10>  C        0.3472785346     1.7820484878     2.3937423628
| 11>  O        1.1040011307     2.7541742645     3.0755478814
| 12>  C        1.8181135224     0.0219798115     3.5931419500
| 13>  N        2.5025452767     0.5589708685     2.4000788644
| 14>  H       -0.2245612847    -1.9502340358     3.9193838045
| 15>  H       -0.7599273417    -3.4539212417     3.1669182600
| 16>  H        0.9661456672    -3.1179830244     3.3232262427
| 17>  H        0.1240288670    -2.6952851566     0.9363540584
| 18>  H       -1.6131737709    -0.9200967387     0.5431817889
| 19>  H       -1.6356724068    -0.5705319366     2.3297403430
| 20>  H        0.8080778340    -0.4651823130     0.4403529234
| 21>  H        0.1624685123     2.0732011402     1.3448641866
| 22>  H       -0.6284217289     1.7178549006     2.8882556394
| 23>  H        2.0204579579     2.5884664477     2.8056856484
| 24>  H        1.8319155220     0.6876105912     4.4507531886
| 25>  H        1.9456893496    -1.0294544175     3.8180938980
| 26>  H        2.9322269492    -0.1979542909     1.8744779735
| 27> *
| 28>
| 29>                          ****END OF INPUT****

CARTESIAN COORDINATES (ANGSTROEM)
---------------------------------
  C     -0.007262   -2.659274    3.116118
  C     -0.049573   -2.000186    1.754543
  C     -1.062271   -0.921340    1.477058
  C      0.415648   -0.585078    1.449583
  C      1.028398    0.411631    2.394987
  C      0.347279    1.782048    2.393742
  O      1.104001    2.754174    3.075548
  C      1.818114    0.021980    3.593142
  N      2.502545    0.558971    2.400079
  H     -0.224561   -1.950234    3.919384
  H     -0.759927   -3.453921    3.166918
  H      0.966146   -3.117983    3.323226
  H      0.124029   -2.695285    0.936354
  H     -1.613174   -0.920097    0.543182
  H     -1.635672   -0.570532    2.329740
  H      0.808078   -0.465182    0.440353
  H      0.162469    2.073201    1.344864
  H     -0.628422    1.717855    2.888256
  H      2.020458    2.588466    2.805686
  H      1.831916    0.687611    4.450753
  H      1.945689   -1.029454    3.818094
  H      2.932227   -0.197954    1.874478

 Total Charge           Charge          ....    0
 Multiplicity           Mult            ....    1
 Number of Electrons    NEL             ....   70
 Basis Dimension        Dim             ....  357

ORBITAL ENERGIES
----------------

  NO   OCC          E(Eh)            E(eV)
   0   2.0000     -20.538572      -558.8829
   1   2.0000     -15.561117      -423.4395
   2   2.0000     -11.270381      -306.6827
   3   2.0000     -11.268762      -306.6386
   4   2.0000     -11.254830      -306.2595
   5   2.0000     -11.244476      -305.9778
   6   2.0000     -11.243509      -305.9514
   7   2.0000     -11.231256      -305.6180
   8   2.0000     -11.226946      -305.5007
   9   2.0000      -1.352672       -36.8081
  10   2.0000      -1.262239       -34.3473
  11   2.0000      -1.153382       -31.3851
  12   2.0000      -0.988818       -26.9071
  13   2.0000      -0.956943       -26.0397
  14   2.0000      -0.884755       -24.0754
  15   2.0000      -0.856060       -23.2946
  16   2.0000      -0.798787       -21.7361
  17   2.0000      -0.761536       -20.7225
  18   2.0000      -0.692670       -18.8485
  19   2.0000      -0.673477       -18.3262
  20   2.0000      -0.665651       -18.1133
  21   2.0000      -0.627118       -17.0647
  22   2.0000      -0.591321       -16.0907
  23   2.0000      -0.589875       -16.0513
  24   2.0000      -0.573950       -15.6180
  25   2.0000      -0.555971       -15.1287
  26   2.0000      -0.539924       -14.6921
  27   2.0000      -0.509617       -13.8674
  28   2.0000      -0.503281       -13.6950
  29   2.0000      -0.485665       -13.2156
  30   2.0000      -0.461004       -12.5446
  31   2.0000      -0.448461       -12.2033
  32   2.0000      -0.421668       -11.4742
  33   2.0000      -0.407945       -11.1007
  34   2.0000      -0.380775       -10.3614
  35   0.0000       0.129303         3.5185
  36   0.0000       0.146333         3.9819
  37   0.0000       0.155121         4.2210
  38   0.0000       0.164379         4.4730
  39   0.0000       0.190662         5.1882

MULLIKEN ATOMIC CHARGES
-----------------------
   0 C :   -0.436738
   1 C :   -0.033378
   2 C :   -0.288850
   3 C :   -0.178865
   4 C :    0.091162
   5 C :    0.019823
   6 O :   -0.487752
   7 C :   -0.210176
   8 N :   -0.434428
   9 H :    0.143132
  10 H :    0.141982
  11 H :    0.131378
  12 H :    0.116433
  13 H :    0.135896
  14 H :    0.133123
  15 H :    0.129099
  16 H :    0.092936
  17 H :    0.098555
  18 H :    0.333897
  19 H :    0.143987
  20 H :    0.141268
  21 H :    0.217516
Sum of atomic charges:    0.0000000

LOEWDIN ATOMIC CHARGES
----------------------
   0 C :   -0.299289
   1 C :   -0.228721
   2 C :   -0.198481
   3 C :   -0.180340
   4 C :   -0.304548
   5 C :   -0.309986
   6 O :   -0.040151
   7 C :   -0.239521
   8 N :   -0.007386
   9 H :    0.127774
  10 H :    0.128394
  11 H :    0.122061
  12 H :    0.148550
  13 H :    0.131075
  14 H :    0.138223
  15 H :    0.157290
  16 H :    0.123749
  17 H :    0.129237
  18 H :    0.179150
  19 H :    0.131331
  20 H :    0.125230
  21 H :    0.166361

  Mayer bond orders larger than 0.1
B(  0-C ,  1-C ) :   0.8918 B(  0-C ,  9-H ) :   0.9408 B(  0-C , 10-H ) :   0.9346
B(  0-C , 11-H ) :   0.9410 B(  1-C ,  2-C ) :   0.8948 B(  1-C ,  3-C ) :   0.8799
B(  1-C , 12-H ) :   0.9300 B(  2-C ,  3-C ) :   0.8640 B(  2-C , 13-H ) :   0.9271
B(  2-C , 14-H ) :   0.9337 B(  3-C ,  4-C ) :   0.9238 B(  3-C , 15-H ) :   0.9242
B(  4-C ,  5-C ) :   0.9039 B(  4-C ,  7-C ) :   0.9152 B(  4-C ,  8-N ) :   0.9120
B(  5-C ,  6-O ) :   0.9574 B(  5-C , 16-H ) :   0.9263 B(  5-C , 17-H ) :   0.9323
B(  6-O , 18-H ) :   0.8081 B(  7-C ,  8-N ) :   0.8922 B(  7-C , 19-H ) :   0.9149
B(  7-C , 20-H ) :   0.9212 B(  8-N , 21-H ) :   0.8746

MP2 TOTAL ENERGY:     -403.617962078 Eh
FINAL SINGLE POINT ENERGY      -403.617962078447

DIPOLE MOMENT
-------------
                                X             Y             Z
Electronic contribution:      2.78651       5.28528      -0.62265
Nuclear contribution   :     -2.91783      -6.55347       0.22753
                        -----------------------------------------
Total Dipole Moment    :     -0.13132      -1.26819      -0.39512
                        -----------------------------------------
Magnitude (a.u.)       :      1.33479
Magnitude (Debye)      :      3.39277

                             ****ORCA TERMINATED NORMALLY****
TOTAL RUN TIME: 0 days 0 hours 18 minutes 35 seconds 948 msec
