                         Program Version 3.0.3 - RELEASE   -
|  1> ! RI-MP2 RIJK def2-TZVP def2-TZVP/C def2-TZVP/JK TIGHTSCF
|  2> % maxcore 2000
|  3> % mp2 density relaxed end
|  4> *xyz 0 1
|  5>  C       -0.1989931610     1.3565193571     0.0813111489
|  6>  C       -0.0294591075    -0.0885837145     0.0694316354
|  7>  C        0.1145436000    -1.2840410666     0.0551460831
|  8>  C        0.2945622852    -2.7466678258     0.0331133548
|  9>  O        0.7755050757    -3.2407831088     1.2660017108
| 10>  C       -0.3751329161    -3.4445364009     2.0818992135
| 11>  C       -1.5438653405    -3.5697850505     1.0687801714
| 12>  O       -0.9200927029    -3.4273550532    -0.2046265204
| 13>  H        0.4498983037     1.8360021892    -0.6595364192
| 14>  H       -1.2323874031     1.6362060088    -0.1506371314
| 15>  H        0.0486731177     1.7766603169     1.0621602431
| 16>  H        1.0033912346    -3.0408082633    -0.7469060751
| 17>  H       -0.2114290947    -4.3511336000     2.6697714426
| 18>  H       -0.5263457353    -2.5988214768     2.7638495051
| 19>  H       -2.0362373051    -4.5450963499     1.0923434108
| 20>  H       -2.2950209808    -2.7861699118     1.2266175368
| 21> *
| 22>
| 23>                          ****END OF INPUT****

CARTESIAN COORDINATES (ANGSTROEM)
---------------------------------
  C     -0.198993    1.356519    0.081311
  C     -0.029459   -0.088584    0.069432
  C      0.114544   -1.284041    0.055146
  C      0.294562   -2.746668    0.033113
  O      0.775505   -3.240783    1.266002
  C     -0.375133   -3.444536    2.081899
  C     -1.543865   -3.569785    1.068780
  O     -0.920093   -3.427355   -0.204627
  H      0.449898    1.836002   -0.659536
  H     -1.232387    1.636206   -0.150637
  H      0.048673    1.776660    1.062160
  H      1.003391   -3.040808   -0.746906
  H     -0.211429   -4.351134    2.669771
  H     -0.526346   -2.598821    2.763850
  H     -2.036237   -4.545096    1.092343
  H     -2.295021   -2.786170    1.226618

 Total Charge           Charge          ....    0
 Multiplicity           Mult            ....    1
 Number of Electrons    NEL             ....   60
 Basis Dimension        Dim             ....  296

ORBITAL ENERGIES
----------------

  NO   OCC          E(Eh)            E(eV)
   0   2.0000     -20.568681      -559.7023
   1   2.0000     -20.568603      -559.7001
   2   2.0000     -11.357154      -309.0439
   3   2.0000     -11.284649      -307.0709
   4   2.0000     -11.284079      -307.0554
   5   2.0000     -11.252314      -306.1910
   6   2.0000     -11.236165      -305.7516
   7   2.0000     -11.219460      -305.2970
   8   2.0000      -1.445361       -39.3303
   9   2.0000      -1.336582       -36.3702
  10   2.0000      -1.071120       -29.1467
  11   2.0000      -1.033421       -28.1208
  12   2.0000      -0.968008       -26.3408
  13   2.0000      -0.878672       -23.9099
  14   2.0000      -0.854244       -23.2452
  15   2.0000      -0.734608       -19.9897
  16   2.0000      -0.715374       -19.4663
  17   2.0000      -0.657980       -17.9045
  18   2.0000      -0.638219       -17.3668
  19   2.0000      -0.627616       -17.0783
  20   2.0000      -0.593203       -16.1419
  21   2.0000      -0.591874       -16.1057
  22   2.0000      -0.583763       -15.8850
  23   2.0000      -0.569856       -15.5066
  24   2.0000      -0.517629       -14.0854
  25   2.0000      -0.496936       -13.5223
  26   2.0000      -0.451413       -12.2836
  27   2.0000      -0.449494       -12.2314
  28   2.0000      -0.382267       -10.4020
  29   2.0000      -0.380250       -10.3471
  30   0.0000       0.132569         3.6074
  31   0.0000       0.155357         4.2275
  32   0.0000       0.168898         4.5959
  33   0.0000       0.176615         4.8059
  34   0.0000       0.191511         5.2113

MULLIKEN ATOMIC CHARGES
-----------------------
   0 C :   -0.478388
   1 C :   -0.019677
   2 C :   -0.080376
   3 C :    0.276024
   4 O :   -0.314944
   5 C :   -0.077419
   6 C :   -0.078116
   7 O :   -0.314784
   8 H :    0.165750
   9 H :    0.164522
  10 H :    0.164260
  11 H :    0.132448
  12 H :    0.122578
  13 H :    0.107578
  14 H :    0.122820
  15 H :    0.107725
Sum of atomic charges:    0.0000000

LOEWDIN ATOMIC CHARGES
----------------------
   0 C :   -0.291314
   1 C :   -0.089678
   2 C :   -0.059894
   3 C :   -0.393743
   4 O :    0.179723
   5 C :   -0.299195
   6 C :   -0.299322
   7 O :    0.179895
   8 H :    0.143286
   9 H :    0.142593
  10 H :    0.142524
  11 H :    0.152178
  12 H :    0.125419
  13 H :    0.121017
  14 H :    0.125489
  15 H :    0.121023

  Mayer bond orders larger than 0.1
B(  0-C ,  1-C ) :   0.8818 B(  0-C ,  8-H ) :   0.9492 B(  0-C ,  9-H ) :   0.9423
B(  0-C , 10-H ) :   0.9421 B(  1-C ,  2-C ) :   2.7316 B(  2-C ,  3-C ) :   1.0206
B(  3-C ,  4-O ) :   0.9711 B(  3-C ,  7-O ) :   0.9715 B(  3-C , 11-H ) :   0.9312
B(  4-O ,  5-C ) :   0.9256 B(  5-C ,  6-C ) :   0.9436 B(  5-C , 12-H ) :   0.9280
B(  5-C , 13-H ) :   0.9298 B(  6-C ,  7-O ) :   0.9255 B(  6-C , 14-H ) :   0.9279
B(  6-C , 15-H ) :   0.9300

MP2 TOTAL ENERGY:     -383.063263976 Eh
FINAL SINGLE POINT ENERGY      -383.063263975886

DIPOLE MOMENT
-------------
                                X             Y             Z
Electronic contribution:      2.17227      -3.91988      -2.00721
Nuclear contribution   :     -2.62124       4.45302       2.45599
                        -----------------------------------------
Total Dipole Moment    :     -0.44897       0.53314       0.44878
                        -----------------------------------------
Magnitude (a.u.)       :      0.82898
Magnitude (Debye)      :      2.10710

                             ****ORCA TERMINATED NORMALLY****
TOTAL RUN TIME: 0 days 0 hours 10 minutes 11 seconds 774 msec
