                         Program Version 3.0.3 - RELEASE   -
|  1> ! RI-MP2 RIJK def2-TZVP def2-TZVP/C def2-TZVP/JK TIGHTSCF
|  2> % maxcore 2000
|  3> % mp2 density relaxed end
|  4> *xyz 0 1
|  5>  C       -0.0295985181     1.5249453145    -0.1027004198
|  6>  C       -0.0416745616     0.0166841997     0.0588015834
|  7>  O        1.2173981105    -0.6542381158    -0.1217756526
|  8>  C        0.6456398219    -0.6810445675     1.1974717365
|  9>  C        1.4060238187     0.0675907865     2.2756330095
| 10>  C        0.1452011386    -1.9669927313     1.6309025266
| 11>  C       -0.2438855776    -3.0225523208     2.0530772460
| 12>  C       -1.1800323312    -0.6216945198    -0.5645688722
| 13>  C       -2.1479196713    -1.0896875404    -1.1012283335
| 14>  H        0.8653762514     1.9698368894     0.3317627678
| 15>  H       -0.0540659699     1.7734680333    -1.1676308240
| 16>  H       -0.9149772476     1.9637937925     0.3664480462
| 17>  H        1.8135942013     1.0071574714     1.9031193014
| 18>  H        0.7526232764     0.2707840761     3.1290755999
| 19>  H        2.2365831659    -0.5515719975     2.6267011341
| 20>  H       -0.5981803613    -3.9609870045     2.4021291291
| 21>  H       -2.9951519860    -1.5276944857    -1.5685277884
| 22> *
| 23>
| 24>                          ****END OF INPUT****

CARTESIAN COORDINATES (ANGSTROEM)
---------------------------------
  C     -0.029599    1.524945   -0.102700
  C     -0.041675    0.016684    0.058802
  O      1.217398   -0.654238   -0.121776
  C      0.645640   -0.681045    1.197472
  C      1.406024    0.067591    2.275633
  C      0.145201   -1.966993    1.630903
  C     -0.243886   -3.022552    2.053077
  C     -1.180032   -0.621695   -0.564569
  C     -2.147920   -1.089688   -1.101228
  H      0.865376    1.969837    0.331763
  H     -0.054066    1.773468   -1.167631
  H     -0.914977    1.963794    0.366448
  H      1.813594    1.007157    1.903119
  H      0.752623    0.270784    3.129076
  H      2.236583   -0.551572    2.626701
  H     -0.598180   -3.960987    2.402129
  H     -2.995152   -1.527694   -1.568528

 Total Charge           Charge          ....    0
 Multiplicity           Mult            ....    1
 Number of Electrons    NEL             ....   64
 Basis Dimension        Dim             ....  327

ORBITAL ENERGIES
----------------

  NO   OCC          E(Eh)            E(eV)
   0   2.0000     -20.582851      -560.0879
   1   2.0000     -11.330145      -308.3089
   2   2.0000     -11.329464      -308.2904
   3   2.0000     -11.239455      -305.8411
   4   2.0000     -11.239450      -305.8410
   5   2.0000     -11.237550      -305.7893
   6   2.0000     -11.237545      -305.7891
   7   2.0000     -11.234106      -305.6956
   8   2.0000     -11.234105      -305.6955
   9   2.0000      -1.429582       -38.9009
  10   2.0000      -1.073187       -29.2029
  11   2.0000      -1.065826       -29.0026
  12   2.0000      -1.010748       -27.5039
  13   2.0000      -0.995646       -27.0929
  14   2.0000      -0.902455       -24.5570
  15   2.0000      -0.843576       -22.9549
  16   2.0000      -0.764739       -20.8096
  17   2.0000      -0.715460       -19.4687
  18   2.0000      -0.699889       -19.0449
  19   2.0000      -0.652979       -17.7685
  20   2.0000      -0.631981       -17.1971
  21   2.0000      -0.601608       -16.3706
  22   2.0000      -0.579689       -15.7741
  23   2.0000      -0.567087       -15.4312
  24   2.0000      -0.547970       -14.9110
  25   2.0000      -0.529297       -14.4029
  26   2.0000      -0.492482       -13.4011
  27   2.0000      -0.466400       -12.6914
  28   2.0000      -0.412744       -11.2313
  29   2.0000      -0.403459       -10.9787
  30   2.0000      -0.390450       -10.6247
  31   2.0000      -0.372437       -10.1345
  32   0.0000       0.137769         3.7489
  33   0.0000       0.149532         4.0690
  34   0.0000       0.153719         4.1829
  35   0.0000       0.158579         4.3151
  36   0.0000       0.163140         4.4393

MULLIKEN ATOMIC CHARGES
-----------------------
   0 C :   -0.388297
   1 C :   -0.049879
   2 O :   -0.301222
   3 C :   -0.049852
   4 C :   -0.388283
   5 C :    0.076094
   6 C :   -0.108689
   7 C :    0.076104
   8 C :   -0.108696
   9 H :    0.132848
  10 H :    0.150156
  11 H :    0.143747
  12 H :    0.132838
  13 H :    0.143744
  14 H :    0.150155
  15 H :    0.194618
  16 H :    0.194615
Sum of atomic charges:   -0.0000000

LOEWDIN ATOMIC CHARGES
----------------------
   0 C :   -0.243672
   1 C :   -0.283829
   2 O :    0.228957
   3 C :   -0.283821
   4 C :   -0.243670
   5 C :   -0.054622
   6 C :   -0.066076
   7 C :   -0.054621
   8 C :   -0.066077
   9 H :    0.128315
  10 H :    0.138708
  11 H :    0.137621
  12 H :    0.128314
  13 H :    0.137622
  14 H :    0.138708
  15 H :    0.129071
  16 H :    0.129071

  Mayer bond orders larger than 0.1
B(  0-C ,  1-C ) :   0.9319 B(  0-C ,  9-H ) :   0.9353 B(  0-C , 10-H ) :   0.9322
B(  0-C , 11-H ) :   0.9268 B(  1-C ,  2-O ) :   0.9221 B(  1-C ,  3-C ) :   0.9634
B(  1-C ,  7-C ) :   1.1518 B(  1-C ,  8-C ) :  -0.1431 B(  2-O ,  3-C ) :   0.9220
B(  3-C ,  4-C ) :   0.9319 B(  3-C ,  5-C ) :   1.1518 B(  3-C ,  6-C ) :  -0.1431
B(  4-C , 12-H ) :   0.9353 B(  4-C , 13-H ) :   0.9268 B(  4-C , 14-H ) :   0.9322
B(  5-C ,  6-C ) :   2.5997 B(  6-C , 15-H ) :   0.8785 B(  7-C ,  8-C ) :   2.5997
B(  8-C , 16-H ) :   0.8785

MP2 TOTAL ENERGY:     -383.911637502 Eh
FINAL SINGLE POINT ENERGY      -383.911637502035

DIPOLE MOMENT
-------------
                                X             Y             Z
Electronic contribution:     -1.28862      -5.44047      -2.55583
Nuclear contribution   :      0.85384       5.81197       3.04588
                        -----------------------------------------
Total Dipole Moment    :     -0.43478       0.37151       0.49005
                        -----------------------------------------
Magnitude (a.u.)       :      0.75313
Magnitude (Debye)      :      1.91430

                             ****ORCA TERMINATED NORMALLY****
TOTAL RUN TIME: 0 days 0 hours 18 minutes 6 seconds 355 msec
