                         Program Version 3.0.3 - RELEASE   -
|  1> ! RI-MP2 RIJK def2-TZVP def2-TZVP/C def2-TZVP/JK TIGHTSCF
|  2> % maxcore 2000
|  3> % mp2 density relaxed end
|  4> *xyz 0 1
|  5>  O        0.5951828159    -0.2456437238    -0.0269928758
|  6>  C        0.3296893367     0.9219245699     0.1077794084
|  7>  C        1.2994898296     2.0596242841    -0.0520275249
|  8>  C        0.7557167972     3.3197806462    -0.8018798253
|  9>  C        1.2214777090     4.2301828344     0.3693566549
| 10>  C        1.4963104004     2.9645557290     1.1906386873
| 11>  C        1.0006782871     2.6845765115     2.5850935427
| 12>  C        2.4813705092     2.7780120523     2.3033337189
| 13>  H       -0.7021084396     1.2466111939     0.3846304596
| 14>  H        2.2396899657     1.6746967089    -0.4546374375
| 15>  H        1.1964334643     3.5083215712    -1.7818819399
| 16>  H       -0.3327129137     3.2942942905    -0.9102062486
| 17>  H        2.1284730981     4.7968597740     0.1376198196
| 18>  H        0.4751663988     4.9211818369     0.7708032758
| 19>  H        0.5260996934     3.4991420721     3.1231486632
| 20>  H        0.5887159302     1.7057394949     2.8084784232
| 21>  H        3.0619107003     1.8611050941     2.3247663294
| 22>  H        3.0172668772     3.6552582698     2.6523599791
| 23> *
| 24>
| 25>                          ****END OF INPUT****

CARTESIAN COORDINATES (ANGSTROEM)
---------------------------------
  O      0.595183   -0.245644   -0.026993
  C      0.329689    0.921925    0.107779
  C      1.299490    2.059624   -0.052028
  C      0.755717    3.319781   -0.801880
  C      1.221478    4.230183    0.369357
  C      1.496310    2.964556    1.190639
  C      1.000678    2.684577    2.585094
  C      2.481371    2.778012    2.303334
  H     -0.702108    1.246611    0.384630
  H      2.239690    1.674697   -0.454637
  H      1.196433    3.508322   -1.781882
  H     -0.332713    3.294294   -0.910206
  H      2.128473    4.796860    0.137620
  H      0.475166    4.921182    0.770803
  H      0.526100    3.499142    3.123149
  H      0.588716    1.705739    2.808478
  H      3.061911    1.861105    2.324766
  H      3.017267    3.655258    2.652360

 Total Charge           Charge          ....    0
 Multiplicity           Mult            ....    1
 Number of Electrons    NEL             ....   60
 Basis Dimension        Dim             ....  308

ORBITAL ENERGIES
----------------

  NO   OCC          E(Eh)            E(eV)
   0   2.0000     -20.554100      -559.3055
   1   2.0000     -11.326683      -308.2147
   2   2.0000     -11.251526      -306.1696
   3   2.0000     -11.242608      -305.9269
   4   2.0000     -11.240472      -305.8688
   5   2.0000     -11.235187      -305.7250
   6   2.0000     -11.234438      -305.7046
   7   2.0000     -11.231745      -305.6313
   8   2.0000      -1.392061       -37.8799
   9   2.0000      -1.179899       -32.1067
  10   2.0000      -1.085234       -29.5307
  11   2.0000      -0.958735       -26.0885
  12   2.0000      -0.856808       -23.3149
  13   2.0000      -0.836532       -22.7632
  14   2.0000      -0.804928       -21.9032
  15   2.0000      -0.738296       -20.0901
  16   2.0000      -0.679967       -18.5029
  17   2.0000      -0.657044       -17.8791
  18   2.0000      -0.654696       -17.8152
  19   2.0000      -0.632804       -17.2195
  20   2.0000      -0.580266       -15.7898
  21   2.0000      -0.551672       -15.0118
  22   2.0000      -0.526086       -14.3155
  23   2.0000      -0.524155       -14.2630
  24   2.0000      -0.514832       -14.0093
  25   2.0000      -0.484313       -13.1788
  26   2.0000      -0.472216       -12.8497
  27   2.0000      -0.420023       -11.4294
  28   2.0000      -0.408487       -11.1155
  29   2.0000      -0.398799       -10.8519
  30   0.0000       0.124868         3.3978
  31   0.0000       0.142149         3.8681
  32   0.0000       0.150050         4.0831
  33   0.0000       0.157733         4.2921
  34   0.0000       0.169198         4.6041

MULLIKEN ATOMIC CHARGES
-----------------------
   0 O :   -0.258435
   1 C :   -0.004205
   2 C :    0.138476
   3 C :   -0.302618
   4 C :   -0.171096
   5 C :   -0.058684
   6 C :   -0.285035
   7 C :   -0.274231
   8 H :    0.081935
   9 H :    0.110405
  10 H :    0.128132
  11 H :    0.123444
  12 H :    0.117789
  13 H :    0.112536
  14 H :    0.131004
  15 H :    0.140937
  16 H :    0.137839
  17 H :    0.131808
Sum of atomic charges:   -0.0000000

LOEWDIN ATOMIC CHARGES
----------------------
   0 O :    0.132372
   1 C :   -0.282622
   2 C :   -0.181308
   3 C :   -0.198830
   4 C :   -0.194280
   5 C :   -0.206592
   6 C :   -0.205530
   7 C :   -0.206149
   8 H :    0.112708
   9 H :    0.156291
  10 H :    0.129485
  11 H :    0.135541
  12 H :    0.135907
  13 H :    0.129621
  14 H :    0.134266
  15 H :    0.135709
  16 H :    0.137769
  17 H :    0.135641

  Mayer bond orders larger than 0.1
B(  0-O ,  1-C ) :   1.9961 B(  1-C ,  2-C ) :   0.8016 B(  1-C ,  8-H ) :   0.9528
B(  2-C ,  3-C ) :   0.9109 B(  2-C ,  5-C ) :   0.8220 B(  2-C ,  8-H ) :  -0.1000
B(  2-C ,  9-H ) :   0.9010 B(  3-C ,  4-C ) :   0.9595 B(  3-C , 10-H ) :   0.9314
B(  3-C , 11-H ) :   0.9099 B(  4-C ,  5-C ) :   0.8833 B(  4-C , 12-H ) :   0.9166
B(  4-C , 13-H ) :   0.9155 B(  5-C ,  6-C ) :   0.8527 B(  5-C ,  7-C ) :   0.8513
B(  6-C ,  7-C ) :   0.9311 B(  6-C , 14-H ) :   0.9238 B(  6-C , 15-H ) :   0.9205
B(  7-C , 16-H ) :   0.9237 B(  7-C , 17-H ) :   0.9270

MP2 TOTAL ENERGY:     -347.171822067 Eh
FINAL SINGLE POINT ENERGY      -347.171822067135

DIPOLE MOMENT
-------------
                                X             Y             Z
Electronic contribution:     -0.79057      -5.46340      -1.78514
Nuclear contribution   :      0.79674       6.61207       1.91073
                        -----------------------------------------
Total Dipole Moment    :      0.00617       1.14867       0.12559
                        -----------------------------------------
Magnitude (a.u.)       :      1.15553
Magnitude (Debye)      :      2.93713

                             ****ORCA TERMINATED NORMALLY****
TOTAL RUN TIME: 0 days 0 hours 13 minutes 48 seconds 84 msec
