                         Program Version 3.0.3 - RELEASE   -
|  1> ! RI-MP2 RIJK def2-TZVP def2-TZVP/C def2-TZVP/JK TIGHTSCF
|  2> % maxcore 2000
|  3> % mp2 density relaxed end
|  4> *xyz 0 1
|  5>  C       -0.1988610027     1.5737694891    -0.0240438307
|  6>  C       -0.0327329496     0.0472829742    -0.0018348757
|  7>  C        1.1708799533    -0.4333575194    -0.8965336870
|  8>  C        2.0186630348    -0.5571104738     0.3735466227
|  9>  C        3.2442921958    -1.3872493842     0.5952234663
| 10>  C        3.3353702897     0.1228739243     0.6204109897
| 11>  C        0.7730212539    -0.4453188873     1.2584308957
| 12>  C       -1.3003037011    -0.6217063013    -0.2395441100
| 13>  C       -2.3487429792    -1.1783626283    -0.4362655593
| 14>  H        0.7641631476     2.0615982058     0.1564656167
| 15>  H       -0.5795931220     1.9086668128    -0.9936259209
| 16>  H       -0.9013759101     1.8990054441     0.7491942331
| 17>  H        0.9673130106    -1.3963128840    -1.3718833029
| 18>  H        1.5025493252     0.2783701253    -1.6583721226
| 19>  H        3.3377934800    -1.9205130733     1.5362403203
| 20>  H        3.6686910612    -1.9105811588    -0.2560311637
| 21>  H        3.8207135074     0.6190987962    -0.2145183000
| 22>  H        3.4896168623     0.6091591561     1.5788673753
| 23>  H        0.8093780113     0.2575126546     2.0960862076
| 24>  H        0.4150471961    -1.4129212715     1.6193774728
| 25>  H       -3.2728573744    -1.6713666603    -0.6097644574
| 26> *
| 27>
| 28>                          ****END OF INPUT****

CARTESIAN COORDINATES (ANGSTROEM)
---------------------------------
  C     -0.198861    1.573769   -0.024044
  C     -0.032733    0.047283   -0.001835
  C      1.170880   -0.433358   -0.896534
  C      2.018663   -0.557110    0.373547
  C      3.244292   -1.387249    0.595223
  C      3.335370    0.122874    0.620411
  C      0.773021   -0.445319    1.258431
  C     -1.300304   -0.621706   -0.239544
  C     -2.348743   -1.178363   -0.436266
  H      0.764163    2.061598    0.156466
  H     -0.579593    1.908667   -0.993626
  H     -0.901376    1.899005    0.749194
  H      0.967313   -1.396313   -1.371883
  H      1.502549    0.278370   -1.658372
  H      3.337793   -1.920513    1.536240
  H      3.668691   -1.910581   -0.256031
  H      3.820714    0.619099   -0.214518
  H      3.489617    0.609159    1.578867
  H      0.809378    0.257513    2.096086
  H      0.415047   -1.412921    1.619377
  H     -3.272857   -1.671367   -0.609764

 Total Charge           Charge          ....    0
 Multiplicity           Mult            ....    1
 Number of Electrons    NEL             ....   66
 Basis Dimension        Dim             ....  351

ORBITAL ENERGIES
----------------

  NO   OCC          E(Eh)            E(eV)
   0   2.0000     -11.259192      -306.3782
   1   2.0000     -11.236776      -305.7682
   2   2.0000     -11.227416      -305.5135
   3   2.0000     -11.227389      -305.5128
   4   2.0000     -11.226187      -305.4801
   5   2.0000     -11.224690      -305.4394
   6   2.0000     -11.223099      -305.3961
   7   2.0000     -11.220718      -305.3313
   8   2.0000     -11.215222      -305.1817
   9   2.0000      -1.174765       -31.9670
  10   2.0000      -1.101213       -29.9655
  11   2.0000      -1.011516       -27.5247
  12   2.0000      -0.960641       -26.1404
  13   2.0000      -0.910973       -24.7888
  14   2.0000      -0.836587       -22.7647
  15   2.0000      -0.824319       -22.4309
  16   2.0000      -0.727410       -19.7938
  17   2.0000      -0.703532       -19.1441
  18   2.0000      -0.665807       -18.1175
  19   2.0000      -0.647665       -17.6239
  20   2.0000      -0.634256       -17.2590
  21   2.0000      -0.585090       -15.9211
  22   2.0000      -0.569769       -15.5042
  23   2.0000      -0.545444       -14.8423
  24   2.0000      -0.527525       -14.3547
  25   2.0000      -0.511007       -13.9052
  26   2.0000      -0.507117       -13.7994
  27   2.0000      -0.478856       -13.0303
  28   2.0000      -0.447350       -12.1730
  29   2.0000      -0.412612       -11.2277
  30   2.0000      -0.397452       -10.8152
  31   2.0000      -0.372455       -10.1350
  32   2.0000      -0.371541       -10.1101
  33   0.0000       0.136327         3.7096
  34   0.0000       0.151001         4.1090
  35   0.0000       0.159500         4.3402
  36   0.0000       0.173427         4.7192
  37   0.0000       0.174318         4.7434

MULLIKEN ATOMIC CHARGES
-----------------------
   0 C :   -0.449462
   1 C :    0.043689
   2 C :   -0.208647
   3 C :    0.010736
   4 C :   -0.284716
   5 C :   -0.296265
   6 C :   -0.208648
   7 C :   -0.040040
   8 C :   -0.150130
   9 H :    0.143157
  10 H :    0.136677
  11 H :    0.136677
  12 H :    0.121324
  13 H :    0.117063
  14 H :    0.127221
  15 H :    0.127220
  16 H :    0.123935
  17 H :    0.123936
  18 H :    0.117062
  19 H :    0.121325
  20 H :    0.187886
Sum of atomic charges:   -0.0000000

LOEWDIN ATOMIC CHARGES
----------------------
   0 C :   -0.249803
   1 C :   -0.248880
   2 C :   -0.135658
   3 C :   -0.231808
   4 C :   -0.212205
   5 C :   -0.210793
   6 C :   -0.135663
   7 C :   -0.073353
   8 C :   -0.102223
   9 H :    0.130393
  10 H :    0.129449
  11 H :    0.129449
  12 H :    0.142761
  13 H :    0.133478
  14 H :    0.134139
  15 H :    0.134139
  16 H :    0.132392
  17 H :    0.132392
  18 H :    0.133478
  19 H :    0.142762
  20 H :    0.125554

  Mayer bond orders larger than 0.1
B(  0-C ,  1-C ) :   0.8973 B(  0-C ,  9-H ) :   0.9335 B(  0-C , 10-H ) :   0.9362
B(  0-C , 11-H ) :   0.9362 B(  1-C ,  2-C ) :   0.9035 B(  1-C ,  6-C ) :   0.9035
B(  1-C ,  7-C ) :   1.1852 B(  1-C ,  8-C ) :  -0.1136 B(  2-C ,  3-C ) :   0.9228
B(  2-C , 12-H ) :   0.9074 B(  2-C , 13-H ) :   0.9121 B(  3-C ,  4-C ) :   0.8424
B(  3-C ,  5-C ) :   0.8462 B(  3-C ,  6-C ) :   0.9228 B(  4-C ,  5-C ) :   0.9546
B(  4-C , 14-H ) :   0.9220 B(  4-C , 15-H ) :   0.9220 B(  5-C , 16-H ) :   0.9221
B(  5-C , 17-H ) :   0.9221 B(  6-C , 18-H ) :   0.9121 B(  6-C , 19-H ) :   0.9074
B(  7-C ,  8-C ) :   2.5825 B(  8-C , 20-H ) :   0.8841

MP2 TOTAL ENERGY:     -349.241041075 Eh
FINAL SINGLE POINT ENERGY      -349.241041074996

DIPOLE MOMENT
-------------
                                X             Y             Z
Electronic contribution:     -4.11378      -2.57283      -0.77368
Nuclear contribution   :      4.33636       2.66681       0.81523
                        -----------------------------------------
Total Dipole Moment    :      0.22258       0.09398       0.04155
                        -----------------------------------------
Magnitude (a.u.)       :      0.24516
Magnitude (Debye)      :      0.62314

                             ****ORCA TERMINATED NORMALLY****
TOTAL RUN TIME: 0 days 0 hours 19 minutes 43 seconds 562 msec
