                         Program Version 3.0.3 - RELEASE   -
|  1> ! RI-MP2 RIJK def2-TZVP def2-TZVP/C def2-TZVP/JK TIGHTSCF
|  2> % maxcore 2000
|  3> % mp2 density relaxed end
|  4> *xyz 0 1
|  5>  C        0.3031465412     1.6427039869     0.4350600411
|  6>  C        1.5547114750     1.8854222409    -0.4117703234
|  7>  O        2.1354385049     0.6040083469    -0.6181331098
|  8>  C        1.1489392896    -0.4450391047    -0.4374013720
|  9>  C       -0.1682166230     0.2977030697    -0.1279245718
| 10>  C        1.1018483197    -1.3736425455    -1.6784555352
| 11>  C        1.9781206348    -2.6024057775    -1.3386987568
| 12>  C        2.1039334901    -2.5239660302     0.1635228078
| 13>  C        1.6441538206    -1.3744409162     0.6509129983
| 14>  H        0.5725880567     1.5500371069     1.4927813173
| 15>  H       -0.4391497265     2.4396649771     0.3427672334
| 16>  H        1.2860446942     2.3470277752    -1.3763100809
| 17>  H        2.2971401174     2.5279721055     0.0730545288
| 18>  H       -0.8062827171    -0.2697634063     0.5540043596
| 19>  H       -0.7298066728     0.4551714312    -1.0560574014
| 20>  H        0.0691175490    -1.6955053012    -1.8477590697
| 21>  H        1.4335661118    -0.8327941593    -2.5674535669
| 22>  H        1.5250339448    -3.5421512000    -1.6748378786
| 23>  H        2.9677000819    -2.5518188785    -1.8115364426
| 24>  H        2.5504066086    -3.3186298004     0.7522263965
| 25>  H        1.6645496690    -1.0716482107     1.6923223365
| 26> *
| 27>
| 28>                          ****END OF INPUT****

CARTESIAN COORDINATES (ANGSTROEM)
---------------------------------
  C      0.303147    1.642704    0.435060
  C      1.554711    1.885422   -0.411770
  O      2.135439    0.604008   -0.618133
  C      1.148939   -0.445039   -0.437401
  C     -0.168217    0.297703   -0.127925
  C      1.101848   -1.373643   -1.678456
  C      1.978121   -2.602406   -1.338699
  C      2.103933   -2.523966    0.163523
  C      1.644154   -1.374441    0.650913
  H      0.572588    1.550037    1.492781
  H     -0.439150    2.439665    0.342767
  H      1.286045    2.347028   -1.376310
  H      2.297140    2.527972    0.073055
  H     -0.806283   -0.269763    0.554004
  H     -0.729807    0.455171   -1.056057
  H      0.069118   -1.695505   -1.847759
  H      1.433566   -0.832794   -2.567454
  H      1.525034   -3.542151   -1.674838
  H      2.967700   -2.551819   -1.811536
  H      2.550407   -3.318630    0.752226
  H      1.664550   -1.071648    1.692322

 Total Charge           Charge          ....    0
 Multiplicity           Mult            ....    1
 Number of Electrons    NEL             ....   68
 Basis Dimension        Dim             ....  351

ORBITAL ENERGIES
----------------

  NO   OCC          E(Eh)            E(eV)
   0   2.0000     -20.538339      -558.8766
   1   2.0000     -11.280279      -306.9520
   2   2.0000     -11.266679      -306.5819
   3   2.0000     -11.223807      -305.4153
   4   2.0000     -11.223568      -305.4088
   5   2.0000     -11.222956      -305.3922
   6   2.0000     -11.220819      -305.3340
   7   2.0000     -11.215227      -305.1818
   8   2.0000     -11.214302      -305.1567
   9   2.0000      -1.362335       -37.0710
  10   2.0000      -1.124780       -30.6068
  11   2.0000      -1.054237       -28.6872
  12   2.0000      -0.983152       -26.7529
  13   2.0000      -0.964006       -26.2319
  14   2.0000      -0.865799       -23.5596
  15   2.0000      -0.810358       -22.0510
  16   2.0000      -0.765558       -20.8319
  17   2.0000      -0.724422       -19.7125
  18   2.0000      -0.679430       -18.4882
  19   2.0000      -0.661898       -18.0112
  20   2.0000      -0.634756       -17.2726
  21   2.0000      -0.608740       -16.5647
  22   2.0000      -0.584709       -15.9107
  23   2.0000      -0.559519       -15.2253
  24   2.0000      -0.544700       -14.8221
  25   2.0000      -0.515906       -14.0385
  26   2.0000      -0.499437       -13.5904
  27   2.0000      -0.496752       -13.5173
  28   2.0000      -0.485896       -13.2219
  29   2.0000      -0.475524       -12.9397
  30   2.0000      -0.466244       -12.6871
  31   2.0000      -0.449369       -12.2280
  32   2.0000      -0.400167       -10.8891
  33   2.0000      -0.349244        -9.5034
  34   0.0000       0.137360         3.7378
  35   0.0000       0.154672         4.2088
  36   0.0000       0.162730         4.4281
  37   0.0000       0.163524         4.4497
  38   0.0000       0.177547         4.8313

MULLIKEN ATOMIC CHARGES
-----------------------
   0 C :   -0.249958
   1 C :   -0.039520
   2 O :   -0.328700
   3 C :    0.389370
   4 C :   -0.275117
   5 C :   -0.315647
   6 C :   -0.167949
   7 C :   -0.156489
   8 C :   -0.272893
   9 H :    0.112403
  10 H :    0.125054
  11 H :    0.083578
  12 H :    0.110882
  13 H :    0.132585
  14 H :    0.123467
  15 H :    0.116560
  16 H :    0.127022
  17 H :    0.118582
  18 H :    0.118846
  19 H :    0.126148
  20 H :    0.121776
Sum of atomic charges:   -0.0000000

LOEWDIN ATOMIC CHARGES
----------------------
   0 C :   -0.264738
   1 C :   -0.311761
   2 O :    0.179593
   3 C :   -0.299743
   4 C :   -0.221427
   5 C :   -0.198685
   6 C :   -0.240303
   7 C :   -0.148247
   8 C :   -0.126744
   9 H :    0.136944
  10 H :    0.135508
  11 H :    0.117405
  12 H :    0.123523
  13 H :    0.141594
  14 H :    0.142718
  15 H :    0.141164
  16 H :    0.139943
  17 H :    0.136050
  18 H :    0.142585
  19 H :    0.135931
  20 H :    0.138691

  Mayer bond orders larger than 0.1
B(  0-C ,  1-C ) :   0.9562 B(  0-C ,  4-C ) :   0.9368 B(  0-C ,  9-H ) :   0.9251
B(  0-C , 10-H ) :   0.9240 B(  1-C ,  2-O ) :   0.9560 B(  1-C , 11-H ) :   0.9268
B(  1-C , 12-H ) :   0.9224 B(  2-O ,  3-C ) :   0.9024 B(  3-C ,  4-C ) :   0.8751
B(  3-C ,  5-C ) :   0.8383 B(  3-C ,  8-C ) :   0.9119 B(  4-C , 13-H ) :   0.9240
B(  4-C , 14-H ) :   0.9367 B(  5-C ,  6-C ) :   0.9894 B(  5-C , 15-H ) :   0.9246
B(  5-C , 16-H ) :   0.9287 B(  6-C ,  7-C ) :   0.9393 B(  6-C , 17-H ) :   0.9304
B(  6-C , 18-H ) :   0.9036 B(  7-C ,  8-C ) :   1.8033 B(  7-C , 19-H ) :   0.9280
B(  8-C , 20-H ) :   0.9195

MP2 TOTAL ENERGY:     -386.432837725 Eh
FINAL SINGLE POINT ENERGY      -386.432837724812

DIPOLE MOMENT
-------------
                                X             Y             Z
Electronic contribution:      2.57009      -0.62259       0.81250
Nuclear contribution   :     -3.11844       0.67634      -0.71348
                        -----------------------------------------
Total Dipole Moment    :     -0.54835       0.05375       0.09902
                        -----------------------------------------
Magnitude (a.u.)       :      0.55980
Magnitude (Debye)      :      1.42291

                             ****ORCA TERMINATED NORMALLY****
TOTAL RUN TIME: 0 days 0 hours 19 minutes 1 seconds 185 msec
