                         Program Version 3.0.3 - RELEASE   -
|  1> ! RI-MP2 RIJK def2-TZVP def2-TZVP/C def2-TZVP/JK TIGHTSCF
|  2> % maxcore 2000
|  3> % mp2 density relaxed end
|  4> *xyz 0 1
|  5>  N       -0.0420084330     1.3763528064     0.1020375039
|  6>  C        0.0305979336    -0.0080530700     0.0278330419
|  7>  N       -1.0280982755    -0.7846299899     0.0653694193
|  8>  O       -0.5530761386    -2.0890431041     0.0426085841
|  9>  C        0.8103441135    -2.0603132647    -0.0092804195
| 10>  C        1.5274287644    -3.2661062705    -0.0333928458
| 11>  C        2.1806016769    -4.2791162694    -0.0505152940
| 12>  C        1.2423028311    -0.7621929211    -0.0213112553
| 13>  N        2.5247727363    -0.2281678274    -0.1291170892
| 14>  H        0.5663625628     1.8346027017    -0.5659687364
| 15>  H       -0.9926517075     1.7134810023     0.0127449039
| 16>  H        2.7438870736    -5.1792705533    -0.0684975132
| 17>  H        3.2469524086    -0.9330610332    -0.0448706378
| 18>  H        2.6915248337     0.5168577232     0.5381976981
| 19> *
| 20>
| 21>                          ****END OF INPUT****

CARTESIAN COORDINATES (ANGSTROEM)
---------------------------------
  N     -0.042008    1.376353    0.102038
  C      0.030598   -0.008053    0.027833
  N     -1.028098   -0.784630    0.065369
  O     -0.553076   -2.089043    0.042609
  C      0.810344   -2.060313   -0.009280
  C      1.527429   -3.266106   -0.033393
  C      2.180602   -4.279116   -0.050515
  C      1.242303   -0.762193   -0.021311
  N      2.524773   -0.228168   -0.129117
  H      0.566363    1.834603   -0.565969
  H     -0.992652    1.713481    0.012745
  H      2.743887   -5.179271   -0.068498
  H      3.246952   -0.933061   -0.044871
  H      2.691525    0.516858    0.538198

 Total Charge           Charge          ....    0
 Multiplicity           Mult            ....    1
 Number of Electrons    NEL             ....   64
 Basis Dimension        Dim             ....  309

ORBITAL ENERGIES
----------------

  NO   OCC          E(Eh)            E(eV)
   0   2.0000     -20.632155      -561.4295
   1   2.0000     -15.610193      -424.7750
   2   2.0000     -15.587484      -424.1570
   3   2.0000     -15.585866      -424.1130
   4   2.0000     -11.319829      -308.0282
   5   2.0000     -11.317170      -307.9559
   6   2.0000     -11.288403      -307.1731
   7   2.0000     -11.258240      -306.3523
   8   2.0000     -11.253400      -306.2206
   9   2.0000      -1.481750       -40.3205
  10   2.0000      -1.262749       -34.3612
  11   2.0000      -1.225709       -33.3533
  12   2.0000      -1.125168       -30.6174
  13   2.0000      -1.077784       -29.3280
  14   2.0000      -1.021519       -27.7969
  15   2.0000      -0.875904       -23.8346
  16   2.0000      -0.811567       -22.0839
  17   2.0000      -0.768663       -20.9164
  18   2.0000      -0.724213       -19.7068
  19   2.0000      -0.705737       -19.2041
  20   2.0000      -0.688313       -18.7300
  21   2.0000      -0.674709       -18.3598
  22   2.0000      -0.646633       -17.5958
  23   2.0000      -0.602827       -16.4038
  24   2.0000      -0.575123       -15.6499
  25   2.0000      -0.528165       -14.3721
  26   2.0000      -0.504763       -13.7353
  27   2.0000      -0.480651       -13.0792
  28   2.0000      -0.448824       -12.2131
  29   2.0000      -0.418340       -11.3836
  30   2.0000      -0.366039        -9.9604
  31   2.0000      -0.318775        -8.6743
  32   0.0000       0.089539         2.4365
  33   0.0000       0.117636         3.2010
  34   0.0000       0.143187         3.8963
  35   0.0000       0.152862         4.1596
  36   0.0000       0.156931         4.2703

MULLIKEN ATOMIC CHARGES
-----------------------
   0 N :   -0.536940
   1 C :    0.157435
   2 N :   -0.149345
   3 O :   -0.118942
   4 C :    0.015312
   5 C :    0.012090
   6 C :   -0.110802
   7 C :    0.031021
   8 N :   -0.549834
   9 H :    0.264887
  10 H :    0.260759
  11 H :    0.201369
  12 H :    0.257111
  13 H :    0.265880
Sum of atomic charges:    0.0000000

LOEWDIN ATOMIC CHARGES
----------------------
   0 N :   -0.072838
   1 C :   -0.370785
   2 N :    0.031843
   3 O :    0.282647
   4 C :   -0.263504
   5 C :   -0.079919
   6 C :   -0.057699
   7 C :   -0.230465
   8 N :   -0.074084
   9 H :    0.175625
  10 H :    0.177092
  11 H :    0.130850
  12 H :    0.175686
  13 H :    0.175550

  Mayer bond orders larger than 0.1
B(  0-N ,  1-C ) :   1.0461 B(  0-N ,  9-H ) :   0.8628 B(  0-N , 10-H ) :   0.8717
B(  1-C ,  2-N ) :   1.6014 B(  1-C ,  7-C ) :   1.2139 B(  2-N ,  3-O ) :   0.8750
B(  3-O ,  4-C ) :   1.0956 B(  4-C ,  5-C ) :   1.2084 B(  4-C ,  6-C ) :  -0.1414
B(  4-C ,  7-C ) :   1.4227 B(  5-C ,  6-C ) :   2.5956 B(  6-C , 11-H ) :   0.8688
B(  7-C ,  8-N ) :   1.0307 B(  8-N , 12-H ) :   0.8752 B(  8-N , 13-H ) :   0.8660

MP2 TOTAL ENERGY:     -432.093340526 Eh
FINAL SINGLE POINT ENERGY      -432.093340525680

DIPOLE MOMENT
-------------
                                X             Y             Z
Electronic contribution:     -3.00855      -3.37437       0.07640
Nuclear contribution   :      4.31616       3.99614      -0.12144
                        -----------------------------------------
Total Dipole Moment    :      1.30761       0.62176      -0.04504
                        -----------------------------------------
Magnitude (a.u.)       :      1.44861
Magnitude (Debye)      :      3.68207

                             ****ORCA TERMINATED NORMALLY****
TOTAL RUN TIME: 0 days 0 hours 16 minutes 49 seconds 182 msec
