                         Program Version 3.0.3 - RELEASE   -
|  1> ! RI-MP2 RIJK def2-TZVP def2-TZVP/C def2-TZVP/JK TIGHTSCF
|  2> % maxcore 2000
|  3> % mp2 density relaxed end
|  4> *xyz 0 1
|  5>  O       -0.2205731053     1.5337336822    -0.2682285822
|  6>  C       -0.0060409394     0.1361114716    -0.0649551545
|  7>  C       -1.4197281524    -0.4539593873     0.0571351915
|  8>  C       -1.6008986890    -1.9565686360    -0.1937101225
|  9>  C       -0.9033195097    -2.9359574103     0.7616757361
| 10>  C        0.6382847623    -2.9025723548     0.8173702470
| 11>  C        1.3820400760    -2.7252657261    -0.5231364082
| 12>  O        1.8210183320    -1.4010255273    -0.7821058938
| 13>  C        0.8676254193    -0.4472328689    -1.2050318823
| 14>  H        0.6272244318     1.9807428713    -0.1778892522
| 15>  H        0.5568227139    -0.0224082606     0.8656562684
| 16>  H       -1.8201136889    -0.1865641027     1.0423164008
| 17>  H       -2.0311489200     0.0876620280    -0.6751236579
| 18>  H       -2.6768675563    -2.1646649133    -0.1503636356
| 19>  H       -1.3104374659    -2.1899328055    -1.2247495929
| 20>  H       -1.2914240662    -2.7923397158     1.7784605551
| 21>  H       -1.2140807378    -3.9466107404     0.4667971993
| 22>  H        0.9913802387    -2.1098663370     1.4848102818
| 23>  H        0.9729347980    -3.8412999906     1.2746111719
| 24>  H        2.3058746599    -3.3116807717    -0.5020434941
| 25>  H        0.7809004406    -3.1039371697    -1.3650679558
| 26>  H        0.2478394427    -0.8389596420    -2.0261621801
| 27>  H        1.4565341056     0.3792996870    -1.6184129096
| 28> *
| 29>
| 30>                          ****END OF INPUT****

CARTESIAN COORDINATES (ANGSTROEM)
---------------------------------
  O     -0.220573    1.533734   -0.268229
  C     -0.006041    0.136111   -0.064955
  C     -1.419728   -0.453959    0.057135
  C     -1.600899   -1.956569   -0.193710
  C     -0.903320   -2.935957    0.761676
  C      0.638285   -2.902572    0.817370
  C      1.382040   -2.725266   -0.523136
  O      1.821018   -1.401026   -0.782106
  C      0.867625   -0.447233   -1.205032
  H      0.627224    1.980743   -0.177889
  H      0.556823   -0.022408    0.865656
  H     -1.820114   -0.186564    1.042316
  H     -2.031149    0.087662   -0.675124
  H     -2.676868   -2.164665   -0.150364
  H     -1.310437   -2.189933   -1.224750
  H     -1.291424   -2.792340    1.778461
  H     -1.214081   -3.946611    0.466797
  H      0.991380   -2.109866    1.484810
  H      0.972935   -3.841300    1.274611
  H      2.305875   -3.311681   -0.502043
  H      0.780900   -3.103937   -1.365068
  H      0.247839   -0.838960   -2.026162
  H      1.456534    0.379300   -1.618413

 Total Charge           Charge          ....    0
 Multiplicity           Mult            ....    1
 Number of Electrons    NEL             ....   72
 Basis Dimension        Dim             ....  363

ORBITAL ENERGIES
----------------

  NO   OCC          E(Eh)            E(eV)
   0   2.0000     -20.553920      -559.3006
   1   2.0000     -20.551205      -559.2267
   2   2.0000     -11.277288      -306.8706
   3   2.0000     -11.273818      -306.7762
   4   2.0000     -11.271730      -306.7194
   5   2.0000     -11.223292      -305.4013
   6   2.0000     -11.221850      -305.3621
   7   2.0000     -11.221427      -305.3506
   8   2.0000     -11.217353      -305.2397
   9   2.0000      -1.372705       -37.3532
  10   2.0000      -1.356474       -36.9115
  11   2.0000      -1.084739       -29.5173
  12   2.0000      -1.045020       -28.4364
  13   2.0000      -0.954633       -25.9769
  14   2.0000      -0.947785       -25.7906
  15   2.0000      -0.840739       -22.8777
  16   2.0000      -0.808158       -21.9911
  17   2.0000      -0.758378       -20.6365
  18   2.0000      -0.698351       -19.0031
  19   2.0000      -0.674168       -18.3450
  20   2.0000      -0.661229       -17.9930
  21   2.0000      -0.623114       -16.9558
  22   2.0000      -0.613913       -16.7054
  23   2.0000      -0.597341       -16.2545
  24   2.0000      -0.584417       -15.9028
  25   2.0000      -0.576539       -15.6884
  26   2.0000      -0.541597       -14.7376
  27   2.0000      -0.521785       -14.1985
  28   2.0000      -0.509604       -13.8670
  29   2.0000      -0.487616       -13.2687
  30   2.0000      -0.479518       -13.0484
  31   2.0000      -0.470966       -12.8156
  32   2.0000      -0.458677       -12.4812
  33   2.0000      -0.449531       -12.2324
  34   2.0000      -0.440692       -11.9918
  35   2.0000      -0.399381       -10.8677
  36   0.0000       0.134232         3.6527
  37   0.0000       0.144215         3.9243
  38   0.0000       0.153031         4.1642
  39   0.0000       0.168739         4.5916
  40   0.0000       0.187912         5.1133

MULLIKEN ATOMIC CHARGES
-----------------------
   0 O :   -0.464186
   1 C :    0.092978
   2 C :   -0.254173
   3 C :   -0.182035
   4 C :   -0.265379
   5 C :   -0.209668
   6 C :   -0.095303
   7 O :   -0.310878
   8 C :   -0.112755
   9 H :    0.313854
  10 H :    0.079789
  11 H :    0.115412
  12 H :    0.132131
  13 H :    0.127627
  14 H :    0.103638
  15 H :    0.113501
  16 H :    0.120658
  17 H :    0.114569
  18 H :    0.122899
  19 H :    0.127395
  20 H :    0.106327
  21 H :    0.110517
  22 H :    0.113080
Sum of atomic charges:   -0.0000000

LOEWDIN ATOMIC CHARGES
----------------------
   0 O :   -0.023370
   1 C :   -0.350143
   2 C :   -0.251551
   3 C :   -0.276368
   4 C :   -0.275257
   5 C :   -0.276610
   6 C :   -0.318247
   7 O :    0.150343
   8 C :   -0.309328
   9 H :    0.171306
  10 H :    0.133141
  11 H :    0.141120
  12 H :    0.149560
  13 H :    0.142877
  14 H :    0.133244
  15 H :    0.138519
  16 H :    0.139156
  17 H :    0.138535
  18 H :    0.140326
  19 H :    0.129909
  20 H :    0.120665
  21 H :    0.122570
  22 H :    0.129602

  Mayer bond orders larger than 0.1
B(  0-O ,  1-C ) :   0.9856 B(  0-O ,  9-H ) :   0.8465 B(  1-C ,  2-C ) :   0.9261
B(  1-C ,  8-C ) :   0.8666 B(  1-C , 10-H ) :   0.9381 B(  2-C ,  3-C ) :   0.9059
B(  2-C , 11-H ) :   0.9291 B(  2-C , 12-H ) :   0.9228 B(  3-C ,  4-C ) :   0.9084
B(  3-C , 13-H ) :   0.9352 B(  3-C , 14-H ) :   0.9327 B(  4-C ,  5-C ) :   0.9308
B(  4-C , 15-H ) :   0.9336 B(  4-C , 16-H ) :   0.9338 B(  5-C ,  6-C ) :   0.8904
B(  5-C , 17-H ) :   0.9247 B(  5-C , 18-H ) :   0.9255 B(  6-C ,  7-O ) :   0.9370
B(  6-C , 19-H ) :   0.9329 B(  6-C , 20-H ) :   0.9469 B(  7-O ,  8-C ) :   0.9325
B(  8-C , 21-H ) :   0.9375 B(  8-C , 22-H ) :   0.9335

MP2 TOTAL ENERGY:     -424.719835786 Eh
FINAL SINGLE POINT ENERGY      -424.719835785799

DIPOLE MOMENT
-------------
                                X             Y             Z
Electronic contribution:      3.32691       4.51207      -1.27047
Nuclear contribution   :     -3.31072      -4.95461       1.41781
                        -----------------------------------------
Total Dipole Moment    :      0.01619      -0.44254       0.14735
                        -----------------------------------------
Magnitude (a.u.)       :      0.46671
Magnitude (Debye)      :      1.18628

                             ****ORCA TERMINATED NORMALLY****
TOTAL RUN TIME: 0 days 0 hours 19 minutes 43 seconds 272 msec
