                         Program Version 3.0.3 - RELEASE   -
|  1> ! RI-MP2 RIJK def2-TZVP def2-TZVP/C def2-TZVP/JK TIGHTSCF
|  2> % maxcore 2000
|  3> % mp2 density relaxed end
|  4> *xyz 0 1
|  5>  N       -0.0043179946     1.1073791041     0.6197946357
|  6>  C       -0.0180655206    -0.0454220128     0.1151704072
|  7>  O       -1.1246634322    -0.8205750585     0.2401528687
|  8>  C       -0.9981069886    -2.1724379352    -0.1804437960
|  9>  O       -0.3677979201    -2.9687013739     0.7662388507
| 10>  C       -1.3427425511    -3.3455293604     1.7655219376
| 11>  C       -2.6483718601    -3.5549647651     0.9928261485
| 12>  C       -2.4427078536    -2.7199509333    -0.2715394243
| 13>  O       -3.2065720245    -2.5398673328    -1.1757351898
| 14>  H        0.8794224288     1.5689887766     0.4141107576
| 15>  H        0.7860462087    -0.5273954494    -0.4560809789
| 16>  H       -0.4458107730    -2.2369957698    -1.1232101442
| 17>  H       -0.9634928009    -4.2447752286     2.2518180158
| 18>  H       -1.4350983313    -2.5477263904     2.5106758335
| 19>  H       -2.7897716899    -4.5999289451     0.6982375709
| 20>  H       -3.5471692769    -3.2318441355     1.5223290269
| 21> *
| 22>
| 23>                          ****END OF INPUT****

CARTESIAN COORDINATES (ANGSTROEM)
---------------------------------
  N     -0.004318    1.107379    0.619795
  C     -0.018066   -0.045422    0.115170
  O     -1.124663   -0.820575    0.240153
  C     -0.998107   -2.172438   -0.180444
  O     -0.367798   -2.968701    0.766239
  C     -1.342743   -3.345529    1.765522
  C     -2.648372   -3.554965    0.992826
  C     -2.442708   -2.719951   -0.271539
  O     -3.206572   -2.539867   -1.175735
  H      0.879422    1.568989    0.414111
  H      0.786046   -0.527395   -0.456081
  H     -0.445811   -2.236996   -1.123210
  H     -0.963493   -4.244775    2.251818
  H     -1.435098   -2.547726    2.510676
  H     -2.789772   -4.599929    0.698238
  H     -3.547169   -3.231844    1.522329

 Total Charge           Charge          ....    0
 Multiplicity           Mult            ....    1
 Number of Electrons    NEL             ....   68
 Basis Dimension        Dim             ....  321

ORBITAL ENERGIES
----------------

  NO   OCC          E(Eh)            E(eV)
   0   2.0000     -20.609355      -560.8091
   1   2.0000     -20.595069      -560.4203
   2   2.0000     -20.573336      -559.8289
   3   2.0000     -15.550218      -423.1429
   4   2.0000     -11.369234      -309.3726
   5   2.0000     -11.353478      -308.9438
   6   2.0000     -11.348489      -308.8081
   7   2.0000     -11.306272      -307.6593
   8   2.0000     -11.259436      -306.3848
   9   2.0000      -1.471435       -40.0398
  10   2.0000      -1.414976       -38.5034
  11   2.0000      -1.400183       -38.1009
  12   2.0000      -1.209047       -32.8998
  13   2.0000      -1.072541       -29.1853
  14   2.0000      -1.007882       -27.4259
  15   2.0000      -0.884950       -24.0807
  16   2.0000      -0.830121       -22.5887
  17   2.0000      -0.799241       -21.7484
  18   2.0000      -0.740019       -20.1369
  19   2.0000      -0.726255       -19.7624
  20   2.0000      -0.694694       -18.9036
  21   2.0000      -0.670912       -18.2564
  22   2.0000      -0.645193       -17.5566
  23   2.0000      -0.629086       -17.1183
  24   2.0000      -0.604913       -16.4605
  25   2.0000      -0.589532       -16.0420
  26   2.0000      -0.580635       -15.7999
  27   2.0000      -0.552726       -15.0404
  28   2.0000      -0.536175       -14.5901
  29   2.0000      -0.516715       -14.0605
  30   2.0000      -0.475639       -12.9428
  31   2.0000      -0.448156       -12.1949
  32   2.0000      -0.423449       -11.5226
  33   2.0000      -0.416344       -11.3293
  34   0.0000       0.111058         3.0220
  35   0.0000       0.135755         3.6941
  36   0.0000       0.144458         3.9309
  37   0.0000       0.154173         4.1953
  38   0.0000       0.169604         4.6152

MULLIKEN ATOMIC CHARGES
-----------------------
   0 N :   -0.329162
   1 C :    0.056052
   2 O :   -0.225508
   3 C :    0.216695
   4 O :   -0.304179
   5 C :   -0.070993
   6 C :   -0.214273
   7 C :    0.103348
   8 O :   -0.242704
   9 H :    0.228988
  10 H :    0.088533
  11 H :    0.132015
  12 H :    0.135566
  13 H :    0.125817
  14 H :    0.146227
  15 H :    0.153579
Sum of atomic charges:    0.0000000

LOEWDIN ATOMIC CHARGES
----------------------
   0 N :   -0.070187
   1 C :   -0.385969
   2 O :    0.258113
   3 C :   -0.377855
   4 O :    0.187971
   5 C :   -0.271351
   6 C :   -0.228338
   7 C :   -0.291629
   8 O :    0.186302
   9 H :    0.170703
  10 H :    0.109847
  11 H :    0.140181
  12 H :    0.129652
  13 H :    0.129063
  14 H :    0.157779
  15 H :    0.155718

  Mayer bond orders larger than 0.1
B(  0-N ,  1-C ) :   1.9765 B(  0-N ,  9-H ) :   0.8492 B(  1-C ,  2-O ) :   1.0198
B(  1-C , 10-H ) :   0.9270 B(  2-O ,  3-C ) :   0.9121 B(  3-C ,  4-O ) :   1.0175
B(  3-C ,  7-C ) :   0.8612 B(  3-C , 11-H ) :   0.9028 B(  4-O ,  5-C ) :   0.8703
B(  5-C ,  6-C ) :   0.9699 B(  5-C , 12-H ) :   0.9268 B(  5-C , 13-H ) :   0.9275
B(  6-C ,  7-C ) :   0.9036 B(  6-C , 14-H ) :   0.8984 B(  6-C , 15-H ) :   0.9058
B(  7-C ,  8-O ) :   2.0305

MP2 TOTAL ENERGY:     -474.279787839 Eh
FINAL SINGLE POINT ENERGY      -474.279787839302

DIPOLE MOMENT
-------------
                                X             Y             Z
Electronic contribution:     -0.95522       1.40378      -3.07498
Nuclear contribution   :      1.70950      -2.43011       3.36188
                        -----------------------------------------
Total Dipole Moment    :      0.75428      -1.02633       0.28690
                        -----------------------------------------
Magnitude (a.u.)       :      1.30560
Magnitude (Debye)      :      3.31858

                             ****ORCA TERMINATED NORMALLY****
TOTAL RUN TIME: 0 days 0 hours 14 minutes 14 seconds 355 msec
