                         Program Version 3.0.3 - RELEASE   -
|  1> ! RI-MP2 RIJK def2-TZVP def2-TZVP/C def2-TZVP/JK TIGHTSCF
|  2> % maxcore 2000
|  3> % mp2 density relaxed end
|  4> *xyz 0 1
|  5>  C        0.5161699221     1.0491999862    -0.5355566959
|  6>  O       -0.1189888718     0.3250203118     0.5155497281
|  7>  C        0.5972830146    -0.6763412017     1.0452510443
|  8>  N        0.1196562897    -1.3489106503     2.0012608944
|  9>  C        0.8834208078    -2.4581219410     2.5530113172
| 10>  C        0.0261311860    -3.7310530967     2.3506287807
| 11>  O       -0.2672594035    -4.4922538325     3.2270284842
| 12>  C        2.2089227819    -2.7213505758     1.9840958143
| 13>  C        3.2753223422    -2.9673592861     1.4840125714
| 14>  H        0.7639517075     0.3940548930    -1.3787175169
| 15>  H       -0.2018188368     1.8007785225    -0.8643262982
| 16>  H        1.4254108665     1.5489967678    -0.1823092654
| 17>  H        1.5845351404    -0.8361389303     0.5938528078
| 18>  H        0.9677041376    -2.3179184716     3.6365081135
| 19>  H       -0.2983334288    -3.8667693787     1.2964846290
| 20>  H        4.2281365246    -3.1884395867     1.0688578614
| 21> *
| 22>
| 23>                          ****END OF INPUT****

CARTESIAN COORDINATES (ANGSTROEM)
---------------------------------
  C      0.516170    1.049200   -0.535557
  O     -0.118989    0.325020    0.515550
  C      0.597283   -0.676341    1.045251
  N      0.119656   -1.348911    2.001261
  C      0.883421   -2.458122    2.553011
  C      0.026131   -3.731053    2.350629
  O     -0.267259   -4.492254    3.227028
  C      2.208923   -2.721351    1.984096
  C      3.275322   -2.967359    1.484013
  H      0.763952    0.394055   -1.378718
  H     -0.201819    1.800779   -0.864326
  H      1.425411    1.548997   -0.182309
  H      1.584535   -0.836139    0.593853
  H      0.967704   -2.317918    3.636508
  H     -0.298333   -3.866769    1.296485
  H      4.228137   -3.188440    1.068858

 Total Charge           Charge          ....    0
 Multiplicity           Mult            ....    1
 Number of Electrons    NEL             ....   66
 Basis Dimension        Dim             ....  321

ORBITAL ENERGIES
----------------

  NO   OCC          E(Eh)            E(eV)
   0   2.0000     -20.608168      -560.7768
   1   2.0000     -20.564617      -559.5917
   2   2.0000     -15.566188      -423.5775
   3   2.0000     -11.352876      -308.9275
   4   2.0000     -11.339547      -308.5647
   5   2.0000     -11.307082      -307.6813
   6   2.0000     -11.305287      -307.6325
   7   2.0000     -11.257418      -306.3299
   8   2.0000     -11.250500      -306.1417
   9   2.0000      -1.444176       -39.2980
  10   2.0000      -1.406028       -38.2600
  11   2.0000      -1.249364       -33.9969
  12   2.0000      -1.077972       -29.3331
  13   2.0000      -1.009678       -27.4747
  14   2.0000      -0.960763       -26.1437
  15   2.0000      -0.837591       -22.7920
  16   2.0000      -0.822190       -22.3729
  17   2.0000      -0.755169       -20.5492
  18   2.0000      -0.729687       -19.8558
  19   2.0000      -0.703194       -19.1349
  20   2.0000      -0.678949       -18.4751
  21   2.0000      -0.675317       -18.3763
  22   2.0000      -0.648915       -17.6579
  23   2.0000      -0.615550       -16.7500
  24   2.0000      -0.598164       -16.2769
  25   2.0000      -0.541491       -14.7347
  26   2.0000      -0.539679       -14.6854
  27   2.0000      -0.529226       -14.4010
  28   2.0000      -0.458745       -12.4831
  29   2.0000      -0.441287       -12.0080
  30   2.0000      -0.421705       -11.4752
  31   2.0000      -0.414476       -11.2785
  32   2.0000      -0.388154       -10.5622
  33   0.0000       0.111380         3.0308
  34   0.0000       0.129989         3.5372
  35   0.0000       0.146088         3.9753
  36   0.0000       0.150472         4.0946
  37   0.0000       0.155077         4.2199

MULLIKEN ATOMIC CHARGES
-----------------------
   0 C :   -0.243082
   1 O :   -0.219785
   2 C :    0.083277
   3 N :   -0.229382
   4 C :    0.130741
   5 C :    0.113325
   6 O :   -0.241533
   7 C :   -0.145756
   8 C :   -0.172450
   9 H :    0.136578
  10 H :    0.155041
  11 H :    0.138986
  12 H :    0.094180
  13 H :    0.123352
  14 H :    0.080712
  15 H :    0.195795
Sum of atomic charges:    0.0000000

LOEWDIN ATOMIC CHARGES
----------------------
   0 C :   -0.325693
   1 O :    0.227945
   2 C :   -0.348527
   3 N :    0.116907
   4 C :   -0.283879
   5 C :   -0.247838
   6 O :    0.156651
   7 C :   -0.097071
   8 C :   -0.082213
   9 H :    0.109551
  10 H :    0.120582
  11 H :    0.109960
  12 H :    0.124529
  13 H :    0.172469
  14 H :    0.116207
  15 H :    0.130421

  Mayer bond orders larger than 0.1
B(  0-C ,  1-O ) :   0.8611 B(  0-C ,  9-H ) :   0.9351 B(  0-C , 10-H ) :   0.9378
B(  0-C , 11-H ) :   0.9359 B(  1-O ,  2-C ) :   1.0991 B(  2-C ,  3-N ) :   1.8217
B(  2-C , 12-H ) :   0.9203 B(  3-N ,  4-C ) :   0.8889 B(  4-C ,  5-C ) :   0.8125
B(  4-C ,  7-C ) :   0.9949 B(  4-C , 13-H ) :   0.8953 B(  5-C ,  6-O ) :   2.0164
B(  5-C , 14-H ) :   0.9210 B(  7-C ,  8-C ) :   2.6043 B(  8-C , 15-H ) :   0.9081

MP2 TOTAL ENERGY:     -437.100472752 Eh
FINAL SINGLE POINT ENERGY      -437.100472752216

DIPOLE MOMENT
-------------
                                X             Y             Z
Electronic contribution:     -1.75085      -5.04500       5.04439
Nuclear contribution   :      2.97028       6.01540      -6.51014
                        -----------------------------------------
Total Dipole Moment    :      1.21943       0.97039      -1.46575
                        -----------------------------------------
Magnitude (a.u.)       :      2.13941
Magnitude (Debye)      :      5.43796

                             ****ORCA TERMINATED NORMALLY****
TOTAL RUN TIME: 0 days 0 hours 12 minutes 37 seconds 355 msec
