                         Program Version 3.0.3 - RELEASE   -
|  1> ! RI-MP2 RIJK def2-TZVP def2-TZVP/C def2-TZVP/JK TIGHTSCF
|  2> % maxcore 2000
|  3> % mp2 density relaxed end
|  4> *xyz 0 1
|  5>  C        0.8339853496    -1.7239954513     0.0693702803
|  6>  C       -0.0705128731    -0.7663657693    -0.7087089823
|  7>  C       -1.4942158906    -0.6575222742    -0.1873071907
|  8>  C       -2.4007012584     0.3058734401    -0.9583400558
|  9>  C       -1.8594337704     1.6630577904    -1.0393471402
| 10>  N       -1.4238088558     2.7308489803    -1.1091268016
| 11>  C       -2.1571855490    -1.7397440327     0.5552079481
| 12>  O       -1.6540778117    -0.5810209117     1.2300447994
| 13>  H        1.8684784480    -1.6245245090    -0.2694446215
| 14>  H        0.8008019976    -1.4992337572     1.1385475847
| 15>  H        0.5422240400    -2.7693200659    -0.0721552111
| 16>  H        0.3625518036     0.2411422606    -0.6904925277
| 17>  H       -0.1146993396    -1.0570766401    -1.7664490901
| 18>  H       -2.5564530926    -0.0655463062    -1.9782778663
| 19>  H       -3.3790619054     0.3489575070    -0.4706113705
| 20>  H       -3.2427982723    -1.8289098328     0.5271683693
| 21>  H       -1.6248882799    -2.6649944281     0.7604538559
| 22> *
| 23>
| 24>                          ****END OF INPUT****

CARTESIAN COORDINATES (ANGSTROEM)
---------------------------------
  C      0.833985   -1.723995    0.069370
  C     -0.070513   -0.766366   -0.708709
  C     -1.494216   -0.657522   -0.187307
  C     -2.400701    0.305873   -0.958340
  C     -1.859434    1.663058   -1.039347
  N     -1.423809    2.730849   -1.109127
  C     -2.157186   -1.739744    0.555208
  O     -1.654078   -0.581021    1.230045
  H      1.868478   -1.624525   -0.269445
  H      0.800802   -1.499234    1.138548
  H      0.542224   -2.769320   -0.072155
  H      0.362552    0.241142   -0.690493
  H     -0.114699   -1.057077   -1.766449
  H     -2.556453   -0.065546   -1.978278
  H     -3.379062    0.348958   -0.470611
  H     -3.242798   -1.828910    0.527168
  H     -1.624888   -2.664994    0.760454

 Total Charge           Charge          ....    0
 Multiplicity           Mult            ....    1
 Number of Electrons    NEL             ....   60
 Basis Dimension        Dim             ....  302

ORBITAL ENERGIES
----------------

  NO   OCC          E(Eh)            E(eV)
   0   2.0000     -20.584153      -560.1233
   1   2.0000     -15.571447      -423.7206
   2   2.0000     -11.320476      -308.0458
   3   2.0000     -11.300025      -307.4893
   4   2.0000     -11.291957      -307.2698
   5   2.0000     -11.276140      -306.8394
   6   2.0000     -11.244506      -305.9786
   7   2.0000     -11.226654      -305.4928
   8   2.0000      -1.431968       -38.9658
   9   2.0000      -1.221108       -33.2280
  10   2.0000      -1.092136       -29.7185
  11   2.0000      -1.038664       -28.2635
  12   2.0000      -0.934910       -25.4402
  13   2.0000      -0.897291       -24.4165
  14   2.0000      -0.797134       -21.6911
  15   2.0000      -0.726343       -19.7648
  16   2.0000      -0.686001       -18.6670
  17   2.0000      -0.668471       -18.1900
  18   2.0000      -0.638732       -17.3808
  19   2.0000      -0.620714       -16.8905
  20   2.0000      -0.583628       -15.8813
  21   2.0000      -0.561090       -15.2680
  22   2.0000      -0.557308       -15.1651
  23   2.0000      -0.526393       -14.3239
  24   2.0000      -0.518740       -14.1156
  25   2.0000      -0.506920       -13.7940
  26   2.0000      -0.477364       -12.9897
  27   2.0000      -0.460873       -12.5410
  28   2.0000      -0.448872       -12.2144
  29   2.0000      -0.447153       -12.1677
  30   0.0000       0.121834         3.3153
  31   0.0000       0.142675         3.8824
  32   0.0000       0.152828         4.1587
  33   0.0000       0.165626         4.5069
  34   0.0000       0.177407         4.8275

MULLIKEN ATOMIC CHARGES
-----------------------
   0 C :   -0.417532
   1 C :   -0.218510
   2 C :    0.161973
   3 C :   -0.131505
   4 C :   -0.191263
   5 N :   -0.055902
   6 C :   -0.074405
   7 O :   -0.330930
   8 H :    0.144927
   9 H :    0.158060
  10 H :    0.119380
  11 H :    0.146747
  12 H :    0.117400
  13 H :    0.163282
  14 H :    0.162222
  15 H :    0.118946
  16 H :    0.127109
Sum of atomic charges:    0.0000000

LOEWDIN ATOMIC CHARGES
----------------------
   0 C :   -0.309634
   1 C :   -0.247219
   2 C :   -0.323233
   3 C :   -0.203688
   4 C :   -0.187186
   5 N :    0.061684
   6 C :   -0.236880
   7 O :    0.176898
   8 H :    0.126154
   9 H :    0.130828
  10 H :    0.119339
  11 H :    0.155177
  12 H :    0.147359
  13 H :    0.170866
  14 H :    0.172990
  15 H :    0.122075
  16 H :    0.124471

  Mayer bond orders larger than 0.1
B(  0-C ,  1-C ) :   0.9230 B(  0-C ,  8-H ) :   0.9381 B(  0-C ,  9-H ) :   0.9346
B(  0-C , 10-H ) :   0.9356 B(  1-C ,  2-C ) :   0.9280 B(  1-C , 11-H ) :   0.9245
B(  1-C , 12-H ) :   0.9189 B(  2-C ,  3-C ) :   0.8833 B(  2-C ,  6-C ) :   0.9699
B(  2-C ,  7-O ) :   0.8740 B(  3-C ,  4-C ) :   0.9405 B(  3-C , 13-H ) :   0.9140
B(  3-C , 14-H ) :   0.9042 B(  4-C ,  5-N ) :   2.8576 B(  6-C ,  7-O ) :   0.8850
B(  6-C , 15-H ) :   0.9092 B(  6-C , 16-H ) :   0.9114

MP2 TOTAL ENERGY:     -363.240580009 Eh
FINAL SINGLE POINT ENERGY      -363.240580009049

DIPOLE MOMENT
-------------
                                X             Y             Z
Electronic contribution:     -4.15925       7.14916       0.18501
Nuclear contribution   :      3.71369      -8.93516      -0.65827
                        -----------------------------------------
Total Dipole Moment    :     -0.44555      -1.78599      -0.47326
                        -----------------------------------------
Magnitude (a.u.)       :      1.90060
Magnitude (Debye)      :      4.83094

                             ****ORCA TERMINATED NORMALLY****
TOTAL RUN TIME: 0 days 0 hours 12 minutes 27 seconds 882 msec
