                         Program Version 3.0.3 - RELEASE   -
|  1> ! RI-MP2 RIJK def2-TZVP def2-TZVP/C def2-TZVP/JK TIGHTSCF
|  2> % maxcore 2000
|  3> % mp2 density relaxed end
|  4> *xyz 0 1
|  5>  O       -0.0999182196     0.0689464092    -0.1519361132
|  6>  C       -0.1101920650     1.2583798090    -0.0333187740
|  7>  C       -1.1936520778     2.3507423884    -0.1233802460
|  8>  N       -0.1191455523     3.4048995360    -0.2098352532
|  9>  C        0.6623556556     3.3467591619     1.0201181478
| 10>  C        0.1191806775     3.0230167865     2.4100336048
| 11>  C       -0.6520953817     4.1329566200     2.9716606905
| 12>  N       -1.2621996826     5.0125671221     3.4055872531
| 13>  C        0.9584174574     2.3182283036    -0.0214259638
| 14>  H       -1.7262045004     2.2877999962    -1.0759579315
| 15>  H       -1.9179267045     2.4777276917     0.6845441798
| 16>  H        1.3874848248     4.1576669029     1.0434649156
| 17>  H       -0.4989599869     2.1219671472     2.4208304423
| 18>  H        0.9694803679     2.8188302749     3.0706320537
| 19>  H        1.8954472077     2.2982184704    -0.5667609662
| 20> *
| 21>
| 22>                          ****END OF INPUT****

CARTESIAN COORDINATES (ANGSTROEM)
---------------------------------
  O     -0.099918    0.068946   -0.151936
  C     -0.110192    1.258380   -0.033319
  C     -1.193652    2.350742   -0.123380
  N     -0.119146    3.404900   -0.209835
  C      0.662356    3.346759    1.020118
  C      0.119181    3.023017    2.410034
  C     -0.652095    4.132957    2.971661
  N     -1.262200    5.012567    3.405587
  C      0.958417    2.318228   -0.021426
  H     -1.726205    2.287800   -1.075958
  H     -1.917927    2.477728    0.684544
  H      1.387485    4.157667    1.043465
  H     -0.498960    2.121967    2.420830
  H      0.969480    2.818830    3.070632
  H      1.895447    2.298218   -0.566761

 Total Charge           Charge          ....    0
 Multiplicity           Mult            ....    1
 Number of Electrons    NEL             ....   64
 Basis Dimension        Dim             ....  315

ORBITAL ENERGIES
----------------

  NO   OCC          E(Eh)            E(eV)
   0   2.0000     -20.579559      -559.9983
   1   2.0000     -15.612214      -424.8300
   2   2.0000     -15.586237      -424.1231
   3   2.0000     -11.364117      -309.2333
   4   2.0000     -11.322086      -308.0896
   5   2.0000     -11.312028      -307.8159
   6   2.0000     -11.303860      -307.5937
   7   2.0000     -11.295441      -307.3646
   8   2.0000     -11.289395      -307.2000
   9   2.0000      -1.425138       -38.7800
  10   2.0000      -1.336487       -36.3677
  11   2.0000      -1.234617       -33.5956
  12   2.0000      -1.091434       -29.6994
  13   2.0000      -1.018816       -27.7234
  14   2.0000      -0.951926       -25.9032
  15   2.0000      -0.843744       -22.9595
  16   2.0000      -0.767734       -20.8911
  17   2.0000      -0.734548       -19.9881
  18   2.0000      -0.704252       -19.1637
  19   2.0000      -0.689813       -18.7708
  20   2.0000      -0.682229       -18.5644
  21   2.0000      -0.628632       -17.1059
  22   2.0000      -0.607866       -16.5409
  23   2.0000      -0.597557       -16.2603
  24   2.0000      -0.572864       -15.5884
  25   2.0000      -0.554905       -15.0997
  26   2.0000      -0.521799       -14.1989
  27   2.0000      -0.493322       -13.4240
  28   2.0000      -0.475144       -12.9293
  29   2.0000      -0.464008       -12.6263
  30   2.0000      -0.447527       -12.1778
  31   2.0000      -0.411042       -11.1850
  32   0.0000       0.100237         2.7276
  33   0.0000       0.116976         3.1831
  34   0.0000       0.142217         3.8699
  35   0.0000       0.150207         4.0873
  36   0.0000       0.162590         4.4243

MULLIKEN ATOMIC CHARGES
-----------------------
   0 O :   -0.239948
   1 C :    0.118875
   2 C :   -0.167113
   3 N :   -0.204007
   4 C :   -0.036753
   5 C :   -0.154427
   6 C :   -0.179805
   7 N :   -0.048609
   8 C :   -0.072691
   9 H :    0.157304
  10 H :    0.151329
  11 H :    0.146883
  12 H :    0.185533
  13 H :    0.178388
  14 H :    0.165041
Sum of atomic charges:    0.0000000

LOEWDIN ATOMIC CHARGES
----------------------
   0 O :    0.174062
   1 C :   -0.333226
   2 C :   -0.210041
   3 N :    0.145720
   4 C :   -0.231078
   5 C :   -0.225229
   6 C :   -0.187520
   7 N :    0.070226
   8 C :   -0.142152
   9 H :    0.148819
  10 H :    0.134063
  11 H :    0.163912
  12 H :    0.171528
  13 H :    0.175682
  14 H :    0.145235

  Mayer bond orders larger than 0.1
B(  0-O ,  1-C ) :   2.0341 B(  1-C ,  2-C ) :   0.9364 B(  1-C ,  8-C ) :   0.9040
B(  2-C ,  3-N ) :   0.9145 B(  2-C ,  8-C ) :  -0.1095 B(  2-C ,  9-H ) :   0.8998
B(  2-C , 10-H ) :   0.9128 B(  3-N ,  4-C ) :   0.9451 B(  3-N ,  8-C ) :   0.8573
B(  4-C ,  5-C ) :   0.8797 B(  4-C ,  8-C ) :   0.8955 B(  4-C , 11-H ) :   0.9174
B(  5-C ,  6-C ) :   0.9306 B(  5-C , 12-H ) :   0.9173 B(  5-C , 13-H ) :   0.9003
B(  6-C ,  7-N ) :   2.8571 B(  8-C , 14-H ) :   0.8906

MP2 TOTAL ENERGY:     -416.072264416 Eh
FINAL SINGLE POINT ENERGY      -416.072264415978

DIPOLE MOMENT
-------------
                                X             Y             Z
Electronic contribution:     -0.36257      -0.27548       0.28240
Nuclear contribution   :      1.17841      -0.19188      -0.43435
                        -----------------------------------------
Total Dipole Moment    :      0.81585      -0.46736      -0.15194
                        -----------------------------------------
Magnitude (a.u.)       :      0.95243
Magnitude (Debye)      :      2.42088

                             ****ORCA TERMINATED NORMALLY****
TOTAL RUN TIME: 0 days 0 hours 15 minutes 39 seconds 454 msec
