                         Program Version 3.0.3 - RELEASE   -
|  1> ! RI-MP2 RIJK def2-TZVP def2-TZVP/C def2-TZVP/JK TIGHTSCF
|  2> % maxcore 2000
|  3> % mp2 density relaxed end
|  4> *xyz 0 1
|  5>  O       -0.1145820032     1.2197687342    -0.0089691566
|  6>  C        0.0489898893    -0.0953112726     0.0122883207
|  7>  N        1.1687852485    -0.7572754305     0.0691589263
|  8>  C        0.7487796579    -2.0710851196     0.0644356189
|  9>  O        1.6189885685    -3.0849500735     0.1139567097
| 10>  C       -0.6145088281    -2.1524723393     0.0046313585
| 11>  O       -1.0631000299    -0.8113063128    -0.0295787008
| 12>  C       -1.5426617800    -3.1904187973    -0.0256369789
| 13>  C       -2.3411100840    -4.0940513124    -0.0515637367
| 14>  H        0.7648431139     1.6179936383     0.0259009128
| 15>  H        2.5033741994    -2.7002125473     0.1490619073
| 16>  H       -3.0392563923    -4.8933350473    -0.0741351111
| 17> *
| 18>
| 19>                          ****END OF INPUT****

CARTESIAN COORDINATES (ANGSTROEM)
---------------------------------
  O     -0.114582    1.219769   -0.008969
  C      0.048990   -0.095311    0.012288
  N      1.168785   -0.757275    0.069159
  C      0.748780   -2.071085    0.064436
  O      1.618989   -3.084950    0.113957
  C     -0.614509   -2.152472    0.004631
  O     -1.063100   -0.811306   -0.029579
  C     -1.542662   -3.190419   -0.025637
  C     -2.341110   -4.094051   -0.051564
  H      0.764843    1.617994    0.025901
  H      2.503374   -2.700213    0.149062
  H     -3.039256   -4.893335   -0.074135

 Total Charge           Charge          ....    0
 Multiplicity           Mult            ....    1
 Number of Electrons    NEL             ....   64
 Basis Dimension        Dim             ....  297

ORBITAL ENERGIES
----------------

  NO   OCC          E(Eh)            E(eV)
   0   2.0000     -20.650759      -561.9357
   1   2.0000     -20.646794      -561.8278
   2   2.0000     -20.617043      -561.0183
   3   2.0000     -15.580972      -423.9798
   4   2.0000     -11.430722      -311.0458
   5   2.0000     -11.357299      -309.0478
   6   2.0000     -11.300700      -307.5077
   7   2.0000     -11.243695      -305.9565
   8   2.0000     -11.232586      -305.6542
   9   2.0000      -1.532407       -41.6989
  10   2.0000      -1.452413       -39.5222
  11   2.0000      -1.438693       -39.1488
  12   2.0000      -1.256869       -34.2012
  13   2.0000      -1.080694       -29.4072
  14   2.0000      -1.001299       -27.2467
  15   2.0000      -0.889597       -24.2072
  16   2.0000      -0.866885       -23.5891
  17   2.0000      -0.798050       -21.7160
  18   2.0000      -0.770736       -20.9728
  19   2.0000      -0.734933       -19.9985
  20   2.0000      -0.715866       -19.4797
  21   2.0000      -0.683951       -18.6113
  22   2.0000      -0.658327       -17.9140
  23   2.0000      -0.629378       -17.1263
  24   2.0000      -0.619788       -16.8653
  25   2.0000      -0.585993       -15.9457
  26   2.0000      -0.577538       -15.7156
  27   2.0000      -0.503207       -13.6930
  28   2.0000      -0.460139       -12.5210
  29   2.0000      -0.447373       -12.1736
  30   2.0000      -0.404886       -11.0175
  31   2.0000      -0.305925        -8.3246
  32   0.0000       0.121058         3.2941
  33   0.0000       0.122820         3.3421
  34   0.0000       0.138678         3.7736
  35   0.0000       0.163440         4.4474
  36   0.0000       0.166749         4.5375

MULLIKEN ATOMIC CHARGES
-----------------------
   0 O :   -0.388945
   1 C :    0.390494
   2 N :   -0.353861
   3 C :    0.197256
   4 O :   -0.413614
   5 C :   -0.071275
   6 O :   -0.189033
   7 C :    0.061116
   8 C :   -0.138619
   9 H :    0.360776
  10 H :    0.348367
  11 H :    0.197339
Sum of atomic charges:    0.0000000

LOEWDIN ATOMIC CHARGES
----------------------
   0 O :    0.122546
   1 C :   -0.511231
   2 N :    0.086273
   3 C :   -0.365478
   4 O :    0.103111
   5 C :   -0.219192
   6 O :    0.378118
   7 C :   -0.089225
   8 C :   -0.057123
   9 H :    0.216511
  10 H :    0.206076
  11 H :    0.129613

  Mayer bond orders larger than 0.1
B(  0-O ,  1-C ) :   1.1573 B(  0-O ,  9-H ) :   0.8070 B(  1-C ,  2-N ) :   1.5749
B(  1-C ,  6-O ) :   1.1991 B(  2-N ,  3-C ) :   1.1928 B(  3-C ,  4-O ) :   1.1546
B(  3-C ,  5-C ) :   1.5118 B(  4-O , 10-H ) :   0.8154 B(  5-C ,  6-O ) :   0.9374
B(  5-C ,  7-C ) :   1.2201 B(  5-C ,  8-C ) :  -0.1203 B(  7-C ,  8-C ) :   2.6099
B(  8-C , 11-H ) :   0.8766

MP2 TOTAL ENERGY:     -471.866433587 Eh
FINAL SINGLE POINT ENERGY      -471.866433587004

DIPOLE MOMENT
-------------
                                X             Y             Z
Electronic contribution:     -0.03026       1.51916      -0.01745
Nuclear contribution   :      0.70373      -1.09691       0.04281
                        -----------------------------------------
Total Dipole Moment    :      0.67347       0.42225       0.02536
                        -----------------------------------------
Magnitude (a.u.)       :      0.79530
Magnitude (Debye)      :      2.02150

                             ****ORCA TERMINATED NORMALLY****
TOTAL RUN TIME: 0 days 0 hours 12 minutes 11 seconds 340 msec
