                         Program Version 3.0.3 - RELEASE   -
|  1> ! RI-MP2 RIJK def2-TZVP def2-TZVP/C def2-TZVP/JK TIGHTSCF
|  2> % maxcore 2000
|  3> % mp2 density relaxed end
|  4> *xyz 0 1
|  5>  C       -0.0880416388     1.4829686195     0.0719033432
|  6>  C        1.2892029378     0.8503232819     0.0353901248
|  7>  C        2.1995591084     0.8964631502     1.2618201188
|  8>  C        2.5922161637    -0.4609951393     1.8752184969
|  9>  C        1.4177841002    -1.3695555594     2.2999059720
| 10>  C        0.7358386173    -2.1408523836     1.1322137557
| 11>  C       -0.3276407879    -1.0042782205     1.0507171450
| 12>  C        0.0584105175    -0.6367235131     2.5127964629
| 13>  C        0.0456539267    -0.0124888235    -0.0319049368
| 14>  H       -0.4061068338     1.9012689814     1.0223109799
| 15>  H       -0.4442122195     2.0343053397    -0.7920309065
| 16>  H        1.8196118800     0.9438497257    -0.9085048306
| 17>  H        3.1177118816     1.4306126610     0.9909094557
| 18>  H        1.7344438655     1.5066931396     2.0437093727
| 19>  H        3.2305136584    -1.0182958504     1.1765046882
| 20>  H        3.2168288463    -0.2523781380     2.7531201123
| 21>  H        1.7426288059    -2.0017840489     3.1312954467
| 22>  H        1.3323935566    -2.3241985430     0.2330473825
| 23>  H        0.3060898749    -3.0881941980     1.4715760049
| 24>  H       -1.3655897803    -1.3232616862     0.9090518229
| 25>  H       -0.5742551672    -1.1812179974     3.2193066704
| 26>  H        0.0649101977     0.4139855712     2.8105985901
| 27>  H       -0.1543059311    -0.4171152190    -1.0228596517
| 28> *
| 29>
| 30>                          ****END OF INPUT****

CARTESIAN COORDINATES (ANGSTROEM)
---------------------------------
  C     -0.088042    1.482969    0.071903
  C      1.289203    0.850323    0.035390
  C      2.199559    0.896463    1.261820
  C      2.592216   -0.460995    1.875218
  C      1.417784   -1.369556    2.299906
  C      0.735839   -2.140852    1.132214
  C     -0.327641   -1.004278    1.050717
  C      0.058411   -0.636724    2.512796
  C      0.045654   -0.012489   -0.031905
  H     -0.406107    1.901269    1.022311
  H     -0.444212    2.034305   -0.792031
  H      1.819612    0.943850   -0.908505
  H      3.117712    1.430613    0.990909
  H      1.734444    1.506693    2.043709
  H      3.230514   -1.018296    1.176505
  H      3.216829   -0.252378    2.753120
  H      1.742629   -2.001784    3.131295
  H      1.332394   -2.324199    0.233047
  H      0.306090   -3.088194    1.471576
  H     -1.365590   -1.323262    0.909052
  H     -0.574255   -1.181218    3.219307
  H      0.064910    0.413986    2.810599
  H     -0.154306   -0.417115   -1.022860

 Total Charge           Charge          ....    0
 Multiplicity           Mult            ....    1
 Number of Electrons    NEL             ....   68
 Basis Dimension        Dim             ....  363

ORBITAL ENERGIES
----------------

  NO   OCC          E(Eh)            E(eV)
   0   2.0000     -11.222854      -305.3894
   1   2.0000     -11.221682      -305.3575
   2   2.0000     -11.220883      -305.3357
   3   2.0000     -11.220272      -305.3191
   4   2.0000     -11.216370      -305.2129
   5   2.0000     -11.215482      -305.1888
   6   2.0000     -11.214005      -305.1486
   7   2.0000     -11.213308      -305.1296
   8   2.0000     -11.210333      -305.0487
   9   2.0000      -1.162304       -31.6279
  10   2.0000      -1.103516       -30.0282
  11   2.0000      -1.027626       -27.9631
  12   2.0000      -0.904955       -24.6251
  13   2.0000      -0.894332       -24.3360
  14   2.0000      -0.867226       -23.5984
  15   2.0000      -0.797784       -21.7088
  16   2.0000      -0.724764       -19.7218
  17   2.0000      -0.706724       -19.2309
  18   2.0000      -0.679215       -18.4824
  19   2.0000      -0.641988       -17.4694
  20   2.0000      -0.630201       -17.1486
  21   2.0000      -0.596356       -16.2277
  22   2.0000      -0.560010       -15.2386
  23   2.0000      -0.545359       -14.8400
  24   2.0000      -0.532400       -14.4874
  25   2.0000      -0.514280       -13.9943
  26   2.0000      -0.497817       -13.5463
  27   2.0000      -0.474508       -12.9120
  28   2.0000      -0.461340       -12.5537
  29   2.0000      -0.437099       -11.8941
  30   2.0000      -0.433687       -11.8012
  31   2.0000      -0.419475       -11.4145
  32   2.0000      -0.390205       -10.6180
  33   2.0000      -0.375696       -10.2232
  34   0.0000       0.138324         3.7640
  35   0.0000       0.155334         4.2268
  36   0.0000       0.159517         4.3407
  37   0.0000       0.162943         4.4339
  38   0.0000       0.187863         5.1120

MULLIKEN ATOMIC CHARGES
-----------------------
   0 C :   -0.287562
   1 C :   -0.103069
   2 C :   -0.240175
   3 C :   -0.260363
   4 C :    0.014232
   5 C :   -0.299270
   6 C :    0.079905
   7 C :   -0.324951
   8 C :   -0.186448
   9 H :    0.124965
  10 H :    0.127029
  11 H :    0.111754
  12 H :    0.125276
  13 H :    0.119935
  14 H :    0.106438
  15 H :    0.116448
  16 H :    0.101944
  17 H :    0.109881
  18 H :    0.115520
  19 H :    0.104037
  20 H :    0.118878
  21 H :    0.117140
  22 H :    0.108455
Sum of atomic charges:    0.0000000

LOEWDIN ATOMIC CHARGES
----------------------
   0 C :   -0.207324
   1 C :   -0.200013
   2 C :   -0.248525
   3 C :   -0.242934
   4 C :   -0.220318
   5 C :   -0.195361
   6 C :   -0.207631
   7 C :   -0.198081
   8 C :   -0.195766
   9 H :    0.133321
  10 H :    0.129131
  11 H :    0.145526
  12 H :    0.141890
  13 H :    0.139155
  14 H :    0.138611
  15 H :    0.138439
  16 H :    0.136926
  17 H :    0.127235
  18 H :    0.132546
  19 H :    0.140491
  20 H :    0.137157
  21 H :    0.123237
  22 H :    0.152286

  Mayer bond orders larger than 0.1
B(  0-C ,  1-C ) :   0.8904 B(  0-C ,  8-C ) :   0.8819 B(  0-C ,  9-H ) :   0.9227
B(  0-C , 10-H ) :   0.9325 B(  1-C ,  2-C ) :   0.9122 B(  1-C ,  8-C ) :   0.8857
B(  1-C , 11-H ) :   0.9315 B(  2-C ,  3-C ) :   0.9315 B(  2-C , 12-H ) :   0.9329
B(  2-C , 13-H ) :   0.9392 B(  3-C ,  4-C ) :   0.8939 B(  3-C , 14-H ) :   0.9320
B(  3-C , 15-H ) :   0.9292 B(  4-C ,  5-C ) :   0.9117 B(  4-C ,  7-C ) :   0.8978
B(  4-C , 16-H ) :   0.9293 B(  5-C ,  6-C ) :   0.8727 B(  5-C , 17-H ) :   0.9266
B(  5-C , 18-H ) :   0.9219 B(  6-C ,  7-C ) :   0.8715 B(  6-C ,  8-C ) :   0.9222
B(  6-C , 19-H ) :   0.9270 B(  7-C , 20-H ) :   0.9195 B(  7-C , 21-H ) :   0.9373
B(  8-C , 22-H ) :   0.9312

MP2 TOTAL ENERGY:     -350.495783027 Eh
FINAL SINGLE POINT ENERGY      -350.495783027065

DIPOLE MOMENT
-------------
                                X             Y             Z
Electronic contribution:     -1.03293      -0.32671      -0.94552
Nuclear contribution   :      1.07550       0.29048       0.96165
                        -----------------------------------------
Total Dipole Moment    :      0.04256      -0.03623       0.01613
                        -----------------------------------------
Magnitude (a.u.)       :      0.05818
Magnitude (Debye)      :      0.14788

                             ****ORCA TERMINATED NORMALLY****
TOTAL RUN TIME: 0 days 0 hours 22 minutes 56 seconds 72 msec
