                         Program Version 3.0.3 - RELEASE   -
|  1> ! RI-MP2 RIJK def2-TZVP def2-TZVP/C def2-TZVP/JK TIGHTSCF
|  2> % maxcore 2000
|  3> % mp2 density relaxed end
|  4> *xyz 0 1
|  5>  C        0.0129958619     1.4001879988    -0.0442054340
|  6>  O       -0.0956812469    -0.0101870895     0.0571286673
|  7>  C        0.6737487805    -0.6025888095     1.0723802198
|  8>  C        0.0170089759    -1.9327735532     1.4449480156
|  9>  C        0.8982510505    -2.7058085658     2.4268424887
| 10>  C        2.2458178751    -3.0241868078     1.7838814688
| 11>  N        2.8263070214    -1.8295112039     1.1811509537
| 12>  C        2.1515610301    -0.7632455758     0.6493549456
| 13>  O        2.7108437394     0.0485161634    -0.0659153003
| 14>  H        1.0208335069     1.7055278559    -0.3359791590
| 15>  H       -0.7057048224     1.7130580956    -0.8059473832
| 16>  H       -0.2518893534     1.8847150259     0.9094742649
| 17>  H        0.6907340334     0.0478391337     1.9662558438
| 18>  H       -0.9744019695    -1.7356151671     1.8627185449
| 19>  H       -0.1330528691    -2.5149256654     0.5271836387
| 20>  H        1.0559594309    -2.1109221668     3.3350888732
| 21>  H        0.4170070866    -3.6395422068     2.7329869241
| 22>  H        2.9465616899    -3.4141606495     2.5301036472
| 23>  H        2.1126542039    -3.8106393684     1.0249167016
| 24>  H        3.7817017248    -1.8869815437     0.8545342985
| 25> *
| 26>
| 27>                          ****END OF INPUT****

CARTESIAN COORDINATES (ANGSTROEM)
---------------------------------
  C      0.012996    1.400188   -0.044205
  O     -0.095681   -0.010187    0.057129
  C      0.673749   -0.602589    1.072380
  C      0.017009   -1.932774    1.444948
  C      0.898251   -2.705809    2.426842
  C      2.245818   -3.024187    1.783881
  N      2.826307   -1.829511    1.181151
  C      2.151561   -0.763246    0.649355
  O      2.710844    0.048516   -0.065915
  H      1.020834    1.705528   -0.335979
  H     -0.705705    1.713058   -0.805947
  H     -0.251889    1.884715    0.909474
  H      0.690734    0.047839    1.966256
  H     -0.974402   -1.735615    1.862719
  H     -0.133053   -2.514926    0.527184
  H      1.055959   -2.110922    3.335089
  H      0.417007   -3.639542    2.732987
  H      2.946562   -3.414161    2.530104
  H      2.112654   -3.810639    1.024917
  H      3.781702   -1.886982    0.854534

 Total Charge           Charge          ....    0
 Multiplicity           Mult            ....    1
 Number of Electrons    NEL             ....   70
 Basis Dimension        Dim             ....  345

ORBITAL ENERGIES
----------------

  NO   OCC          E(Eh)            E(eV)
   0   2.0000     -20.554892      -559.3270
   1   2.0000     -20.512836      -558.1827
   2   2.0000     -15.582035      -424.0087
   3   2.0000     -11.344816      -308.7081
   4   2.0000     -11.295066      -307.3544
   5   2.0000     -11.278990      -306.9169
   6   2.0000     -11.257882      -306.3425
   7   2.0000     -11.241846      -305.9062
   8   2.0000     -11.234977      -305.7193
   9   2.0000      -1.390904       -37.8484
  10   2.0000      -1.363173       -37.0938
  11   2.0000      -1.235215       -33.6119
  12   2.0000      -1.082204       -29.4483
  13   2.0000      -1.014563       -27.6077
  14   2.0000      -0.920038       -25.0355
  15   2.0000      -0.877513       -23.8783
  16   2.0000      -0.843166       -22.9437
  17   2.0000      -0.761152       -20.7120
  18   2.0000      -0.693941       -18.8831
  19   2.0000      -0.683289       -18.5932
  20   2.0000      -0.659202       -17.9378
  21   2.0000      -0.646298       -17.5867
  22   2.0000      -0.623355       -16.9624
  23   2.0000      -0.610857       -16.6223
  24   2.0000      -0.592216       -16.1150
  25   2.0000      -0.582590       -15.8531
  26   2.0000      -0.559734       -15.2311
  27   2.0000      -0.527049       -14.3417
  28   2.0000      -0.501996       -13.6600
  29   2.0000      -0.497092       -13.5266
  30   2.0000      -0.495473       -13.4825
  31   2.0000      -0.468694       -12.7538
  32   2.0000      -0.453434       -12.3386
  33   2.0000      -0.397140       -10.8067
  34   2.0000      -0.388052       -10.5594
  35   0.0000       0.120877         3.2892
  36   0.0000       0.146585         3.9888
  37   0.0000       0.160919         4.3788
  38   0.0000       0.165508         4.5037
  39   0.0000       0.182476         4.9654

MULLIKEN ATOMIC CHARGES
-----------------------
   0 C :   -0.234414
   1 O :   -0.308375
   2 C :    0.107460
   3 C :   -0.178406
   4 C :   -0.246183
   5 C :   -0.121540
   6 N :   -0.297322
   7 C :    0.173801
   8 O :   -0.361802
   9 H :    0.160012
  10 H :    0.131064
  11 H :    0.100698
  12 H :    0.078578
  13 H :    0.131833
  14 H :    0.124045
  15 H :    0.118814
  16 H :    0.134467
  17 H :    0.131226
  18 H :    0.119765
  19 H :    0.236279
Sum of atomic charges:    0.0000000

LOEWDIN ATOMIC CHARGES
----------------------
   0 C :   -0.347853
   1 O :    0.168070
   2 C :   -0.300870
   3 C :   -0.236905
   4 C :   -0.262081
   5 C :   -0.280981
   6 N :    0.109876
   7 C :   -0.430373
   8 O :    0.083355
   9 H :    0.110787
  10 H :    0.111425
  11 H :    0.098955
  12 H :    0.148620
  13 H :    0.142190
  14 H :    0.147501
  15 H :    0.141902
  16 H :    0.143073
  17 H :    0.133634
  18 H :    0.130343
  19 H :    0.189333

  Mayer bond orders larger than 0.1
B(  0-C ,  1-O ) :   0.8947 B(  0-C ,  9-H ) :   0.9312 B(  0-C , 10-H ) :   0.9389
B(  0-C , 11-H ) :   0.9357 B(  1-O ,  2-C ) :   0.9739 B(  2-C ,  3-C ) :   0.9119
B(  2-C ,  7-C ) :   0.8811 B(  2-C , 12-H ) :   0.9163 B(  3-C ,  4-C ) :   0.8914
B(  3-C , 13-H ) :   0.9296 B(  3-C , 14-H ) :   0.9250 B(  4-C ,  5-C ) :   0.9497
B(  4-C , 15-H ) :   0.9311 B(  4-C , 16-H ) :   0.9270 B(  5-C ,  6-N ) :   0.8727
B(  5-C , 17-H ) :   0.9282 B(  5-C , 18-H ) :   0.9312 B(  6-N ,  7-C ) :   1.1809
B(  6-N , 19-H ) :   0.8572 B(  7-C ,  8-O ) :   1.9413

MP2 TOTAL ENERGY:     -439.600133785 Eh
FINAL SINGLE POINT ENERGY      -439.600133784602

DIPOLE MOMENT
-------------
                                X             Y             Z
Electronic contribution:      3.59249       1.47760      -3.09174
Nuclear contribution   :     -3.71153      -2.45707       4.14833
                        -----------------------------------------
Total Dipole Moment    :     -0.11904      -0.97947       1.05660
                        -----------------------------------------
Magnitude (a.u.)       :      1.44566
Magnitude (Debye)      :      3.67457

                             ****ORCA TERMINATED NORMALLY****
TOTAL RUN TIME: 0 days 0 hours 20 minutes 20 seconds 22 msec
