                         Program Version 3.0.3 - RELEASE   -
|  1> ! RI-MP2 RIJK def2-TZVP def2-TZVP/C def2-TZVP/JK TIGHTSCF
|  2> % maxcore 2000
|  3> % mp2 density relaxed end
|  4> *xyz 0 1
|  5>  C       -0.0867661382     1.5545558193     0.0138744661
|  6>  C       -0.0077666336     0.0373945574     0.0109528337
|  7>  C        1.2254619490    -0.6680653040    -0.6527923068
|  8>  N        2.0518326078    -0.1437708305     0.5317608597
|  9>  C        0.7651304185    -0.6984686121     1.1590439556
| 10>  C        0.8976069201    -1.8742998226     0.2148685837
| 11>  N        0.8839006344    -3.1330263311     0.2835088277
| 12>  O        1.2064901027    -3.7121700447    -0.9711997767
| 13>  H        0.8765837576     1.9996276773     0.2650266825
| 14>  H       -0.3977459548     1.9205241158    -0.9703926154
| 15>  H       -0.8317586653     1.8948676396     0.7409818609
| 16>  H       -0.9654958297    -0.4262466201    -0.2387184168
| 17>  H        1.5813299357    -0.6149521387    -1.6791861793
| 18>  H        2.8241860591    -0.7898143482     0.7181582116
| 19>  H        0.5872965450    -0.6796531730     2.2328434726
| 20>  H        1.1461119118    -4.6525777344    -0.7725855190
| 21> *
| 22>
| 23>                          ****END OF INPUT****

CARTESIAN COORDINATES (ANGSTROEM)
---------------------------------
  C     -0.086766    1.554556    0.013874
  C     -0.007767    0.037395    0.010953
  C      1.225462   -0.668065   -0.652792
  N      2.051833   -0.143771    0.531761
  C      0.765130   -0.698469    1.159044
  C      0.897607   -1.874300    0.214869
  N      0.883901   -3.133026    0.283509
  O      1.206490   -3.712170   -0.971200
  H      0.876584    1.999628    0.265027
  H     -0.397746    1.920524   -0.970393
  H     -0.831759    1.894868    0.740982
  H     -0.965496   -0.426247   -0.238718
  H      1.581330   -0.614952   -1.679186
  H      2.824186   -0.789814    0.718158
  H      0.587297   -0.679653    2.232843
  H      1.146112   -4.652578   -0.772586

 Total Charge           Charge          ....    0
 Multiplicity           Mult            ....    1
 Number of Electrons    NEL             ....   60
 Basis Dimension        Dim             ....  296

ORBITAL ENERGIES
----------------

  NO   OCC          E(Eh)            E(eV)
   0   2.0000     -20.589378      -560.2655
   1   2.0000     -15.612879      -424.8480
   2   2.0000     -15.574447      -423.8023
   3   2.0000     -11.292980      -307.2976
   4   2.0000     -11.291890      -307.2679
   5   2.0000     -11.290935      -307.2420
   6   2.0000     -11.258556      -306.3609
   7   2.0000     -11.218848      -305.2804
   8   2.0000      -1.410855       -38.3913
   9   2.0000      -1.304654       -35.5014
  10   2.0000      -1.141785       -31.0696
  11   2.0000      -1.038872       -28.2692
  12   2.0000      -0.961062       -26.1518
  13   2.0000      -0.895913       -24.3790
  14   2.0000      -0.802595       -21.8397
  15   2.0000      -0.730215       -19.8702
  16   2.0000      -0.709946       -19.3186
  17   2.0000      -0.692312       -18.8388
  18   2.0000      -0.663870       -18.0648
  19   2.0000      -0.595797       -16.2125
  20   2.0000      -0.578169       -15.7328
  21   2.0000      -0.561758       -15.2862
  22   2.0000      -0.538682       -14.6583
  23   2.0000      -0.529511       -14.4087
  24   2.0000      -0.504395       -13.7253
  25   2.0000      -0.489407       -13.3174
  26   2.0000      -0.457000       -12.4356
  27   2.0000      -0.434320       -11.8184
  28   2.0000      -0.419252       -11.4084
  29   2.0000      -0.375989       -10.2312
  30   0.0000       0.138950         3.7810
  31   0.0000       0.151337         4.1181
  32   0.0000       0.154616         4.2073
  33   0.0000       0.168879         4.5954
  34   0.0000       0.183229         4.9859

MULLIKEN ATOMIC CHARGES
-----------------------
   0 C :   -0.444173
   1 C :   -0.026213
   2 C :   -0.082268
   3 N :   -0.315858
   4 C :   -0.080339
   5 C :    0.002817
   6 N :   -0.093087
   7 O :   -0.362550
   8 H :    0.168276
   9 H :    0.131601
  10 H :    0.131347
  11 H :    0.121228
  12 H :    0.153878
  13 H :    0.211570
  14 H :    0.146909
  15 H :    0.336863
Sum of atomic charges:   -0.0000000

LOEWDIN ATOMIC CHARGES
----------------------
   0 C :   -0.295909
   1 C :   -0.199041
   2 C :   -0.160214
   3 N :    0.026396
   4 C :   -0.156589
   5 C :   -0.266034
   6 N :    0.012153
   7 O :   -0.090150
   8 H :    0.133590
   9 H :    0.126642
  10 H :    0.126507
  11 H :    0.150459
  12 H :    0.131709
  13 H :    0.162403
  14 H :    0.130385
  15 H :    0.167694

  Mayer bond orders larger than 0.1
B(  0-C ,  1-C ) :   0.8891 B(  0-C ,  8-H ) :   0.9368 B(  0-C ,  9-H ) :   0.9350
B(  0-C , 10-H ) :   0.9343 B(  1-C ,  2-C ) :   0.8792 B(  1-C ,  4-C ) :   0.8863
B(  1-C , 11-H ) :   0.9062 B(  2-C ,  3-N ) :   0.9604 B(  2-C ,  5-C ) :   0.9379
B(  2-C , 12-H ) :   0.8757 B(  3-N ,  4-C ) :   0.9594 B(  3-N , 13-H ) :   0.8889
B(  4-C ,  5-C ) :   1.0091 B(  4-C , 14-H ) :   0.8779 B(  5-C ,  6-N ) :   1.9515
B(  6-N ,  7-O ) :   0.7753 B(  7-O , 15-H ) :   0.8438

MP2 TOTAL ENERGY:     -379.158225135 Eh
FINAL SINGLE POINT ENERGY      -379.158225134896

DIPOLE MOMENT
-------------
                                X             Y             Z
Electronic contribution:      1.91761      -7.16512       0.05137
Nuclear contribution   :     -2.08179       7.15524      -0.07723
                        -----------------------------------------
Total Dipole Moment    :     -0.16418      -0.00988      -0.02586
                        -----------------------------------------
Magnitude (a.u.)       :      0.16650
Magnitude (Debye)      :      0.42320

                             ****ORCA TERMINATED NORMALLY****
TOTAL RUN TIME: 0 days 0 hours 10 minutes 50 seconds 106 msec
