                         Program Version 3.0.3 - RELEASE   -
|  1> ! RI-MP2 RIJK def2-TZVP def2-TZVP/C def2-TZVP/JK TIGHTSCF
|  2> % maxcore 2000
|  3> % mp2 density relaxed end
|  4> *xyz 0 1
|  5>  C       -0.0368282399     1.5510922553    -0.0214453931
|  6>  C        0.0317571947     0.0256013638     0.0586895486
|  7>  C        0.7739292680    -0.6198392137    -1.1628395865
|  8>  O        1.3806438074    -1.8514222413    -0.7240936253
|  9>  C        1.5296219962    -1.7582944700     0.6559864438
| 10>  C        2.2957769038    -0.6226988182     1.2996871580
| 11>  C        0.7910678532    -0.5899023588     1.2123501382
| 12>  O        0.1723720598    -1.3711114229     2.2557822034
| 13>  C        0.7500416921    -2.5834710354     1.6794736138
| 14>  H        0.9664013807     1.9901518670    -0.0135280532
| 15>  H       -0.5401059410     1.8784702995    -0.9376274780
| 16>  H       -0.5897809899     1.9615331387     0.8280409475
| 17>  H       -0.9831721983    -0.3848119471     0.1118591244
| 18>  H        0.1058164531    -0.8500423788    -1.9977538138
| 19>  H        1.5515946629     0.0644059300    -1.5321106040
| 20>  H        2.7578638251    -0.7567572637     2.2723226467
| 21>  H        2.8395962820     0.0182983741     0.6147024621
| 22>  H       -0.0190887488    -3.2066322464     1.2111389938
| 23>  H        1.3129274189    -3.1641959522     2.4180948436
| 24> *
| 25>
| 26>                          ****END OF INPUT****

CARTESIAN COORDINATES (ANGSTROEM)
---------------------------------
  C     -0.036828    1.551092   -0.021445
  C      0.031757    0.025601    0.058690
  C      0.773929   -0.619839   -1.162840
  O      1.380644   -1.851422   -0.724094
  C      1.529622   -1.758294    0.655986
  C      2.295777   -0.622699    1.299687
  C      0.791068   -0.589902    1.212350
  O      0.172372   -1.371111    2.255782
  C      0.750042   -2.583471    1.679474
  H      0.966401    1.990152   -0.013528
  H     -0.540106    1.878470   -0.937627
  H     -0.589781    1.961533    0.828041
  H     -0.983172   -0.384812    0.111859
  H      0.105816   -0.850042   -1.997754
  H      1.551595    0.064406   -1.532111
  H      2.757864   -0.756757    2.272323
  H      2.839596    0.018298    0.614702
  H     -0.019089   -3.206632    1.211139
  H      1.312927   -3.164196    2.418095

 Total Charge           Charge          ....    0
 Multiplicity           Mult            ....    1
 Number of Electrons    NEL             ....   68
 Basis Dimension        Dim             ....  339

ORBITAL ENERGIES
----------------

  NO   OCC          E(Eh)            E(eV)
   0   2.0000     -20.569209      -559.7166
   1   2.0000     -20.559418      -559.4502
   2   2.0000     -11.291829      -307.2663
   3   2.0000     -11.287007      -307.1351
   4   2.0000     -11.279694      -306.9361
   5   2.0000     -11.278833      -306.9126
   6   2.0000     -11.250175      -306.1328
   7   2.0000     -11.249594      -306.1170
   8   2.0000     -11.226048      -305.4763
   9   2.0000      -1.414234       -38.4833
  10   2.0000      -1.369264       -37.2596
  11   2.0000      -1.123227       -30.5645
  12   2.0000      -1.067230       -29.0408
  13   2.0000      -0.951921       -25.9031
  14   2.0000      -0.921746       -25.0820
  15   2.0000      -0.881031       -23.9741
  16   2.0000      -0.786437       -21.4000
  17   2.0000      -0.725349       -19.7378
  18   2.0000      -0.706268       -19.2185
  19   2.0000      -0.660984       -17.9863
  20   2.0000      -0.651500       -17.7282
  21   2.0000      -0.616667       -16.7804
  22   2.0000      -0.607595       -16.5335
  23   2.0000      -0.593636       -16.1537
  24   2.0000      -0.577106       -15.7039
  25   2.0000      -0.561982       -15.2923
  26   2.0000      -0.543502       -14.7894
  27   2.0000      -0.531944       -14.4749
  28   2.0000      -0.511302       -13.9132
  29   2.0000      -0.485629       -13.2146
  30   2.0000      -0.470076       -12.7914
  31   2.0000      -0.448282       -12.1984
  32   2.0000      -0.395505       -10.7622
  33   2.0000      -0.353621        -9.6225
  34   0.0000       0.132000         3.5919
  35   0.0000       0.152909         4.1609
  36   0.0000       0.161287         4.3889
  37   0.0000       0.174378         4.7451
  38   0.0000       0.191412         5.2086

MULLIKEN ATOMIC CHARGES
-----------------------
   0 C :   -0.403715
   1 C :   -0.120319
   2 C :   -0.058508
   3 O :   -0.308756
   4 C :    0.099468
   5 C :   -0.299777
   6 C :    0.206873
   7 O :   -0.328674
   8 C :   -0.039661
   9 H :    0.124373
  10 H :    0.137338
  11 H :    0.145518
  12 H :    0.111189
  13 H :    0.122467
  14 H :    0.103280
  15 H :    0.143530
  16 H :    0.142974
  17 H :    0.108352
  18 H :    0.114050
Sum of atomic charges:    0.0000000

LOEWDIN ATOMIC CHARGES
----------------------
   0 C :   -0.287889
   1 C :   -0.232313
   2 C :   -0.244735
   3 O :    0.197610
   4 C :   -0.300507
   5 C :   -0.157300
   6 C :   -0.254391
   7 O :    0.152768
   8 C :   -0.212489
   9 H :    0.124733
  10 H :    0.124899
  11 H :    0.129048
  12 H :    0.165505
  13 H :    0.127329
  14 H :    0.122906
  15 H :    0.143963
  16 H :    0.149152
  17 H :    0.130033
  18 H :    0.121679

  Mayer bond orders larger than 0.1
B(  0-C ,  1-C ) :   0.9198 B(  0-C ,  9-H ) :   0.9277 B(  0-C , 10-H ) :   0.9399
B(  0-C , 11-H ) :   0.9370 B(  1-C ,  2-C ) :   0.9144 B(  1-C ,  6-C ) :   0.9414
B(  1-C , 12-H ) :   0.9208 B(  2-C ,  3-O ) :   0.9147 B(  2-C , 13-H ) :   0.9161
B(  2-C , 14-H ) :   0.9226 B(  3-O ,  4-C ) :   1.0401 B(  4-C ,  5-C ) :   0.8975
B(  4-C ,  6-C ) :   0.7876 B(  4-C ,  8-C ) :   0.9515 B(  5-C ,  6-C ) :   0.9009
B(  5-C , 15-H ) :   0.9045 B(  5-C , 16-H ) :   0.9083 B(  6-C ,  7-O ) :   0.9963
B(  7-O ,  8-C ) :   0.9225 B(  8-C , 17-H ) :   0.9026 B(  8-C , 18-H ) :   0.9185

MP2 TOTAL ENERGY:     -422.253892773 Eh
FINAL SINGLE POINT ENERGY      -422.253892772792

DIPOLE MOMENT
-------------
                                X             Y             Z
Electronic contribution:      0.96053      -5.41122       2.21105
Nuclear contribution   :     -0.94034       5.80420      -2.57298
                        -----------------------------------------
Total Dipole Moment    :      0.02019       0.39298      -0.36192
                        -----------------------------------------
Magnitude (a.u.)       :      0.53463
Magnitude (Debye)      :      1.35892

                             ****ORCA TERMINATED NORMALLY****
TOTAL RUN TIME: 0 days 0 hours 18 minutes 21 seconds 196 msec
