                         Program Version 3.0.3 - RELEASE   -
|  1> ! RI-MP2 RIJK def2-TZVP def2-TZVP/C def2-TZVP/JK TIGHTSCF
|  2> % maxcore 2000
|  3> % mp2 density relaxed end
|  4> *xyz 0 1
|  5>  C        0.0653688230     1.2781188078     0.2963370102
|  6>  C        1.4344543129     1.9134554709    -0.0611734181
|  7>  C        2.1692286102     0.6877386829    -0.5195505605
|  8>  C        3.4414478540     0.4436060398    -1.3292024535
|  9>  C        3.3242880601    -1.1289397338    -1.3533087050
| 10>  C        2.0431337227    -1.2683292476    -0.4882665792
| 11>  O        2.3095098202    -0.3024154385     0.5684234746
| 12>  C        1.1051631233    -0.2340535704    -1.1531425429
| 13>  O       -0.1067144391     0.1168261587    -0.5380746094
| 14>  H        0.0589911790     0.9712116467     1.3473312646
| 15>  H       -0.7792990994     1.9513735930     0.1182234090
| 16>  H        1.3484389019     2.6332922285    -0.8822603180
| 17>  H        1.8930988987     2.4098855572     0.7971915727
| 18>  H        3.4117541092     0.8939684286    -2.3249039112
| 19>  H        4.3377406288     0.7895498853    -0.8109542692
| 20>  H        3.2105559372    -1.5331259600    -2.3634141269
| 21>  H        4.1738609211    -1.6193637903    -0.8752216723
| 22>  H        1.7381192533    -2.2544517844    -0.1387828428
| 23>  H        0.9810741329    -0.2870435844    -2.2410419521
| 24> *
| 25>
| 26>                          ****END OF INPUT****

CARTESIAN COORDINATES (ANGSTROEM)
---------------------------------
  C      0.065369    1.278119    0.296337
  C      1.434454    1.913455   -0.061173
  C      2.169229    0.687739   -0.519551
  C      3.441448    0.443606   -1.329202
  C      3.324288   -1.128940   -1.353309
  C      2.043134   -1.268329   -0.488267
  O      2.309510   -0.302415    0.568423
  C      1.105163   -0.234054   -1.153143
  O     -0.106714    0.116826   -0.538075
  H      0.058991    0.971212    1.347331
  H     -0.779299    1.951374    0.118223
  H      1.348439    2.633292   -0.882260
  H      1.893099    2.409886    0.797192
  H      3.411754    0.893968   -2.324904
  H      4.337741    0.789550   -0.810954
  H      3.210556   -1.533126   -2.363414
  H      4.173861   -1.619364   -0.875222
  H      1.738119   -2.254452   -0.138783
  H      0.981074   -0.287044   -2.241042

 Total Charge           Charge          ....    0
 Multiplicity           Mult            ....    1
 Number of Electrons    NEL             ....   68
 Basis Dimension        Dim             ....  339

ORBITAL ENERGIES
----------------

  NO   OCC          E(Eh)            E(eV)
   0   2.0000     -20.552721      -559.2680
   1   2.0000     -20.545053      -559.0593
   2   2.0000     -11.289012      -307.1896
   3   2.0000     -11.284789      -307.0747
   4   2.0000     -11.276975      -306.8621
   5   2.0000     -11.274796      -306.8028
   6   2.0000     -11.235373      -305.7301
   7   2.0000     -11.234002      -305.6927
   8   2.0000     -11.232655      -305.6561
   9   2.0000      -1.409595       -38.3570
  10   2.0000      -1.351694       -36.7815
  11   2.0000      -1.079891       -29.3853
  12   2.0000      -1.051359       -28.6089
  13   2.0000      -0.964736       -26.2518
  14   2.0000      -0.937057       -25.4986
  15   2.0000      -0.835158       -22.7258
  16   2.0000      -0.782082       -21.2815
  17   2.0000      -0.745412       -20.2837
  18   2.0000      -0.696280       -18.9467
  19   2.0000      -0.669134       -18.2081
  20   2.0000      -0.654713       -17.8156
  21   2.0000      -0.638809       -17.3829
  22   2.0000      -0.590437       -16.0666
  23   2.0000      -0.574761       -15.6400
  24   2.0000      -0.569593       -15.4994
  25   2.0000      -0.544276       -14.8105
  26   2.0000      -0.510588       -13.8938
  27   2.0000      -0.501857       -13.6562
  28   2.0000      -0.496900       -13.5213
  29   2.0000      -0.479096       -13.0369
  30   2.0000      -0.463013       -12.5992
  31   2.0000      -0.446411       -12.1475
  32   2.0000      -0.418131       -11.3779
  33   2.0000      -0.395771       -10.7695
  34   0.0000       0.136987         3.7276
  35   0.0000       0.153230         4.1696
  36   0.0000       0.168130         4.5750
  37   0.0000       0.176549         4.8041
  38   0.0000       0.192617         5.2414

MULLIKEN ATOMIC CHARGES
-----------------------
   0 C :   -0.016413
   1 C :   -0.247662
   2 C :    0.109253
   3 C :   -0.214030
   4 C :   -0.231260
   5 C :    0.027154
   6 O :   -0.324827
   7 C :    0.044699
   8 O :   -0.323762
   9 H :    0.099514
  10 H :    0.106687
  11 H :    0.118340
  12 H :    0.135693
  13 H :    0.119982
  14 H :    0.121291
  15 H :    0.115558
  16 H :    0.123483
  17 H :    0.132430
  18 H :    0.103870
Sum of atomic charges:    0.0000000

LOEWDIN ATOMIC CHARGES
----------------------
   0 C :   -0.273144
   1 C :   -0.220327
   2 C :   -0.290597
   3 C :   -0.204007
   4 C :   -0.218770
   5 C :   -0.245596
   6 O :    0.178918
   7 C :   -0.248198
   8 O :    0.175055
   9 H :    0.124832
  10 H :    0.120800
  11 H :    0.146133
  12 H :    0.147416
  13 H :    0.136631
  14 H :    0.137019
  15 H :    0.133217
  16 H :    0.135450
  17 H :    0.130793
  18 H :    0.134374

  Mayer bond orders larger than 0.1
B(  0-C ,  1-C ) :   0.9858 B(  0-C ,  8-O ) :   0.9248 B(  0-C ,  9-H ) :   0.9148
B(  0-C , 10-H ) :   0.9255 B(  1-C ,  2-C ) :   0.9160 B(  1-C , 11-H ) :   0.9118
B(  1-C , 12-H ) :   0.9162 B(  2-C ,  3-C ) :   0.9293 B(  2-C ,  6-O ) :   0.9063
B(  2-C ,  7-C ) :   0.9088 B(  3-C ,  4-C ) :   0.9859 B(  3-C , 13-H ) :   0.9143
B(  3-C , 14-H ) :   0.9177 B(  4-C ,  5-C ) :   0.9267 B(  4-C , 15-H ) :   0.9172
B(  4-C , 16-H ) :   0.9172 B(  5-C ,  6-O ) :   0.9230 B(  5-C ,  7-C ) :   0.8743
B(  5-C , 17-H ) :   0.9026 B(  7-C ,  8-O ) :   1.0072 B(  7-C , 18-H ) :   0.9613

MP2 TOTAL ENERGY:     -422.304096113 Eh
FINAL SINGLE POINT ENERGY      -422.304096113362

DIPOLE MOMENT
-------------
                                X             Y             Z
Electronic contribution:     -2.39929      -1.72227       1.71615
Nuclear contribution   :      2.81509       2.11637      -2.27001
                        -----------------------------------------
Total Dipole Moment    :      0.41580       0.39409      -0.55386
                        -----------------------------------------
Magnitude (a.u.)       :      0.79684
Magnitude (Debye)      :      2.02541

                             ****ORCA TERMINATED NORMALLY****
TOTAL RUN TIME: 0 days 0 hours 17 minutes 58 seconds 461 msec
