                         Program Version 3.0.3 - RELEASE   -
|  1> ! RI-MP2 RIJK def2-TZVP def2-TZVP/C def2-TZVP/JK TIGHTSCF
|  2> % maxcore 2000
|  3> % mp2 density relaxed end
|  4> *xyz 0 1
|  5>  C       -0.3921310055     1.5193165908    -0.1713387360
|  6>  C        0.0533125498     0.0559959986     0.0036998117
|  7>  C        0.8624779720    -0.4720690714    -1.1249320154
|  8>  C        2.1461304256    -0.8932026817    -1.2884072977
|  9>  N        3.1814795782    -1.0223592952    -0.3603214258
| 10>  N        2.3426878030    -1.2971142106    -2.6022648157
| 11>  C        1.1954076334    -1.1079960186    -3.1798815060
| 12>  C        0.8287191819    -1.3731281163    -4.5955853407
| 13>  O        0.2466396230    -0.6081842342    -2.3625565621
| 14>  H        0.4719302230     2.1857201379    -0.2562837911
| 15>  H       -0.9919963025     1.6331144327    -1.0788026818
| 16>  H       -0.9970950017     1.8476200271     0.6796774528
| 17>  H        0.6486680375    -0.0481727974     0.9180473483
| 18>  H       -0.8347935126    -0.5739092125     0.1504221607
| 19>  H        3.2144163163    -0.2751613692     0.3198682734
| 20>  H        4.0726773660    -1.1046570150    -0.8321903641
| 21>  H        0.0143283248    -2.1023699674    -4.6624539842
| 22>  H        0.4916646728    -0.4586284932    -5.0950414103
| 23>  H        1.7000823950    -1.7649803743    -5.1206742961
| 24> *
| 25>
| 26>                          ****END OF INPUT****

CARTESIAN COORDINATES (ANGSTROEM)
---------------------------------
  C     -0.392131    1.519317   -0.171339
  C      0.053313    0.055996    0.003700
  C      0.862478   -0.472069   -1.124932
  C      2.146130   -0.893203   -1.288407
  N      3.181480   -1.022359   -0.360321
  N      2.342688   -1.297114   -2.602265
  C      1.195408   -1.107996   -3.179882
  C      0.828719   -1.373128   -4.595585
  O      0.246640   -0.608184   -2.362557
  H      0.471930    2.185720   -0.256284
  H     -0.991996    1.633114   -1.078803
  H     -0.997095    1.847620    0.679677
  H      0.648668   -0.048173    0.918047
  H     -0.834794   -0.573909    0.150422
  H      3.214416   -0.275161    0.319868
  H      4.072677   -1.104657   -0.832190
  H      0.014328   -2.102370   -4.662454
  H      0.491665   -0.458628   -5.095041
  H      1.700082   -1.764980   -5.120674

 Total Charge           Charge          ....    0
 Multiplicity           Mult            ....    1
 Number of Electrons    NEL             ....   68
 Basis Dimension        Dim             ....  339

ORBITAL ENERGIES
----------------

  NO   OCC          E(Eh)            E(eV)
   0   2.0000     -20.615945      -560.9884
   1   2.0000     -15.559374      -423.3921
   2   2.0000     -15.548326      -423.0915
   3   2.0000     -11.331924      -308.3573
   4   2.0000     -11.283644      -307.0436
   5   2.0000     -11.262533      -306.4691
   6   2.0000     -11.239942      -305.8544
   7   2.0000     -11.236258      -305.7541
   8   2.0000     -11.217540      -305.2448
   9   2.0000      -1.467259       -39.9261
  10   2.0000      -1.246607       -33.9219
  11   2.0000      -1.175225       -31.9795
  12   2.0000      -1.071145       -29.1473
  13   2.0000      -1.024069       -27.8663
  14   2.0000      -0.941511       -25.6198
  15   2.0000      -0.855945       -23.2914
  16   2.0000      -0.804033       -21.8789
  17   2.0000      -0.782848       -21.3024
  18   2.0000      -0.691706       -18.8223
  19   2.0000      -0.663921       -18.0662
  20   2.0000      -0.655960       -17.8496
  21   2.0000      -0.622815       -16.9477
  22   2.0000      -0.605628       -16.4800
  23   2.0000      -0.587032       -15.9740
  24   2.0000      -0.571679       -15.5562
  25   2.0000      -0.560445       -15.2505
  26   2.0000      -0.551880       -15.0174
  27   2.0000      -0.522957       -14.2304
  28   2.0000      -0.509288       -13.8584
  29   2.0000      -0.501051       -13.6343
  30   2.0000      -0.493748       -13.4356
  31   2.0000      -0.448615       -12.2074
  32   2.0000      -0.409085       -11.1318
  33   2.0000      -0.290654        -7.9091
  34   0.0000       0.124828         3.3967
  35   0.0000       0.147499         4.0136
  36   0.0000       0.152844         4.1591
  37   0.0000       0.167787         4.5657
  38   0.0000       0.184813         5.0290

MULLIKEN ATOMIC CHARGES
-----------------------
   0 C :   -0.373078
   1 C :   -0.229462
   2 C :    0.067210
   3 C :    0.162908
   4 N :   -0.533707
   5 N :   -0.306236
   6 C :    0.264441
   7 C :   -0.427380
   8 O :   -0.228131
   9 H :    0.122909
  10 H :    0.136346
  11 H :    0.131554
  12 H :    0.124225
  13 H :    0.129568
  14 H :    0.245158
  15 H :    0.256329
  16 H :    0.148523
  17 H :    0.147143
  18 H :    0.161681
Sum of atomic charges:    0.0000000

LOEWDIN ATOMIC CHARGES
----------------------
   0 C :   -0.309433
   1 C :   -0.265943
   2 C :   -0.246837
   3 C :   -0.339714
   4 N :   -0.090012
   5 N :    0.125014
   6 C :   -0.375937
   7 C :   -0.270978
   8 O :    0.357243
   9 H :    0.120872
  10 H :    0.124315
  11 H :    0.120223
  12 H :    0.149224
  13 H :    0.148442
  14 H :    0.165515
  15 H :    0.173349
  16 H :    0.136522
  17 H :    0.135908
  18 H :    0.142228

  Mayer bond orders larger than 0.1
B(  0-C ,  1-C ) :   0.9146 B(  0-C ,  9-H ) :   0.9351 B(  0-C , 10-H ) :   0.9374
B(  0-C , 11-H ) :   0.9370 B(  1-C ,  2-C ) :   0.9001 B(  1-C , 12-H ) :   0.9445
B(  1-C , 13-H ) :   0.9307 B(  2-C ,  3-C ) :   1.5703 B(  2-C ,  8-O ) :   0.9757
B(  3-C ,  4-N ) :   1.0071 B(  3-C ,  5-N ) :   1.2031 B(  4-N , 14-H ) :   0.8802
B(  4-N , 15-H ) :   0.8759 B(  5-N ,  6-C ) :   1.6555 B(  6-C ,  7-C ) :   0.8669
B(  6-C ,  8-O ) :   1.1054 B(  7-C , 16-H ) :   0.9300 B(  7-C , 17-H ) :   0.9322
B(  7-C , 18-H ) :   0.9514

MP2 TOTAL ENERGY:     -418.546906108 Eh
FINAL SINGLE POINT ENERGY      -418.546906108348

DIPOLE MOMENT
-------------
                                X             Y             Z
Electronic contribution:      3.32741      -3.98863      -2.02630
Nuclear contribution   :     -3.51147       4.58976       2.21181
                        -----------------------------------------
Total Dipole Moment    :     -0.18406       0.60113       0.18550
                        -----------------------------------------
Magnitude (a.u.)       :      0.65548
Magnitude (Debye)      :      1.66609

                             ****ORCA TERMINATED NORMALLY****
TOTAL RUN TIME: 0 days 0 hours 17 minutes 40 seconds 51 msec
