                         Program Version 3.0.3 - RELEASE   -
|  1> ! RI-MP2 RIJK def2-TZVP def2-TZVP/C def2-TZVP/JK TIGHTSCF
|  2> % maxcore 2000
|  3> % mp2 density relaxed end
|  4> *xyz 0 1
|  5>  C        0.0863006212     1.4599867831    -0.0530139240
|  6>  O       -0.2349530804     0.0943971841    -0.2049326811
|  7>  C        0.5264632194    -0.5725121944    -1.1757101447
|  8>  C        2.0122053417    -0.8173191291    -0.8204688526
|  9>  C        2.3996735643    -2.1444343059    -1.5310078849
| 10>  C        1.1039747645    -2.6658234626    -2.2037012957
| 11>  C       -0.0440292450    -1.9899157887    -1.4183569974
| 12>  C       -0.3115121520    -2.6865395151    -0.1573112047
| 13>  N       -0.5047925009    -3.2738051930     0.8192134899
| 14>  H        1.1076922445     1.6074938497     0.3252354238
| 15>  H       -0.0149968811     2.0066828839    -1.0038589456
| 16>  H       -0.6185233506     1.8752758215     0.6704250635
| 17>  H        0.4617305160    -0.0325683893    -2.1363280444
| 18>  H        2.6472733078     0.0190273740    -1.1210345415
| 19>  H        2.0901512275    -0.9173703599     0.2663279436
| 20>  H        3.1947663709    -2.0049987283    -2.2671969837
| 21>  H        2.7672294030    -2.8703129442    -0.8017203012
| 22>  H        1.0452226271    -2.3311440653    -3.2444837860
| 23>  H        1.0263029303    -3.7543213971    -2.2041159631
| 24>  H       -0.9774856582    -1.9497213234    -1.9866480201
| 25> *
| 26>
| 27>                          ****END OF INPUT****

CARTESIAN COORDINATES (ANGSTROEM)
---------------------------------
  C      0.086301    1.459987   -0.053014
  O     -0.234953    0.094397   -0.204933
  C      0.526463   -0.572512   -1.175710
  C      2.012205   -0.817319   -0.820469
  C      2.399674   -2.144434   -1.531008
  C      1.103975   -2.665823   -2.203701
  C     -0.044029   -1.989916   -1.418357
  C     -0.311512   -2.686540   -0.157311
  N     -0.504793   -3.273805    0.819213
  H      1.107692    1.607494    0.325235
  H     -0.014997    2.006683   -1.003859
  H     -0.618523    1.875276    0.670425
  H      0.461731   -0.032568   -2.136328
  H      2.647273    0.019027   -1.121035
  H      2.090151   -0.917370    0.266328
  H      3.194766   -2.004999   -2.267197
  H      2.767229   -2.870313   -0.801720
  H      1.045223   -2.331144   -3.244484
  H      1.026303   -3.754321   -2.204116
  H     -0.977486   -1.949721   -1.986648

 Total Charge           Charge          ....    0
 Multiplicity           Mult            ....    1
 Number of Electrons    NEL             ....   68
 Basis Dimension        Dim             ....  345

ORBITAL ENERGIES
----------------

  NO   OCC          E(Eh)            E(eV)
   0   2.0000     -20.568297      -559.6918
   1   2.0000     -15.557864      -423.3510
   2   2.0000     -11.302677      -307.5615
   3   2.0000     -11.280704      -306.9636
   4   2.0000     -11.277654      -306.8806
   5   2.0000     -11.261873      -306.4511
   6   2.0000     -11.248114      -306.0767
   7   2.0000     -11.237514      -305.7883
   8   2.0000     -11.233678      -305.6839
   9   2.0000      -1.393369       -37.9155
  10   2.0000      -1.209904       -32.9232
  11   2.0000      -1.143300       -31.1108
  12   2.0000      -1.009520       -27.4704
  13   2.0000      -0.989193       -26.9173
  14   2.0000      -0.920678       -25.0529
  15   2.0000      -0.844094       -22.9690
  16   2.0000      -0.796660       -21.6782
  17   2.0000      -0.709967       -19.3192
  18   2.0000      -0.696355       -18.9488
  19   2.0000      -0.661739       -18.0068
  20   2.0000      -0.638605       -17.3773
  21   2.0000      -0.630343       -17.1525
  22   2.0000      -0.602114       -16.3844
  23   2.0000      -0.567680       -15.4474
  24   2.0000      -0.549342       -14.9484
  25   2.0000      -0.533486       -14.5169
  26   2.0000      -0.523033       -14.2325
  27   2.0000      -0.516128       -14.0446
  28   2.0000      -0.496170       -13.5015
  29   2.0000      -0.489351       -13.3159
  30   2.0000      -0.478613       -13.0237
  31   2.0000      -0.446732       -12.1562
  32   2.0000      -0.441731       -12.0201
  33   2.0000      -0.423870       -11.5341
  34   0.0000       0.116603         3.1729
  35   0.0000       0.144906         3.9431
  36   0.0000       0.146214         3.9787
  37   0.0000       0.166214         4.5229
  38   0.0000       0.176130         4.7927

MULLIKEN ATOMIC CHARGES
-----------------------
   0 C :   -0.230601
   1 O :   -0.289544
   2 C :    0.035840
   3 C :   -0.298251
   4 C :   -0.230071
   5 C :   -0.290416
   6 C :    0.190170
   7 C :   -0.261381
   8 N :   -0.048491
   9 H :    0.122826
  10 H :    0.111459
  11 H :    0.149303
  12 H :    0.084100
  13 H :    0.131427
  14 H :    0.143103
  15 H :    0.125012
  16 H :    0.137426
  17 H :    0.130073
  18 H :    0.148372
  19 H :    0.139646
Sum of atomic charges:   -0.0000000

LOEWDIN ATOMIC CHARGES
----------------------
   0 C :   -0.348089
   1 O :    0.173593
   2 C :   -0.300612
   3 C :   -0.233690
   4 C :   -0.242428
   5 C :   -0.213346
   6 C :   -0.212570
   7 C :   -0.164361
   8 N :    0.060432
   9 H :    0.104167
  10 H :    0.102974
  11 H :    0.116867
  12 H :    0.141239
  13 H :    0.133984
  14 H :    0.147834
  15 H :    0.134214
  16 H :    0.141665
  17 H :    0.141557
  18 H :    0.142964
  19 H :    0.173605

  Mayer bond orders larger than 0.1
B(  0-C ,  1-O ) :   0.9090 B(  0-C ,  9-H ) :   0.9358 B(  0-C , 10-H ) :   0.9328
B(  0-C , 11-H ) :   0.9397 B(  1-O ,  2-C ) :   1.0047 B(  2-C ,  3-C ) :   0.9203
B(  2-C ,  6-C ) :   0.8508 B(  2-C , 12-H ) :   0.9351 B(  3-C ,  4-C ) :   0.9179
B(  3-C , 13-H ) :   0.9243 B(  3-C , 14-H ) :   0.9226 B(  4-C ,  5-C ) :   0.9427
B(  4-C , 15-H ) :   0.9315 B(  4-C , 16-H ) :   0.9297 B(  5-C ,  6-C ) :   0.8524
B(  5-C , 17-H ) :   0.9294 B(  5-C , 18-H ) :   0.9275 B(  6-C ,  7-C ) :   0.9355
B(  6-C , 19-H ) :   0.9028 B(  7-C ,  8-N ) :   2.8741

MP2 TOTAL ENERGY:     -402.479110118 Eh
FINAL SINGLE POINT ENERGY      -402.479110118269

DIPOLE MOMENT
-------------
                                X             Y             Z
Electronic contribution:     -5.25560      -4.78204       3.46359
Nuclear contribution   :      6.04265       5.84984      -4.91745
                        -----------------------------------------
Total Dipole Moment    :      0.78705       1.06780      -1.45385
                        -----------------------------------------
Magnitude (a.u.)       :      1.96808
Magnitude (Debye)      :      5.00247

                             ****ORCA TERMINATED NORMALLY****
TOTAL RUN TIME: 0 days 0 hours 20 minutes 1 seconds 48 msec
