                         Program Version 3.0.3 - RELEASE   -
|  1> ! RI-MP2 RIJK def2-TZVP def2-TZVP/C def2-TZVP/JK TIGHTSCF
|  2> % maxcore 2000
|  3> % mp2 density relaxed end
|  4> *xyz 0 1
|  5>  O       -0.0739065581     1.4360030978     0.0107181159
|  6>  C        0.0414754761     0.0277160853     0.0023431594
|  7>  C       -1.3876532309    -0.5185978719     0.0118281483
|  8>  N       -1.4222503748    -1.9707235871     0.0045968846
|  9>  C       -1.4144036740    -2.8104884956    -1.0747486687
| 10>  N       -1.3951114552    -4.0625065365    -0.6972418011
| 11>  N       -1.3854994135    -4.0695976689     0.6844866609
| 12>  C       -1.3994595678    -2.8215255782     1.0750480259
| 13>  H        0.8086942879     1.8171757387     0.0052054787
| 14>  H        0.5668222025    -0.3413900186    -0.8918950045
| 15>  H        0.5821104151    -0.3507433948     0.8834581960
| 16>  H       -1.9112644345    -0.1543203634     0.8995001714
| 17>  H       -1.9265886674    -0.1449884637    -0.8627053289
| 18>  H       -1.4328037710    -2.4545844175    -2.0936445151
| 19>  H       -1.4036174845    -2.4760677956     2.0976913373
| 20> *
| 21>
| 22>                          ****END OF INPUT****

CARTESIAN COORDINATES (ANGSTROEM)
---------------------------------
  O     -0.073907    1.436003    0.010718
  C      0.041475    0.027716    0.002343
  C     -1.387653   -0.518598    0.011828
  N     -1.422250   -1.970724    0.004597
  C     -1.414404   -2.810488   -1.074749
  N     -1.395111   -4.062507   -0.697242
  N     -1.385499   -4.069598    0.684487
  C     -1.399460   -2.821526    1.075048
  H      0.808694    1.817176    0.005205
  H      0.566822   -0.341390   -0.891895
  H      0.582110   -0.350743    0.883458
  H     -1.911264   -0.154320    0.899500
  H     -1.926589   -0.144988   -0.862705
  H     -1.432804   -2.454584   -2.093645
  H     -1.403617   -2.476068    2.097691

 Total Charge           Charge          ....    0
 Multiplicity           Mult            ....    1
 Number of Electrons    NEL             ....   60
 Basis Dimension        Dim             ....  290

ORBITAL ENERGIES
----------------

  NO   OCC          E(Eh)            E(eV)
   0   2.0000     -20.585053      -560.1478
   1   2.0000     -15.636818      -425.4994
   2   2.0000     -15.578188      -423.9040
   3   2.0000     -15.577536      -423.8863
   4   2.0000     -11.307751      -307.6996
   5   2.0000     -11.302018      -307.5435
   6   2.0000     -11.301978      -307.5425
   7   2.0000     -11.300765      -307.5095
   8   2.0000      -1.398130       -38.0451
   9   2.0000      -1.390391       -37.8345
  10   2.0000      -1.236678       -33.6517
  11   2.0000      -1.091309       -29.6960
  12   2.0000      -1.040752       -28.3203
  13   2.0000      -0.895990       -24.3811
  14   2.0000      -0.849789       -23.1239
  15   2.0000      -0.812305       -22.1039
  16   2.0000      -0.753738       -20.5103
  17   2.0000      -0.697172       -18.9710
  18   2.0000      -0.683325       -18.5942
  19   2.0000      -0.658043       -17.9063
  20   2.0000      -0.623225       -16.9588
  21   2.0000      -0.620307       -16.8794
  22   2.0000      -0.591740       -16.1021
  23   2.0000      -0.565919       -15.3994
  24   2.0000      -0.530925       -14.4472
  25   2.0000      -0.478194       -13.0123
  26   2.0000      -0.476367       -12.9626
  27   2.0000      -0.428225       -11.6526
  28   2.0000      -0.410842       -11.1796
  29   2.0000      -0.363699        -9.8968
  30   0.0000       0.114872         3.1258
  31   0.0000       0.129951         3.5361
  32   0.0000       0.143771         3.9122
  33   0.0000       0.151257         4.1159
  34   0.0000       0.177547         4.8313

MULLIKEN ATOMIC CHARGES
-----------------------
   0 O :   -0.463475
   1 C :   -0.062599
   2 C :   -0.173852
   3 N :   -0.055997
   4 C :   -0.021359
   5 N :   -0.182456
   6 N :   -0.182493
   7 C :   -0.021321
   8 H :    0.328011
   9 H :    0.112160
  10 H :    0.112180
  11 H :    0.149981
  12 H :    0.150023
  13 H :    0.155598
  14 H :    0.155597
Sum of atomic charges:   -0.0000000

LOEWDIN ATOMIC CHARGES
----------------------
   0 O :   -0.038588
   1 C :   -0.349239
   2 C :   -0.238222
   3 N :    0.233712
   4 C :   -0.315988
   5 N :    0.018987
   6 N :    0.018980
   7 C :   -0.315991
   8 H :    0.179502
   9 H :    0.119618
  10 H :    0.119630
  11 H :    0.147124
  12 H :    0.147110
  13 H :    0.136683
  14 H :    0.136683

  Mayer bond orders larger than 0.1
B(  0-O ,  1-C ) :   1.0210 B(  0-O ,  8-H ) :   0.8420 B(  1-C ,  2-C ) :   0.9169
B(  1-C ,  9-H ) :   0.9282 B(  1-C , 10-H ) :   0.9282 B(  2-C ,  3-N ) :   0.8579
B(  2-C , 11-H ) :   0.9255 B(  2-C , 12-H ) :   0.9255 B(  3-N ,  4-C ) :   1.1357
B(  3-N ,  7-C ) :   1.1357 B(  4-C ,  5-N ) :   1.6204 B(  4-C , 13-H ) :   0.9221
B(  5-N ,  6-N ) :   1.0663 B(  6-N ,  7-C ) :   1.6203 B(  7-C , 14-H ) :   0.9220

MP2 TOTAL ENERGY:     -395.337385701 Eh
FINAL SINGLE POINT ENERGY      -395.337385700631

DIPOLE MOMENT
-------------
                                X             Y             Z
Electronic contribution:     -1.61145      -5.31265      -0.01355
Nuclear contribution   :      2.24566       7.56016       0.01971
                        -----------------------------------------
Total Dipole Moment    :      0.63420       2.24752       0.00616
                        -----------------------------------------
Magnitude (a.u.)       :      2.33529
Magnitude (Debye)      :      5.93584

                             ****ORCA TERMINATED NORMALLY****
TOTAL RUN TIME: 0 days 0 hours 9 minutes 25 seconds 769 msec
