                         Program Version 3.0.3 - RELEASE   -
|  1> ! RI-MP2 RIJK def2-TZVP def2-TZVP/C def2-TZVP/JK TIGHTSCF
|  2> % maxcore 2000
|  3> % mp2 density relaxed end
|  4> *xyz 0 1
|  5>  C        0.2224800197     1.2301122979     0.0610733534
|  6>  C       -0.1278771229    -0.2012801842    -0.3079810210
|  7>  O        0.6939511184    -0.9797913778    -0.7235954702
|  8>  C       -1.6105256549    -0.6177770800    -0.1201152949
|  9>  O       -1.8855418398    -1.8610175734    -0.7119857212
| 10>  C       -1.5446938967    -2.9809166005     0.1020086569
| 11>  C       -2.3752275112    -2.9968499390     1.3857635042
| 12>  C       -2.3736884840    -1.6310705265     2.0162761858
| 13>  C       -2.0111140514    -0.5452770312     1.3363493334
| 14>  H        1.2117619221     1.4731721397    -0.3288400669
| 15>  H       -0.5181560688     1.9390071398    -0.3230470074
| 16>  H        0.2378870014     1.3358497940     1.1518645175
| 17>  H       -2.2066808503     0.1163233048    -0.6838221578
| 18>  H       -1.7413354361    -3.8617940442    -0.5142024361
| 19>  H       -0.4743347264    -2.9606383913     0.3379850404
| 20>  H       -3.4074640302    -3.3071489619     1.1728920005
| 21>  H       -1.9673827245    -3.7411963528     2.0811038670
| 22>  H       -2.6910302329    -1.5440251216     3.0520924126
| 23>  H       -2.0061781317     0.4359939583     1.8011172139
| 24> *
| 25>
| 26>                          ****END OF INPUT****

CARTESIAN COORDINATES (ANGSTROEM)
---------------------------------
  C      0.222480    1.230112    0.061073
  C     -0.127877   -0.201280   -0.307981
  O      0.693951   -0.979791   -0.723595
  C     -1.610526   -0.617777   -0.120115
  O     -1.885542   -1.861018   -0.711986
  C     -1.544694   -2.980917    0.102009
  C     -2.375228   -2.996850    1.385764
  C     -2.373688   -1.631071    2.016276
  C     -2.011114   -0.545277    1.336349
  H      1.211762    1.473172   -0.328840
  H     -0.518156    1.939007   -0.323047
  H      0.237887    1.335850    1.151865
  H     -2.206681    0.116323   -0.683822
  H     -1.741335   -3.861794   -0.514202
  H     -0.474335   -2.960638    0.337985
  H     -3.407464   -3.307149    1.172892
  H     -1.967383   -3.741196    2.081104
  H     -2.691030   -1.544025    3.052092
  H     -2.006178    0.435994    1.801117

 Total Charge           Charge          ....    0
 Multiplicity           Mult            ....    1
 Number of Electrons    NEL             ....   68
 Basis Dimension        Dim             ....  339

ORBITAL ENERGIES
----------------

  NO   OCC          E(Eh)            E(eV)
   0   2.0000     -20.556785      -559.3785
   1   2.0000     -20.545712      -559.0772
   2   2.0000     -11.330927      -308.3302
   3   2.0000     -11.298882      -307.4582
   4   2.0000     -11.271206      -306.7051
   5   2.0000     -11.243501      -305.9512
   6   2.0000     -11.240299      -305.8641
   7   2.0000     -11.239114      -305.8318
   8   2.0000     -11.232533      -305.6527
   9   2.0000      -1.400420       -38.1074
  10   2.0000      -1.371706       -37.3260
  11   2.0000      -1.096098       -29.8263
  12   2.0000      -1.056039       -28.7363
  13   2.0000      -1.002779       -27.2870
  14   2.0000      -0.908945       -24.7336
  15   2.0000      -0.869135       -23.6504
  16   2.0000      -0.769592       -20.9417
  17   2.0000      -0.713167       -19.4062
  18   2.0000      -0.701450       -19.0874
  19   2.0000      -0.669371       -18.2145
  20   2.0000      -0.653579       -17.7848
  21   2.0000      -0.624229       -16.9861
  22   2.0000      -0.606068       -16.4919
  23   2.0000      -0.596471       -16.2308
  24   2.0000      -0.576542       -15.6885
  25   2.0000      -0.571416       -15.5490
  26   2.0000      -0.549603       -14.9555
  27   2.0000      -0.542680       -14.7671
  28   2.0000      -0.510300       -13.8860
  29   2.0000      -0.499730       -13.5983
  30   2.0000      -0.465803       -12.6751
  31   2.0000      -0.443811       -12.0767
  32   2.0000      -0.401694       -10.9307
  33   2.0000      -0.358961        -9.7678
  34   0.0000       0.125906         3.4261
  35   0.0000       0.133916         3.6440
  36   0.0000       0.150244         4.0883
  37   0.0000       0.155726         4.2375
  38   0.0000       0.179681         4.8894

MULLIKEN ATOMIC CHARGES
-----------------------
   0 C :   -0.443235
   1 C :    0.183390
   2 O :   -0.277529
   3 C :    0.161261
   4 O :   -0.306188
   5 C :   -0.104661
   6 C :   -0.137359
   7 C :   -0.202536
   8 C :   -0.223829
   9 H :    0.157172
  10 H :    0.147784
  11 H :    0.151939
  12 H :    0.137673
  13 H :    0.127957
  14 H :    0.127392
  15 H :    0.118780
  16 H :    0.118851
  17 H :    0.128806
  18 H :    0.134333
Sum of atomic charges:    0.0000000

LOEWDIN ATOMIC CHARGES
----------------------
   0 C :   -0.280831
   1 C :   -0.325503
   2 O :    0.164007
   3 C :   -0.299027
   4 O :    0.197009
   5 C :   -0.294709
   6 C :   -0.258386
   7 C :   -0.161591
   8 C :   -0.155642
   9 H :    0.135755
  10 H :    0.133811
  11 H :    0.139528
  12 H :    0.163795
  13 H :    0.130432
  14 H :    0.129160
  15 H :    0.146804
  16 H :    0.146131
  17 H :    0.143243
  18 H :    0.146014

  Mayer bond orders larger than 0.1
B(  0-C ,  1-C ) :   0.8968 B(  0-C ,  9-H ) :   0.9307 B(  0-C , 10-H ) :   0.9252
B(  0-C , 11-H ) :   0.9058 B(  1-C ,  2-O ) :   2.0066 B(  1-C ,  3-C ) :   0.8542
B(  3-C ,  4-O ) :   0.9907 B(  3-C ,  8-C ) :   0.8775 B(  3-C , 12-H ) :   0.9073
B(  4-O ,  5-C ) :   0.8999 B(  5-C ,  6-C ) :   0.9492 B(  5-C , 13-H ) :   0.9317
B(  5-C , 14-H ) :   0.9378 B(  6-C ,  7-C ) :   0.9304 B(  6-C , 15-H ) :   0.9003
B(  6-C , 16-H ) :   0.9191 B(  7-C ,  8-C ) :   1.8049 B(  7-C , 17-H ) :   0.9277
B(  8-C , 18-H ) :   0.9157

MP2 TOTAL ENERGY:     -422.330993889 Eh
FINAL SINGLE POINT ENERGY      -422.330993888904

DIPOLE MOMENT
-------------
                                X             Y             Z
Electronic contribution:      1.00947      -1.02391      -3.49404
Nuclear contribution   :     -1.50023       1.55815       4.36951
                        -----------------------------------------
Total Dipole Moment    :     -0.49076       0.53424       0.87547
                        -----------------------------------------
Magnitude (a.u.)       :      1.13697
Magnitude (Debye)      :      2.88995

                             ****ORCA TERMINATED NORMALLY****
TOTAL RUN TIME: 0 days 0 hours 19 minutes 28 seconds 218 msec
