                         Program Version 3.0.3 - RELEASE   -
|  1> ! RI-MP2 RIJK def2-TZVP def2-TZVP/C def2-TZVP/JK TIGHTSCF
|  2> % maxcore 2000
|  3> % mp2 density relaxed end
|  4> *xyz 0 1
|  5>  C       -0.0413958361     1.5205251981     0.1103175367
|  6>  N       -0.0148294410     0.0757297944     0.1238580699
|  7>  C       -1.2411218326    -0.6496680903     0.4949984635
|  8>  C       -0.3730215911    -1.6788642951     1.2662998506
|  9>  O       -0.1787124533    -2.8274889816     0.4771514822
| 10>  C        0.7571904400    -0.6046371387     1.1746431908
| 11>  C       -0.8068518801    -2.0339810930     2.6220248536
| 12>  N       -1.1205511261    -2.3330225434     3.6937541598
| 13>  H        0.9595236641     1.9059812350    -0.1089005336
| 14>  H       -0.7143600424     1.8697701854    -0.6793679098
| 15>  H       -0.3777104569     1.9595466019     1.0691110849
| 16>  H       -1.9116784206    -0.0901776157     1.1644157809
| 17>  H       -1.8102767915    -1.0708997061    -0.3386467865
| 18>  H        0.4798320740    -3.3877383352     0.9040888864
| 19>  H        1.7402209860    -0.9778141115     0.8673896557
| 20>  H        0.8545664775    -0.0288120343     2.1083646148
| 21> *
| 22>
| 23>                          ****END OF INPUT****

CARTESIAN COORDINATES (ANGSTROEM)
---------------------------------
  C     -0.041396    1.520525    0.110318
  N     -0.014829    0.075730    0.123858
  C     -1.241122   -0.649668    0.494998
  C     -0.373022   -1.678864    1.266300
  O     -0.178712   -2.827489    0.477151
  C      0.757190   -0.604637    1.174643
  C     -0.806852   -2.033981    2.622025
  N     -1.120551   -2.333023    3.693754
  H      0.959524    1.905981   -0.108901
  H     -0.714360    1.869770   -0.679368
  H     -0.377710    1.959547    1.069111
  H     -1.911678   -0.090178    1.164416
  H     -1.810277   -1.070900   -0.338647
  H      0.479832   -3.387738    0.904089
  H      1.740221   -0.977814    0.867390
  H      0.854566   -0.028812    2.108365

 Total Charge           Charge          ....    0
 Multiplicity           Mult            ....    1
 Number of Electrons    NEL             ....   60
 Basis Dimension        Dim             ....  296

ORBITAL ENERGIES
----------------

  NO   OCC          E(Eh)            E(eV)
   0   2.0000     -20.593675      -560.3824
   1   2.0000     -15.583064      -424.0367
   2   2.0000     -15.566597      -423.5886
   3   2.0000     -11.347838      -308.7904
   4   2.0000     -11.282418      -307.0102
   5   2.0000     -11.279723      -306.9369
   6   2.0000     -11.279553      -306.9322
   7   2.0000     -11.258724      -306.3654
   8   2.0000      -1.408678       -38.3321
   9   2.0000      -1.270393       -34.5691
  10   2.0000      -1.226345       -33.3706
  11   2.0000      -1.052993       -28.6534
  12   2.0000      -0.953050       -25.9338
  13   2.0000      -0.928549       -25.2671
  14   2.0000      -0.801262       -21.8035
  15   2.0000      -0.773803       -21.0562
  16   2.0000      -0.702276       -19.1099
  17   2.0000      -0.671872       -18.2826
  18   2.0000      -0.637535       -17.3482
  19   2.0000      -0.611385       -16.6366
  20   2.0000      -0.592111       -16.1122
  21   2.0000      -0.581025       -15.8105
  22   2.0000      -0.574938       -15.6449
  23   2.0000      -0.550176       -14.9710
  24   2.0000      -0.522739       -14.2245
  25   2.0000      -0.502133       -13.6637
  26   2.0000      -0.488597       -13.2954
  27   2.0000      -0.476488       -12.9659
  28   2.0000      -0.445323       -12.1179
  29   2.0000      -0.378946       -10.3116
  30   0.0000       0.117889         3.2079
  31   0.0000       0.132047         3.5932
  32   0.0000       0.155141         4.2216
  33   0.0000       0.169674         4.6171
  34   0.0000       0.177277         4.8240

MULLIKEN ATOMIC CHARGES
-----------------------
   0 C :   -0.327770
   1 N :   -0.129509
   2 C :   -0.213084
   3 C :    0.446925
   4 O :   -0.450442
   5 C :   -0.221626
   6 C :   -0.282171
   7 N :   -0.053394
   8 H :    0.142128
   9 H :    0.143419
  10 H :    0.108757
  11 H :    0.131713
  12 H :    0.131690
  13 H :    0.330503
  14 H :    0.117144
  15 H :    0.125718
Sum of atomic charges:   -0.0000000

LOEWDIN ATOMIC CHARGES
----------------------
   0 C :   -0.337140
   1 N :    0.069657
   2 C :   -0.191189
   3 C :   -0.356006
   4 O :    0.046721
   5 C :   -0.203721
   6 C :   -0.159830
   7 N :    0.072983
   8 H :    0.121133
   9 H :    0.121524
  10 H :    0.102714
  11 H :    0.132289
  12 H :    0.134451
  13 H :    0.187563
  14 H :    0.127528
  15 H :    0.131322

  Mayer bond orders larger than 0.1
B(  0-C ,  1-N ) :   0.9001 B(  0-C ,  8-H ) :   0.9364 B(  0-C ,  9-H ) :   0.9368
B(  0-C , 10-H ) :   0.9244 B(  1-N ,  2-C ) :   0.9496 B(  1-N ,  5-C ) :   0.9542
B(  2-C ,  3-C ) :   0.8559 B(  2-C , 11-H ) :   0.9192 B(  2-C , 12-H ) :   0.9115
B(  3-C ,  4-O ) :   0.9232 B(  3-C ,  5-C ) :   0.8826 B(  3-C ,  6-C ) :   0.9095
B(  4-O , 13-H ) :   0.8319 B(  5-C , 14-H ) :   0.9069 B(  5-C , 15-H ) :   0.9116
B(  6-C ,  7-N ) :   2.8490

MP2 TOTAL ENERGY:     -379.264164435 Eh
FINAL SINGLE POINT ENERGY      -379.264164434825

DIPOLE MOMENT
-------------
                                X             Y             Z
Electronic contribution:     -1.32288      -7.37043       3.71421
Nuclear contribution   :      1.94799       8.04459      -4.30816
                        -----------------------------------------
Total Dipole Moment    :      0.62511       0.67416      -0.59395
                        -----------------------------------------
Magnitude (a.u.)       :      1.09455
Magnitude (Debye)      :      2.78212

                             ****ORCA TERMINATED NORMALLY****
TOTAL RUN TIME: 0 days 0 hours 11 minutes 43 seconds 403 msec
