                         Program Version 3.0.3 - RELEASE   -
|  1> ! RI-MP2 RIJK def2-TZVP def2-TZVP/C def2-TZVP/JK TIGHTSCF
|  2> % maxcore 2000
|  3> % mp2 density relaxed end
|  4> *xyz 0 1
|  5>  O        0.0386014508     1.3747622826    -0.1630970381
|  6>  C       -0.0375137488    -0.0053001050     0.0737447522
|  7>  C       -1.4974365634    -0.4543678804     0.0137218355
|  8>  O       -2.4201002510     0.3130706088     0.0267346655
|  9>  C       -1.6742180718    -1.9707080101    -0.0644008371
| 10>  O       -3.0132301411    -2.3003397511     0.1902577425
| 11>  H        0.9528597480     1.6481197907    -0.0455496468
| 12>  H        0.5432227393    -0.5979501840    -0.6552801280
| 13>  H        0.3407128688    -0.2866308623     1.0730984077
| 14>  H       -1.3454517389    -2.2774307839    -1.0737293864
| 15>  H       -0.9736935817    -2.4437665400     0.6465468181
| 16>  H       -3.1175284303    -3.2473910854     0.0613166148
| 17> *
| 18>
| 19>                          ****END OF INPUT****

CARTESIAN COORDINATES (ANGSTROEM)
---------------------------------
  O      0.038601    1.374762   -0.163097
  C     -0.037514   -0.005300    0.073745
  C     -1.497437   -0.454368    0.013722
  O     -2.420100    0.313071    0.026735
  C     -1.674218   -1.970708   -0.064401
  O     -3.013230   -2.300340    0.190258
  H      0.952860    1.648120   -0.045550
  H      0.543223   -0.597950   -0.655280
  H      0.340713   -0.286631    1.073098
  H     -1.345452   -2.277431   -1.073729
  H     -0.973694   -2.443767    0.646547
  H     -3.117528   -3.247391    0.061317

 Total Charge           Charge          ....    0
 Multiplicity           Mult            ....    1
 Number of Electrons    NEL             ....   48
 Basis Dimension        Dim             ....  222

ORBITAL ENERGIES
----------------

  NO   OCC          E(Eh)            E(eV)
   0   2.0000     -20.571504      -559.7791
   1   2.0000     -20.571504      -559.7791
   2   2.0000     -20.545617      -559.0747
   3   2.0000     -11.329850      -308.3009
   4   2.0000     -11.302591      -307.5591
   5   2.0000     -11.302565      -307.5584
   6   2.0000      -1.404736       -38.2248
   7   2.0000      -1.379697       -37.5435
   8   2.0000      -1.365026       -37.1442
   9   2.0000      -1.030892       -28.0520
  10   2.0000      -0.936784       -25.4912
  11   2.0000      -0.747312       -20.3354
  12   2.0000      -0.727876       -19.8065
  13   2.0000      -0.716874       -19.5071
  14   2.0000      -0.675257       -18.3747
  15   2.0000      -0.642935       -17.4952
  16   2.0000      -0.628286       -17.0965
  17   2.0000      -0.619795       -16.8655
  18   2.0000      -0.544824       -14.8254
  19   2.0000      -0.536077       -14.5874
  20   2.0000      -0.513855       -13.9827
  21   2.0000      -0.466889       -12.7047
  22   2.0000      -0.461880       -12.5684
  23   2.0000      -0.413181       -11.2432
  24   0.0000       0.112748         3.0680
  25   0.0000       0.129925         3.5354
  26   0.0000       0.148091         4.0298
  27   0.0000       0.153130         4.1669
  28   0.0000       0.200046         5.4435

MULLIKEN ATOMIC CHARGES
-----------------------
   0 O :   -0.434572
   1 C :   -0.116328
   2 C :    0.243371
   3 O :   -0.240648
   4 C :   -0.116327
   5 O :   -0.434572
   6 H :    0.319297
   7 H :    0.111639
   8 H :    0.118603
   9 H :    0.118603
  10 H :    0.111639
  11 H :    0.319297
Sum of atomic charges:   -0.0000000

LOEWDIN ATOMIC CHARGES
----------------------
   0 O :   -0.018749
   1 C :   -0.341611
   2 C :   -0.340142
   3 O :    0.192068
   4 C :   -0.341610
   5 O :   -0.018750
   6 H :    0.177760
   7 H :    0.126232
   8 H :    0.130405
   9 H :    0.130405
  10 H :    0.126232
  11 H :    0.177760

  Mayer bond orders larger than 0.1
B(  0-O ,  1-C ) :   1.0360 B(  0-O ,  6-H ) :   0.8443 B(  1-C ,  2-C ) :   0.8849
B(  1-C ,  7-H ) :   0.9185 B(  1-C ,  8-H ) :   0.9102 B(  2-C ,  3-O ) :   2.0342
B(  2-C ,  4-C ) :   0.8849 B(  4-C ,  5-O ) :   1.0360 B(  4-C ,  9-H ) :   0.9102
B(  4-C , 10-H ) :   0.9185 B(  5-O , 11-H ) :   0.8443

MP2 TOTAL ENERGY:     -342.975698321 Eh
FINAL SINGLE POINT ENERGY      -342.975698320702

DIPOLE MOMENT
-------------
                                X             Y             Z
Electronic contribution:     -2.96227       2.46391       0.04178
Nuclear contribution   :      4.63528      -3.85546      -0.06536
                        -----------------------------------------
Total Dipole Moment    :      1.67302      -1.39155      -0.02358
                        -----------------------------------------
Magnitude (a.u.)       :      2.17622
Magnitude (Debye)      :      5.53152

                             ****ORCA TERMINATED NORMALLY****
TOTAL RUN TIME: 0 days 0 hours 4 minutes 1 seconds 395 msec
