                         Program Version 3.0.3 - RELEASE   -
|  1> ! RI-MP2 RIJK def2-TZVP def2-TZVP/C def2-TZVP/JK TIGHTSCF
|  2> % maxcore 2000
|  3> % mp2 density relaxed end
|  4> *xyz 0 1
|  5>  O       -0.0475320712     0.0180992330     0.0616006384
|  6>  C       -0.0850183931     1.2103989603     0.0180568778
|  7>  C       -1.3092236578     2.1251652669     0.0349379847
|  8>  O       -1.4313297217     2.5407038871    -1.3663712681
|  9>  C       -0.5694699720     3.6560434245    -1.0721965178
| 10>  C        0.9313522745     3.2954416774    -0.8975902035
| 11>  C        0.8038635420     3.3264541820     0.5874122645
| 12>  C       -0.7392191082     3.5031906310     0.4543116633
| 13>  N        1.0945485175     2.0517663995    -0.0826160266
| 14>  H       -2.2282781309     1.7015931670     0.4373923887
| 15>  H       -0.7884638097     4.5533647012    -1.6521012230
| 16>  H        1.7592068150     3.5407461484    -1.5519457882
| 17>  H        1.4680464079     3.6803776642     1.3647562047
| 18>  H       -1.3068506523     4.1829488775     1.0809811151
| 19> *
| 20>
| 21>                          ****END OF INPUT****

CARTESIAN COORDINATES (ANGSTROEM)
---------------------------------
  O     -0.047532    0.018099    0.061601
  C     -0.085018    1.210399    0.018057
  C     -1.309224    2.125165    0.034938
  O     -1.431330    2.540704   -1.366371
  C     -0.569470    3.656043   -1.072197
  C      0.931352    3.295442   -0.897590
  C      0.803864    3.326454    0.587412
  C     -0.739219    3.503191    0.454312
  N      1.094549    2.051766   -0.082616
  H     -2.228278    1.701593    0.437392
  H     -0.788464    4.553365   -1.652101
  H      1.759207    3.540746   -1.551946
  H      1.468046    3.680378    1.364756
  H     -1.306851    4.182949    1.080981

 Total Charge           Charge          ....    0
 Multiplicity           Mult            ....    1
 Number of Electrons    NEL             ....   64
 Basis Dimension        Dim             ....  309

ORBITAL ENERGIES
----------------

  NO   OCC          E(Eh)            E(eV)
   0   2.0000     -20.580763      -560.0310
   1   2.0000     -20.559439      -559.4508
   2   2.0000     -15.596504      -424.4024
   3   2.0000     -11.363470      -309.2157
   4   2.0000     -11.320290      -308.0407
   5   2.0000     -11.317355      -307.9609
   6   2.0000     -11.299055      -307.4629
   7   2.0000     -11.298025      -307.4349
   8   2.0000     -11.271818      -306.7217
   9   2.0000      -1.434185       -39.0261
  10   2.0000      -1.401974       -38.1497
  11   2.0000      -1.312340       -35.7106
  12   2.0000      -1.069877       -29.1128
  13   2.0000      -1.029621       -28.0174
  14   2.0000      -0.908643       -24.7254
  15   2.0000      -0.879115       -23.9219
  16   2.0000      -0.790877       -21.5209
  17   2.0000      -0.754295       -20.5254
  18   2.0000      -0.733442       -19.9580
  19   2.0000      -0.677483       -18.4352
  20   2.0000      -0.666410       -18.1339
  21   2.0000      -0.662316       -18.0225
  22   2.0000      -0.619071       -16.8458
  23   2.0000      -0.592861       -16.1326
  24   2.0000      -0.548577       -14.9275
  25   2.0000      -0.526822       -14.3356
  26   2.0000      -0.508931       -13.8487
  27   2.0000      -0.489335       -13.3155
  28   2.0000      -0.479940       -13.0598
  29   2.0000      -0.472705       -12.8630
  30   2.0000      -0.410281       -11.1643
  31   2.0000      -0.395902       -10.7730
  32   0.0000       0.123530         3.3614
  33   0.0000       0.141135         3.8405
  34   0.0000       0.151508         4.1227
  35   0.0000       0.166271         4.5245
  36   0.0000       0.176203         4.7947

MULLIKEN ATOMIC CHARGES
-----------------------
   0 O :   -0.226314
   1 C :    0.155420
   2 C :    0.070525
   3 O :   -0.312021
   4 C :    0.055179
   5 C :   -0.111988
   6 C :   -0.099713
   7 C :   -0.112854
   8 N :   -0.164672
   9 H :    0.143622
  10 H :    0.129374
  11 H :    0.157412
  12 H :    0.157349
  13 H :    0.158681
Sum of atomic charges:   -0.0000000

LOEWDIN ATOMIC CHARGES
----------------------
   0 O :    0.187275
   1 C :   -0.353242
   2 C :   -0.196680
   3 O :    0.167541
   4 C :   -0.219915
   5 C :   -0.159603
   6 C :   -0.169368
   7 C :   -0.140308
   8 N :    0.182533
   9 H :    0.142808
  10 H :    0.138564
  11 H :    0.138816
  12 H :    0.137588
  13 H :    0.143990

  Mayer bond orders larger than 0.1
B(  0-O ,  1-C ) :   2.0705 B(  1-C ,  2-C ) :   0.8783 B(  1-C ,  8-N ) :   0.9792
B(  2-C ,  3-O ) :   0.8520 B(  2-C ,  7-C ) :   0.9194 B(  2-C ,  9-H ) :   0.9010
B(  3-O ,  4-C ) :   0.9552 B(  4-C ,  5-C ) :   0.8666 B(  4-C ,  7-C ) :   0.9613
B(  4-C , 10-H ) :   0.9161 B(  5-C ,  6-C ) :   0.8685 B(  5-C ,  8-N ) :   0.8684
B(  5-C , 11-H ) :   0.9187 B(  6-C ,  7-C ) :   0.9299 B(  6-C ,  8-N ) :   0.8668
B(  6-C , 12-H ) :   0.9123 B(  7-C , 13-H ) :   0.9083

MP2 TOTAL ENERGY:     -435.903736670 Eh
FINAL SINGLE POINT ENERGY      -435.903736669742

DIPOLE MOMENT
-------------
                                X             Y             Z
Electronic contribution:      0.05273      -3.56314      -0.44877
Nuclear contribution   :     -0.23606       5.36624       0.94083
                        -----------------------------------------
Total Dipole Moment    :     -0.18333       1.80310       0.49206
                        -----------------------------------------
Magnitude (a.u.)       :      1.87800
Magnitude (Debye)      :      4.77351

                             ****ORCA TERMINATED NORMALLY****
TOTAL RUN TIME: 0 days 0 hours 16 minutes 36 seconds 280 msec
