                         Program Version 3.0.3 - RELEASE   -
|  1> ! RI-MP2 RIJK def2-TZVP def2-TZVP/C def2-TZVP/JK TIGHTSCF
|  2> % maxcore 2000
|  3> % mp2 density relaxed end
|  4> *xyz 0 1
|  5>  C       -0.1476781335     1.5360706533    -0.0584515054
|  6>  C        0.0718527995     0.0208403446    -0.0318213892
|  7>  C        0.8712094792    -0.4853609552    -1.2368544407
|  8>  O        2.2243731932    -0.0620419371    -1.1515515328
|  9>  C        2.8514916723    -0.5572825923     0.0349904597
| 10>  C        4.2952557528    -0.0754911330    -0.0251359334
| 11>  O        4.9347968365    -0.5180916264    -1.2038087565
| 12>  C        2.0810833276    -0.0690777382     1.2581253494
| 13>  O        0.7072590474    -0.4195297007     1.1722881340
| 14>  H        0.7887479601     2.0767674587    -0.2175724659
| 15>  H       -0.8281464538     1.8021647804    -0.8737414971
| 16>  H       -0.5925285222     1.8679579050     0.8833743062
| 17>  H       -0.9014337683    -0.4827287274    -0.0231446686
| 18>  H        0.8242830813    -1.5847513483    -1.2738049078
| 19>  H        0.4719485692    -0.0843607396    -2.1733481627
| 20>  H        2.8328220920    -1.6593768077     0.0100329926
| 21>  H        4.3089863805     1.0241197075     0.0528206932
| 22>  H        4.8586630708    -0.4799331673     0.8224072882
| 23>  H        4.3232715048    -0.3151740800    -1.9221460864
| 24>  H        2.4582868142    -0.5457872199     2.1682515775
| 25>  H        2.2065313565     1.0191957836     1.3644792256
| 26> *
| 27>
| 28>                          ****END OF INPUT****

CARTESIAN COORDINATES (ANGSTROEM)
---------------------------------
  C     -0.147678    1.536071   -0.058452
  C      0.071853    0.020840   -0.031821
  C      0.871209   -0.485361   -1.236854
  O      2.224373   -0.062042   -1.151552
  C      2.851492   -0.557283    0.034990
  C      4.295256   -0.075491   -0.025136
  O      4.934797   -0.518092   -1.203809
  C      2.081083   -0.069078    1.258125
  O      0.707259   -0.419530    1.172288
  H      0.788748    2.076767   -0.217572
  H     -0.828146    1.802165   -0.873741
  H     -0.592529    1.867958    0.883374
  H     -0.901434   -0.482729   -0.023145
  H      0.824283   -1.584751   -1.273805
  H      0.471949   -0.084361   -2.173348
  H      2.832822   -1.659377    0.010033
  H      4.308986    1.024120    0.052821
  H      4.858663   -0.479933    0.822407
  H      4.323272   -0.315174   -1.922146
  H      2.458287   -0.545787    2.168252
  H      2.206531    1.019196    1.364479

 Total Charge           Charge          ....    0
 Multiplicity           Mult            ....    1
 Number of Electrons    NEL             ....   72
 Basis Dimension        Dim             ....  351

ORBITAL ENERGIES
----------------

  NO   OCC          E(Eh)            E(eV)
   0   2.0000     -20.568862      -559.7072
   1   2.0000     -20.560614      -559.4828
   2   2.0000     -20.550908      -559.2186
   3   2.0000     -11.286996      -307.1348
   4   2.0000     -11.284812      -307.0753
   5   2.0000     -11.283139      -307.0298
   6   2.0000     -11.281611      -306.9882
   7   2.0000     -11.277670      -306.8810
   8   2.0000     -11.220775      -305.3328
   9   2.0000      -1.407450       -38.2986
  10   2.0000      -1.367913       -37.2228
  11   2.0000      -1.350588       -36.7514
  12   2.0000      -1.077290       -29.3146
  13   2.0000      -1.009785       -27.4776
  14   2.0000      -0.930844       -25.3295
  15   2.0000      -0.921219       -25.0676
  16   2.0000      -0.846504       -23.0346
  17   2.0000      -0.772619       -21.0240
  18   2.0000      -0.711768       -19.3682
  19   2.0000      -0.692938       -18.8558
  20   2.0000      -0.664249       -18.0751
  21   2.0000      -0.655011       -17.8238
  22   2.0000      -0.647688       -17.6245
  23   2.0000      -0.611442       -16.6382
  24   2.0000      -0.591368       -16.0919
  25   2.0000      -0.585992       -15.9457
  26   2.0000      -0.564540       -15.3619
  27   2.0000      -0.558216       -15.1898
  28   2.0000      -0.549875       -14.9629
  29   2.0000      -0.514241       -13.9932
  30   2.0000      -0.502810       -13.6822
  31   2.0000      -0.493213       -13.4210
  32   2.0000      -0.475155       -12.9296
  33   2.0000      -0.448572       -12.2063
  34   2.0000      -0.439612       -11.9624
  35   2.0000      -0.401069       -10.9136
  36   0.0000       0.136169         3.7053
  37   0.0000       0.151342         4.1182
  38   0.0000       0.159015         4.3270
  39   0.0000       0.169971         4.6251
  40   0.0000       0.189861         5.1664

MULLIKEN ATOMIC CHARGES
-----------------------
   0 C :   -0.449001
   1 C :    0.113892
   2 C :   -0.067195
   3 O :   -0.345989
   4 C :    0.004151
   5 C :    0.014485
   6 O :   -0.479409
   7 C :   -0.068372
   8 O :   -0.315277
   9 H :    0.140445
  10 H :    0.130400
  11 H :    0.143133
  12 H :    0.104207
  13 H :    0.107021
  14 H :    0.123850
  15 H :    0.083633
  16 H :    0.094383
  17 H :    0.107720
  18 H :    0.328145
  19 H :    0.131393
  20 H :    0.098386
Sum of atomic charges:    0.0000000

LOEWDIN ATOMIC CHARGES
----------------------
   0 C :   -0.298703
   1 C :   -0.348071
   2 C :   -0.297288
   3 O :    0.161658
   4 C :   -0.339376
   5 C :   -0.328471
   6 O :   -0.043550
   7 C :   -0.297900
   8 O :    0.169030
   9 H :    0.125087
  10 H :    0.127431
  11 H :    0.128254
  12 H :    0.147481
  13 H :    0.126067
  14 H :    0.134212
  15 H :    0.141582
  16 H :    0.120564
  17 H :    0.132656
  18 H :    0.178108
  19 H :    0.135959
  20 H :    0.125269

  Mayer bond orders larger than 0.1
B(  0-C ,  1-C ) :   0.9059 B(  0-C ,  9-H ) :   0.9306 B(  0-C , 10-H ) :   0.9300
B(  0-C , 11-H ) :   0.9392 B(  1-C ,  2-C ) :   0.9368 B(  1-C ,  8-O ) :   0.9305
B(  1-C , 12-H ) :   0.9146 B(  2-C ,  3-O ) :   0.9129 B(  2-C , 13-H ) :   0.9287
B(  2-C , 14-H ) :   0.9189 B(  3-O ,  4-C ) :   0.8903 B(  4-C ,  5-C ) :   0.9370
B(  4-C ,  7-C ) :   0.9416 B(  4-C , 15-H ) :   0.9225 B(  5-C ,  6-O ) :   0.9415
B(  5-C , 16-H ) :   0.9192 B(  5-C , 17-H ) :   0.9229 B(  6-O , 18-H ) :   0.8292
B(  7-C ,  8-O ) :   0.9252 B(  7-C , 19-H ) :   0.9194 B(  7-C , 20-H ) :   0.9198

MP2 TOTAL ENERGY:     -460.630327290 Eh
FINAL SINGLE POINT ENERGY      -460.630327290349

DIPOLE MOMENT
-------------
                                X             Y             Z
Electronic contribution:      2.54956      -2.94703      -0.65450
Nuclear contribution   :     -3.26329       3.22084       0.65465
                        -----------------------------------------
Total Dipole Moment    :     -0.71373       0.27382       0.00015
                        -----------------------------------------
Magnitude (a.u.)       :      0.76445
Magnitude (Debye)      :      1.94307

                             ****ORCA TERMINATED NORMALLY****
TOTAL RUN TIME: 0 days 0 hours 27 minutes 52 seconds 46 msec
