                         Program Version 3.0.3 - RELEASE   -
|  1> ! RI-MP2 RIJK def2-TZVP def2-TZVP/C def2-TZVP/JK TIGHTSCF
|  2> % maxcore 2000
|  3> % mp2 density relaxed end
|  4> *xyz 0 1
|  5>  C        0.1601057980     1.6680986008     0.1231755592
|  6>  C       -0.0442867534     0.1556768884     0.1123837339
|  7>  C        0.6811644289    -0.5419293937    -1.0828684147
|  8>  O        1.7392521278    -0.9899412414    -0.1567689771
|  9>  C        0.9334778012    -0.6658197328     0.9030867259
| 10>  N        0.8693102898    -1.1510335264     2.0592631632
| 11>  C       -0.4129067858    -0.7196059095     2.6597276283
| 12>  C       -1.5556505481    -0.9013695220     1.6444576184
| 13>  O       -1.3853688303    -0.1480439892     0.4305391098
| 14>  H        1.1900816848     1.9306722341    -0.1345658491
| 15>  H       -0.5145788465     2.1267909449    -0.6065106649
| 16>  H       -0.0721818851     2.0820487117     1.1073232170
| 17>  H        0.1459479507    -1.4020104714    -1.4913045527
| 18>  H        1.0855681912     0.0944815807    -1.8716608947
| 19>  H       -0.6159965897    -1.3454097620     3.5334785303
| 20>  H       -0.3691184303     0.3199196985     3.0108235032
| 21>  H       -1.6355649291    -1.9705495979     1.4024475453
| 22>  H       -2.5089473942    -0.5724083428     2.0693816588
| 23> *
| 24>
| 25>                          ****END OF INPUT****

CARTESIAN COORDINATES (ANGSTROEM)
---------------------------------
  C      0.160106    1.668099    0.123176
  C     -0.044287    0.155677    0.112384
  C      0.681164   -0.541929   -1.082868
  O      1.739252   -0.989941   -0.156769
  C      0.933478   -0.665820    0.903087
  N      0.869310   -1.151034    2.059263
  C     -0.412907   -0.719606    2.659728
  C     -1.555651   -0.901370    1.644458
  O     -1.385369   -0.148044    0.430539
  H      1.190082    1.930672   -0.134566
  H     -0.514579    2.126791   -0.606511
  H     -0.072182    2.082049    1.107323
  H      0.145948   -1.402010   -1.491305
  H      1.085568    0.094482   -1.871661
  H     -0.615997   -1.345410    3.533479
  H     -0.369118    0.319920    3.010824
  H     -1.635565   -1.970550    1.402448
  H     -2.508947   -0.572408    2.069382

 Total Charge           Charge          ....    0
 Multiplicity           Mult            ....    1
 Number of Electrons    NEL             ....   68
 Basis Dimension        Dim             ....  333

ORBITAL ENERGIES
----------------

  NO   OCC          E(Eh)            E(eV)
   0   2.0000     -20.594787      -560.4126
   1   2.0000     -20.574146      -559.8510
   2   2.0000     -15.550070      -423.1389
   3   2.0000     -11.333730      -308.4065
   4   2.0000     -11.314195      -307.8749
   5   2.0000     -11.305821      -307.6470
   6   2.0000     -11.289593      -307.2054
   7   2.0000     -11.265517      -306.5503
   8   2.0000     -11.237884      -305.7984
   9   2.0000      -1.442933       -39.2642
  10   2.0000      -1.388176       -37.7742
  11   2.0000      -1.232159       -33.5288
  12   2.0000      -1.071481       -29.1565
  13   2.0000      -0.999794       -27.2058
  14   2.0000      -0.947985       -25.7960
  15   2.0000      -0.885893       -24.1064
  16   2.0000      -0.860459       -23.4143
  17   2.0000      -0.710988       -19.3470
  18   2.0000      -0.705612       -19.2007
  19   2.0000      -0.694250       -18.8915
  20   2.0000      -0.689691       -18.7674
  21   2.0000      -0.634767       -17.2729
  22   2.0000      -0.597593       -16.2613
  23   2.0000      -0.594436       -16.1754
  24   2.0000      -0.588427       -16.0119
  25   2.0000      -0.569907       -15.5080
  26   2.0000      -0.547180       -14.8895
  27   2.0000      -0.534852       -14.5541
  28   2.0000      -0.529540       -14.4095
  29   2.0000      -0.514408       -13.9977
  30   2.0000      -0.508160       -13.8277
  31   2.0000      -0.430006       -11.7011
  32   2.0000      -0.400546       -10.8994
  33   2.0000      -0.391135       -10.6433
  34   0.0000       0.130256         3.5444
  35   0.0000       0.151670         4.1271
  36   0.0000       0.157001         4.2722
  37   0.0000       0.173626         4.7246
  38   0.0000       0.183418         4.9911

MULLIKEN ATOMIC CHARGES
-----------------------
   0 C :   -0.427625
   1 C :    0.194368
   2 C :   -0.046663
   3 O :   -0.254369
   4 C :    0.074461
   5 N :   -0.194133
   6 C :   -0.120874
   7 C :   -0.062049
   8 O :   -0.310685
   9 H :    0.144449
  10 H :    0.146788
  11 H :    0.133543
  12 H :    0.115135
  13 H :    0.125583
  14 H :    0.140114
  15 H :    0.113289
  16 H :    0.106195
  17 H :    0.122475
Sum of atomic charges:   -0.0000000

LOEWDIN ATOMIC CHARGES
----------------------
   0 C :   -0.257667
   1 C :   -0.337763
   2 C :   -0.176224
   3 O :    0.228251
   4 C :   -0.360355
   5 N :    0.109327
   6 C :   -0.280474
   7 C :   -0.293114
   8 O :    0.192574
   9 H :    0.133712
  10 H :    0.133279
  11 H :    0.128570
  12 H :    0.128757
  13 H :    0.124162
  14 H :    0.138826
  15 H :    0.130911
  16 H :    0.126381
  17 H :    0.130847

  Mayer bond orders larger than 0.1
B(  0-C ,  1-C ) :   0.8931 B(  0-C ,  9-H ) :   0.9266 B(  0-C , 10-H ) :   0.9310
B(  0-C , 11-H ) :   0.9314 B(  1-C ,  2-C ) :   0.9179 B(  1-C ,  4-C ) :   0.9319
B(  1-C ,  8-O ) :   0.9659 B(  2-C ,  3-O ) :   0.8838 B(  2-C , 12-H ) :   0.8959
B(  2-C , 13-H ) :   0.9154 B(  3-O ,  4-C ) :   1.0959 B(  4-C ,  5-N ) :   1.8998
B(  5-N ,  6-C ) :   0.8714 B(  6-C ,  7-C ) :   0.9352 B(  6-C , 14-H ) :   0.9230
B(  6-C , 15-H ) :   0.9211 B(  7-C ,  8-O ) :   0.9123 B(  7-C , 16-H ) :   0.9298
B(  7-C , 17-H ) :   0.9189

MP2 TOTAL ENERGY:     -438.344988676 Eh
FINAL SINGLE POINT ENERGY      -438.344988675896

DIPOLE MOMENT
-------------
                                X             Y             Z
Electronic contribution:      3.08309      -3.52888      -0.69690
Nuclear contribution   :     -3.85845       4.17152       0.42122
                        -----------------------------------------
Total Dipole Moment    :     -0.77536       0.64265      -0.27569
                        -----------------------------------------
Magnitude (a.u.)       :      1.04412
Magnitude (Debye)      :      2.65394

                             ****ORCA TERMINATED NORMALLY****
TOTAL RUN TIME: 0 days 0 hours 19 minutes 5 seconds 452 msec
