                         Program Version 3.0.3 - RELEASE   -
|  1> ! RI-MP2 RIJK def2-TZVP def2-TZVP/C def2-TZVP/JK TIGHTSCF
|  2> % maxcore 2000
|  3> % mp2 density relaxed end
|  4> *xyz 0 1
|  5>  C       -0.0089384767     1.4688289800    -0.0612161531
|  6>  C       -0.0408739292    -0.0219944839    -0.0241447135
|  7>  O        0.8050854694    -0.7340479445    -0.9254979848
|  8>  C       -0.0787370271    -1.8989581537    -0.8035466455
|  9>  C        0.5728939637    -2.8607061082     0.1771182086
| 10>  C        0.5824576863    -2.0474300319     1.4871673938
| 11>  O        1.1515338574    -2.3467748484     2.5060420572
| 12>  C       -0.2860114555    -0.8482801534     1.2643054388
| 13>  C       -1.1076234993    -1.0507817174    -0.0085971719
| 14>  H        0.9809713577     1.8371592824     0.2269519964
| 15>  H       -0.2297304044     1.8290965663    -1.0707413875
| 16>  H       -0.7453983218     1.8864156231     0.6304301394
| 17>  H       -0.3630773092    -2.2941175259    -1.7783710567
| 18>  H       -0.0331132782    -3.7642089329     0.3191620362
| 19>  H        1.5827614610    -3.1603052557    -0.1114833601
| 20>  H       -0.6920812493    -0.3149275819     2.1144256060
| 21>  H       -2.1851848247    -1.0152706240    -0.0903845033
| 22> *
| 23>
| 24>                          ****END OF INPUT****

CARTESIAN COORDINATES (ANGSTROEM)
---------------------------------
  C     -0.008938    1.468829   -0.061216
  C     -0.040874   -0.021994   -0.024145
  O      0.805085   -0.734048   -0.925498
  C     -0.078737   -1.898958   -0.803547
  C      0.572894   -2.860706    0.177118
  C      0.582458   -2.047430    1.487167
  O      1.151534   -2.346775    2.506042
  C     -0.286011   -0.848280    1.264305
  C     -1.107623   -1.050782   -0.008597
  H      0.980971    1.837159    0.226952
  H     -0.229730    1.829097   -1.070741
  H     -0.745398    1.886416    0.630430
  H     -0.363077   -2.294118   -1.778371
  H     -0.033113   -3.764209    0.319162
  H      1.582761   -3.160305   -0.111483
  H     -0.692081   -0.314928    2.114426
  H     -2.185185   -1.015271   -0.090385

 Total Charge           Charge          ....    0
 Multiplicity           Mult            ....    1
 Number of Electrons    NEL             ....   66
 Basis Dimension        Dim             ....  327

ORBITAL ENERGIES
----------------

  NO   OCC          E(Eh)            E(eV)
   0   2.0000     -20.568073      -559.6857
   1   2.0000     -20.541608      -558.9656
   2   2.0000     -11.332316      -308.3680
   3   2.0000     -11.319991      -308.0326
   4   2.0000     -11.309552      -307.7486
   5   2.0000     -11.257796      -306.3402
   6   2.0000     -11.251027      -306.1560
   7   2.0000     -11.242056      -305.9119
   8   2.0000     -11.238629      -305.8186
   9   2.0000      -1.416502       -38.5450
  10   2.0000      -1.384585       -37.6765
  11   2.0000      -1.155458       -31.4416
  12   2.0000      -1.065169       -28.9847
  13   2.0000      -0.987647       -26.8752
  14   2.0000      -0.932484       -25.3742
  15   2.0000      -0.829808       -22.5802
  16   2.0000      -0.762610       -20.7517
  17   2.0000      -0.749523       -20.3956
  18   2.0000      -0.699486       -19.0340
  19   2.0000      -0.673421       -18.3247
  20   2.0000      -0.635758       -17.2998
  21   2.0000      -0.612906       -16.6780
  22   2.0000      -0.604362       -16.4455
  23   2.0000      -0.589502       -16.0412
  24   2.0000      -0.577433       -15.7127
  25   2.0000      -0.572286       -15.5727
  26   2.0000      -0.546889       -14.8816
  27   2.0000      -0.512624       -13.9492
  28   2.0000      -0.509942       -13.8762
  29   2.0000      -0.472683       -12.8624
  30   2.0000      -0.438616       -11.9353
  31   2.0000      -0.400722       -10.9042
  32   2.0000      -0.383191       -10.4272
  33   0.0000       0.133652         3.6369
  34   0.0000       0.141566         3.8522
  35   0.0000       0.147717         4.0196
  36   0.0000       0.169537         4.6133
  37   0.0000       0.175931         4.7873

MULLIKEN ATOMIC CHARGES
-----------------------
   0 C :   -0.422048
   1 C :    0.204332
   2 O :   -0.321313
   3 C :    0.050185
   4 C :   -0.167614
   5 C :    0.100331
   6 O :   -0.270593
   7 C :   -0.148694
   8 C :   -0.168267
   9 H :    0.153326
  10 H :    0.145177
  11 H :    0.137683
  12 H :    0.134664
  13 H :    0.134253
  14 H :    0.134730
  15 H :    0.145369
  16 H :    0.158479
Sum of atomic charges:   -0.0000000

LOEWDIN ATOMIC CHARGES
----------------------
   0 C :   -0.259351
   1 C :   -0.285890
   2 O :    0.191421
   3 C :   -0.209225
   4 C :   -0.200297
   5 C :   -0.300642
   6 O :    0.149300
   7 C :   -0.122129
   8 C :   -0.118559
   9 H :    0.138812
  10 H :    0.135173
  11 H :    0.136901
  12 H :    0.138798
  13 H :    0.155979
  14 H :    0.152089
  15 H :    0.157531
  16 H :    0.140089

  Mayer bond orders larger than 0.1
B(  0-C ,  1-C ) :   0.8809 B(  0-C ,  9-H ) :   0.9337 B(  0-C , 10-H ) :   0.9370
B(  0-C , 11-H ) :   0.9341 B(  1-C ,  2-O ) :   0.9835 B(  1-C ,  7-C ) :   0.7962
B(  1-C ,  8-C ) :   0.9051 B(  2-O ,  3-C ) :   0.9126 B(  3-C ,  4-C ) :   0.9400
B(  3-C ,  8-C ) :   0.9171 B(  3-C , 12-H ) :   0.9027 B(  4-C ,  5-C ) :   0.9266
B(  4-C ,  7-C ) :  -0.1104 B(  4-C , 13-H ) :   0.8858 B(  4-C , 14-H ) :   0.8879
B(  5-C ,  6-O ) :   2.0454 B(  5-C ,  7-C ) :   0.9204 B(  7-C ,  8-C ) :   0.8000
B(  7-C , 15-H ) :   0.9165 B(  8-C , 16-H ) :   0.8821

MP2 TOTAL ENERGY:     -421.109866120 Eh
FINAL SINGLE POINT ENERGY      -421.109866120397

DIPOLE MOMENT
-------------
                                X             Y             Z
Electronic contribution:      1.92380      -3.50791       2.03038
Nuclear contribution   :     -3.08132       3.85701      -2.78178
                        -----------------------------------------
Total Dipole Moment    :     -1.15752       0.34910      -0.75140
                        -----------------------------------------
Magnitude (a.u.)       :      1.42349
Magnitude (Debye)      :      3.61823

                             ****ORCA TERMINATED NORMALLY****
TOTAL RUN TIME: 0 days 0 hours 18 minutes 34 seconds 829 msec
