                         Program Version 3.0.3 - RELEASE   -
|  1> ! RI-MP2 RIJK def2-TZVP def2-TZVP/C def2-TZVP/JK TIGHTSCF
|  2> % maxcore 2000
|  3> % mp2 density relaxed end
|  4> *xyz 0 1
|  5>  C       -1.4928971628    -0.7208385449     1.8357720659
|  6>  C       -0.5472613880    -0.5590710881     0.6746409865
|  7>  O       -0.2982073232     0.7777203851     0.2325052302
|  8>  C        0.8031405752     0.0357846259     0.7629264328
|  9>  C        1.4610415649     0.5596369580     2.0204913036
| 10>  C        1.4997798605     2.0692318396     2.1366108580
| 11>  C        1.4796725405    -0.2890243307     3.2447766022
| 12>  N        2.7016268478    -0.1234514196     2.4362720159
| 13>  H       -1.2665418528    -0.0127608800     2.6348640754
| 14>  H       -2.5215008313    -0.5476551355     1.5025007381
| 15>  H       -1.4411752017    -1.7377117218     2.2399994620
| 16>  H       -0.7129830629    -1.2611222312    -0.1462703591
| 17>  H        1.5222510238    -0.2581455001    -0.0081347331
| 18>  H        0.4875214264     2.4804607140     2.1701009429
| 19>  H        2.0415050005     2.3627170537     3.0389456493
| 20>  H        2.0111185614     2.5097120415     1.2739189322
| 21>  H        1.5141269756     0.1783481912     4.2258453733
| 22>  H        0.9702990257    -1.2477275436     3.2198689979
| 23>  H        2.8468906703    -0.9570108835     1.8689226959
| 24> *
| 25>
| 26>                          ****END OF INPUT****

CARTESIAN COORDINATES (ANGSTROEM)
---------------------------------
  C     -1.492897   -0.720839    1.835772
  C     -0.547261   -0.559071    0.674641
  O     -0.298207    0.777720    0.232505
  C      0.803141    0.035785    0.762926
  C      1.461042    0.559637    2.020491
  C      1.499780    2.069232    2.136611
  C      1.479673   -0.289024    3.244777
  N      2.701627   -0.123451    2.436272
  H     -1.266542   -0.012761    2.634864
  H     -2.521501   -0.547655    1.502501
  H     -1.441175   -1.737712    2.239999
  H     -0.712983   -1.261122   -0.146270
  H      1.522251   -0.258146   -0.008135
  H      0.487521    2.480461    2.170101
  H      2.041505    2.362717    3.038946
  H      2.011119    2.509712    1.273919
  H      1.514127    0.178348    4.225845
  H      0.970299   -1.247728    3.219869
  H      2.846891   -0.957011    1.868923

 Total Charge           Charge          ....    0
 Multiplicity           Mult            ....    1
 Number of Electrons    NEL             ....   62
 Basis Dimension        Dim             ....  314

ORBITAL ENERGIES
----------------

  NO   OCC          E(Eh)            E(eV)
   0   2.0000     -20.568748      -559.7041
   1   2.0000     -15.559355      -423.3916
   2   2.0000     -11.294058      -307.3269
   3   2.0000     -11.292205      -307.2765
   4   2.0000     -11.272304      -306.7350
   5   2.0000     -11.257638      -306.3359
   6   2.0000     -11.230265      -305.5910
   7   2.0000     -11.213364      -305.1312
   8   2.0000      -1.415632       -38.5213
   9   2.0000      -1.266441       -34.4616
  10   2.0000      -1.016728       -27.6666
  11   2.0000      -0.999769       -27.2051
  12   2.0000      -0.923289       -25.1240
  13   2.0000      -0.885073       -24.0841
  14   2.0000      -0.834117       -22.6975
  15   2.0000      -0.758212       -20.6320
  16   2.0000      -0.707348       -19.2479
  17   2.0000      -0.683600       -18.6017
  18   2.0000      -0.623770       -16.9737
  19   2.0000      -0.596593       -16.2341
  20   2.0000      -0.584659       -15.9094
  21   2.0000      -0.573270       -15.5995
  22   2.0000      -0.569886       -15.5074
  23   2.0000      -0.547534       -14.8992
  24   2.0000      -0.524782       -14.2800
  25   2.0000      -0.503504       -13.7010
  26   2.0000      -0.475746       -12.9457
  27   2.0000      -0.462349       -12.5811
  28   2.0000      -0.444939       -12.1074
  29   2.0000      -0.436467       -11.8769
  30   2.0000      -0.382822       -10.4171
  31   0.0000       0.133082         3.6214
  32   0.0000       0.149599         4.0708
  33   0.0000       0.164240         4.4692
  34   0.0000       0.169016         4.5991
  35   0.0000       0.190098         5.1728

MULLIKEN ATOMIC CHARGES
-----------------------
   0 C :   -0.411619
   1 C :    0.062068
   2 O :   -0.333978
   3 C :   -0.002017
   4 C :    0.115761
   5 C :   -0.388938
   6 C :   -0.205112
   7 N :   -0.373838
   8 H :    0.152440
   9 H :    0.145090
  10 H :    0.129639
  11 H :    0.106714
  12 H :    0.129361
  13 H :    0.137440
  14 H :    0.136787
  15 H :    0.131241
  16 H :    0.124725
  17 H :    0.130632
  18 H :    0.213605
Sum of atomic charges:   -0.0000000

LOEWDIN ATOMIC CHARGES
----------------------
   0 C :   -0.296499
   1 C :   -0.288871
   2 O :    0.172150
   3 C :   -0.240439
   4 C :   -0.323317
   5 C :   -0.260965
   6 C :   -0.246609
   7 N :    0.008223
   8 H :    0.132208
   9 H :    0.131242
  10 H :    0.128671
  11 H :    0.135803
  12 H :    0.141819
  13 H :    0.130224
  14 H :    0.131197
  15 H :    0.131255
  16 H :    0.126012
  17 H :    0.123346
  18 H :    0.164549

  Mayer bond orders larger than 0.1
B(  0-C ,  1-C ) :   0.8821 B(  0-C ,  8-H ) :   0.9434 B(  0-C ,  9-H ) :   0.9309
B(  0-C , 10-H ) :   0.9282 B(  1-C ,  2-O ) :   0.9017 B(  1-C ,  3-C ) :   0.9885
B(  1-C , 11-H ) :   0.9165 B(  2-O ,  3-C ) :   0.8958 B(  3-C ,  4-C ) :   0.8956
B(  3-C , 12-H ) :   0.9190 B(  4-C ,  5-C ) :   0.9080 B(  4-C ,  6-C ) :   0.9413
B(  4-C ,  7-N ) :   0.9306 B(  5-C , 13-H ) :   0.9334 B(  5-C , 14-H ) :   0.9321
B(  5-C , 15-H ) :   0.9355 B(  6-C ,  7-N ) :   0.9206 B(  6-C , 16-H ) :   0.9141
B(  6-C , 17-H ) :   0.9136 B(  7-N , 18-H ) :   0.8750

MP2 TOTAL ENERGY:     -364.396529667 Eh
FINAL SINGLE POINT ENERGY      -364.396529667462

DIPOLE MOMENT
-------------
                                X             Y             Z
Electronic contribution:      1.49908       0.06901      -3.33143
Nuclear contribution   :     -1.91500      -0.89393       3.47323
                        -----------------------------------------
Total Dipole Moment    :     -0.41592      -0.82493       0.14180
                        -----------------------------------------
Magnitude (a.u.)       :      0.93467
Magnitude (Debye)      :      2.37574

                             ****ORCA TERMINATED NORMALLY****
TOTAL RUN TIME: 0 days 0 hours 13 minutes 26 seconds 617 msec
