                         Program Version 3.0.3 - RELEASE   -
|  1> ! RI-MP2 RIJK def2-TZVP def2-TZVP/C def2-TZVP/JK TIGHTSCF
|  2> % maxcore 2000
|  3> % mp2 density relaxed end
|  4> *xyz 0 1
|  5>  C        0.3799684844     1.1731866409    -0.2985843555
|  6>  O       -0.3422448741     0.1901521990     0.4243477796
|  7>  C        0.4438361006    -0.5364397024     1.3020494883
|  8>  C       -0.1952624274    -1.7578491120     1.9925191000
|  9>  C       -0.1852622676    -2.5373462828     0.6583320477
| 10>  C        1.1984684741    -1.8482426132     0.8351332757
| 11>  O        1.1753437229    -2.2454197887     2.2690712611
| 12>  C        2.3999318680    -1.9981302275     0.0764039008
| 13>  C        3.3972164375    -2.1035061609    -0.5877382265
| 14>  H        1.1445189577     0.7198657870    -0.9430336045
| 15>  H       -0.3414604751     1.7091216817    -0.9185587213
| 16>  H        0.8706356539     1.8863134630     0.3796069953
| 17>  H        1.0601223878     0.0880688819     1.9605826908
| 18>  H       -0.9115410978    -1.7876673162     2.8109933215
| 19>  H       -0.1636347810    -3.6227721416     0.7551498080
| 20>  H       -0.8227302751    -2.1743116403    -0.1477570769
| 21>  H        4.2815285011    -2.2005106778    -1.1680068840
| 22> *
| 23>
| 24>                          ****END OF INPUT****

CARTESIAN COORDINATES (ANGSTROEM)
---------------------------------
  C      0.379968    1.173187   -0.298584
  O     -0.342245    0.190152    0.424348
  C      0.443836   -0.536440    1.302049
  C     -0.195262   -1.757849    1.992519
  C     -0.185262   -2.537346    0.658332
  C      1.198468   -1.848243    0.835133
  O      1.175344   -2.245420    2.269071
  C      2.399932   -1.998130    0.076404
  C      3.397216   -2.103506   -0.587738
  H      1.144519    0.719866   -0.943034
  H     -0.341460    1.709122   -0.918559
  H      0.870636    1.886313    0.379607
  H      1.060122    0.088069    1.960583
  H     -0.911541   -1.787667    2.810993
  H     -0.163635   -3.622772    0.755150
  H     -0.822730   -2.174312   -0.147757
  H      4.281529   -2.200511   -1.168007

 Total Charge           Charge          ....    0
 Multiplicity           Mult            ....    1
 Number of Electrons    NEL             ....   66
 Basis Dimension        Dim             ....  327

ORBITAL ENERGIES
----------------

  NO   OCC          E(Eh)            E(eV)
   0   2.0000     -20.574240      -559.8535
   1   2.0000     -20.561328      -559.5022
   2   2.0000     -11.325859      -308.1923
   3   2.0000     -11.304475      -307.6104
   4   2.0000     -11.303777      -307.5914
   5   2.0000     -11.282024      -306.9995
   6   2.0000     -11.245964      -306.0182
   7   2.0000     -11.243843      -305.9605
   8   2.0000     -11.241727      -305.9029
   9   2.0000      -1.418163       -38.5902
  10   2.0000      -1.385970       -37.7142
  11   2.0000      -1.080984       -29.4151
  12   2.0000      -1.048446       -28.5297
  13   2.0000      -0.961130       -26.1537
  14   2.0000      -0.918337       -24.9892
  15   2.0000      -0.899768       -24.4839
  16   2.0000      -0.778095       -21.1731
  17   2.0000      -0.750079       -20.4107
  18   2.0000      -0.707244       -19.2451
  19   2.0000      -0.680572       -18.5193
  20   2.0000      -0.668491       -18.1906
  21   2.0000      -0.647946       -17.6315
  22   2.0000      -0.596492       -16.2314
  23   2.0000      -0.570668       -15.5287
  24   2.0000      -0.547400       -14.8955
  25   2.0000      -0.525668       -14.3041
  26   2.0000      -0.500352       -13.6153
  27   2.0000      -0.492508       -13.4018
  28   2.0000      -0.484923       -13.1954
  29   2.0000      -0.453746       -12.3471
  30   2.0000      -0.426559       -11.6073
  31   2.0000      -0.402684       -10.9576
  32   2.0000      -0.379076       -10.3152
  33   0.0000       0.140438         3.8215
  34   0.0000       0.144376         3.9287
  35   0.0000       0.154044         4.1918
  36   0.0000       0.158356         4.3091
  37   0.0000       0.170405         4.6370

MULLIKEN ATOMIC CHARGES
-----------------------
   0 C :   -0.226582
   1 O :   -0.304751
   2 C :    0.143259
   3 C :   -0.041120
   4 C :   -0.120010
   5 C :   -0.206725
   6 O :   -0.291216
   7 C :    0.044208
   8 C :   -0.094091
   9 H :    0.132083
  10 H :    0.144727
  11 H :    0.119854
  12 H :    0.100949
  13 H :    0.147736
  14 H :    0.124897
  15 H :    0.129373
  16 H :    0.197408
Sum of atomic charges:   -0.0000000

LOEWDIN ATOMIC CHARGES
----------------------
   0 C :   -0.338720
   1 O :    0.172815
   2 C :   -0.256980
   3 C :   -0.204302
   4 C :   -0.157929
   5 C :   -0.251931
   6 O :    0.166137
   7 C :   -0.068848
   8 C :   -0.059851
   9 H :    0.108645
  10 H :    0.115155
  11 H :    0.106218
  12 H :    0.139890
  13 H :    0.126485
  14 H :    0.136616
  15 H :    0.136579
  16 H :    0.130021

  Mayer bond orders larger than 0.1
B(  0-C ,  1-O ) :   0.8909 B(  0-C ,  9-H ) :   0.9337 B(  0-C , 10-H ) :   0.9392
B(  0-C , 11-H ) :   0.9373 B(  1-O ,  2-C ) :   1.0037 B(  2-C ,  3-C ) :   0.9321
B(  2-C ,  5-C ) :   0.8802 B(  2-C , 12-H ) :   0.9210 B(  3-C ,  4-C ) :   0.9487
B(  3-C ,  6-O ) :   0.8959 B(  3-C , 13-H ) :   0.8865 B(  4-C ,  5-C ) :   0.8942
B(  4-C , 14-H ) :   0.9195 B(  4-C , 15-H ) :   0.9001 B(  5-C ,  6-O ) :   0.9562
B(  5-C ,  7-C ) :   1.1682 B(  5-C ,  8-C ) :  -0.1626 B(  7-C ,  8-C ) :   2.6420
B(  8-C , 16-H ) :   0.8623

MP2 TOTAL ENERGY:     -420.992823538 Eh
FINAL SINGLE POINT ENERGY      -420.992823537518

DIPOLE MOMENT
-------------
                                X             Y             Z
Electronic contribution:      1.67467      -3.73608       2.43843
Nuclear contribution   :     -1.73203       4.25050      -3.08269
                        -----------------------------------------
Total Dipole Moment    :     -0.05736       0.51442      -0.64427
                        -----------------------------------------
Magnitude (a.u.)       :      0.82644
Magnitude (Debye)      :      2.10063

                             ****ORCA TERMINATED NORMALLY****
TOTAL RUN TIME: 0 days 0 hours 27 minutes 25 seconds 357 msec
