                         Program Version 3.0.3 - RELEASE   -
|  1> ! RI-MP2 RIJK def2-TZVP def2-TZVP/C def2-TZVP/JK TIGHTSCF
|  2> % maxcore 2000
|  3> % mp2 density relaxed end
|  4> *xyz 0 1
|  5>  C       -0.2482456602     1.2529440793    -1.3817744725
|  6>  C       -0.0329521222    -0.0517757766    -0.6465980421
|  7>  C        1.3155035773    -0.6151125215    -0.3340942222
|  8>  C        2.6157821424     0.0564683289    -0.7179733703
|  9>  C        0.4298827106    -0.1126386579     0.8200258734
| 10>  C        0.7599458662     1.1103821034     1.6011948234
| 11>  C        0.3936227728     1.0524588240     3.0763815200
| 12>  O        1.2840633437     2.1021672632     1.1286611086
| 13>  H        0.4516847709     2.0239740192    -1.0616457496
| 14>  H       -0.1359027889     1.0997702878    -2.4609999049
| 15>  H       -1.2617459221     1.6289826633    -1.2055830474
| 16>  H       -0.7949648778    -0.7970227146    -0.8637341212
| 17>  H        1.3692837076    -1.7011719691    -0.3621416087
| 18>  H        2.5796707427     1.1349765446    -0.5683038294
| 19>  H        3.4419310373    -0.3361020965    -0.1154785526
| 20>  H        2.8482573460    -0.1467766759    -1.7693789079
| 21>  H       -0.0340158307    -0.8928772088     1.4151471480
| 22>  H        0.9058758626     0.2146616736     3.5634526367
| 23>  H        0.6714749383     1.9875912302     3.5635937716
| 24>  H       -0.6820687465     0.8783424434     3.1952084773
| 25> *
| 26>
| 27>                          ****END OF INPUT****

CARTESIAN COORDINATES (ANGSTROEM)
---------------------------------
  C     -0.248246    1.252944   -1.381774
  C     -0.032952   -0.051776   -0.646598
  C      1.315504   -0.615113   -0.334094
  C      2.615782    0.056468   -0.717973
  C      0.429883   -0.112639    0.820026
  C      0.759946    1.110382    1.601195
  C      0.393623    1.052459    3.076382
  O      1.284063    2.102167    1.128661
  H      0.451685    2.023974   -1.061646
  H     -0.135903    1.099770   -2.461000
  H     -1.261746    1.628983   -1.205583
  H     -0.794965   -0.797023   -0.863734
  H      1.369284   -1.701172   -0.362142
  H      2.579671    1.134977   -0.568304
  H      3.441931   -0.336102   -0.115479
  H      2.848257   -0.146777   -1.769379
  H     -0.034016   -0.892877    1.415147
  H      0.905876    0.214662    3.563453
  H      0.671475    1.987591    3.563594
  H     -0.682069    0.878342    3.195208

 Total Charge           Charge          ....    0
 Multiplicity           Mult            ....    1
 Number of Electrons    NEL             ....   62
 Basis Dimension        Dim             ....  320

ORBITAL ENERGIES
----------------

  NO   OCC          E(Eh)            E(eV)
   0   2.0000     -20.532296      -558.7122
   1   2.0000     -11.327380      -308.2337
   2   2.0000     -11.243802      -305.9594
   3   2.0000     -11.243052      -305.9390
   4   2.0000     -11.236085      -305.7494
   5   2.0000     -11.230213      -305.5896
   6   2.0000     -11.210688      -305.0583
   7   2.0000     -11.210673      -305.0579
   8   2.0000      -1.377477       -37.4831
   9   2.0000      -1.157475       -31.4965
  10   2.0000      -1.016721       -27.6664
  11   2.0000      -0.980181       -26.6721
  12   2.0000      -0.947222       -25.7752
  13   2.0000      -0.859521       -23.3888
  14   2.0000      -0.752166       -20.4675
  15   2.0000      -0.715592       -19.4723
  16   2.0000      -0.689956       -18.7747
  17   2.0000      -0.632937       -17.2231
  18   2.0000      -0.609537       -16.5863
  19   2.0000      -0.602255       -16.3882
  20   2.0000      -0.574792       -15.6409
  21   2.0000      -0.561595       -15.2818
  22   2.0000      -0.553697       -15.0669
  23   2.0000      -0.537612       -14.6292
  24   2.0000      -0.536936       -14.6108
  25   2.0000      -0.532449       -14.4887
  26   2.0000      -0.494907       -13.4671
  27   2.0000      -0.480303       -13.0697
  28   2.0000      -0.419772       -11.4226
  29   2.0000      -0.399915       -10.8822
  30   2.0000      -0.393258       -10.7011
  31   0.0000       0.126932         3.4540
  32   0.0000       0.143385         3.9017
  33   0.0000       0.153395         4.1741
  34   0.0000       0.164959         4.4888
  35   0.0000       0.176084         4.7915

MULLIKEN ATOMIC CHARGES
-----------------------
   0 C :   -0.422087
   1 C :   -0.062210
   2 C :   -0.062182
   3 C :   -0.422101
   4 C :   -0.190170
   5 C :    0.252441
   6 C :   -0.429209
   7 O :   -0.340301
   8 H :    0.167712
   9 H :    0.130888
  10 H :    0.129534
  11 H :    0.124603
  12 H :    0.124599
  13 H :    0.167730
  14 H :    0.129529
  15 H :    0.130882
  16 H :    0.129386
  17 H :    0.144605
  18 H :    0.151741
  19 H :    0.144609
Sum of atomic charges:    0.0000000

LOEWDIN ATOMIC CHARGES
----------------------
   0 C :   -0.290085
   1 C :   -0.199229
   2 C :   -0.199247
   3 C :   -0.290091
   4 C :   -0.165078
   5 C :   -0.338785
   6 C :   -0.278356
   7 O :    0.127808
   8 H :    0.133507
   9 H :    0.127235
  10 H :    0.126833
  11 H :    0.150915
  12 H :    0.150914
  13 H :    0.133512
  14 H :    0.126834
  15 H :    0.127230
  16 H :    0.153831
  17 H :    0.135575
  18 H :    0.131101
  19 H :    0.135576

  Mayer bond orders larger than 0.1
B(  0-C ,  1-C ) :   0.9172 B(  0-C ,  8-H ) :   0.9288 B(  0-C ,  9-H ) :   0.9332
B(  0-C , 10-H ) :   0.9371 B(  1-C ,  2-C ) :   0.8998 B(  1-C ,  4-C ) :   0.8157
B(  1-C , 11-H ) :   0.9314 B(  2-C ,  3-C ) :   0.9172 B(  2-C ,  4-C ) :   0.8157
B(  2-C , 12-H ) :   0.9314 B(  3-C , 13-H ) :   0.9288 B(  3-C , 14-H ) :   0.9371
B(  3-C , 15-H ) :   0.9332 B(  4-C ,  5-C ) :   0.9503 B(  4-C , 16-H ) :   0.9199
B(  5-C ,  6-C ) :   0.9109 B(  5-C ,  7-O ) :   1.8783 B(  6-C , 17-H ) :   0.9190
B(  6-C , 18-H ) :   0.9442 B(  6-C , 19-H ) :   0.9190

MP2 TOTAL ENERGY:     -348.409031249 Eh
FINAL SINGLE POINT ENERGY      -348.409031248703

DIPOLE MOMENT
-------------
                                X             Y             Z
Electronic contribution:      0.11997       1.43729       2.07745
Nuclear contribution   :     -0.53008      -2.33583      -1.92878
                        -----------------------------------------
Total Dipole Moment    :     -0.41012      -0.89854       0.14867
                        -----------------------------------------
Magnitude (a.u.)       :      0.99883
Magnitude (Debye)      :      2.53883

                             ****ORCA TERMINATED NORMALLY****
TOTAL RUN TIME: 0 days 0 hours 14 minutes 12 seconds 909 msec
