                         Program Version 3.0.3 - RELEASE   -
|  1> ! RI-MP2 RIJK def2-TZVP def2-TZVP/C def2-TZVP/JK TIGHTSCF
|  2> % maxcore 2000
|  3> % mp2 density relaxed end
|  4> *xyz 0 1
|  5>  C       -0.0109125694     1.5620017368    -0.0664478150
|  6>  C        1.4690489980     1.8860538185     0.0595047341
|  7>  C        2.4685755331     0.8662675034    -0.4801072294
|  8>  C        2.0945270804     0.8803765378     0.9858571025
|  9>  C        1.1923364458    -0.3661059007     0.9902641047
| 10>  O        1.9353390466    -1.3094727463     0.2054827004
| 11>  C        1.9282344946    -0.5084694275    -0.9685949852
| 12>  O        0.5504134001    -0.4075984676    -1.2709870288
| 13>  C        0.0190823776     0.0375531122    -0.0097842411
| 14>  H       -0.5618551500     1.9996983135     0.7751459490
| 15>  H       -0.4731615607     1.8998393679    -0.9977953542
| 16>  H        1.7876800283     2.9232178216     0.0823048081
| 17>  H        3.4350355527     1.2093013649    -0.8269953322
| 18>  H        2.7796998480     1.1032603812     1.7930138014
| 19>  H        0.9033811513    -0.7980509776     1.9452257665
| 20>  H        2.4622581173    -0.9905573323    -1.7851632149
| 21>  H       -0.9356132838    -0.4562645357     0.1728492441
| 22> *
| 23>
| 24>                          ****END OF INPUT****

CARTESIAN COORDINATES (ANGSTROEM)
---------------------------------
  C     -0.010913    1.562002   -0.066448
  C      1.469049    1.886054    0.059505
  C      2.468576    0.866268   -0.480107
  C      2.094527    0.880377    0.985857
  C      1.192336   -0.366106    0.990264
  O      1.935339   -1.309473    0.205483
  C      1.928234   -0.508469   -0.968595
  O      0.550413   -0.407598   -1.270987
  C      0.019082    0.037553   -0.009784
  H     -0.561855    1.999698    0.775146
  H     -0.473162    1.899839   -0.997795
  H      1.787680    2.923218    0.082305
  H      3.435036    1.209301   -0.826995
  H      2.779700    1.103260    1.793014
  H      0.903381   -0.798051    1.945226
  H      2.462258   -0.990557   -1.785163
  H     -0.935613   -0.456265    0.172849

 Total Charge           Charge          ....    0
 Multiplicity           Mult            ....    1
 Number of Electrons    NEL             ....   66
 Basis Dimension        Dim             ....  327

ORBITAL ENERGIES
----------------

  NO   OCC          E(Eh)            E(eV)
   0   2.0000     -20.557331      -559.3934
   1   2.0000     -20.555588      -559.3460
   2   2.0000     -11.334080      -308.4160
   3   2.0000     -11.291067      -307.2456
   4   2.0000     -11.285093      -307.0830
   5   2.0000     -11.247157      -306.0507
   6   2.0000     -11.238876      -305.8254
   7   2.0000     -11.234640      -305.7101
   8   2.0000     -11.229212      -305.5624
   9   2.0000      -1.446337       -39.3568
  10   2.0000      -1.327757       -36.1301
  11   2.0000      -1.178518       -32.0691
  12   2.0000      -1.041352       -28.3366
  13   2.0000      -0.962035       -26.1783
  14   2.0000      -0.882597       -24.0167
  15   2.0000      -0.830807       -22.6074
  16   2.0000      -0.777635       -21.1605
  17   2.0000      -0.765267       -20.8240
  18   2.0000      -0.744029       -20.2461
  19   2.0000      -0.664680       -18.0869
  20   2.0000      -0.650107       -17.6903
  21   2.0000      -0.618123       -16.8200
  22   2.0000      -0.596867       -16.2416
  23   2.0000      -0.585617       -15.9355
  24   2.0000      -0.548973       -14.9383
  25   2.0000      -0.541472       -14.7342
  26   2.0000      -0.521264       -14.1843
  27   2.0000      -0.499201       -13.5839
  28   2.0000      -0.474938       -12.9237
  29   2.0000      -0.439705       -11.9650
  30   2.0000      -0.428998       -11.6736
  31   2.0000      -0.414510       -11.2794
  32   2.0000      -0.401584       -10.9276
  33   0.0000       0.138211         3.7609
  34   0.0000       0.163156         4.4397
  35   0.0000       0.173774         4.7286
  36   0.0000       0.177138         4.8202
  37   0.0000       0.194262         5.2861

MULLIKEN ATOMIC CHARGES
-----------------------
   0 C :   -0.204955
   1 C :   -0.174182
   2 C :   -0.087851
   3 C :   -0.179104
   4 C :    0.059583
   5 O :   -0.294867
   6 C :    0.078478
   7 O :   -0.306564
   8 C :    0.073918
   9 H :    0.111111
  10 H :    0.118529
  11 H :    0.127592
  12 H :    0.140675
  13 H :    0.140118
  14 H :    0.139913
  15 H :    0.130395
  16 H :    0.127212
Sum of atomic charges:   -0.0000000

LOEWDIN ATOMIC CHARGES
----------------------
   0 C :   -0.219789
   1 C :   -0.168186
   2 C :   -0.148074
   3 C :   -0.156715
   4 C :   -0.232589
   5 O :    0.194502
   6 C :   -0.353275
   7 O :    0.192588
   8 C :   -0.243888
   9 H :    0.142355
  10 H :    0.142550
  11 H :    0.146552
  12 H :    0.145975
  13 H :    0.140668
  14 H :    0.141450
  15 H :    0.138863
  16 H :    0.137012

  Mayer bond orders larger than 0.1
B(  0-C ,  1-C ) :   0.9518 B(  0-C ,  8-C ) :   0.9471 B(  0-C ,  9-H ) :   0.9149
B(  0-C , 10-H ) :   0.9100 B(  1-C ,  2-C ) :   0.8545 B(  1-C ,  3-C ) :   0.8673
B(  1-C , 11-H ) :   0.9222 B(  2-C ,  3-C ) :   0.8645 B(  2-C ,  6-C ) :   0.9610
B(  2-C , 12-H ) :   0.9258 B(  3-C ,  4-C ) :   0.9609 B(  3-C , 13-H ) :   0.9236
B(  4-C ,  5-O ) :   0.9329 B(  4-C ,  8-C ) :   0.8958 B(  4-C , 14-H ) :   0.9122
B(  5-O ,  6-C ) :   1.0083 B(  6-C ,  7-O ) :   1.0117 B(  6-C , 15-H ) :   0.9162
B(  7-O ,  8-C ) :   0.8910 B(  8-C , 16-H ) :   0.9239

MP2 TOTAL ENERGY:     -421.126576544 Eh
FINAL SINGLE POINT ENERGY      -421.126576543985

DIPOLE MOMENT
-------------
                                X             Y             Z
Electronic contribution:      0.87524      -3.69258      -1.19559
Nuclear contribution   :     -0.81439       4.50800       1.66272
                        -----------------------------------------
Total Dipole Moment    :      0.06085       0.81542       0.46713
                        -----------------------------------------
Magnitude (a.u.)       :      0.94171
Magnitude (Debye)      :      2.39365

                             ****ORCA TERMINATED NORMALLY****
TOTAL RUN TIME: 0 days 0 hours 17 minutes 57 seconds 556 msec
