                         Program Version 3.0.3 - RELEASE   -
|  1> ! RI-MP2 RIJK def2-TZVP def2-TZVP/C def2-TZVP/JK TIGHTSCF
|  2> % maxcore 2000
|  3> % mp2 density relaxed end
|  4> *xyz 0 1
|  5>  C        0.0965818924     1.4311043610    -0.3426122600
|  6>  C        0.0122116593     0.0183175334     0.2490280430
|  7>  C       -1.3646963914    -0.5921643465     0.1160824043
|  8>  O       -2.3616330460    -0.0026210473     0.9145807323
|  9>  C       -1.9251842564    -1.1399303251    -1.1760953496
| 10>  O       -0.9997829283    -1.5235553843    -2.1881614554
| 11>  C       -0.2794261280    -2.5417391989    -1.6434411404
| 12>  N       -0.5534009432    -2.9316321811    -0.4647884861
| 13>  C       -1.6285925779    -2.0815150384    -0.0069611283
| 14>  H        1.0969180563     1.8525437880    -0.2084408783
| 15>  H       -0.1246484725     1.4219583939    -1.4148175112
| 16>  H       -0.6081849276     2.1147863472     0.1447700426
| 17>  H        0.7559658958    -0.6269071906    -0.2251087535
| 18>  H        0.2564615022     0.0413339285     1.3174841026
| 19>  H       -2.5602833360     0.8669283158     0.5485309912
| 20>  H       -2.8945054634    -0.8465082992    -1.5596187852
| 21>  H        0.4892582208    -2.9481806549    -2.2890206823
| 22>  H       -2.3745226662    -2.5209773014     0.6437210045
| 23> *
| 24>
| 25>                          ****END OF INPUT****

CARTESIAN COORDINATES (ANGSTROEM)
---------------------------------
  C      0.096582    1.431104   -0.342612
  C      0.012212    0.018318    0.249028
  C     -1.364696   -0.592164    0.116082
  O     -2.361633   -0.002621    0.914581
  C     -1.925184   -1.139930   -1.176095
  O     -0.999783   -1.523555   -2.188161
  C     -0.279426   -2.541739   -1.643441
  N     -0.553401   -2.931632   -0.464788
  C     -1.628593   -2.081515   -0.006961
  H      1.096918    1.852544   -0.208441
  H     -0.124648    1.421958   -1.414818
  H     -0.608185    2.114786    0.144770
  H      0.755966   -0.626907   -0.225109
  H      0.256462    0.041334    1.317484
  H     -2.560283    0.866928    0.548531
  H     -2.894505   -0.846508   -1.559619
  H      0.489258   -2.948181   -2.289021
  H     -2.374523   -2.520977    0.643721

 Total Charge           Charge          ....    0
 Multiplicity           Mult            ....    1
 Number of Electrons    NEL             ....   68
 Basis Dimension        Dim             ....  333

ORBITAL ENERGIES
----------------

  NO   OCC          E(Eh)            E(eV)
   0   2.0000     -20.611200      -560.8593
   1   2.0000     -20.575043      -559.8754
   2   2.0000     -15.559470      -423.3947
   3   2.0000     -11.339377      -308.5601
   4   2.0000     -11.300164      -307.4931
   5   2.0000     -11.297302      -307.4152
   6   2.0000     -11.268452      -306.6302
   7   2.0000     -11.231327      -305.6199
   8   2.0000     -11.224628      -305.4377
   9   2.0000      -1.456763       -39.6405
  10   2.0000      -1.385666       -37.7059
  11   2.0000      -1.229595       -33.4590
  12   2.0000      -1.117685       -30.4137
  13   2.0000      -1.038319       -28.2541
  14   2.0000      -0.899988       -24.4899
  15   2.0000      -0.853917       -23.2363
  16   2.0000      -0.844528       -22.9808
  17   2.0000      -0.753446       -20.5023
  18   2.0000      -0.741751       -20.1841
  19   2.0000      -0.696949       -18.9649
  20   2.0000      -0.667575       -18.1656
  21   2.0000      -0.630712       -17.1625
  22   2.0000      -0.606058       -16.4917
  23   2.0000      -0.595506       -16.2045
  24   2.0000      -0.592911       -16.1339
  25   2.0000      -0.567874       -15.4526
  26   2.0000      -0.551573       -15.0091
  27   2.0000      -0.524240       -14.2653
  28   2.0000      -0.510443       -13.8899
  29   2.0000      -0.495378       -13.4799
  30   2.0000      -0.475796       -12.9471
  31   2.0000      -0.465190       -12.6585
  32   2.0000      -0.393626       -10.7111
  33   2.0000      -0.364580        -9.9207
  34   0.0000       0.127308         3.4642
  35   0.0000       0.153587         4.1793
  36   0.0000       0.166846         4.5401
  37   0.0000       0.171369         4.6632
  38   0.0000       0.179428         4.8825

MULLIKEN ATOMIC CHARGES
-----------------------
   0 C :   -0.423100
   1 C :   -0.187308
   2 C :    0.158861
   3 O :   -0.461359
   4 C :   -0.026180
   5 O :   -0.260813
   6 C :    0.082033
   7 N :   -0.269718
   8 C :   -0.025104
   9 H :    0.142409
  10 H :    0.142242
  11 H :    0.109749
  12 H :    0.120431
  13 H :    0.129521
  14 H :    0.325876
  15 H :    0.149232
  16 H :    0.148180
  17 H :    0.145048
Sum of atomic charges:   -0.0000000

LOEWDIN ATOMIC CHARGES
----------------------
   0 C :   -0.314600
   1 C :   -0.249457
   2 C :   -0.339298
   3 O :    0.037618
   4 C :   -0.219135
   5 O :    0.254335
   6 C :   -0.337778
   7 N :    0.100084
   8 C :   -0.200547
   9 H :    0.124700
  10 H :    0.125056
  11 H :    0.116302
  12 H :    0.149279
  13 H :    0.148974
  14 H :    0.182102
  15 H :    0.139742
  16 H :    0.134625
  17 H :    0.147996

  Mayer bond orders larger than 0.1
B(  0-C ,  1-C ) :   0.9056 B(  0-C ,  9-H ) :   0.9405 B(  0-C , 10-H ) :   0.9393
B(  0-C , 11-H ) :   0.9354 B(  1-C ,  2-C ) :   0.9214 B(  1-C , 12-H ) :   0.9142
B(  1-C , 13-H ) :   0.9300 B(  2-C ,  3-O ) :   0.9259 B(  2-C ,  4-C ) :   0.8681
B(  2-C ,  8-C ) :   0.8417 B(  3-O , 14-H ) :   0.8368 B(  4-C ,  5-O ) :   0.8784
B(  4-C ,  8-C ) :   0.8695 B(  4-C , 15-H ) :   0.9236 B(  5-O ,  6-C ) :   1.0638
B(  6-C ,  7-N ) :   1.7887 B(  6-C , 16-H ) :   0.9280 B(  7-N ,  8-C ) :   0.9425
B(  8-C , 17-H ) :   0.9276

MP2 TOTAL ENERGY:     -438.354408066 Eh
FINAL SINGLE POINT ENERGY      -438.354408065670

DIPOLE MOMENT
-------------
                                X             Y             Z
Electronic contribution:     -2.97757      -6.89515      -1.85848
Nuclear contribution   :      2.93271       7.69564       1.36757
                        -----------------------------------------
Total Dipole Moment    :     -0.04486       0.80049      -0.49091
                        -----------------------------------------
Magnitude (a.u.)       :      0.94010
Magnitude (Debye)      :      2.38953

                             ****ORCA TERMINATED NORMALLY****
TOTAL RUN TIME: 0 days 0 hours 16 minutes 53 seconds 441 msec
