                         Program Version 3.0.3 - RELEASE   -
|  1> ! RI-MP2 RIJK def2-TZVP def2-TZVP/C def2-TZVP/JK TIGHTSCF
|  2> % maxcore 2000
|  3> % mp2 density relaxed end
|  4> *xyz 0 1
|  5>  C        0.1999196327     1.4984595556    -0.4675926218
|  6>  C        0.0026337828     0.0662211207    -0.0206686059
|  7>  C        1.1470232649    -0.8827034317     0.0800106485
|  8>  N        0.4512976342    -0.4377965249     1.2833182201
|  9>  C        1.1506742886     0.4355187694     2.2036154264
| 10>  C        1.8257873393    -0.4226317909     3.2902206665
| 11>  O        2.8531574878    -1.2542795811     2.7856291913
| 12>  C        2.3264468532     0.4389669229     4.3814916616
| 13>  N        2.7432743593     1.1312979203     5.2075888177
| 14>  H        1.2063859902     1.8689350409    -0.2584329498
| 15>  H        0.0408062882     1.5716181549    -1.5484162934
| 16>  H       -0.5186933145     2.1689036903     0.0166376203
| 17>  H       -0.9654291259    -0.3469888620    -0.3006266078
| 18>  H        1.0392178299    -1.9338955351    -0.1714503384
| 19>  H        2.1394584488    -0.4746496065    -0.1094826639
| 20>  H        1.9233920492     1.0725580928     1.7392505182
| 21>  H        0.4256431167     1.1019327553     2.6849343454
| 22>  H        1.0725776496    -1.1038033272     3.6983702333
| 23>  H        3.5797158849    -0.6924750936     2.4915574619
| 24> *
| 25>
| 26>                          ****END OF INPUT****

CARTESIAN COORDINATES (ANGSTROEM)
---------------------------------
  C      0.199920    1.498460   -0.467593
  C      0.002634    0.066221   -0.020669
  C      1.147023   -0.882703    0.080011
  N      0.451298   -0.437797    1.283318
  C      1.150674    0.435519    2.203615
  C      1.825787   -0.422632    3.290221
  O      2.853157   -1.254280    2.785629
  C      2.326447    0.438967    4.381492
  N      2.743274    1.131298    5.207589
  H      1.206386    1.868935   -0.258433
  H      0.040806    1.571618   -1.548416
  H     -0.518693    2.168904    0.016638
  H     -0.965429   -0.346989   -0.300627
  H      1.039218   -1.933896   -0.171450
  H      2.139458   -0.474650   -0.109483
  H      1.923392    1.072558    1.739251
  H      0.425643    1.101933    2.684934
  H      1.072578   -1.103803    3.698370
  H      3.579716   -0.692475    2.491557

 Total Charge           Charge          ....    0
 Multiplicity           Mult            ....    1
 Number of Electrons    NEL             ....   68
 Basis Dimension        Dim             ....  339

ORBITAL ENERGIES
----------------

  NO   OCC          E(Eh)            E(eV)
   0   2.0000     -20.590502      -560.2960
   1   2.0000     -15.580928      -423.9786
   2   2.0000     -15.571430      -423.7201
   3   2.0000     -11.339764      -308.5707
   4   2.0000     -11.283292      -307.0340
   5   2.0000     -11.277643      -306.8803
   6   2.0000     -11.273328      -306.7629
   7   2.0000     -11.262711      -306.4739
   8   2.0000     -11.236414      -305.7584
   9   2.0000      -1.401017       -38.1236
  10   2.0000      -1.287213       -35.0268
  11   2.0000      -1.225297       -33.3420
  12   2.0000      -1.074728       -29.2448
  13   2.0000      -1.001137       -27.2423
  14   2.0000      -0.944028       -25.6883
  15   2.0000      -0.842250       -22.9188
  16   2.0000      -0.801957       -21.8224
  17   2.0000      -0.759802       -20.6753
  18   2.0000      -0.698480       -19.0066
  19   2.0000      -0.676058       -18.3965
  20   2.0000      -0.652167       -17.7464
  21   2.0000      -0.647285       -17.6135
  22   2.0000      -0.590311       -16.0632
  23   2.0000      -0.585988       -15.9455
  24   2.0000      -0.573869       -15.6158
  25   2.0000      -0.559277       -15.2187
  26   2.0000      -0.547092       -14.8871
  27   2.0000      -0.524591       -14.2748
  28   2.0000      -0.507767       -13.8170
  29   2.0000      -0.476647       -12.9702
  30   2.0000      -0.472638       -12.8611
  31   2.0000      -0.468049       -12.7363
  32   2.0000      -0.448543       -12.2055
  33   2.0000      -0.382790       -10.4163
  34   0.0000       0.113813         3.0970
  35   0.0000       0.136797         3.7224
  36   0.0000       0.152315         4.1447
  37   0.0000       0.161816         4.4032
  38   0.0000       0.174555         4.7499

MULLIKEN ATOMIC CHARGES
-----------------------
   0 C :   -0.387277
   1 C :   -0.038430
   2 C :   -0.153948
   3 N :   -0.201653
   4 C :   -0.232379
   5 C :    0.233413
   6 O :   -0.445460
   7 C :   -0.197488
   8 N :   -0.053768
   9 H :    0.124312
  10 H :    0.145996
  11 H :    0.137607
  12 H :    0.123111
  13 H :    0.135667
  14 H :    0.099223
  15 H :    0.111573
  16 H :    0.140542
  17 H :    0.135712
  18 H :    0.323247
Sum of atomic charges:    0.0000000

LOEWDIN ATOMIC CHARGES
----------------------
   0 C :   -0.300045
   1 C :   -0.276451
   2 C :   -0.243448
   3 N :    0.113396
   4 C :   -0.274210
   5 C :   -0.336233
   6 O :    0.016495
   7 C :   -0.173696
   8 N :    0.069481
   9 H :    0.123472
  10 H :    0.132760
  11 H :    0.127730
  12 H :    0.142952
  13 H :    0.126293
  14 H :    0.121953
  15 H :    0.128029
  16 H :    0.147918
  17 H :    0.171199
  18 H :    0.182405

  Mayer bond orders larger than 0.1
B(  0-C ,  1-C ) :   0.9167 B(  0-C ,  9-H ) :   0.9351 B(  0-C , 10-H ) :   0.9310
B(  0-C , 11-H ) :   0.9364 B(  1-C ,  2-C ) :   0.9416 B(  1-C ,  3-N ) :   0.8873
B(  1-C , 12-H ) :   0.9222 B(  2-C ,  3-N ) :   0.8724 B(  2-C , 13-H ) :   0.9228
B(  2-C , 14-H ) :   0.9176 B(  3-N ,  4-C ) :   0.9196 B(  4-C ,  5-C ) :   0.9243
B(  4-C , 15-H ) :   0.9137 B(  4-C , 16-H ) :   0.9135 B(  5-C ,  6-O ) :   0.9145
B(  5-C ,  7-C ) :   0.9156 B(  5-C , 17-H ) :   0.9063 B(  6-O , 18-H ) :   0.8356
B(  7-C ,  8-N ) :   2.8524

MP2 TOTAL ENERGY:     -418.475363373 Eh
FINAL SINGLE POINT ENERGY      -418.475363372642

DIPOLE MOMENT
-------------
                                X             Y             Z
Electronic contribution:      3.76073      -2.37595       9.85531
Nuclear contribution   :     -4.05813       2.53116     -11.39205
                        -----------------------------------------
Total Dipole Moment    :     -0.29740       0.15521      -1.53674
                        -----------------------------------------
Magnitude (a.u.)       :      1.57293
Magnitude (Debye)      :      3.99806

                             ****ORCA TERMINATED NORMALLY****
TOTAL RUN TIME: 0 days 0 hours 17 minutes 58 seconds 649 msec
