                         Program Version 3.0.3 - RELEASE   -
|  1> ! RI-MP2 RIJK def2-TZVP def2-TZVP/C def2-TZVP/JK TIGHTSCF
|  2> % maxcore 2000
|  3> % mp2 density relaxed end
|  4> *xyz 0 1
|  5>  C       -0.0962998961     1.5540376343    -0.0250293131
|  6>  C       -0.0117851740     0.0402072300     0.0017297554
|  7>  C        1.2514415068    -0.6597663801    -0.5908840732
|  8>  O        2.0462762888    -0.1374076055     0.5521302102
|  9>  C        0.7888435634    -0.6548079332     1.1462317830
| 10>  C        0.9322207614    -1.8939944276     0.2556399109
| 11>  C        0.1536678332    -3.1520710706     0.0267289270
| 12>  C        1.6366785415    -3.1800891580     0.4082133963
| 13>  O        2.5830789133    -3.4920104092    -0.5710408739
| 14>  H        0.8697261837     1.9945012979     0.2293320319
| 15>  H       -0.3926497884     1.9091687929    -1.0180208015
| 16>  H       -0.8451198886     1.9149783309     0.6885058645
| 17>  H       -0.9601881397    -0.4450118576    -0.2503065432
| 18>  H        1.6930444490    -0.5970539093    -1.5849713237
| 19>  H        0.6725178585    -0.5814397697     2.2285635203
| 20>  H       -0.5791538659    -3.4704613541     0.7622118829
| 21>  H       -0.0834330517    -3.4147626050    -0.9998992165
| 22>  H        1.8830182991    -3.5136510705     1.4172377059
| 23>  H        2.5703451658    -4.4459814454    -0.7030310532
| 24> *
| 25>
| 26>                          ****END OF INPUT****

CARTESIAN COORDINATES (ANGSTROEM)
---------------------------------
  C     -0.096300    1.554038   -0.025029
  C     -0.011785    0.040207    0.001730
  C      1.251442   -0.659766   -0.590884
  O      2.046276   -0.137408    0.552130
  C      0.788844   -0.654808    1.146232
  C      0.932221   -1.893994    0.255640
  C      0.153668   -3.152071    0.026729
  C      1.636679   -3.180089    0.408213
  O      2.583079   -3.492010   -0.571041
  H      0.869726    1.994501    0.229332
  H     -0.392650    1.909169   -1.018021
  H     -0.845120    1.914978    0.688506
  H     -0.960188   -0.445012   -0.250307
  H      1.693044   -0.597054   -1.584971
  H      0.672518   -0.581440    2.228564
  H     -0.579154   -3.470461    0.762212
  H     -0.083433   -3.414763   -0.999899
  H      1.883018   -3.513651    1.417238
  H      2.570345   -4.445981   -0.703031

 Total Charge           Charge          ....    0
 Multiplicity           Mult            ....    1
 Number of Electrons    NEL             ....   68
 Basis Dimension        Dim             ....  339

ORBITAL ENERGIES
----------------

  NO   OCC          E(Eh)            E(eV)
   0   2.0000     -20.565179      -559.6070
   1   2.0000     -20.542496      -558.9897
   2   2.0000     -11.297939      -307.4325
   3   2.0000     -11.296443      -307.3918
   4   2.0000     -11.285936      -307.1059
   5   2.0000     -11.246652      -306.0370
   6   2.0000     -11.241999      -305.9103
   7   2.0000     -11.232348      -305.6477
   8   2.0000     -11.211567      -305.0822
   9   2.0000      -1.391195       -37.8563
  10   2.0000      -1.372406       -37.3451
  11   2.0000      -1.138458       -30.9790
  12   2.0000      -1.057651       -28.7801
  13   2.0000      -0.964065       -26.2335
  14   2.0000      -0.884167       -24.0594
  15   2.0000      -0.839631       -22.8475
  16   2.0000      -0.800535       -21.7837
  17   2.0000      -0.716034       -19.4843
  18   2.0000      -0.705084       -19.1863
  19   2.0000      -0.698176       -18.9983
  20   2.0000      -0.665265       -18.1028
  21   2.0000      -0.621609       -16.9148
  22   2.0000      -0.573886       -15.6162
  23   2.0000      -0.572069       -15.5668
  24   2.0000      -0.558275       -15.1914
  25   2.0000      -0.535003       -14.5582
  26   2.0000      -0.530840       -14.4449
  27   2.0000      -0.515650       -14.0315
  28   2.0000      -0.475213       -12.9312
  29   2.0000      -0.454149       -12.3580
  30   2.0000      -0.440123       -11.9764
  31   2.0000      -0.436160       -11.8685
  32   2.0000      -0.409998       -11.1566
  33   2.0000      -0.384204       -10.4547
  34   0.0000       0.139102         3.7852
  35   0.0000       0.147964         4.0263
  36   0.0000       0.162328         4.4172
  37   0.0000       0.166579         4.5328
  38   0.0000       0.188546         5.1306

MULLIKEN ATOMIC CHARGES
-----------------------
   0 C :   -0.461237
   1 C :    0.045167
   2 C :   -0.048913
   3 O :   -0.314172
   4 C :   -0.038694
   5 C :    0.133777
   6 C :   -0.295112
   7 C :   -0.066171
   8 O :   -0.452891
   9 H :    0.162420
  10 H :    0.130661
  11 H :    0.129541
  12 H :    0.108769
  13 H :    0.140087
  14 H :    0.136214
  15 H :    0.126941
  16 H :    0.133152
  17 H :    0.109120
  18 H :    0.321342
Sum of atomic charges:    0.0000000

LOEWDIN ATOMIC CHARGES
----------------------
   0 C :   -0.300336
   1 C :   -0.204527
   2 C :   -0.156802
   3 O :    0.134592
   4 C :   -0.168986
   5 C :   -0.189026
   6 C :   -0.197991
   7 C :   -0.294823
   8 O :    0.002475
   9 H :    0.133100
  10 H :    0.125222
  11 H :    0.124794
  12 H :    0.146947
  13 H :    0.130970
  14 H :    0.126643
  15 H :    0.134219
  16 H :    0.139099
  17 H :    0.133930
  18 H :    0.180501

  Mayer bond orders larger than 0.1
B(  0-C ,  1-C ) :   0.8897 B(  0-C ,  9-H ) :   0.9386 B(  0-C , 10-H ) :   0.9370
B(  0-C , 11-H ) :   0.9360 B(  1-C ,  2-C ) :   0.9045 B(  1-C ,  4-C ) :   0.9169
B(  1-C , 12-H ) :   0.9131 B(  2-C ,  3-O ) :   0.8984 B(  2-C ,  4-C ) :   0.1154
B(  2-C ,  5-C ) :   0.9109 B(  2-C , 13-H ) :   0.8835 B(  3-O ,  4-C ) :   0.9112
B(  4-C ,  5-C ) :   0.9082 B(  4-C , 14-H ) :   0.8734 B(  5-C ,  6-C ) :   0.8755
B(  5-C ,  7-C ) :   0.8144 B(  5-C ,  8-O ) :  -0.1542 B(  6-C ,  7-C ) :   0.9152
B(  6-C , 15-H ) :   0.9042 B(  6-C , 16-H ) :   0.9099 B(  7-C ,  8-O ) :   1.1423
B(  7-C , 17-H ) :   0.9674 B(  8-O , 18-H ) :   0.8419

MP2 TOTAL ENERGY:     -422.217777604 Eh
FINAL SINGLE POINT ENERGY      -422.217777603667

DIPOLE MOMENT
-------------
                                X             Y             Z
Electronic contribution:      4.48712      -2.95065       0.43209
Nuclear contribution   :     -5.46119       2.20809      -0.40906
                        -----------------------------------------
Total Dipole Moment    :     -0.97407      -0.74257       0.02303
                        -----------------------------------------
Magnitude (a.u.)       :      1.22505
Magnitude (Debye)      :      3.11384

                             ****ORCA TERMINATED NORMALLY****
TOTAL RUN TIME: 0 days 0 hours 15 minutes 51 seconds 574 msec
