                         Program Version 3.0.3 - RELEASE   -
|  1> ! RI-MP2 RIJK def2-TZVP def2-TZVP/C def2-TZVP/JK TIGHTSCF
|  2> % maxcore 2000
|  3> % mp2 density relaxed end
|  4> *xyz 0 1
|  5>  C       -0.0345124425     1.4890460700     0.0089731985
|  6>  C       -0.0266336922    -0.0163929892    -0.0481135738
|  7>  C        0.2515217891    -0.8230204019    -1.3459509861
|  8>  C       -0.4743157208    -1.9772264390    -0.6157577282
|  9>  C        0.3036139910    -2.2464742567     0.6947152616
| 10>  C       -0.6536500481    -1.4596794498     1.5635877493
| 11>  C        0.6363618774    -0.8131916023     1.1082215698
| 12>  C       -1.2858894307    -0.9332644473     0.2414642433
| 13>  H        0.9737937033     1.8955410752    -0.1382117256
| 14>  H       -0.6805065686     1.9154142096    -0.7663440513
| 15>  H       -0.3948006579     1.8450424742     0.9810602544
| 16>  H       -0.3393691997    -0.4409500075    -2.1862146177
| 17>  H        1.2904361303    -0.9701378574    -1.6598941827
| 18>  H       -0.9307442687    -2.8165612665    -1.1387936022
| 19>  H        0.9260498211    -3.0916140360     0.9581536931
| 20>  H       -1.0428005581    -1.6554596403     2.5537652199
| 21>  H        1.5140638364    -0.5549768873     1.6875938507
| 22>  H       -2.3156194615    -0.6381384878     0.0523602970
| 23> *
| 24>
| 25>                          ****END OF INPUT****

CARTESIAN COORDINATES (ANGSTROEM)
---------------------------------
  C     -0.034512    1.489046    0.008973
  C     -0.026634   -0.016393   -0.048114
  C      0.251522   -0.823020   -1.345951
  C     -0.474316   -1.977226   -0.615758
  C      0.303614   -2.246474    0.694715
  C     -0.653650   -1.459679    1.563588
  C      0.636362   -0.813192    1.108222
  C     -1.285889   -0.933264    0.241464
  H      0.973794    1.895541   -0.138212
  H     -0.680507    1.915414   -0.766344
  H     -0.394801    1.845042    0.981060
  H     -0.339369   -0.440950   -2.186215
  H      1.290436   -0.970138   -1.659894
  H     -0.930744   -2.816561   -1.138794
  H      0.926050   -3.091614    0.958154
  H     -1.042801   -1.655460    2.553765
  H      1.514064   -0.554977    1.687594
  H     -2.315619   -0.638138    0.052360

 Total Charge           Charge          ....    0
 Multiplicity           Mult            ....    1
 Number of Electrons    NEL             ....   58
 Basis Dimension        Dim             ....  308

ORBITAL ENERGIES
----------------

  NO   OCC          E(Eh)            E(eV)
   0   2.0000     -11.232797      -305.6599
   1   2.0000     -11.227079      -305.5044
   2   2.0000     -11.226384      -305.4854
   3   2.0000     -11.226117      -305.4782
   4   2.0000     -11.225136      -305.4515
   5   2.0000     -11.223564      -305.4087
   6   2.0000     -11.211803      -305.0887
   7   2.0000     -11.211707      -305.0861
   8   2.0000      -1.243864       -33.8473
   9   2.0000      -1.040097       -28.3025
  10   2.0000      -0.986560       -26.8457
  11   2.0000      -0.897867       -24.4322
  12   2.0000      -0.877480       -23.8775
  13   2.0000      -0.797856       -21.7108
  14   2.0000      -0.724266       -19.7083
  15   2.0000      -0.700188       -19.0531
  16   2.0000      -0.666459       -18.1353
  17   2.0000      -0.617759       -16.8101
  18   2.0000      -0.600190       -16.3320
  19   2.0000      -0.580591       -15.7987
  20   2.0000      -0.548672       -14.9301
  21   2.0000      -0.538181       -14.6446
  22   2.0000      -0.521025       -14.1778
  23   2.0000      -0.464978       -12.6527
  24   2.0000      -0.458771       -12.4838
  25   2.0000      -0.408671       -11.1205
  26   2.0000      -0.405847       -11.0436
  27   2.0000      -0.373495       -10.1633
  28   2.0000      -0.352579        -9.5942
  29   0.0000       0.142210         3.8697
  30   0.0000       0.163592         4.4516
  31   0.0000       0.172442         4.6924
  32   0.0000       0.180322         4.9068
  33   0.0000       0.201562         5.4848

MULLIKEN ATOMIC CHARGES
-----------------------
   0 C :   -0.425514
   1 C :    0.123750
   2 C :   -0.243850
   3 C :   -0.067776
   4 C :   -0.180076
   5 C :   -0.183004
   6 C :   -0.193215
   7 C :   -0.094237
   8 H :    0.131100
   9 H :    0.129371
  10 H :    0.136532
  11 H :    0.104511
  12 H :    0.107816
  13 H :    0.124009
  14 H :    0.131895
  15 H :    0.136310
  16 H :    0.129026
  17 H :    0.133350
Sum of atomic charges:   -0.0000000

LOEWDIN ATOMIC CHARGES
----------------------
   0 C :   -0.276638
   1 C :   -0.210861
   2 C :   -0.184861
   3 C :   -0.155358
   4 C :   -0.139179
   5 C :   -0.135335
   6 C :   -0.121926
   7 C :   -0.085651
   8 H :    0.128389
   9 H :    0.126041
  10 H :    0.130289
  11 H :    0.137302
  12 H :    0.125052
  13 H :    0.131975
  14 H :    0.134783
  15 H :    0.128715
  16 H :    0.136468
  17 H :    0.130795

  Mayer bond orders larger than 0.1
B(  0-C ,  1-C ) :   0.8636 B(  0-C ,  8-H ) :   0.9406 B(  0-C ,  9-H ) :   0.9433
B(  0-C , 10-H ) :   0.9411 B(  1-C ,  2-C ) :   0.9270 B(  1-C ,  6-C ) :   0.8948
B(  1-C ,  7-C ) :   0.9233 B(  2-C ,  3-C ) :   0.9276 B(  2-C , 11-H ) :   0.9131
B(  2-C , 12-H ) :   0.9143 B(  3-C ,  4-C ) :   0.8903 B(  3-C ,  7-C ) :   0.9330
B(  3-C , 13-H ) :   0.9188 B(  4-C ,  5-C ) :   0.8341 B(  4-C ,  6-C ) :   0.8786
B(  4-C , 14-H ) :   0.9306 B(  5-C ,  6-C ) :   0.8470 B(  5-C ,  7-C ) :   0.9397
B(  5-C , 15-H ) :   0.9205 B(  6-C , 16-H ) :   0.9317 B(  7-C , 17-H ) :   0.9102

MP2 TOTAL ENERGY:     -310.020744239 Eh
FINAL SINGLE POINT ENERGY      -310.020744239371

DIPOLE MOMENT
-------------
                                X             Y             Z
Electronic contribution:     -0.51636      -3.31963       1.43194
Nuclear contribution   :      0.51361       3.36534      -1.41414
                        -----------------------------------------
Total Dipole Moment    :     -0.00275       0.04572       0.01780
                        -----------------------------------------
Magnitude (a.u.)       :      0.04914
Magnitude (Debye)      :      0.12489

                             ****ORCA TERMINATED NORMALLY****
TOTAL RUN TIME: 0 days 0 hours 13 minutes 54 seconds 517 msec
