                         Program Version 3.0.3 - RELEASE   -
|  1> ! RI-MP2 RIJK def2-TZVP def2-TZVP/C def2-TZVP/JK TIGHTSCF
|  2> % maxcore 2000
|  3> % mp2 density relaxed end
|  4> *xyz 0 1
|  5>  C        0.1462089299     1.3801685091    -0.4256170401
|  6>  C        0.0251112766     0.0004425740     0.2435158347
|  7>  O        0.4302472615     0.0686775909     1.5893147646
|  8>  C       -1.3933833749    -0.5382098492     0.1321229651
|  9>  C       -1.9593193570    -0.9601350558    -1.0768328890
| 10>  N       -3.2074224948    -1.4118759472    -1.1625599682
| 11>  C       -3.9068803778    -1.4430678677    -0.0233443561
| 12>  C       -3.3555829287    -1.0328378076     1.1842008750
| 13>  N       -2.1006889733    -0.5831914852     1.2612709457
| 14>  H        1.1686482711     1.7472987895    -0.3059091259
| 15>  H       -0.0857567594     1.3332458174    -1.4946739640
| 16>  H       -0.5352722307     2.0917794110     0.0505110471
| 17>  H        0.6933683811    -0.6982574483    -0.2832341325
| 18>  H       -0.3787231524    -0.0385579127     2.1139998037
| 19>  H       -1.3801489959    -0.9369673310    -1.9971123790
| 20>  H       -4.9279633810    -1.8096537966    -0.0774572448
| 21>  H       -3.9274462243    -1.0689307203     2.1073696636
| 22> *
| 23>
| 24>                          ****END OF INPUT****

CARTESIAN COORDINATES (ANGSTROEM)
---------------------------------
  C      0.146209    1.380169   -0.425617
  C      0.025111    0.000443    0.243516
  O      0.430247    0.068678    1.589315
  C     -1.393383   -0.538210    0.132123
  C     -1.959319   -0.960135   -1.076833
  N     -3.207422   -1.411876   -1.162560
  C     -3.906880   -1.443068   -0.023344
  C     -3.355583   -1.032838    1.184201
  N     -2.100689   -0.583191    1.261271
  H      1.168648    1.747299   -0.305909
  H     -0.085757    1.333246   -1.494674
  H     -0.535272    2.091779    0.050511
  H      0.693368   -0.698257   -0.283234
  H     -0.378723   -0.038558    2.114000
  H     -1.380149   -0.936967   -1.997112
  H     -4.927963   -1.809654   -0.077457
  H     -3.927446   -1.068931    2.107370

 Total Charge           Charge          ....    0
 Multiplicity           Mult            ....    1
 Number of Electrons    NEL             ....   66
 Basis Dimension        Dim             ....  327

ORBITAL ENERGIES
----------------

  NO   OCC          E(Eh)            E(eV)
   0   2.0000     -20.547177      -559.1171
   1   2.0000     -15.601004      -424.5249
   2   2.0000     -15.600223      -424.5037
   3   2.0000     -11.296926      -307.4050
   4   2.0000     -11.295324      -307.3614
   5   2.0000     -11.293034      -307.2991
   6   2.0000     -11.289575      -307.2049
   7   2.0000     -11.286060      -307.1093
   8   2.0000     -11.223261      -305.4005
   9   2.0000      -1.367336       -37.2071
  10   2.0000      -1.315187       -35.7881
  11   2.0000      -1.228257       -33.4226
  12   2.0000      -1.080809       -29.4103
  13   2.0000      -1.010891       -27.5078
  14   2.0000      -0.911626       -24.8066
  15   2.0000      -0.905956       -24.6523
  16   2.0000      -0.828168       -22.5356
  17   2.0000      -0.743929       -20.2433
  18   2.0000      -0.720074       -19.5942
  19   2.0000      -0.694269       -18.8920
  20   2.0000      -0.648956       -17.6590
  21   2.0000      -0.635942       -17.3049
  22   2.0000      -0.596439       -16.2299
  23   2.0000      -0.580196       -15.7879
  24   2.0000      -0.569278       -15.4908
  25   2.0000      -0.557888       -15.1809
  26   2.0000      -0.534061       -14.5325
  27   2.0000      -0.509444       -13.8627
  28   2.0000      -0.492538       -13.4026
  29   2.0000      -0.449023       -12.2185
  30   2.0000      -0.443204       -12.0602
  31   2.0000      -0.421214       -11.4618
  32   2.0000      -0.357339        -9.7237
  33   0.0000       0.072965         1.9855
  34   0.0000       0.103222         2.8088
  35   0.0000       0.140147         3.8136
  36   0.0000       0.162153         4.4124
  37   0.0000       0.174619         4.7516

MULLIKEN ATOMIC CHARGES
-----------------------
   0 C :   -0.356299
   1 C :    0.066364
   2 O :   -0.478389
   3 C :    0.222939
   4 C :   -0.081158
   5 N :   -0.236726
   6 C :   -0.007611
   7 C :   -0.049475
   8 N :   -0.326539
   9 H :    0.141285
  10 H :    0.118471
  11 H :    0.121294
  12 H :    0.099714
  13 H :    0.335244
  14 H :    0.146498
  15 H :    0.143420
  16 H :    0.140968
Sum of atomic charges:   -0.0000000

LOEWDIN ATOMIC CHARGES
----------------------
   0 C :   -0.287313
   1 C :   -0.345031
   2 O :   -0.010032
   3 C :   -0.203758
   4 C :   -0.173587
   5 N :    0.144888
   6 C :   -0.208001
   7 C :   -0.207859
   8 N :    0.157913
   9 H :    0.128654
  10 H :    0.122188
  11 H :    0.125891
  12 H :    0.147880
  13 H :    0.174343
  14 H :    0.147062
  15 H :    0.143404
  16 H :    0.143358

  Mayer bond orders larger than 0.1
B(  0-C ,  1-C ) :   0.8887 B(  0-C ,  9-H ) :   0.9336 B(  0-C , 10-H ) :   0.9244
B(  0-C , 11-H ) :   0.9281 B(  1-C ,  2-O ) :   1.0595 B(  1-C ,  3-C ) :   0.9138
B(  1-C , 12-H ) :   0.9276 B(  2-O , 13-H ) :   0.7996 B(  3-C ,  4-C ) :   1.2547
B(  3-C ,  8-N ) :   1.2473 B(  4-C ,  5-N ) :   1.4243 B(  4-C , 14-H ) :   0.9387
B(  5-N ,  6-C ) :   1.3532 B(  6-C ,  7-C ) :   1.3290 B(  6-C , 15-H ) :   0.9292
B(  7-C ,  8-N ) :   1.3961 B(  7-C , 16-H ) :   0.9276

MP2 TOTAL ENERGY:     -417.344948102 Eh
FINAL SINGLE POINT ENERGY      -417.344948102263

DIPOLE MOMENT
-------------
                                X             Y             Z
Electronic contribution:     -4.08956      -4.09124       1.32408
Nuclear contribution   :      3.45942       4.05225      -1.52767
                        -----------------------------------------
Total Dipole Moment    :     -0.63014      -0.03898      -0.20359
                        -----------------------------------------
Magnitude (a.u.)       :      0.66336
Magnitude (Debye)      :      1.68614

                             ****ORCA TERMINATED NORMALLY****
TOTAL RUN TIME: 0 days 0 hours 17 minutes 12 seconds 595 msec
