                         Program Version 3.0.3 - RELEASE   -
|  1> ! RI-MP2 RIJK def2-TZVP def2-TZVP/C def2-TZVP/JK TIGHTSCF
|  2> % maxcore 2000
|  3> % mp2 density relaxed end
|  4> *xyz 0 1
|  5>  N       -0.2512167278     1.4079174800    -0.1976963764
|  6>  C       -0.0117183317     0.0792695710    -0.3733212905
|  7>  O        1.0228714460    -0.3423629315    -0.8560114551
|  8>  C       -1.1444327830    -0.8417978400     0.0850229442
|  9>  C       -0.7060582821    -2.3006457732     0.1250056465
| 10>  C       -0.2285890001    -2.7841051419     1.4895077558
| 11>  O        0.0360011180    -3.9310791989     1.7365434020
| 12>  C       -1.7450542021    -3.2698596940    -0.4321375311
| 13>  O       -2.7309239881    -2.9273141070    -1.0308366420
| 14>  H        0.4137701592     2.0633238832    -0.5752095611
| 15>  H       -1.1498490144     1.7516162258     0.0936451896
| 16>  H       -1.5223131374    -0.5094061369     1.0597909293
| 17>  H       -1.9804250581    -0.7497424996    -0.6183839970
| 18>  H        0.1778309867    -2.3998688913    -0.5296490425
| 19>  H       -0.1445287716    -1.9884646419     2.2644574387
| 20>  H       -1.5094731334    -4.3345571739    -0.2417311003
| 21> *
| 22>
| 23>                          ****END OF INPUT****

CARTESIAN COORDINATES (ANGSTROEM)
---------------------------------
  N     -0.251217    1.407917   -0.197696
  C     -0.011718    0.079270   -0.373321
  O      1.022871   -0.342363   -0.856011
  C     -1.144433   -0.841798    0.085023
  C     -0.706058   -2.300646    0.125006
  C     -0.228589   -2.784105    1.489508
  O      0.036001   -3.931079    1.736543
  C     -1.745054   -3.269860   -0.432138
  O     -2.730924   -2.927314   -1.030837
  H      0.413770    2.063324   -0.575210
  H     -1.149849    1.751616    0.093645
  H     -1.522313   -0.509406    1.059791
  H     -1.980425   -0.749742   -0.618384
  H      0.177831   -2.399869   -0.529649
  H     -0.144529   -1.988465    2.264457
  H     -1.509473   -4.334557   -0.241731

 Total Charge           Charge          ....    0
 Multiplicity           Mult            ....    1
 Number of Electrons    NEL             ....   68
 Basis Dimension        Dim             ....  321

ORBITAL ENERGIES
----------------

  NO   OCC          E(Eh)            E(eV)
   0   2.0000     -20.577506      -559.9424
   1   2.0000     -20.572532      -559.8071
   2   2.0000     -20.538929      -558.8927
   3   2.0000     -15.600955      -424.5236
   4   2.0000     -11.372664      -309.4659
   5   2.0000     -11.356025      -309.0132
   6   2.0000     -11.348344      -308.8041
   7   2.0000     -11.270075      -306.6743
   8   2.0000     -11.266640      -306.5809
   9   2.0000      -1.420101       -38.6429
  10   2.0000      -1.412213       -38.4283
  11   2.0000      -1.403545       -38.1924
  12   2.0000      -1.230750       -33.4904
  13   2.0000      -1.112404       -30.2701
  14   2.0000      -0.976890       -26.5825
  15   2.0000      -0.865749       -23.5582
  16   2.0000      -0.822217       -22.3737
  17   2.0000      -0.773781       -21.0557
  18   2.0000      -0.747082       -20.3291
  19   2.0000      -0.705944       -19.2097
  20   2.0000      -0.698634       -19.0108
  21   2.0000      -0.679799       -18.4983
  22   2.0000      -0.651198       -17.7200
  23   2.0000      -0.647038       -17.6068
  24   2.0000      -0.615656       -16.7528
  25   2.0000      -0.591226       -16.0881
  26   2.0000      -0.575003       -15.6466
  27   2.0000      -0.545122       -14.8335
  28   2.0000      -0.538946       -14.6655
  29   2.0000      -0.511415       -13.9163
  30   2.0000      -0.454792       -12.3755
  31   2.0000      -0.448627       -12.2078
  32   2.0000      -0.436750       -11.8846
  33   2.0000      -0.423787       -11.5318
  34   0.0000       0.097914         2.6644
  35   0.0000       0.111826         3.0429
  36   0.0000       0.127611         3.4725
  37   0.0000       0.151617         4.1257
  38   0.0000       0.166627         4.5341

MULLIKEN ATOMIC CHARGES
-----------------------
   0 N :   -0.479085
   1 C :    0.285771
   2 O :   -0.354842
   3 C :   -0.340398
   4 C :    0.007998
   5 C :    0.049159
   6 O :   -0.258146
   7 C :    0.096086
   8 O :   -0.271947
   9 H :    0.265858
  10 H :    0.263278
  11 H :    0.147688
  12 H :    0.181157
  13 H :    0.179302
  14 H :    0.100639
  15 H :    0.127482
Sum of atomic charges:    0.0000000

LOEWDIN ATOMIC CHARGES
----------------------
   0 N :   -0.015336
   1 C :   -0.473475
   2 O :    0.084208
   3 C :   -0.214496
   4 C :   -0.255735
   5 C :   -0.263335
   6 O :    0.145430
   7 C :   -0.256141
   8 O :    0.137685
   9 H :    0.176577
  10 H :    0.173226
  11 H :    0.149834
  12 H :    0.165519
  13 H :    0.202714
  14 H :    0.116625
  15 H :    0.126699

  Mayer bond orders larger than 0.1
B(  0-N ,  1-C ) :   1.1753 B(  0-N ,  9-H ) :   0.8570 B(  0-N , 10-H ) :   0.8694
B(  1-C ,  2-O ) :   1.9294 B(  1-C ,  3-C ) :   0.9133 B(  3-C ,  4-C ) :   0.8877
B(  3-C , 11-H ) :   0.9221 B(  3-C , 12-H ) :   0.8759 B(  4-C ,  5-C ) :   0.8287
B(  4-C ,  7-C ) :   0.8502 B(  4-C , 13-H ) :   0.8508 B(  5-C ,  6-O ) :   1.9786
B(  5-C , 14-H ) :   0.9448 B(  7-C ,  8-O ) :   1.9648 B(  7-C , 15-H ) :   0.9352

MP2 TOTAL ENERGY:     -474.316141067 Eh
FINAL SINGLE POINT ENERGY      -474.316141067236

DIPOLE MOMENT
-------------
                                X             Y             Z
Electronic contribution:      0.68348      -3.32934      -0.54661
Nuclear contribution   :     -1.18002       4.93971       0.99953
                        -----------------------------------------
Total Dipole Moment    :     -0.49653       1.61037       0.45291
                        -----------------------------------------
Magnitude (a.u.)       :      1.74499
Magnitude (Debye)      :      4.43540

                             ****ORCA TERMINATED NORMALLY****
TOTAL RUN TIME: 0 days 0 hours 14 minutes 42 seconds 814 msec
