                         Program Version 3.0.3 - RELEASE   -
|  1> ! RI-MP2 RIJK def2-TZVP def2-TZVP/C def2-TZVP/JK TIGHTSCF
|  2> % maxcore 2000
|  3> % mp2 density relaxed end
|  4> *xyz 0 1
|  5>  N       -0.0295600288     1.3652833132     0.0100055575
|  6>  C        1.2709530031     1.8328091134    -0.0000672765
|  7>  C        2.1451868132     0.7816816931    -0.0143159856
|  8>  C        1.3537665333    -0.4133468193    -0.0131888095
|  9>  C       -0.0125779228    -0.0086185330     0.0023602117
| 10>  C       -1.0255573761    -0.9602730669     0.0070331472
| 11>  C       -0.6140765801    -2.2858114919    -0.0042410065
| 12>  C        0.7576516201    -2.5971116385    -0.0193257166
| 13>  N        1.7381141016    -1.6997829924    -0.0239783230
| 14>  H       -0.8516411997     1.9427019286     0.0211913532
| 15>  H        1.4621298159     2.8949139278     0.0038899441
| 16>  H        3.2216998768     0.8385063563    -0.0244713518
| 17>  H       -2.0763149757    -0.6884636669     0.0187609230
| 18>  H       -1.3428135309    -3.0884115665    -0.0015328076
| 19>  H        1.0642364902    -3.6407661170    -0.0280317196
| 20> *
| 21>
| 22>                          ****END OF INPUT****

CARTESIAN COORDINATES (ANGSTROEM)
---------------------------------
  N     -0.029560    1.365283    0.010006
  C      1.270953    1.832809   -0.000067
  C      2.145187    0.781682   -0.014316
  C      1.353767   -0.413347   -0.013189
  C     -0.012578   -0.008619    0.002360
  C     -1.025557   -0.960273    0.007033
  C     -0.614077   -2.285811   -0.004241
  C      0.757652   -2.597112   -0.019326
  N      1.738114   -1.699783   -0.023978
  H     -0.851641    1.942702    0.021191
  H      1.462130    2.894914    0.003890
  H      3.221700    0.838506   -0.024471
  H     -2.076315   -0.688464    0.018761
  H     -1.342814   -3.088412   -0.001533
  H      1.064236   -3.640766   -0.028032

 Total Charge           Charge          ....    0
 Multiplicity           Mult            ....    1
 Number of Electrons    NEL             ....   62
 Basis Dimension        Dim             ....  315

ORBITAL ENERGIES
----------------

  NO   OCC          E(Eh)            E(eV)
   0   2.0000     -15.609675      -424.7609
   1   2.0000     -15.554666      -423.2640
   2   2.0000     -11.279812      -306.9393
   3   2.0000     -11.269974      -306.6716
   4   2.0000     -11.258727      -306.3655
   5   2.0000     -11.258284      -306.3535
   6   2.0000     -11.252888      -306.2067
   7   2.0000     -11.232353      -305.6479
   8   2.0000     -11.217168      -305.2347
   9   2.0000      -1.308006       -35.5926
  10   2.0000      -1.235910       -33.6308
  11   2.0000      -1.085219       -29.5303
  12   2.0000      -1.042394       -28.3650
  13   2.0000      -0.994123       -27.0514
  14   2.0000      -0.870549       -23.6888
  15   2.0000      -0.831452       -22.6250
  16   2.0000      -0.799012       -21.7422
  17   2.0000      -0.737602       -20.0712
  18   2.0000      -0.676995       -18.4220
  19   2.0000      -0.666563       -18.1381
  20   2.0000      -0.624060       -16.9815
  21   2.0000      -0.597798       -16.2669
  22   2.0000      -0.592089       -16.1116
  23   2.0000      -0.573410       -15.6033
  24   2.0000      -0.555743       -15.1225
  25   2.0000      -0.526789       -14.3347
  26   2.0000      -0.500850       -13.6288
  27   2.0000      -0.407864       -11.0986
  28   2.0000      -0.407251       -11.0819
  29   2.0000      -0.319673        -8.6987
  30   2.0000      -0.298805        -8.1309
  31   0.0000       0.096045         2.6135
  32   0.0000       0.125761         3.4221
  33   0.0000       0.150252         4.0886
  34   0.0000       0.159977         4.3532
  35   0.0000       0.175954         4.7879

MULLIKEN ATOMIC CHARGES
-----------------------
   0 N :   -0.288516
   1 C :   -0.001767
   2 C :   -0.300772
   3 C :    0.165244
   4 C :    0.143614
   5 C :   -0.245095
   6 C :   -0.071455
   7 C :   -0.070293
   8 N :   -0.229271
   9 H :    0.244407
  10 H :    0.150402
  11 H :    0.133008
  12 H :    0.123786
  13 H :    0.128688
  14 H :    0.118021
Sum of atomic charges:    0.0000000

LOEWDIN ATOMIC CHARGES
----------------------
   0 N :    0.189050
   1 C :   -0.205301
   2 C :   -0.151574
   3 C :   -0.206160
   4 C :   -0.174058
   5 C :   -0.122110
   6 C :   -0.160298
   7 C :   -0.226330
   8 N :    0.153587
   9 H :    0.191596
  10 H :    0.135649
  11 H :    0.145507
  12 H :    0.146543
  13 H :    0.147315
  14 H :    0.136583

  Mayer bond orders larger than 0.1
B(  0-N ,  1-C ) :   1.0832 B(  0-N ,  4-C ) :   1.1101 B(  0-N ,  9-H ) :   0.8698
B(  1-C ,  2-C ) :   1.5488 B(  1-C , 10-H ) :   0.9147 B(  2-C ,  3-C ) :   1.2187
B(  2-C , 11-H ) :   0.9297 B(  3-C ,  4-C ) :   1.1526 B(  3-C ,  8-N ) :   1.3663
B(  4-C ,  5-C ) :   1.2675 B(  5-C ,  6-C ) :   1.4244 B(  5-C , 12-H ) :   0.9233
B(  6-C ,  7-C ) :   1.2269 B(  6-C , 13-H ) :   0.9206 B(  7-C ,  8-N ) :   1.4585
B(  7-C , 14-H ) :   0.9510

MP2 TOTAL ENERGY:     -379.070988199 Eh
FINAL SINGLE POINT ENERGY      -379.070988198962

DIPOLE MOMENT
-------------
                                X             Y             Z
Electronic contribution:      0.79236       0.25985      -0.00634
Nuclear contribution   :     -2.04043       0.76515       0.02413
                        -----------------------------------------
Total Dipole Moment    :     -1.24807       1.02500       0.01779
                        -----------------------------------------
Magnitude (a.u.)       :      1.61513
Magnitude (Debye)      :      4.10533

                             ****ORCA TERMINATED NORMALLY****
TOTAL RUN TIME: 0 days 0 hours 17 minutes 47 seconds 680 msec
