                         Program Version 3.0.3 - RELEASE   -
|  1> ! RI-MP2 RIJK def2-TZVP def2-TZVP/C def2-TZVP/JK TIGHTSCF
|  2> % maxcore 2000
|  3> % mp2 density relaxed end
|  4> *xyz 0 1
|  5>  O       -0.0106284044     0.0266480256    -0.0187347184
|  6>  C       -0.0249286394     1.2216453610     0.0044472213
|  7>  C       -1.1723710018     2.2487724113     0.0529879989
|  8>  C       -0.7911706524     2.7497095566     1.4809036702
|  9>  C        0.5528779292     3.3799465293     1.0268558855
| 10>  C       -0.0120284657     4.4433965016     0.0585830868
| 11>  C       -0.5594914043     3.3678480324    -0.8921953429
| 12>  O        0.7078513569     2.7906324659    -1.3040308483
| 13>  C        1.0892154006     2.2827328103    -0.0057921943
| 14>  H       -2.1818335526     1.8977665473    -0.1389404353
| 15>  H       -1.4792305041     3.4870818276     1.9003980261
| 16>  H       -0.6924350839     1.9211083832     2.1895330911
| 17>  H        1.2526735905     3.6990312555     1.7964209561
| 18>  H       -0.7603809452     5.0786165135     0.5379909183
| 19>  H        0.7292322764     5.0602808355    -0.4508129640
| 20>  H       -1.1390208831     3.6550308703    -1.7663576587
| 21>  H        2.1316715234     1.9784617831     0.0130121677
| 22> *
| 23>
| 24>                          ****END OF INPUT****

CARTESIAN COORDINATES (ANGSTROEM)
---------------------------------
  O     -0.010628    0.026648   -0.018735
  C     -0.024929    1.221645    0.004447
  C     -1.172371    2.248772    0.052988
  C     -0.791171    2.749710    1.480904
  C      0.552878    3.379947    1.026856
  C     -0.012028    4.443397    0.058583
  C     -0.559491    3.367848   -0.892195
  O      0.707851    2.790632   -1.304031
  C      1.089215    2.282733   -0.005792
  H     -2.181834    1.897767   -0.138940
  H     -1.479231    3.487082    1.900398
  H     -0.692435    1.921108    2.189533
  H      1.252674    3.699031    1.796421
  H     -0.760381    5.078617    0.537991
  H      0.729232    5.060281   -0.450813
  H     -1.139021    3.655031   -1.766358
  H      2.131672    1.978462    0.013012

 Total Charge           Charge          ....    0
 Multiplicity           Mult            ....    1
 Number of Electrons    NEL             ....   66
 Basis Dimension        Dim             ....  327

ORBITAL ENERGIES
----------------

  NO   OCC          E(Eh)            E(eV)
   0   2.0000     -20.572051      -559.7940
   1   2.0000     -20.551597      -559.2374
   2   2.0000     -11.334313      -308.4223
   3   2.0000     -11.302971      -307.5695
   4   2.0000     -11.299204      -307.4670
   5   2.0000     -11.257970      -306.3449
   6   2.0000     -11.253929      -306.2350
   7   2.0000     -11.249678      -306.1193
   8   2.0000     -11.238605      -305.8180
   9   2.0000      -1.417180       -38.5634
  10   2.0000      -1.387486       -37.7554
  11   2.0000      -1.158532       -31.5252
  12   2.0000      -1.023852       -27.8604
  13   2.0000      -0.996202       -27.1080
  14   2.0000      -0.922828       -25.1114
  15   2.0000      -0.804726       -21.8977
  16   2.0000      -0.776646       -21.1336
  17   2.0000      -0.753458       -20.5026
  18   2.0000      -0.725799       -19.7500
  19   2.0000      -0.693697       -18.8765
  20   2.0000      -0.654556       -17.8114
  21   2.0000      -0.621455       -16.9106
  22   2.0000      -0.600751       -16.3473
  23   2.0000      -0.567208       -15.4345
  24   2.0000      -0.541333       -14.7304
  25   2.0000      -0.535298       -14.5662
  26   2.0000      -0.521978       -14.2037
  27   2.0000      -0.511123       -13.9084
  28   2.0000      -0.500956       -13.6317
  29   2.0000      -0.474980       -12.9249
  30   2.0000      -0.468679       -12.7534
  31   2.0000      -0.462106       -12.5745
  32   2.0000      -0.377104       -10.2615
  33   0.0000       0.132498         3.6055
  34   0.0000       0.147299         4.0082
  35   0.0000       0.162770         4.4292
  36   0.0000       0.168451         4.5838
  37   0.0000       0.179389         4.8814

MULLIKEN ATOMIC CHARGES
-----------------------
   0 O :   -0.249053
   1 C :    0.051586
   2 C :   -0.023823
   3 C :   -0.316487
   4 C :   -0.044608
   5 C :   -0.304868
   6 C :    0.028118
   7 O :   -0.293360
   8 C :    0.029573
   9 H :    0.147102
  10 H :    0.135242
  11 H :    0.144824
  12 H :    0.146073
  13 H :    0.123391
  14 H :    0.132302
  15 H :    0.144954
  16 H :    0.149032
Sum of atomic charges:    0.0000000

LOEWDIN ATOMIC CHARGES
----------------------
   0 O :    0.169212
   1 C :   -0.293206
   2 C :   -0.160561
   3 C :   -0.195878
   4 C :   -0.190696
   5 C :   -0.216928
   6 C :   -0.231565
   7 O :    0.197029
   8 C :   -0.206667
   9 H :    0.145329
  10 H :    0.138297
  11 H :    0.144938
  12 H :    0.141529
  13 H :    0.139043
  14 H :    0.141491
  15 H :    0.138496
  16 H :    0.140137

  Mayer bond orders larger than 0.1
B(  0-O ,  1-C ) :   2.0654 B(  1-C ,  2-C ) :   0.8439 B(  1-C ,  8-C ) :   0.8859
B(  2-C ,  3-C ) :   0.9069 B(  2-C ,  6-C ) :   0.8837 B(  2-C ,  9-H ) :   0.9036
B(  3-C ,  4-C ) :   0.9243 B(  3-C , 10-H ) :   0.9221 B(  3-C , 11-H ) :   0.9301
B(  4-C ,  5-C ) :   0.8890 B(  4-C ,  8-C ) :   0.8499 B(  4-C , 12-H ) :   0.9136
B(  5-C ,  6-C ) :   0.9578 B(  5-C , 13-H ) :   0.9257 B(  5-C , 14-H ) :   0.9216
B(  6-C ,  7-O ) :   0.8950 B(  6-C , 15-H ) :   0.9154 B(  7-O ,  8-C ) :   0.9056
B(  8-C , 16-H ) :   0.8918

MP2 TOTAL ENERGY:     -421.131627015 Eh
FINAL SINGLE POINT ENERGY      -421.131627014982

DIPOLE MOMENT
-------------
                                X             Y             Z
Electronic contribution:      1.53800      -5.19774      -2.94198
Nuclear contribution   :     -1.87375       6.43153       3.58603
                        -----------------------------------------
Total Dipole Moment    :     -0.33575       1.23378       0.64405
                        -----------------------------------------
Magnitude (a.u.)       :      1.43169
Magnitude (Debye)      :      3.63908

                             ****ORCA TERMINATED NORMALLY****
TOTAL RUN TIME: 0 days 0 hours 20 minutes 22 seconds 739 msec
