                         Program Version 3.0.3 - RELEASE   -
|  1> ! RI-MP2 RIJK def2-TZVP def2-TZVP/C def2-TZVP/JK TIGHTSCF
|  2> % maxcore 2000
|  3> % mp2 density relaxed end
|  4> *xyz 0 1
|  5>  C        0.2164689400     1.3869128442    -0.5994933467
|  6>  O       -0.0205325909     0.0419119032    -0.9393493529
|  7>  C        0.8114056790    -0.8593612672    -0.2424337816
|  8>  C        0.4655643846    -2.2798166155    -0.6790099321
|  9>  C       -0.9680576224    -2.6500274789    -0.3318197404
| 10>  C        0.9412043981    -2.6688797734    -2.0993820662
| 11>  C        1.8477671794    -3.6874302269    -1.3757853149
| 12>  C        3.3481223943    -3.5878668423    -1.5674644787
| 13>  O        1.4174897655    -3.2013311964    -0.0773018591
| 14>  H        0.0343199430     1.5754799841     0.4702692584
| 15>  H        1.2505547299     1.6897554572    -0.8284130040
| 16>  H       -0.4697405081     2.0003034108    -1.1886499235
| 17>  H        1.8739011067    -0.6586226935    -0.4550514670
| 18>  H        0.6712294379    -0.7663152911     0.8483370689
| 19>  H       -1.6628008711    -1.9482547445    -0.8014486862
| 20>  H       -1.2001449115    -3.6635063490    -0.6712641818
| 21>  H       -1.1146853561    -2.6109262805     0.7527807025
| 22>  H        0.1760766898    -3.0861326672    -2.7556457673
| 23>  H        1.4749321613    -1.8767601906    -2.6287954802
| 24>  H        1.5250950472    -4.7291758186    -1.5117366307
| 25>  H        3.6896087615    -2.5534142734    -1.4611761253
| 26>  H        3.8701192425    -4.1990704797    -0.8242347734
| 27>  H        3.6300945497    -3.9467088610    -2.5637617477
| 28> *
| 29>
| 30>                          ****END OF INPUT****

CARTESIAN COORDINATES (ANGSTROEM)
---------------------------------
  C      0.216469    1.386913   -0.599493
  O     -0.020533    0.041912   -0.939349
  C      0.811406   -0.859361   -0.242434
  C      0.465564   -2.279817   -0.679010
  C     -0.968058   -2.650027   -0.331820
  C      0.941204   -2.668880   -2.099382
  C      1.847767   -3.687430   -1.375785
  C      3.348122   -3.587867   -1.567464
  O      1.417490   -3.201331   -0.077302
  H      0.034320    1.575480    0.470269
  H      1.250555    1.689755   -0.828413
  H     -0.469741    2.000303   -1.188650
  H      1.873901   -0.658623   -0.455051
  H      0.671229   -0.766315    0.848337
  H     -1.662801   -1.948255   -0.801449
  H     -1.200145   -3.663506   -0.671264
  H     -1.114685   -2.610926    0.752781
  H      0.176077   -3.086133   -2.755646
  H      1.474932   -1.876760   -2.628795
  H      1.525095   -4.729176   -1.511737
  H      3.689609   -2.553414   -1.461176
  H      3.870119   -4.199070   -0.824235
  H      3.630095   -3.946709   -2.563762

 Total Charge           Charge          ....    0
 Multiplicity           Mult            ....    1
 Number of Electrons    NEL             ....   72
 Basis Dimension        Dim             ....  363

ORBITAL ENERGIES
----------------

  NO   OCC          E(Eh)            E(eV)
   0   2.0000     -20.558225      -559.4177
   1   2.0000     -20.537875      -558.8640
   2   2.0000     -11.282393      -307.0095
   3   2.0000     -11.278499      -306.9036
   4   2.0000     -11.273147      -306.7579
   5   2.0000     -11.271252      -306.7064
   6   2.0000     -11.220704      -305.3309
   7   2.0000     -11.215109      -305.1786
   8   2.0000     -11.207770      -304.9789
   9   2.0000      -1.382761       -37.6268
  10   2.0000      -1.367617       -37.2148
  11   2.0000      -1.048340       -28.5268
  12   2.0000      -1.026747       -27.9392
  13   2.0000      -0.958150       -26.0726
  14   2.0000      -0.938299       -25.5324
  15   2.0000      -0.887986       -24.1633
  16   2.0000      -0.804296       -21.8860
  17   2.0000      -0.727248       -19.7894
  18   2.0000      -0.676758       -18.4155
  19   2.0000      -0.666191       -18.1280
  20   2.0000      -0.660583       -17.9754
  21   2.0000      -0.652011       -17.7421
  22   2.0000      -0.610425       -16.6105
  23   2.0000      -0.586792       -15.9674
  24   2.0000      -0.571044       -15.5389
  25   2.0000      -0.553461       -15.0604
  26   2.0000      -0.550005       -14.9664
  27   2.0000      -0.537579       -14.6283
  28   2.0000      -0.530957       -14.4481
  29   2.0000      -0.507067       -13.7980
  30   2.0000      -0.497756       -13.5446
  31   2.0000      -0.482951       -13.1418
  32   2.0000      -0.448812       -12.2128
  33   2.0000      -0.437073       -11.8934
  34   2.0000      -0.421914       -11.4809
  35   2.0000      -0.404520       -11.0076
  36   0.0000       0.134170         3.6509
  37   0.0000       0.153967         4.1896
  38   0.0000       0.162475         4.4212
  39   0.0000       0.179421         4.8823
  40   0.0000       0.196350         5.3430

MULLIKEN ATOMIC CHARGES
-----------------------
   0 C :   -0.217687
   1 O :   -0.312651
   2 C :   -0.105101
   3 C :    0.327448
   4 C :   -0.432693
   5 C :   -0.314769
   6 C :    0.114209
   7 C :   -0.404467
   8 O :   -0.354395
   9 H :    0.113459
  10 H :    0.111643
  11 H :    0.138965
  12 H :    0.101299
  13 H :    0.103639
  14 H :    0.148093
  15 H :    0.128842
  16 H :    0.127291
  17 H :    0.132022
  18 H :    0.126958
  19 H :    0.082402
  20 H :    0.122393
  21 H :    0.137408
  22 H :    0.125694
Sum of atomic charges:    0.0000000

LOEWDIN ATOMIC CHARGES
----------------------
   0 C :   -0.360154
   1 O :    0.141419
   2 C :   -0.292306
   3 C :   -0.343118
   4 C :   -0.270046
   5 C :   -0.184114
   6 C :   -0.302285
   7 C :   -0.299702
   8 O :    0.171807
   9 H :    0.102221
  10 H :    0.101833
  11 H :    0.113294
  12 H :    0.124095
  13 H :    0.126301
  14 H :    0.133213
  15 H :    0.126817
  16 H :    0.129353
  17 H :    0.133326
  18 H :    0.137823
  19 H :    0.132809
  20 H :    0.122380
  21 H :    0.127942
  22 H :    0.127092

  Mayer bond orders larger than 0.1
B(  0-C ,  1-O ) :   0.9191 B(  0-C ,  9-H ) :   0.9376 B(  0-C , 10-H ) :   0.9373
B(  0-C , 11-H ) :   0.9393 B(  1-O ,  2-C ) :   0.9490 B(  2-C ,  3-C ) :   0.9351
B(  2-C , 12-H ) :   0.9228 B(  2-C , 13-H ) :   0.9241 B(  3-C ,  4-C ) :   0.9079
B(  3-C ,  5-C ) :   0.8795 B(  3-C ,  8-O ) :   0.8811 B(  4-C , 14-H ) :   0.9321
B(  4-C , 15-H ) :   0.9349 B(  4-C , 16-H ) :   0.9328 B(  5-C ,  6-C ) :   0.9433
B(  5-C , 17-H ) :   0.9298 B(  5-C , 18-H ) :   0.9316 B(  6-C ,  7-C ) :   0.9127
B(  6-C ,  8-O ) :   0.9306 B(  6-C , 19-H ) :   0.9181 B(  7-C , 20-H ) :   0.9374
B(  7-C , 21-H ) :   0.9368 B(  7-C , 22-H ) :   0.9296

MP2 TOTAL ENERGY:     -424.703381718 Eh
FINAL SINGLE POINT ENERGY      -424.703381718290

DIPOLE MOMENT
-------------
                                X             Y             Z
Electronic contribution:     -1.04279      -1.42164       1.02242
Nuclear contribution   :      1.16632       1.77165      -1.38455
                        -----------------------------------------
Total Dipole Moment    :      0.12353       0.35002      -0.36213
                        -----------------------------------------
Magnitude (a.u.)       :      0.51856
Magnitude (Debye)      :      1.31808

                             ****ORCA TERMINATED NORMALLY****
TOTAL RUN TIME: 0 days 0 hours 18 minutes 34 seconds 869 msec
