                         Program Version 3.0.3 - RELEASE   -
|  1> ! RI-MP2 RIJK def2-TZVP def2-TZVP/C def2-TZVP/JK TIGHTSCF
|  2> % maxcore 2000
|  3> % mp2 density relaxed end
|  4> *xyz 0 1
|  5>  C        0.3738757719     1.4729614606     0.0450533762
|  6>  C        0.0842369773     0.0102078946    -0.0143590192
|  7>  N        0.1122961712    -0.7392948987    -1.0966213062
|  8>  C       -0.2171321499    -2.0197435080    -0.6954533170
|  9>  C       -0.4475814213    -2.0354417342     0.6583402947
| 10>  N       -0.2519763897    -0.7340710764     1.0785965536
| 11>  C       -0.2760022668    -3.1173080041    -1.6826450295
| 12>  C        0.1543389133    -4.5256888827    -1.3247196694
| 13>  C       -1.2990215004    -4.2294598067    -1.5674050385
| 14>  H        1.2244991087     1.6969369161     0.6994717334
| 15>  H        0.6141776476     1.8195540167    -0.9607267828
| 16>  H       -0.4851449927     2.0471324998     0.4116624842
| 17>  H       -0.7231107766    -2.8167253684     1.3470166887
| 18>  H       -0.3423745599    -0.4000057278     2.0232162673
| 19>  H       -0.0396821378    -2.7795522210    -2.6852927148
| 20>  H        0.6975436240    -5.0986549368    -2.0684319507
| 21>  H        0.4798546835    -4.6974333946    -0.3040754935
| 22>  H       -1.9664898404    -4.1988721969    -0.7125798364
| 23>  H       -1.7578545820    -4.5981821913    -2.4784386601
| 24> *
| 25>
| 26>                          ****END OF INPUT****

CARTESIAN COORDINATES (ANGSTROEM)
---------------------------------
  C      0.373876    1.472961    0.045053
  C      0.084237    0.010208   -0.014359
  N      0.112296   -0.739295   -1.096621
  C     -0.217132   -2.019744   -0.695453
  C     -0.447581   -2.035442    0.658340
  N     -0.251976   -0.734071    1.078597
  C     -0.276002   -3.117308   -1.682645
  C      0.154339   -4.525689   -1.324720
  C     -1.299022   -4.229460   -1.567405
  H      1.224499    1.696937    0.699472
  H      0.614178    1.819554   -0.960727
  H     -0.485145    2.047132    0.411662
  H     -0.723111   -2.816725    1.347017
  H     -0.342375   -0.400006    2.023216
  H     -0.039682   -2.779552   -2.685293
  H      0.697544   -5.098655   -2.068432
  H      0.479855   -4.697433   -0.304075
  H     -1.966490   -4.198872   -0.712580
  H     -1.757855   -4.598182   -2.478439

 Total Charge           Charge          ....    0
 Multiplicity           Mult            ....    1
 Number of Electrons    NEL             ....   66
 Basis Dimension        Dim             ....  339

ORBITAL ENERGIES
----------------

  NO   OCC          E(Eh)            E(eV)
   0   2.0000     -15.606572      -424.6764
   1   2.0000     -15.529408      -422.5767
   2   2.0000     -11.293735      -307.3181
   3   2.0000     -11.243007      -305.9378
   4   2.0000     -11.240928      -305.8812
   5   2.0000     -11.234689      -305.7114
   6   2.0000     -11.225225      -305.4539
   7   2.0000     -11.220275      -305.3192
   8   2.0000     -11.219634      -305.3018
   9   2.0000      -1.330452       -36.2034
  10   2.0000      -1.161575       -31.6081
  11   2.0000      -1.130302       -30.7571
  12   2.0000      -1.038488       -28.2587
  13   2.0000      -0.942659       -25.6510
  14   2.0000      -0.861660       -23.4470
  15   2.0000      -0.815906       -22.2019
  16   2.0000      -0.795338       -21.6423
  17   2.0000      -0.744543       -20.2600
  18   2.0000      -0.712801       -19.3963
  19   2.0000      -0.646887       -17.6027
  20   2.0000      -0.621917       -16.9232
  21   2.0000      -0.615824       -16.7574
  22   2.0000      -0.602687       -16.3999
  23   2.0000      -0.559862       -15.2346
  24   2.0000      -0.550757       -14.9869
  25   2.0000      -0.544629       -14.8201
  26   2.0000      -0.509816       -13.8728
  27   2.0000      -0.508335       -13.8325
  28   2.0000      -0.444124       -12.0852
  29   2.0000      -0.426258       -11.5991
  30   2.0000      -0.418225       -11.3805
  31   2.0000      -0.376773       -10.2525
  32   2.0000      -0.290710        -7.9106
  33   0.0000       0.123979         3.3736
  34   0.0000       0.155471         4.2306
  35   0.0000       0.161734         4.4010
  36   0.0000       0.167726         4.5641
  37   0.0000       0.174472         4.7476

MULLIKEN ATOMIC CHARGES
-----------------------
   0 C :   -0.454303
   1 C :    0.234962
   2 N :   -0.288554
   3 C :    0.087072
   4 C :   -0.143984
   5 N :   -0.270709
   6 C :   -0.126603
   7 C :   -0.252071
   8 C :   -0.252028
   9 H :    0.141021
  10 H :    0.165069
  11 H :    0.141027
  12 H :    0.148701
  13 H :    0.244081
  14 H :    0.119607
  15 H :    0.128289
  16 H :    0.125080
  17 H :    0.125043
  18 H :    0.128301
Sum of atomic charges:   -0.0000000

LOEWDIN ATOMIC CHARGES
----------------------
   0 C :   -0.280839
   1 C :   -0.349131
   2 N :    0.131263
   3 C :   -0.246642
   4 C :   -0.219938
   5 N :    0.189888
   6 C :   -0.190495
   7 C :   -0.221810
   8 C :   -0.221827
   9 H :    0.129763
  10 H :    0.143433
  11 H :    0.129768
  12 H :    0.134268
  13 H :    0.192390
  14 H :    0.157905
  15 H :    0.130212
  16 H :    0.130792
  17 H :    0.130785
  18 H :    0.130216

  Mayer bond orders larger than 0.1
B(  0-C ,  1-C ) :   0.8533 B(  0-C ,  9-H ) :   0.9360 B(  0-C , 10-H ) :   0.9523
B(  0-C , 11-H ) :   0.9359 B(  1-C ,  2-N ) :   1.5785 B(  1-C ,  5-N ) :   1.1700
B(  2-N ,  3-C ) :   1.2857 B(  3-C ,  4-C ) :   1.4561 B(  3-C ,  6-C ) :   0.9799
B(  4-C ,  5-N ) :   1.1249 B(  4-C , 12-H ) :   0.9016 B(  5-N , 13-H ) :   0.8677
B(  6-C ,  7-C ) :   0.8515 B(  6-C ,  8-C ) :   0.8516 B(  6-C , 14-H ) :   0.9436
B(  7-C ,  8-C ) :   0.8981 B(  7-C , 15-H ) :   0.9299 B(  7-C , 16-H ) :   0.9320
B(  8-C , 17-H ) :   0.9320 B(  8-C , 18-H ) :   0.9299

MP2 TOTAL ENERGY:     -381.423766942 Eh
FINAL SINGLE POINT ENERGY      -381.423766942447

DIPOLE MOMENT
-------------
                                X             Y             Z
Electronic contribution:      0.14988       1.64352       1.09495
Nuclear contribution   :     -0.32600      -1.45808       0.18028
                        -----------------------------------------
Total Dipole Moment    :     -0.17612       0.18544       1.27523
                        -----------------------------------------
Magnitude (a.u.)       :      1.30062
Magnitude (Debye)      :      3.30592

                             ****ORCA TERMINATED NORMALLY****
TOTAL RUN TIME: 0 days 0 hours 17 minutes 23 seconds 730 msec
