                         Program Version 3.0.3 - RELEASE   -
|  1> ! RI-MP2 RIJK def2-TZVP def2-TZVP/C def2-TZVP/JK TIGHTSCF
|  2> % maxcore 2000
|  3> % mp2 density relaxed end
|  4> *xyz 0 1
|  5>  C        0.0233093333    -1.2563769758     0.2932380395
|  6>  C       -0.0037843450    -0.0587868395     0.2067805092
|  7>  C       -0.0835776549     1.3768510778     0.0951730895
|  8>  C       -1.3574143490     1.9251611288    -0.5484150340
|  9>  C       -1.5563008921     1.4494032878    -1.9173855808
| 10>  N       -1.7239669477     1.0800044154    -2.9985049897
| 11>  C        0.6521114498     2.2336949246     1.0480902931
| 12>  O        1.1181401022     2.0566102531    -0.2859786662
| 13>  H        0.0599694466    -2.3162934722     0.3590116503
| 14>  H       -2.2254355371     1.6351477056     0.0539813402
| 15>  H       -1.3057220337     3.0180869695    -0.5580771318
| 16>  H        0.2603308448     3.2222585407     1.2853020518
| 17>  H        1.2519035129     1.7627504042     1.8235126290
| 18> *
| 19>
| 20>                          ****END OF INPUT****

CARTESIAN COORDINATES (ANGSTROEM)
---------------------------------
  C      0.023309   -1.256377    0.293238
  C     -0.003784   -0.058787    0.206781
  C     -0.083578    1.376851    0.095173
  C     -1.357414    1.925161   -0.548415
  C     -1.556301    1.449403   -1.917386
  N     -1.723967    1.080004   -2.998505
  C      0.652111    2.233695    1.048090
  O      1.118140    2.056610   -0.285979
  H      0.059969   -2.316293    0.359012
  H     -2.225436    1.635148    0.053981
  H     -1.305722    3.018087   -0.558077
  H      0.260331    3.222259    1.285302
  H      1.251904    1.762750    1.823513

 Total Charge           Charge          ....    0
 Multiplicity           Mult            ....    1
 Number of Electrons    NEL             ....   56
 Basis Dimension        Dim             ....  278

ORBITAL ENERGIES
----------------

  NO   OCC          E(Eh)            E(eV)
   0   2.0000     -20.603575      -560.6518
   1   2.0000     -15.574304      -423.7984
   2   2.0000     -11.352918      -308.9286
   3   2.0000     -11.318596      -307.9947
   4   2.0000     -11.304387      -307.6080
   5   2.0000     -11.278209      -306.8957
   6   2.0000     -11.256893      -306.3156
   7   2.0000     -11.252757      -306.2031
   8   2.0000      -1.451120       -39.4870
   9   2.0000      -1.223278       -33.2871
  10   2.0000      -1.104016       -30.0418
  11   2.0000      -1.045383       -28.4463
  12   2.0000      -0.953609       -25.9490
  13   2.0000      -0.897049       -24.4099
  14   2.0000      -0.772875       -21.0310
  15   2.0000      -0.727664       -19.8008
  16   2.0000      -0.702122       -19.1057
  17   2.0000      -0.693353       -18.8671
  18   2.0000      -0.642892       -17.4940
  19   2.0000      -0.600926       -16.3520
  20   2.0000      -0.581711       -15.8292
  21   2.0000      -0.561061       -15.2672
  22   2.0000      -0.512814       -13.9544
  23   2.0000      -0.489734       -13.3263
  24   2.0000      -0.464077       -12.6282
  25   2.0000      -0.463170       -12.6035
  26   2.0000      -0.420671       -11.4471
  27   2.0000      -0.402526       -10.9533
  28   0.0000       0.123399         3.3578
  29   0.0000       0.138316         3.7638
  30   0.0000       0.150839         4.1045
  31   0.0000       0.154243         4.1972
  32   0.0000       0.156852         4.2682

MULLIKEN ATOMIC CHARGES
-----------------------
   0 C :   -0.074477
   1 C :   -0.007558
   2 C :   -0.021996
   3 C :   -0.106659
   4 C :   -0.186718
   5 N :   -0.050948
   6 C :   -0.042964
   7 O :   -0.299133
   8 H :    0.203699
   9 H :    0.167696
  10 H :    0.159372
  11 H :    0.123405
  12 H :    0.136282
Sum of atomic charges:    0.0000000

LOEWDIN ATOMIC CHARGES
----------------------
   0 C :   -0.049461
   1 C :   -0.061476
   2 C :   -0.311470
   3 C :   -0.188289
   4 C :   -0.177897
   5 N :    0.070559
   6 C :   -0.216181
   7 O :    0.197575
   8 H :    0.132622
   9 H :    0.175317
  10 H :    0.173840
  11 H :    0.124554
  12 H :    0.130308

  Mayer bond orders larger than 0.1
B(  0-C ,  1-C ) :   2.6097 B(  0-C ,  2-C ) :  -0.1513 B(  0-C ,  8-H ) :   0.8752
B(  1-C ,  2-C ) :   1.1761 B(  2-C ,  3-C ) :   0.9222 B(  2-C ,  6-C ) :   0.9756
B(  2-C ,  7-O ) :   0.9044 B(  3-C ,  4-C ) :   0.9551 B(  3-C ,  9-H ) :   0.9068
B(  3-C , 10-H ) :   0.8929 B(  4-C ,  5-N ) :   2.8572 B(  6-C ,  7-O ) :   0.8945
B(  6-C , 11-H ) :   0.9040 B(  6-C , 12-H ) :   0.9107

MP2 TOTAL ENERGY:     -360.783477381 Eh
FINAL SINGLE POINT ENERGY      -360.783477381076

DIPOLE MOMENT
-------------
                                X             Y             Z
Electronic contribution:      0.05126      -1.16451      -3.19889
Nuclear contribution   :     -0.24006       1.47306       5.11145
                        -----------------------------------------
Total Dipole Moment    :     -0.18881       0.30856       1.91256
                        -----------------------------------------
Magnitude (a.u.)       :      1.94647
Magnitude (Debye)      :      4.94753

                             ****ORCA TERMINATED NORMALLY****
TOTAL RUN TIME: 0 days 0 hours 9 minutes 22 seconds 162 msec
