                         Program Version 3.0.3 - RELEASE   -
|  1> ! RI-MP2 RIJK def2-TZVP def2-TZVP/C def2-TZVP/JK TIGHTSCF
|  2> % maxcore 2000
|  3> % mp2 density relaxed end
|  4> *xyz 0 1
|  5>  C       -0.1086993387     1.5257750545     0.3538131719
|  6>  C       -0.0686542237     0.0487671955    -0.0763887308
|  7>  C       -1.4193301149    -0.5653103327    -0.2095111960
|  8>  C       -2.1162386413    -1.0832564309    -1.2626300878
|  9>  C       -3.3748122879    -1.5122043862    -0.7497964939
| 10>  C       -3.3667681260    -1.2270067976     0.5883831756
| 11>  O       -2.1680256604    -0.6453795518     0.9233648986
| 12>  C       -4.3148932271    -1.4191750757     1.6066652192
| 13>  C       -5.1359786151    -1.5897232810     2.4720044994
| 14>  H        0.9050116433     1.9237890570     0.4568307182
| 15>  H       -0.6429738480     2.1331168792    -0.3828910544
| 16>  H       -0.6186789145     1.6347770022     1.3146068860
| 17>  H        0.4409808048    -0.0515256291    -1.0398608240
| 18>  H        0.5197629240    -0.5238032792     0.6522398317
| 19>  H       -1.7682953560    -1.1506295155    -2.2816533150
| 20>  H       -4.1867358760    -1.9730830471    -1.2892726939
| 21>  H       -5.8594683623    -1.7410918716     3.2341043352
| 22> *
| 23>
| 24>                          ****END OF INPUT****

CARTESIAN COORDINATES (ANGSTROEM)
---------------------------------
  C     -0.108699    1.525775    0.353813
  C     -0.068654    0.048767   -0.076389
  C     -1.419330   -0.565310   -0.209511
  C     -2.116239   -1.083256   -1.262630
  C     -3.374812   -1.512204   -0.749796
  C     -3.366768   -1.227007    0.588383
  O     -2.168026   -0.645380    0.923365
  C     -4.314893   -1.419175    1.606665
  C     -5.135979   -1.589723    2.472004
  H      0.905012    1.923789    0.456831
  H     -0.642974    2.133117   -0.382891
  H     -0.618679    1.634777    1.314607
  H      0.440981   -0.051526   -1.039861
  H      0.519763   -0.523803    0.652240
  H     -1.768295   -1.150630   -2.281653
  H     -4.186736   -1.973083   -1.289273
  H     -5.859468   -1.741092    3.234104

 Total Charge           Charge          ....    0
 Multiplicity           Mult            ....    1
 Number of Electrons    NEL             ....   64
 Basis Dimension        Dim             ....  327

ORBITAL ENERGIES
----------------

  NO   OCC          E(Eh)            E(eV)
   0   2.0000     -20.623128      -561.1839
   1   2.0000     -11.304515      -307.6115
   2   2.0000     -11.299382      -307.4718
   3   2.0000     -11.243380      -305.9479
   4   2.0000     -11.242928      -305.9356
   5   2.0000     -11.241359      -305.8929
   6   2.0000     -11.234960      -305.7188
   7   2.0000     -11.227660      -305.5202
   8   2.0000     -11.223182      -305.3983
   9   2.0000      -1.461373       -39.7660
  10   2.0000      -1.093237       -29.7485
  11   2.0000      -1.089468       -29.6459
  12   2.0000      -1.041327       -28.3359
  13   2.0000      -0.975002       -26.5312
  14   2.0000      -0.877228       -23.8706
  15   2.0000      -0.825864       -22.4729
  16   2.0000      -0.777813       -21.1654
  17   2.0000      -0.754165       -20.5219
  18   2.0000      -0.701819       -19.0975
  19   2.0000      -0.653502       -17.7827
  20   2.0000      -0.629662       -17.1340
  21   2.0000      -0.606486       -16.5033
  22   2.0000      -0.584922       -15.9165
  23   2.0000      -0.577824       -15.7234
  24   2.0000      -0.562563       -15.3081
  25   2.0000      -0.525352       -14.2955
  26   2.0000      -0.512325       -13.9411
  27   2.0000      -0.498525       -13.5656
  28   2.0000      -0.442385       -12.0379
  29   2.0000      -0.404955       -11.0194
  30   2.0000      -0.396755       -10.7963
  31   2.0000      -0.295915        -8.0522
  32   0.0000       0.103337         2.8119
  33   0.0000       0.138423         3.7667
  34   0.0000       0.162294         4.4162
  35   0.0000       0.167797         4.5660
  36   0.0000       0.173274         4.7150

MULLIKEN ATOMIC CHARGES
-----------------------
   0 C :   -0.383489
   1 C :   -0.257558
   2 C :    0.180877
   3 C :   -0.199370
   4 C :   -0.210919
   5 C :    0.038665
   6 O :   -0.225452
   7 C :    0.042139
   8 C :   -0.121941
   9 H :    0.131170
  10 H :    0.128784
  11 H :    0.141399
  12 H :    0.128872
  13 H :    0.129747
  14 H :    0.138553
  15 H :    0.142432
  16 H :    0.196090
Sum of atomic charges:    0.0000000

LOEWDIN ATOMIC CHARGES
----------------------
   0 C :   -0.306417
   1 C :   -0.257484
   2 C :   -0.244462
   3 C :   -0.157975
   4 C :   -0.135154
   5 C :   -0.237478
   6 O :    0.389993
   7 C :   -0.077992
   8 C :   -0.064640
   9 H :    0.121178
  10 H :    0.123132
  11 H :    0.125655
  12 H :    0.149971
  13 H :    0.149064
  14 H :    0.145711
  15 H :    0.147907
  16 H :    0.128990

  Mayer bond orders larger than 0.1
B(  0-C ,  1-C ) :   0.9171 B(  0-C ,  9-H ) :   0.9355 B(  0-C , 10-H ) :   0.9350
B(  0-C , 11-H ) :   0.9367 B(  1-C ,  2-C ) :   0.9126 B(  1-C , 12-H ) :   0.9478
B(  1-C , 13-H ) :   0.9284 B(  2-C ,  3-C ) :   1.5014 B(  2-C ,  6-O ) :   1.0415
B(  3-C ,  4-C ) :   1.2147 B(  3-C , 14-H ) :   0.9235 B(  4-C ,  5-C ) :   1.4392
B(  4-C , 15-H ) :   0.9296 B(  5-C ,  6-O ) :   1.0157 B(  5-C ,  7-C ) :   1.2068
B(  5-C ,  8-C ) :  -0.1537 B(  7-C ,  8-C ) :   2.5898 B(  8-C , 16-H ) :   0.8779

MP2 TOTAL ENERGY:     -384.001709527 Eh
FINAL SINGLE POINT ENERGY      -384.001709526537

DIPOLE MOMENT
-------------
                                X             Y             Z
Electronic contribution:     -7.04895      -5.16673       2.06679
Nuclear contribution   :      7.29300       5.23371      -2.37653
                        -----------------------------------------
Total Dipole Moment    :      0.24406       0.06699      -0.30974
                        -----------------------------------------
Magnitude (a.u.)       :      0.39999
Magnitude (Debye)      :      1.01669

                             ****ORCA TERMINATED NORMALLY****
TOTAL RUN TIME: 0 days 0 hours 15 minutes 36 seconds 860 msec
