                         Program Version 3.0.3 - RELEASE   -
|  1> ! RI-MP2 RIJK def2-TZVP def2-TZVP/C def2-TZVP/JK TIGHTSCF
|  2> % maxcore 2000
|  3> % mp2 density relaxed end
|  4> *xyz 0 1
|  5>  O       -0.1443776696     1.4575999402    -0.0156303271
|  6>  C        0.0150134773     0.0337563374    -0.0943129162
|  7>  C       -1.3666810836    -0.5876702547     0.0371885340
|  8>  C       -1.3933966859    -2.1266821292     0.1651433024
|  9>  C       -2.8780353166    -2.3572933328     0.5753069043
| 10>  C       -2.4189385886    -1.6489212734     1.8820611347
| 11>  C       -1.0566915197    -2.3646059399     1.6687599486
| 12>  C       -2.1165226406    -0.2282346087     1.3817863361
| 13>  O       -1.3256997139     0.4666014835     2.3248069569
| 14>  H        0.7256254743     1.8630515031    -0.0814625517
| 15>  H        0.4610510826    -0.2485278970    -1.0592053821
| 16>  H        0.6808243477    -0.3198077835     0.7028367877
| 17>  H       -1.9598460107    -0.2619573587    -0.8245409941
| 18>  H       -0.9198048901    -2.7035850341    -0.6315181265
| 19>  H       -3.6581173869    -1.8823923523    -0.0290450775
| 20>  H       -3.1154369966    -3.4114462877     0.7345332140
| 21>  H       -2.9764786191    -1.7244720830     2.8154572121
| 22>  H       -1.0969667264    -3.4237671953     1.9334006904
| 23>  H       -0.1686276886    -1.8998659823     2.0999901571
| 24>  H       -3.0430321621     0.3267149569     1.1756261007
| 25>  H       -0.9467239532     1.2205179016     1.8517853060
| 26> *
| 27>
| 28>                          ****END OF INPUT****

CARTESIAN COORDINATES (ANGSTROEM)
---------------------------------
  O     -0.144378    1.457600   -0.015630
  C      0.015013    0.033756   -0.094313
  C     -1.366681   -0.587670    0.037189
  C     -1.393397   -2.126682    0.165143
  C     -2.878035   -2.357293    0.575307
  C     -2.418939   -1.648921    1.882061
  C     -1.056692   -2.364606    1.668760
  C     -2.116523   -0.228235    1.381786
  O     -1.325700    0.466601    2.324807
  H      0.725625    1.863052   -0.081463
  H      0.461051   -0.248528   -1.059205
  H      0.680824   -0.319808    0.702837
  H     -1.959846   -0.261957   -0.824541
  H     -0.919805   -2.703585   -0.631518
  H     -3.658117   -1.882392   -0.029045
  H     -3.115437   -3.411446    0.734533
  H     -2.976479   -1.724472    2.815457
  H     -1.096967   -3.423767    1.933401
  H     -0.168628   -1.899866    2.099990
  H     -3.043032    0.326715    1.175626
  H     -0.946724    1.220518    1.851785

 Total Charge           Charge          ....    0
 Multiplicity           Mult            ....    1
 Number of Electrons    NEL             ....   70
 Basis Dimension        Dim             ....  351

ORBITAL ENERGIES
----------------

  NO   OCC          E(Eh)            E(eV)
   0   2.0000     -20.569685      -559.7296
   1   2.0000     -20.535516      -558.7998
   2   2.0000     -11.279918      -306.9422
   3   2.0000     -11.269367      -306.6551
   4   2.0000     -11.232433      -305.6500
   5   2.0000     -11.225445      -305.4599
   6   2.0000     -11.223724      -305.4130
   7   2.0000     -11.222012      -305.3665
   8   2.0000     -11.216953      -305.2288
   9   2.0000      -1.373250       -37.3680
  10   2.0000      -1.344482       -36.5852
  11   2.0000      -1.177405       -32.0388
  12   2.0000      -1.013650       -27.5828
  13   2.0000      -0.933839       -25.4111
  14   2.0000      -0.898521       -24.4500
  15   2.0000      -0.872797       -23.7500
  16   2.0000      -0.753955       -20.5162
  17   2.0000      -0.739340       -20.1185
  18   2.0000      -0.697828       -18.9889
  19   2.0000      -0.694929       -18.9100
  20   2.0000      -0.664843       -18.0913
  21   2.0000      -0.648259       -17.6400
  22   2.0000      -0.625285       -17.0149
  23   2.0000      -0.583720       -15.8838
  24   2.0000      -0.561297       -15.2737
  25   2.0000      -0.531927       -14.4745
  26   2.0000      -0.525996       -14.3131
  27   2.0000      -0.511080       -13.9072
  28   2.0000      -0.485333       -13.2066
  29   2.0000      -0.469332       -12.7712
  30   2.0000      -0.452087       -12.3019
  31   2.0000      -0.443391       -12.0653
  32   2.0000      -0.436447       -11.8763
  33   2.0000      -0.424227       -11.5438
  34   2.0000      -0.409858       -11.1528
  35   0.0000       0.128170         3.4877
  36   0.0000       0.147356         4.0098
  37   0.0000       0.163417         4.4468
  38   0.0000       0.169732         4.6186
  39   0.0000       0.187424         5.1001

MULLIKEN ATOMIC CHARGES
-----------------------
   0 O :   -0.498447
   1 C :   -0.136349
   2 C :   -0.073175
   3 C :   -0.057922
   4 C :   -0.278196
   5 C :    0.000376
   6 C :   -0.302238
   7 C :    0.023562
   8 O :   -0.479214
   9 H :    0.324040
  10 H :    0.109399
  11 H :    0.125051
  12 H :    0.096775
  13 H :    0.119398
  14 H :    0.114091
  15 H :    0.121371
  16 H :    0.124366
  17 H :    0.118602
  18 H :    0.123952
  19 H :    0.092871
  20 H :    0.331689
Sum of atomic charges:   -0.0000000

LOEWDIN ATOMIC CHARGES
----------------------
   0 O :   -0.059060
   1 C :   -0.320019
   2 C :   -0.214138
   3 C :   -0.188462
   4 C :   -0.194280
   5 C :   -0.190940
   6 C :   -0.195812
   7 C :   -0.290149
   8 O :   -0.014874
   9 H :    0.173733
  10 H :    0.120648
  11 H :    0.122375
  12 H :    0.152442
  13 H :    0.131716
  14 H :    0.127229
  15 H :    0.136666
  16 H :    0.134869
  17 H :    0.136764
  18 H :    0.127578
  19 H :    0.131594
  20 H :    0.172119

  Mayer bond orders larger than 0.1
B(  0-O ,  1-C ) :   0.9537 B(  0-O ,  9-H ) :   0.8434 B(  1-C ,  2-C ) :   0.9103
B(  1-C , 10-H ) :   0.9253 B(  1-C , 11-H ) :   0.9324 B(  2-C ,  3-C ) :   0.8685
B(  2-C ,  7-C ) :   0.9387 B(  2-C , 12-H ) :   0.9087 B(  3-C ,  4-C ) :   0.9047
B(  3-C ,  6-C ) :   0.9206 B(  3-C , 13-H ) :   0.9141 B(  4-C ,  5-C ) :   0.9076
B(  4-C , 14-H ) :   0.9239 B(  4-C , 15-H ) :   0.9237 B(  5-C ,  6-C ) :   0.9080
B(  5-C ,  7-C ) :   0.8859 B(  5-C , 16-H ) :   0.9171 B(  6-C , 17-H ) :   0.9253
B(  6-C , 18-H ) :   0.9183 B(  7-C ,  8-O ) :   1.0605 B(  7-C , 19-H ) :   0.9723
B(  8-O , 20-H ) :   0.8168

MP2 TOTAL ENERGY:     -423.521839936 Eh
FINAL SINGLE POINT ENERGY      -423.521839936444

DIPOLE MOMENT
-------------
                                X             Y             Z
Electronic contribution:      0.26066       3.31332       1.07666
Nuclear contribution   :      0.30747      -3.45519      -1.78037
                        -----------------------------------------
Total Dipole Moment    :      0.56813      -0.14188      -0.70370
                        -----------------------------------------
Magnitude (a.u.)       :      0.91548
Magnitude (Debye)      :      2.32696

                             ****ORCA TERMINATED NORMALLY****
TOTAL RUN TIME: 0 days 0 hours 31 minutes 37 seconds 220 msec
