                         Program Version 3.0.3 - RELEASE   -
|  1> ! RI-MP2 RIJK def2-TZVP def2-TZVP/C def2-TZVP/JK TIGHTSCF
|  2> % maxcore 2000
|  3> % mp2 density relaxed end
|  4> *xyz 0 1
|  5>  C       -0.0366890593     1.4200730404    -0.0704112179
|  6>  C        1.3627038602     2.0434402202     0.0276894942
|  7>  C        2.0732773872     1.4759459754     1.2517387067
|  8>  O        1.1625174116     1.4084887572     2.3966725611
|  9>  C        1.1871051903    -0.0169777168     2.3444897688
| 10>  C        0.8242702906    -0.5617744301     0.9834732665
| 11>  O       -0.0442748253    -0.0027026575     0.0463643299
| 12>  C        2.2162469722    -0.0530754799     1.2186844632
| 13>  H       -0.6724037765     1.8549383000     0.7094626562
| 14>  H       -0.4887783219     1.6344814680    -1.0429722614
| 15>  H        1.9625039292     1.8237939815    -0.8635412384
| 16>  H        1.2557858838     3.1314145563     0.0990970458
| 17>  H        2.9805491724     2.0203963802     1.5257063554
| 18>  H        1.0959746370    -0.5531648843     3.2831201738
| 19>  H        0.7288445139    -1.6436827017     0.9591448929
| 20>  H        3.1331793646    -0.6084156090     1.0697429834
| 21> *
| 22>
| 23>                          ****END OF INPUT****

CARTESIAN COORDINATES (ANGSTROEM)
---------------------------------
  C     -0.036689    1.420073   -0.070411
  C      1.362704    2.043440    0.027689
  C      2.073277    1.475946    1.251739
  O      1.162517    1.408489    2.396673
  C      1.187105   -0.016978    2.344490
  C      0.824270   -0.561774    0.983473
  O     -0.044275   -0.002703    0.046364
  C      2.216247   -0.053075    1.218684
  H     -0.672404    1.854938    0.709463
  H     -0.488778    1.634481   -1.042972
  H      1.962504    1.823794   -0.863541
  H      1.255786    3.131415    0.099097
  H      2.980549    2.020396    1.525706
  H      1.095975   -0.553165    3.283120
  H      0.728845   -1.643683    0.959145
  H      3.133179   -0.608416    1.069743

 Total Charge           Charge          ....    0
 Multiplicity           Mult            ....    1
 Number of Electrons    NEL             ....   60
 Basis Dimension        Dim             ....  296

ORBITAL ENERGIES
----------------

  NO   OCC          E(Eh)            E(eV)
   0   2.0000     -20.558258      -559.4186
   1   2.0000     -20.556842      -559.3801
   2   2.0000     -11.294678      -307.3438
   3   2.0000     -11.292463      -307.2835
   4   2.0000     -11.290726      -307.2363
   5   2.0000     -11.273861      -306.7773
   6   2.0000     -11.236719      -305.7667
   7   2.0000     -11.229649      -305.5743
   8   2.0000      -1.407283       -38.2941
   9   2.0000      -1.366212       -37.1765
  10   2.0000      -1.114782       -30.3348
  11   2.0000      -1.055490       -28.7213
  12   2.0000      -0.927519       -25.2391
  13   2.0000      -0.871306       -23.7094
  14   2.0000      -0.783155       -21.3107
  15   2.0000      -0.739748       -20.1296
  16   2.0000      -0.731159       -19.8958
  17   2.0000      -0.659929       -17.9576
  18   2.0000      -0.654665       -17.8143
  19   2.0000      -0.631383       -17.1808
  20   2.0000      -0.601034       -16.3550
  21   2.0000      -0.589540       -16.0422
  22   2.0000      -0.553932       -15.0733
  23   2.0000      -0.538412       -14.6509
  24   2.0000      -0.521146       -14.1811
  25   2.0000      -0.482170       -13.1205
  26   2.0000      -0.465400       -12.6642
  27   2.0000      -0.455483       -12.3943
  28   2.0000      -0.392970       -10.6933
  29   2.0000      -0.364108        -9.9079
  30   0.0000       0.142742         3.8842
  31   0.0000       0.162050         4.4096
  32   0.0000       0.168817         4.5937
  33   0.0000       0.181228         4.9315
  34   0.0000       0.196362         5.3433

MULLIKEN ATOMIC CHARGES
-----------------------
   0 C :   -0.047823
   1 C :   -0.247447
   2 C :    0.120926
   3 O :   -0.340881
   4 C :    0.033512
   5 C :    0.035992
   6 O :   -0.306677
   7 C :   -0.233906
   8 H :    0.108358
   9 H :    0.121690
  10 H :    0.113514
  11 H :    0.124210
  12 H :    0.119940
  13 H :    0.130071
  14 H :    0.124763
  15 H :    0.143757
Sum of atomic charges:   -0.0000000

LOEWDIN ATOMIC CHARGES
----------------------
   0 C :   -0.295103
   1 C :   -0.248185
   2 C :   -0.235871
   3 O :    0.163447
   4 C :   -0.228059
   5 C :   -0.282818
   6 O :    0.184522
   7 C :   -0.161875
   8 H :    0.128365
   9 H :    0.128374
  10 H :    0.145237
  11 H :    0.144594
  12 H :    0.139735
  13 H :    0.129654
  14 H :    0.153226
  15 H :    0.134756

  Mayer bond orders larger than 0.1
B(  0-C ,  1-C ) :   0.9675 B(  0-C ,  6-O ) :   0.9085 B(  0-C ,  8-H ) :   0.9319
B(  0-C ,  9-H ) :   0.9217 B(  1-C ,  2-C ) :   0.9376 B(  1-C , 10-H ) :   0.9102
B(  1-C , 11-H ) :   0.9178 B(  2-C ,  3-O ) :   0.9125 B(  2-C ,  7-C ) :   0.9302
B(  2-C , 12-H ) :   0.9212 B(  3-O ,  4-C ) :   0.9335 B(  4-C ,  5-C ) :   0.8701
B(  4-C ,  7-C ) :   0.8738 B(  4-C , 13-H ) :   0.9143 B(  5-C ,  6-O ) :   0.9964
B(  5-C ,  7-C ) :   0.8819 B(  5-C , 14-H ) :   0.9400 B(  7-C , 15-H ) :   0.9015

MP2 TOTAL ENERGY:     -383.052475459 Eh
FINAL SINGLE POINT ENERGY      -383.052475459475

DIPOLE MOMENT
-------------
                                X             Y             Z
Electronic contribution:     -0.71959      -1.73056       2.05929
Nuclear contribution   :      1.35892       1.69989      -2.23996
                        -----------------------------------------
Total Dipole Moment    :      0.63932      -0.03067      -0.18067
                        -----------------------------------------
Magnitude (a.u.)       :      0.66507
Magnitude (Debye)      :      1.69047

                             ****ORCA TERMINATED NORMALLY****
TOTAL RUN TIME: 0 days 0 hours 11 minutes 39 seconds 116 msec
