                         Program Version 3.0.3 - RELEASE   -
|  1> ! RI-MP2 RIJK def2-TZVP def2-TZVP/C def2-TZVP/JK TIGHTSCF
|  2> % maxcore 2000
|  3> % mp2 density relaxed end
|  4> *xyz 0 1
|  5>  O       -0.1528836875     1.3008639544     0.0312742739
|  6>  N       -0.0000331999    -0.0987921309     0.0148308176
|  7>  C       -1.1249041216    -0.6792750872     0.0177106387
|  8>  C       -2.5608117014    -0.1708992269     0.0263696032
|  9>  C       -3.2088531081    -1.5775037529     0.0225288107
| 10>  C       -2.4189446973    -2.3655941806     1.0922329545
| 11>  C       -1.3423298366    -2.1757378481    -0.0080505490
| 12>  O       -2.4197612193    -2.2664622542    -1.0034662858
| 13>  H        0.7609219862     1.6052804951     0.0096797877
| 14>  H       -2.7944063903     0.4409909751     0.9023750553
| 15>  H       -2.8018653711     0.3986478410    -0.8745870656
| 16>  H       -4.2861896491    -1.6593104999    -0.1132350696
| 17>  H       -2.2579481226    -1.9235873771     2.0788117278
| 18>  H       -2.7433125170    -3.4043618714     1.1580606198
| 19>  H       -0.4952156044    -2.8372423261    -0.1720066491
| 20> *
| 21>
| 22>                          ****END OF INPUT****

CARTESIAN COORDINATES (ANGSTROEM)
---------------------------------
  O     -0.152884    1.300864    0.031274
  N     -0.000033   -0.098792    0.014831
  C     -1.124904   -0.679275    0.017711
  C     -2.560812   -0.170899    0.026370
  C     -3.208853   -1.577504    0.022529
  C     -2.418945   -2.365594    1.092233
  C     -1.342330   -2.175738   -0.008051
  O     -2.419761   -2.266462   -1.003466
  H      0.760922    1.605280    0.009680
  H     -2.794406    0.440991    0.902375
  H     -2.801865    0.398648   -0.874587
  H     -4.286190   -1.659310   -0.113235
  H     -2.257948   -1.923587    2.078812
  H     -2.743313   -3.404362    1.158061
  H     -0.495216   -2.837242   -0.172007

 Total Charge           Charge          ....    0
 Multiplicity           Mult            ....    1
 Number of Electrons    NEL             ....   60
 Basis Dimension        Dim             ....  290

ORBITAL ENERGIES
----------------

  NO   OCC          E(Eh)            E(eV)
   0   2.0000     -20.592739      -560.3569
   1   2.0000     -20.562681      -559.5390
   2   2.0000     -15.618367      -424.9974
   3   2.0000     -11.304469      -307.6102
   4   2.0000     -11.303058      -307.5718
   5   2.0000     -11.282095      -307.0014
   6   2.0000     -11.246701      -306.0383
   7   2.0000     -11.245238      -305.9985
   8   2.0000      -1.419736       -38.6330
   9   2.0000      -1.401355       -38.1328
  10   2.0000      -1.167386       -31.7662
  11   2.0000      -1.064263       -28.9601
  12   2.0000      -0.985211       -26.8090
  13   2.0000      -0.928757       -25.2728
  14   2.0000      -0.790306       -21.5053
  15   2.0000      -0.741968       -20.1900
  16   2.0000      -0.715693       -19.4750
  17   2.0000      -0.688346       -18.7309
  18   2.0000      -0.657813       -17.9000
  19   2.0000      -0.631256       -17.1773
  20   2.0000      -0.595511       -16.2047
  21   2.0000      -0.586412       -15.9571
  22   2.0000      -0.567458       -15.4413
  23   2.0000      -0.534812       -14.5530
  24   2.0000      -0.529485       -14.4080
  25   2.0000      -0.493477       -13.4282
  26   2.0000      -0.482674       -13.1342
  27   2.0000      -0.449290       -12.2258
  28   2.0000      -0.415681       -11.3113
  29   2.0000      -0.387842       -10.5537
  30   0.0000       0.140506         3.8234
  31   0.0000       0.153800         4.1851
  32   0.0000       0.159712         4.3460
  33   0.0000       0.169984         4.6255
  34   0.0000       0.178468         4.8564

MULLIKEN ATOMIC CHARGES
-----------------------
   0 O :   -0.361784
   1 N :   -0.072071
   2 C :   -0.065773
   3 C :   -0.168866
   4 C :   -0.003569
   5 C :   -0.220699
   6 C :    0.053606
   7 O :   -0.305538
   8 H :    0.336717
   9 H :    0.133763
  10 H :    0.137905
  11 H :    0.134159
  12 H :    0.128186
  13 H :    0.129510
  14 H :    0.144452
Sum of atomic charges:   -0.0000000

LOEWDIN ATOMIC CHARGES
----------------------
   0 O :   -0.075348
   1 N :    0.027492
   2 C :   -0.268144
   3 C :   -0.199975
   4 C :   -0.245248
   5 C :   -0.194559
   6 C :   -0.215242
   7 O :    0.158733
   8 H :    0.169395
   9 H :    0.147506
  10 H :    0.151409
  11 H :    0.131188
  12 H :    0.132029
  13 H :    0.141475
  14 H :    0.139289

  Mayer bond orders larger than 0.1
B(  0-O ,  1-N ) :   0.8007 B(  0-O ,  8-H ) :   0.8436 B(  1-N ,  2-C ) :   1.9069
B(  2-C ,  3-C ) :   0.9696 B(  2-C ,  6-C ) :   0.9786 B(  3-C ,  4-C ) :   0.9441
B(  3-C ,  9-H ) :   0.8983 B(  3-C , 10-H ) :   0.8942 B(  4-C ,  5-C ) :   0.9434
B(  4-C ,  7-O ) :   0.9144 B(  4-C , 11-H ) :   0.9136 B(  5-C ,  6-C ) :   0.9175
B(  5-C , 12-H ) :   0.9247 B(  5-C , 13-H ) :   0.9184 B(  6-C ,  7-O ) :   0.9221
B(  6-C , 14-H ) :   0.8942

MP2 TOTAL ENERGY:     -399.079375740 Eh
FINAL SINGLE POINT ENERGY      -399.079375740286

DIPOLE MOMENT
-------------
                                X             Y             Z
Electronic contribution:      2.79695       0.74890      -2.01720
Nuclear contribution   :     -3.01953      -0.63588       2.70311
                        -----------------------------------------
Total Dipole Moment    :     -0.22257       0.11302       0.68591
                        -----------------------------------------
Magnitude (a.u.)       :      0.72992
Magnitude (Debye)      :      1.85532

                             ****ORCA TERMINATED NORMALLY****
TOTAL RUN TIME: 0 days 0 hours 10 minutes 40 seconds 952 msec
