                         Program Version 3.0.3 - RELEASE   -
|  1> ! RI-MP2 RIJK def2-TZVP def2-TZVP/C def2-TZVP/JK TIGHTSCF
|  2> % maxcore 2000
|  3> % mp2 density relaxed end
|  4> *xyz 0 1
|  5>  C        0.1488676860     1.2942867861     0.1205998197
|  6>  O       -0.1203735212    -0.0682401419    -0.1867285662
|  7>  C        0.5743426663    -0.5383352869    -1.2648845795
|  8>  C        0.3442596000    -0.2191602048    -2.7456075651
|  9>  C        1.2208916064    -1.4841893746    -3.0147810026
| 10>  C        0.9310519472    -1.9493325354    -1.5317474185
| 11>  C        2.0658457334    -0.9749424714    -1.1079502852
| 12>  C        2.6167468116    -1.0689705746    -2.4929786442
| 13>  O        3.7104401336    -1.0256396599    -2.9809457261
| 14>  H        1.2108377814     1.4466777362     0.3533276556
| 15>  H       -0.1299914346     1.9564981106    -0.7093724939
| 16>  H       -0.4547063149     1.5440748588     0.9948079016
| 17>  H       -0.7009449140    -0.3838512645    -3.0223049566
| 18>  H        0.7018947639     0.7322599309    -3.1532799770
| 19>  H        1.0994488624    -2.0774390160    -3.9162710474
| 20>  H        0.6735689040    -2.8985616004    -1.0892545996
| 21>  H        2.5570066287    -0.9149317023    -0.1463412049
| 22> *
| 23>
| 24>                          ****END OF INPUT****

CARTESIAN COORDINATES (ANGSTROEM)
---------------------------------
  C      0.148868    1.294287    0.120600
  O     -0.120374   -0.068240   -0.186729
  C      0.574343   -0.538335   -1.264885
  C      0.344260   -0.219160   -2.745608
  C      1.220892   -1.484189   -3.014781
  C      0.931052   -1.949333   -1.531747
  C      2.065846   -0.974942   -1.107950
  C      2.616747   -1.068971   -2.492979
  O      3.710440   -1.025640   -2.980946
  H      1.210838    1.446678    0.353328
  H     -0.129991    1.956498   -0.709372
  H     -0.454706    1.544075    0.994808
  H     -0.700945   -0.383851   -3.022305
  H      0.701895    0.732260   -3.153280
  H      1.099449   -2.077439   -3.916271
  H      0.673569   -2.898562   -1.089255
  H      2.557007   -0.914932   -0.146341

 Total Charge           Charge          ....    0
 Multiplicity           Mult            ....    1
 Number of Electrons    NEL             ....   66
 Basis Dimension        Dim             ....  327

ORBITAL ENERGIES
----------------

  NO   OCC          E(Eh)            E(eV)
   0   2.0000     -20.585705      -560.1655
   1   2.0000     -20.541218      -558.9550
   2   2.0000     -11.334057      -308.4154
   3   2.0000     -11.319522      -308.0199
   4   2.0000     -11.288129      -307.1656
   5   2.0000     -11.264003      -306.5091
   6   2.0000     -11.261553      -306.4424
   7   2.0000     -11.252842      -306.2054
   8   2.0000     -11.252000      -306.1825
   9   2.0000      -1.412874       -38.4463
  10   2.0000      -1.387541       -37.7569
  11   2.0000      -1.246964       -33.9316
  12   2.0000      -0.999039       -27.1852
  13   2.0000      -0.978862       -26.6362
  14   2.0000      -0.911525       -24.8039
  15   2.0000      -0.870893       -23.6982
  16   2.0000      -0.762504       -20.7488
  17   2.0000      -0.735217       -20.0063
  18   2.0000      -0.715156       -19.4604
  19   2.0000      -0.665999       -18.1227
  20   2.0000      -0.657969       -17.9042
  21   2.0000      -0.636172       -17.3111
  22   2.0000      -0.629176       -17.1207
  23   2.0000      -0.593318       -16.1450
  24   2.0000      -0.579744       -15.7756
  25   2.0000      -0.556726       -15.1493
  26   2.0000      -0.536536       -14.5999
  27   2.0000      -0.507213       -13.8020
  28   2.0000      -0.478700       -13.0261
  29   2.0000      -0.470200       -12.7948
  30   2.0000      -0.417012       -11.3475
  31   2.0000      -0.399770       -10.8783
  32   2.0000      -0.388985       -10.5848
  33   0.0000       0.133639         3.6365
  34   0.0000       0.155464         4.2304
  35   0.0000       0.160737         4.3739
  36   0.0000       0.169302         4.6069
  37   0.0000       0.174060         4.7364

MULLIKEN ATOMIC CHARGES
-----------------------
   0 C :   -0.217518
   1 O :   -0.301039
   2 C :    0.158091
   3 C :   -0.210064
   4 C :   -0.068595
   5 C :   -0.174665
   6 C :   -0.193280
   7 C :    0.136479
   8 O :   -0.269054
   9 H :    0.124835
  10 H :    0.125656
  11 H :    0.147312
  12 H :    0.125609
  13 H :    0.129415
  14 H :    0.152764
  15 H :    0.174399
  16 H :    0.159657
Sum of atomic charges:    0.0000000

LOEWDIN ATOMIC CHARGES
----------------------
   0 C :   -0.324836
   1 O :    0.209492
   2 C :   -0.311373
   3 C :   -0.164504
   4 C :   -0.116673
   5 C :   -0.075560
   6 C :   -0.099012
   7 C :   -0.303965
   8 O :    0.147526
   9 H :    0.107118
  10 H :    0.107267
  11 H :    0.115973
  12 H :    0.144415
  13 H :    0.131305
  14 H :    0.140848
  15 H :    0.144568
  16 H :    0.147412

  Mayer bond orders larger than 0.1
B(  0-C ,  1-O ) :   0.8732 B(  0-C ,  9-H ) :   0.9318 B(  0-C , 10-H ) :   0.9359
B(  0-C , 11-H ) :   0.9392 B(  1-O ,  2-C ) :   1.0212 B(  2-C ,  3-C ) :   0.9425
B(  2-C ,  5-C ) :   0.8893 B(  2-C ,  6-C ) :   0.7713 B(  3-C ,  4-C ) :   0.8665
B(  3-C , 12-H ) :   0.9112 B(  3-C , 13-H ) :   0.9196 B(  4-C ,  5-C ) :   0.8731
B(  4-C ,  6-C ) :  -0.1056 B(  4-C ,  7-C ) :   0.8681 B(  4-C , 14-H ) :   0.9002
B(  5-C ,  6-C ) :   0.8197 B(  5-C , 15-H ) :   0.8809 B(  6-C ,  7-C ) :   0.8939
B(  6-C , 16-H ) :   0.9057 B(  7-C ,  8-O ) :   2.0413

MP2 TOTAL ENERGY:     -421.067072275 Eh
FINAL SINGLE POINT ENERGY      -421.067072274600

DIPOLE MOMENT
-------------
                                X             Y             Z
Electronic contribution:      3.83959      -3.82378      -1.99430
Nuclear contribution   :     -4.84680       4.12599       2.43116
                        -----------------------------------------
Total Dipole Moment    :     -1.00721       0.30221       0.43686
                        -----------------------------------------
Magnitude (a.u.)       :      1.13871
Magnitude (Debye)      :      2.89436

                             ****ORCA TERMINATED NORMALLY****
TOTAL RUN TIME: 0 days 0 hours 17 minutes 35 seconds 401 msec
