                         Program Version 3.0.3 - RELEASE   -
|  1> ! RI-MP2 RIJK def2-TZVP def2-TZVP/C def2-TZVP/JK TIGHTSCF
|  2> % maxcore 2000
|  3> % mp2 density relaxed end
|  4> *xyz 0 1
|  5>  C       -0.0073160258     1.4830629398     0.1506966593
|  6>  C       -0.0374147447    -0.0076542629     0.0353306938
|  7>  C       -1.2465411437    -0.9017769034    -0.2754409151
|  8>  C       -0.3255268247    -2.1080864468     0.0878073675
|  9>  C       -0.8484824132    -3.4371099906     0.5539524408
| 10>  C        0.6097584863    -1.0609970784     0.8279729590
| 11>  N        1.2043089569    -0.6732641988    -0.5318893495
| 12>  C        0.7331962049    -1.9710825234    -1.0018093587
| 13>  O        1.2024541666    -2.6815807749    -1.8351349533
| 14>  H        0.9726833684     1.8246008491     0.4924270812
| 15>  H       -0.2107810763     1.9485908611    -0.8191847140
| 16>  H       -0.7671616306     1.8266005513     0.8605492303
| 17>  H       -2.0355338093    -0.7550131301     0.4681909132
| 18>  H       -1.6741486785    -0.8815038600    -1.2841296100
| 19>  H       -1.4418167131    -3.9064944126    -0.2376293605
| 20>  H       -0.0296990464    -4.1193860652     0.8020234133
| 21>  H       -1.4879637683    -3.3298948944     1.4358126868
| 22>  H        1.2305821013    -1.1006645098     1.7115957461
| 23> *
| 24>
| 25>                          ****END OF INPUT****

CARTESIAN COORDINATES (ANGSTROEM)
---------------------------------
  C     -0.007316    1.483063    0.150697
  C     -0.037415   -0.007654    0.035331
  C     -1.246541   -0.901777   -0.275441
  C     -0.325527   -2.108086    0.087807
  C     -0.848482   -3.437110    0.553952
  C      0.609758   -1.060997    0.827973
  N      1.204309   -0.673264   -0.531889
  C      0.733196   -1.971083   -1.001809
  O      1.202454   -2.681581   -1.835135
  H      0.972683    1.824601    0.492427
  H     -0.210781    1.948591   -0.819185
  H     -0.767162    1.826601    0.860549
  H     -2.035534   -0.755013    0.468191
  H     -1.674149   -0.881504   -1.284130
  H     -1.441817   -3.906494   -0.237629
  H     -0.029699   -4.119386    0.802023
  H     -1.487964   -3.329895    1.435813
  H      1.230582   -1.100665    1.711596

 Total Charge           Charge          ....    0
 Multiplicity           Mult            ....    1
 Number of Electrons    NEL             ....   66
 Basis Dimension        Dim             ....  333

ORBITAL ENERGIES
----------------

  NO   OCC          E(Eh)            E(eV)
   0   2.0000     -20.546061      -559.0867
   1   2.0000     -15.582158      -424.0121
   2   2.0000     -11.353366      -308.9408
   3   2.0000     -11.297292      -307.4149
   4   2.0000     -11.289028      -307.1901
   5   2.0000     -11.274226      -306.7873
   6   2.0000     -11.256352      -306.3009
   7   2.0000     -11.237357      -305.7840
   8   2.0000     -11.237215      -305.7802
   9   2.0000      -1.407562       -38.3017
  10   2.0000      -1.328446       -36.1489
  11   2.0000      -1.077623       -29.3236
  12   2.0000      -1.039837       -28.2954
  13   2.0000      -0.973009       -26.4769
  14   2.0000      -0.906309       -24.6619
  15   2.0000      -0.879502       -23.9325
  16   2.0000      -0.765150       -20.8208
  17   2.0000      -0.696592       -18.9552
  18   2.0000      -0.687343       -18.7036
  19   2.0000      -0.652733       -17.7618
  20   2.0000      -0.633544       -17.2396
  21   2.0000      -0.617202       -16.7949
  22   2.0000      -0.594243       -16.1702
  23   2.0000      -0.576021       -15.6743
  24   2.0000      -0.563326       -15.3289
  25   2.0000      -0.562333       -15.3019
  26   2.0000      -0.546690       -14.8762
  27   2.0000      -0.511916       -13.9299
  28   2.0000      -0.483812       -13.1652
  29   2.0000      -0.457484       -12.4488
  30   2.0000      -0.441403       -12.0112
  31   2.0000      -0.418984       -11.4011
  32   2.0000      -0.389077       -10.5873
  33   0.0000       0.127164         3.4603
  34   0.0000       0.139325         3.7912
  35   0.0000       0.157602         4.2886
  36   0.0000       0.169895         4.6231
  37   0.0000       0.179640         4.8882

MULLIKEN ATOMIC CHARGES
-----------------------
   0 C :   -0.426540
   1 C :    0.053805
   2 C :   -0.155944
   3 C :    0.005795
   4 C :   -0.399920
   5 C :   -0.097046
   6 N :   -0.202617
   7 C :    0.178620
   8 O :   -0.242942
   9 H :    0.152372
  10 H :    0.143020
  11 H :    0.133000
  12 H :    0.124246
  13 H :    0.128473
  14 H :    0.149146
  15 H :    0.147812
  16 H :    0.138017
  17 H :    0.170704
Sum of atomic charges:   -0.0000000

LOEWDIN ATOMIC CHARGES
----------------------
   0 C :   -0.263699
   1 C :   -0.253670
   2 C :   -0.144899
   3 C :   -0.197910
   4 C :   -0.267078
   5 C :   -0.092375
   6 N :    0.181427
   7 C :   -0.359749
   8 O :    0.168638
   9 H :    0.137998
  10 H :    0.134939
  11 H :    0.131647
  12 H :    0.145839
  13 H :    0.134059
  14 H :    0.139149
  15 H :    0.135778
  16 H :    0.130159
  17 H :    0.139747

  Mayer bond orders larger than 0.1
B(  0-C ,  1-C ) :   0.8859 B(  0-C ,  9-H ) :   0.9366 B(  0-C , 10-H ) :   0.9400
B(  0-C , 11-H ) :   0.9366 B(  1-C ,  2-C ) :   0.9158 B(  1-C ,  5-C ) :   0.8999
B(  1-C ,  6-N ) :   0.8068 B(  2-C ,  3-C ) :   0.8956 B(  2-C , 12-H ) :   0.9147
B(  2-C , 13-H ) :   0.9085 B(  3-C ,  4-C ) :   0.8578 B(  3-C ,  5-C ) :   0.8473
B(  3-C ,  7-C ) :   0.8966 B(  4-C , 14-H ) :   0.9350 B(  4-C , 15-H ) :   0.9375
B(  4-C , 16-H ) :   0.9408 B(  5-C ,  6-N ) :   0.8294 B(  5-C , 17-H ) :   0.8767
B(  6-N ,  7-C ) :   0.9878 B(  7-C ,  8-O ) :   2.0912

MP2 TOTAL ENERGY:     -401.229802053 Eh
FINAL SINGLE POINT ENERGY      -401.229802053373

DIPOLE MOMENT
-------------
                                X             Y             Z
Electronic contribution:      5.09167      -2.33431      -3.94052
Nuclear contribution   :     -6.26076       2.78022       5.16734
                        -----------------------------------------
Total Dipole Moment    :     -1.16909       0.44591       1.22681
                        -----------------------------------------
Magnitude (a.u.)       :      1.75234
Magnitude (Debye)      :      4.45408

                             ****ORCA TERMINATED NORMALLY****
TOTAL RUN TIME: 0 days 0 hours 17 minutes 19 seconds 418 msec
