                         Program Version 3.0.3 - RELEASE   -
|  1> ! RI-MP2 RIJK def2-TZVP def2-TZVP/C def2-TZVP/JK TIGHTSCF
|  2> % maxcore 2000
|  3> % mp2 density relaxed end
|  4> *xyz 0 1
|  5>  C        0.0934021594     1.3948835695     0.1530078191
|  6>  C        0.0466829134    -0.0509728275     0.0288087195
|  7>  C       -0.0147285943    -1.2522110115    -0.0764661097
|  8>  C       -0.0892276417    -2.6877987092    -0.2222458168
|  9>  O       -1.1270366366    -3.2801463671    -0.3993068319
| 10>  C        1.2730142901    -3.4056016358    -0.1101931914
| 11>  C        1.7887789691    -3.3530937573     1.3484900809
| 12>  C        1.1836916688    -4.7842603374    -0.5914311187
| 13>  N        1.1589806568    -5.8780405488    -0.9608177655
| 14>  H        1.1205662080     1.7696043040     0.1024015959
| 15>  H       -0.4856977588     1.8704979039    -0.6455336951
| 16>  H       -0.3375612427     1.7115510860     1.1090266605
| 17>  H        1.9832323586    -2.8654617272    -0.7483995332
| 18>  H        2.7755814262    -3.8155629807     1.4161540445
| 19>  H        1.8618965732    -2.3135935332     1.6757473318
| 20>  H        1.1067377905    -3.8879021276     2.0137529699
| 21> *
| 22>
| 23>                          ****END OF INPUT****

CARTESIAN COORDINATES (ANGSTROEM)
---------------------------------
  C      0.093402    1.394884    0.153008
  C      0.046683   -0.050973    0.028809
  C     -0.014729   -1.252211   -0.076466
  C     -0.089228   -2.687799   -0.222246
  O     -1.127037   -3.280146   -0.399307
  C      1.273014   -3.405602   -0.110193
  C      1.788779   -3.353094    1.348490
  C      1.183692   -4.784260   -0.591431
  N      1.158981   -5.878041   -0.960818
  H      1.120566    1.769604    0.102402
  H     -0.485698    1.870498   -0.645534
  H     -0.337561    1.711551    1.109027
  H      1.983232   -2.865462   -0.748400
  H      2.775581   -3.815563    1.416154
  H      1.861897   -2.313594    1.675747
  H      1.106738   -3.887902    2.013753

 Total Charge           Charge          ....    0
 Multiplicity           Mult            ....    1
 Number of Electrons    NEL             ....   64
 Basis Dimension        Dim             ....  321

ORBITAL ENERGIES
----------------

  NO   OCC          E(Eh)            E(eV)
   0   2.0000     -20.577976      -559.9552
   1   2.0000     -15.571725      -423.7282
   2   2.0000     -11.379962      -309.6645
   3   2.0000     -11.308173      -307.7110
   4   2.0000     -11.282950      -307.0247
   5   2.0000     -11.278363      -306.8999
   6   2.0000     -11.274046      -306.7824
   7   2.0000     -11.260612      -306.4168
   8   2.0000     -11.254322      -306.2457
   9   2.0000      -1.421554       -38.6825
  10   2.0000      -1.220879       -33.2218
  11   2.0000      -1.121358       -30.5137
  12   2.0000      -1.093244       -29.7487
  13   2.0000      -1.008108       -27.4320
  14   2.0000      -0.938143       -25.5282
  15   2.0000      -0.879962       -23.9450
  16   2.0000      -0.727000       -19.7827
  17   2.0000      -0.714662       -19.4469
  18   2.0000      -0.671659       -18.2768
  19   2.0000      -0.656092       -17.8532
  20   2.0000      -0.624227       -16.9861
  21   2.0000      -0.620426       -16.8827
  22   2.0000      -0.614570       -16.7233
  23   2.0000      -0.585642       -15.9361
  24   2.0000      -0.569614       -15.5000
  25   2.0000      -0.548969       -14.9382
  26   2.0000      -0.540987       -14.7210
  27   2.0000      -0.477548       -12.9947
  28   2.0000      -0.460251       -12.5241
  29   2.0000      -0.450242       -12.2517
  30   2.0000      -0.418025       -11.3750
  31   2.0000      -0.415471       -11.3055
  32   0.0000       0.072587         1.9752
  33   0.0000       0.109690         2.9848
  34   0.0000       0.132205         3.5975
  35   0.0000       0.151162         4.1133
  36   0.0000       0.158477         4.3124

MULLIKEN ATOMIC CHARGES
-----------------------
   0 C :   -0.472004
   1 C :    0.068679
   2 C :    0.036986
   3 C :    0.052001
   4 O :   -0.235346
   5 C :    0.064622
   6 C :   -0.416802
   7 C :   -0.195377
   8 N :   -0.042094
   9 H :    0.170293
  10 H :    0.177641
  11 H :    0.175408
  12 H :    0.147077
  13 H :    0.157321
  14 H :    0.155222
  15 H :    0.156374
Sum of atomic charges:   -0.0000000

LOEWDIN ATOMIC CHARGES
----------------------
   0 C :   -0.280554
   1 C :   -0.050098
   2 C :   -0.039508
   3 C :   -0.300222
   4 O :    0.203853
   5 C :   -0.226410
   6 C :   -0.252102
   7 C :   -0.163305
   8 N :    0.073810
   9 H :    0.145591
  10 H :    0.150103
  11 H :    0.149978
  12 H :    0.185838
  13 H :    0.134260
  14 H :    0.132590
  15 H :    0.136175

  Mayer bond orders larger than 0.1
B(  0-C ,  1-C ) :   0.8631 B(  0-C ,  9-H ) :   0.9422 B(  0-C , 10-H ) :   0.9402
B(  0-C , 11-H ) :   0.9367 B(  1-C ,  2-C ) :   2.6804 B(  2-C ,  3-C ) :   0.9899
B(  3-C ,  4-O ) :   2.0174 B(  3-C ,  5-C ) :   0.9172 B(  5-C ,  6-C ) :   0.8649
B(  5-C ,  7-C ) :   0.9213 B(  5-C , 12-H ) :   0.8982 B(  6-C , 13-H ) :   0.9299
B(  6-C , 14-H ) :   0.9298 B(  6-C , 15-H ) :   0.9277 B(  7-C ,  8-N ) :   2.8742

MP2 TOTAL ENERGY:     -400.046793949 Eh
FINAL SINGLE POINT ENERGY      -400.046793948514

DIPOLE MOMENT
-------------
                                X             Y             Z
Electronic contribution:     -3.46965      -7.31675      -4.26999
Nuclear contribution   :      4.37966       9.83278       5.07083
                        -----------------------------------------
Total Dipole Moment    :      0.91001       2.51603       0.80084
                        -----------------------------------------
Magnitude (a.u.)       :      2.79283
Magnitude (Debye)      :      7.09880

                             ****ORCA TERMINATED NORMALLY****
TOTAL RUN TIME: 0 days 0 hours 13 minutes 1 seconds 299 msec
