                         Program Version 3.0.3 - RELEASE   -
|  1> ! RI-MP2 RIJK def2-TZVP def2-TZVP/C def2-TZVP/JK TIGHTSCF
|  2> % maxcore 2000
|  3> % mp2 density relaxed end
|  4> *xyz 0 1
|  5>  O       -0.2886530528     0.4564279448    -0.8099681122
|  6>  C        0.1057868386     1.0520608135     0.1690431565
|  7>  C        1.3119072589     1.8861005327     0.1943970356
|  8>  C        1.7894270747     2.8637649423     1.2676547457
|  9>  C        2.5740577052     3.6404426664     0.1573017530
| 10>  C        3.9902746179     3.0809610513     0.0438962804
| 11>  O        3.7932302912     1.6790955763    -0.2186592182
| 12>  C        2.5011898071     1.5445845055    -0.7392579503
| 13>  C        1.8137222975     2.8280847613    -0.9323442039
| 14>  H       -0.4423489367     0.9915428529     1.1373845689
| 15>  H        0.9635301143     3.4555513432     1.6706710279
| 16>  H        2.3847547152     2.4608884482     2.0936648453
| 17>  H        2.5007751615     4.7262179350     0.1552464528
| 18>  H        4.5501455279     3.5426003040    -0.7827391082
| 19>  H        4.5704398229     3.1751863568     0.9665235802
| 20>  H        2.3555440474     0.6982173434    -1.3978323944
| 21>  H        1.2781825390     3.1670095023    -1.8084724491
| 22> *
| 23>
| 24>                          ****END OF INPUT****

CARTESIAN COORDINATES (ANGSTROEM)
---------------------------------
  O     -0.288653    0.456428   -0.809968
  C      0.105787    1.052061    0.169043
  C      1.311907    1.886101    0.194397
  C      1.789427    2.863765    1.267655
  C      2.574058    3.640443    0.157302
  C      3.990275    3.080961    0.043896
  O      3.793230    1.679096   -0.218659
  C      2.501190    1.544585   -0.739258
  C      1.813722    2.828085   -0.932344
  H     -0.442349    0.991543    1.137385
  H      0.963530    3.455551    1.670671
  H      2.384755    2.460888    2.093665
  H      2.500775    4.726218    0.155246
  H      4.550146    3.542600   -0.782739
  H      4.570440    3.175186    0.966524
  H      2.355544    0.698217   -1.397832
  H      1.278183    3.167010   -1.808472

 Total Charge           Charge          ....    0
 Multiplicity           Mult            ....    1
 Number of Electrons    NEL             ....   66
 Basis Dimension        Dim             ....  327

ORBITAL ENERGIES
----------------

  NO   OCC          E(Eh)            E(eV)
   0   2.0000     -20.568829      -559.7063
   1   2.0000     -20.548979      -559.1661
   2   2.0000     -11.332652      -308.3771
   3   2.0000     -11.301781      -307.5371
   4   2.0000     -11.287623      -307.1518
   5   2.0000     -11.257563      -306.3339
   6   2.0000     -11.255887      -306.2882
   7   2.0000     -11.251324      -306.1641
   8   2.0000     -11.246943      -306.0449
   9   2.0000      -1.402342       -38.1597
  10   2.0000      -1.386779       -37.7362
  11   2.0000      -1.196876       -32.5687
  12   2.0000      -1.040962       -28.3260
  13   2.0000      -0.962274       -26.1848
  14   2.0000      -0.912621       -24.8337
  15   2.0000      -0.815748       -22.1976
  16   2.0000      -0.803711       -21.8701
  17   2.0000      -0.745440       -20.2845
  18   2.0000      -0.724258       -19.7081
  19   2.0000      -0.667782       -18.1713
  20   2.0000      -0.654089       -17.7987
  21   2.0000      -0.641072       -17.4445
  22   2.0000      -0.611592       -16.6423
  23   2.0000      -0.580762       -15.8033
  24   2.0000      -0.575178       -15.6514
  25   2.0000      -0.542508       -14.7624
  26   2.0000      -0.521197       -14.1825
  27   2.0000      -0.507420       -13.8076
  28   2.0000      -0.486360       -13.2345
  29   2.0000      -0.481114       -13.0918
  30   2.0000      -0.432479       -11.7683
  31   2.0000      -0.397283       -10.8106
  32   2.0000      -0.377300       -10.2669
  33   0.0000       0.114478         3.1151
  34   0.0000       0.138586         3.7711
  35   0.0000       0.156882         4.2690
  36   0.0000       0.171531         4.6676
  37   0.0000       0.181463         4.9379

MULLIKEN ATOMIC CHARGES
-----------------------
   0 O :   -0.294694
   1 C :    0.044547
   2 C :    0.017719
   3 C :   -0.211077
   4 C :   -0.070670
   5 C :   -0.045055
   6 O :   -0.308582
   7 C :    0.045504
   8 C :   -0.185145
   9 H :    0.083041
  10 H :    0.129001
  11 H :    0.119218
  12 H :    0.139854
  13 H :    0.101761
  14 H :    0.119040
  15 H :    0.156304
  16 H :    0.159234
Sum of atomic charges:   -0.0000000

LOEWDIN ATOMIC CHARGES
----------------------
   0 O :    0.118581
   1 C :   -0.276675
   2 C :   -0.182460
   3 C :   -0.165453
   4 C :   -0.186813
   5 C :   -0.259982
   6 O :    0.185092
   7 C :   -0.223005
   8 C :   -0.101484
   9 H :    0.116331
  10 H :    0.141857
  11 H :    0.133133
  12 H :    0.146093
  13 H :    0.125012
  14 H :    0.129736
  15 H :    0.155981
  16 H :    0.144057

  Mayer bond orders larger than 0.1
B(  0-O ,  1-C ) :   1.9677 B(  1-C ,  2-C ) :   0.8732 B(  1-C ,  9-H ) :   0.9650
B(  2-C ,  3-C ) :   0.9130 B(  2-C ,  7-C ) :   0.7795 B(  2-C ,  8-C ) :   0.7493
B(  3-C ,  4-C ) :   0.9258 B(  3-C , 10-H ) :   0.9220 B(  3-C , 11-H ) :   0.9024
B(  4-C ,  5-C ) :   0.9601 B(  4-C ,  8-C ) :   0.9032 B(  4-C , 12-H ) :   0.9080
B(  5-C ,  6-O ) :   0.9196 B(  5-C , 13-H ) :   0.9269 B(  5-C , 14-H ) :   0.9146
B(  6-O ,  7-C ) :   0.9929 B(  7-C ,  8-C ) :   0.9542 B(  7-C , 15-H ) :   0.9272
B(  8-C , 16-H ) :   0.8973

MP2 TOTAL ENERGY:     -421.095288127 Eh
FINAL SINGLE POINT ENERGY      -421.095288127074

DIPOLE MOMENT
-------------
                                X             Y             Z
Electronic contribution:     -1.97539      -3.86533      -2.11794
Nuclear contribution   :      2.30602       5.12417       2.65074
                        -----------------------------------------
Total Dipole Moment    :      0.33063       1.25885       0.53280
                        -----------------------------------------
Magnitude (a.u.)       :      1.40637
Magnitude (Debye)      :      3.57471

                             ****ORCA TERMINATED NORMALLY****
TOTAL RUN TIME: 0 days 0 hours 19 minutes 17 seconds 482 msec
