                         Program Version 3.0.3 - RELEASE   -
|  1> ! RI-MP2 RIJK def2-TZVP def2-TZVP/C def2-TZVP/JK TIGHTSCF
|  2> % maxcore 2000
|  3> % mp2 density relaxed end
|  4> *xyz 0 1
|  5>  O       -0.2543751933     0.5504894809     0.9353225630
|  6>  C       -0.0045738425     1.1948000413    -0.0362440093
|  7>  O       -0.8778806484     1.3925933467    -1.0604519881
|  8>  C       -1.4695331819     2.6979695498    -1.2141034910
|  9>  C       -0.4487849617     3.8368921394    -1.1335728067
| 10>  C        0.7831895760     3.4932736510    -1.9437603662
| 11>  C        2.1743005555     3.6935968749    -1.3805634142
| 12>  C        1.5794714273     2.3195343427    -1.4530931138
| 13>  O        1.2257004435     1.7431411354    -0.2094872441
| 14>  H       -1.9400607195     2.6604730107    -2.1999113536
| 15>  H       -2.2568059193     2.8205997381    -0.4605160307
| 16>  H       -0.9198412213     4.7594995221    -1.4896278150
| 17>  H       -0.1735219472     4.0133533964    -0.0886680838
| 18>  H        0.6698351526     3.5692904157    -3.0215082031
| 19>  H        2.9833484381     3.9374295100    -2.0593242964
| 20>  H        2.2577578976     4.1331926615    -0.3926662585
| 21>  H        1.9736470349     1.5911883335    -2.1540880785
| 22> *
| 23>
| 24>                          ****END OF INPUT****

CARTESIAN COORDINATES (ANGSTROEM)
---------------------------------
  O     -0.254375    0.550489    0.935323
  C     -0.004574    1.194800   -0.036244
  O     -0.877881    1.392593   -1.060452
  C     -1.469533    2.697970   -1.214103
  C     -0.448785    3.836892   -1.133573
  C      0.783190    3.493274   -1.943760
  C      2.174301    3.693597   -1.380563
  C      1.579471    2.319534   -1.453093
  O      1.225700    1.743141   -0.209487
  H     -1.940061    2.660473   -2.199911
  H     -2.256806    2.820600   -0.460516
  H     -0.919841    4.759500   -1.489628
  H     -0.173522    4.013353   -0.088668
  H      0.669835    3.569290   -3.021508
  H      2.983348    3.937430   -2.059324
  H      2.257758    4.133193   -0.392666
  H      1.973647    1.591188   -2.154088

 Total Charge           Charge          ....    0
 Multiplicity           Mult            ....    1
 Number of Electrons    NEL             ....   68
 Basis Dimension        Dim             ....  327

ORBITAL ENERGIES
----------------

  NO   OCC          E(Eh)            E(eV)
   0   2.0000     -20.611379      -560.8641
   1   2.0000     -20.598073      -560.5021
   2   2.0000     -20.542517      -558.9903
   3   2.0000     -11.428630      -310.9888
   4   2.0000     -11.310178      -307.7656
   5   2.0000     -11.307133      -307.6827
   6   2.0000     -11.256828      -306.3139
   7   2.0000     -11.254105      -306.2398
   8   2.0000     -11.247784      -306.0678
   9   2.0000      -1.497743       -40.7557
  10   2.0000      -1.394887       -37.9568
  11   2.0000      -1.370770       -37.3005
  12   2.0000      -1.170514       -31.8513
  13   2.0000      -1.050154       -28.5761
  14   2.0000      -0.936184       -25.4749
  15   2.0000      -0.869607       -23.6632
  16   2.0000      -0.823780       -22.4162
  17   2.0000      -0.783009       -21.3068
  18   2.0000      -0.734569       -19.9886
  19   2.0000      -0.711884       -19.3714
  20   2.0000      -0.688460       -18.7339
  21   2.0000      -0.668827       -18.1997
  22   2.0000      -0.649865       -17.6837
  23   2.0000      -0.620874       -16.8948
  24   2.0000      -0.596703       -16.2371
  25   2.0000      -0.572000       -15.5649
  26   2.0000      -0.554659       -15.0930
  27   2.0000      -0.542772       -14.7696
  28   2.0000      -0.522361       -14.2142
  29   2.0000      -0.492894       -13.4123
  30   2.0000      -0.480186       -13.0665
  31   2.0000      -0.462555       -12.5868
  32   2.0000      -0.430607       -11.7174
  33   2.0000      -0.422448       -11.4954
  34   0.0000       0.127644         3.4734
  35   0.0000       0.143955         3.9172
  36   0.0000       0.155989         4.2447
  37   0.0000       0.172255         4.6873
  38   0.0000       0.184965         5.0332

MULLIKEN ATOMIC CHARGES
-----------------------
   0 O :   -0.269816
   1 C :    0.360106
   2 O :   -0.280207
   3 C :   -0.049723
   4 C :   -0.274728
   5 C :   -0.105713
   6 C :   -0.272875
   7 C :    0.024929
   8 O :   -0.233019
   9 H :    0.125682
  10 H :    0.135731
  11 H :    0.141049
  12 H :    0.148102
  13 H :    0.130797
  14 H :    0.141560
  15 H :    0.147574
  16 H :    0.130551
Sum of atomic charges:    0.0000000

LOEWDIN ATOMIC CHARGES
----------------------
   0 O :    0.145019
   1 C :   -0.604088
   2 O :    0.224291
   3 C :   -0.271762
   4 C :   -0.250968
   5 C :   -0.209976
   6 C :   -0.195888
   7 C :   -0.257916
   8 O :    0.281791
   9 H :    0.135070
  10 H :    0.131187
  11 H :    0.150054
  12 H :    0.150278
  13 H :    0.152256
  14 H :    0.137399
  15 H :    0.143431
  16 H :    0.139822

  Mayer bond orders larger than 0.1
B(  0-O ,  1-C ) :   2.0774 B(  1-C ,  2-O ) :   1.0442 B(  1-C ,  8-O ) :   1.0884
B(  2-O ,  3-C ) :   0.8658 B(  3-C ,  4-C ) :   0.9375 B(  3-C ,  9-H ) :   0.9309
B(  3-C , 10-H ) :   0.9375 B(  4-C ,  5-C ) :   0.8968 B(  4-C , 11-H ) :   0.9183
B(  4-C , 12-H ) :   0.9314 B(  5-C ,  6-C ) :   0.9010 B(  5-C ,  7-C ) :   0.8956
B(  5-C , 13-H ) :   0.9159 B(  6-C ,  7-C ) :   0.8798 B(  6-C , 14-H ) :   0.9258
B(  6-C , 15-H ) :   0.9171 B(  7-C ,  8-O ) :   0.9179 B(  7-C , 16-H ) :   0.9447

MP2 TOTAL ENERGY:     -458.243365482 Eh
FINAL SINGLE POINT ENERGY      -458.243365482420

DIPOLE MOMENT
-------------
                                X             Y             Z
Electronic contribution:     -0.29001      -7.04847       3.76551
Nuclear contribution   :      0.34308       8.53410      -5.04903
                        -----------------------------------------
Total Dipole Moment    :      0.05307       1.48563      -1.28352
                        -----------------------------------------
Magnitude (a.u.)       :      1.96401
Magnitude (Debye)      :      4.99211

                             ****ORCA TERMINATED NORMALLY****
TOTAL RUN TIME: 0 days 0 hours 17 minutes 28 seconds 15 msec
