                         Program Version 3.0.3 - RELEASE   -
|  1> ! RI-MP2 RIJK def2-TZVP def2-TZVP/C def2-TZVP/JK TIGHTSCF
|  2> % maxcore 2000
|  3> % mp2 density relaxed end
|  4> *xyz 0 1
|  5>  C       -0.0173748938     1.4788149004    -0.0733020094
|  6>  C       -0.0227388039     0.0270945326     0.0254083499
|  7>  C       -0.0372718188    -1.1733232348     0.1038443218
|  8>  C       -0.0259677411    -2.6248486364     0.2075925658
|  9>  O       -1.3376371312    -3.1300302160     0.0008346404
| 10>  C       -1.4061301583    -4.5543184577    -0.0041962514
| 11>  C       -1.4433516976    -5.1338995704     1.4194279811
| 12>  C       -2.5966586724    -4.9409349756    -0.7612872191
| 13>  C       -3.5746644198    -5.2923166226    -1.3632952197
| 14>  H        0.5925783550     1.8203594535    -0.9167294519
| 15>  H       -1.0326100456     1.8626288850    -0.2217945620
| 16>  H        0.3815168205     1.9403061854     0.8366531584
| 17>  H        0.6635782768    -3.0510609632    -0.5416218461
| 18>  H        0.3616654931    -2.9191472551     1.1962581030
| 19>  H       -0.5211181916    -4.9546574847    -0.5280378489
| 20>  H       -0.5337726935    -4.8754810430     1.9686901564
| 21>  H       -2.3070493812    -4.7359763345     1.9572600632
| 22>  H       -1.5225609408    -6.2237986970     1.3822655180
| 23>  H       -4.4375825257    -5.5911793060    -1.9053724095
| 24> *
| 25>
| 26>                          ****END OF INPUT****

CARTESIAN COORDINATES (ANGSTROEM)
---------------------------------
  C     -0.017375    1.478815   -0.073302
  C     -0.022739    0.027095    0.025408
  C     -0.037272   -1.173323    0.103844
  C     -0.025968   -2.624849    0.207593
  O     -1.337637   -3.130030    0.000835
  C     -1.406130   -4.554318   -0.004196
  C     -1.443352   -5.133900    1.419428
  C     -2.596659   -4.940935   -0.761287
  C     -3.574664   -5.292317   -1.363295
  H      0.592578    1.820359   -0.916729
  H     -1.032610    1.862629   -0.221795
  H      0.381517    1.940306    0.836653
  H      0.663578   -3.051061   -0.541622
  H      0.361665   -2.919147    1.196258
  H     -0.521118   -4.954657   -0.528038
  H     -0.533773   -4.875481    1.968690
  H     -2.307049   -4.735976    1.957260
  H     -1.522561   -6.223799    1.382266
  H     -4.437583   -5.591179   -1.905372

 Total Charge           Charge          ....    0
 Multiplicity           Mult            ....    1
 Number of Electrons    NEL             ....   66
 Basis Dimension        Dim             ....  339

ORBITAL ENERGIES
----------------

  NO   OCC          E(Eh)            E(eV)
   0   2.0000     -20.567065      -559.6583
   1   2.0000     -11.315184      -307.9018
   2   2.0000     -11.306460      -307.6644
   3   2.0000     -11.246433      -306.0310
   4   2.0000     -11.232307      -305.6466
   5   2.0000     -11.228248      -305.5362
   6   2.0000     -11.227237      -305.5087
   7   2.0000     -11.224970      -305.4470
   8   2.0000     -11.217377      -305.2403
   9   2.0000      -1.387917       -37.7672
  10   2.0000      -1.085786       -29.5457
  11   2.0000      -1.055800       -28.7298
  12   2.0000      -1.002536       -27.2804
  13   2.0000      -0.985599       -26.8195
  14   2.0000      -0.918492       -24.9934
  15   2.0000      -0.862903       -23.4808
  16   2.0000      -0.736636       -20.0449
  17   2.0000      -0.697113       -18.9694
  18   2.0000      -0.686271       -18.6744
  19   2.0000      -0.655637       -17.8408
  20   2.0000      -0.642325       -17.4786
  21   2.0000      -0.603882       -16.4325
  22   2.0000      -0.590147       -16.0587
  23   2.0000      -0.585578       -15.9344
  24   2.0000      -0.580486       -15.7958
  25   2.0000      -0.553336       -15.0570
  26   2.0000      -0.535495       -14.5716
  27   2.0000      -0.497587       -13.5400
  28   2.0000      -0.447647       -12.1811
  29   2.0000      -0.398603       -10.8466
  30   2.0000      -0.387217       -10.5367
  31   2.0000      -0.376315       -10.2400
  32   2.0000      -0.367969       -10.0129
  33   0.0000       0.133466         3.6318
  34   0.0000       0.142609         3.8806
  35   0.0000       0.157430         4.2839
  36   0.0000       0.166244         4.5237
  37   0.0000       0.171918         4.6781

MULLIKEN ATOMIC CHARGES
-----------------------
   0 C :   -0.472878
   1 C :    0.110178
   2 C :   -0.026335
   3 C :   -0.219757
   4 O :   -0.262289
   5 C :   -0.075466
   6 C :   -0.378894
   7 C :   -0.002634
   8 C :   -0.096931
   9 H :    0.161251
  10 H :    0.166372
  11 H :    0.160571
  12 H :    0.122763
  13 H :    0.118839
  14 H :    0.096407
  15 H :    0.128016
  16 H :    0.140215
  17 H :    0.137588
  18 H :    0.192982
Sum of atomic charges:   -0.0000000

LOEWDIN ATOMIC CHARGES
----------------------
   0 C :   -0.292462
   1 C :   -0.093248
   2 C :   -0.082136
   3 C :   -0.309702
   4 O :    0.193628
   5 C :   -0.336038
   6 C :   -0.276607
   7 C :   -0.079505
   8 C :   -0.084949
   9 H :    0.140913
  10 H :    0.143828
  11 H :    0.140734
  12 H :    0.136707
  13 H :    0.135502
  14 H :    0.151653
  15 H :    0.120893
  16 H :    0.131943
  17 H :    0.131182
  18 H :    0.127665

  Mayer bond orders larger than 0.1
B(  0-C ,  1-C ) :   0.8655 B(  0-C ,  9-H ) :   0.9464 B(  0-C , 10-H ) :   0.9413
B(  0-C , 11-H ) :   0.9457 B(  1-C ,  2-C ) :   2.7162 B(  1-C ,  3-C ) :  -0.1008
B(  2-C ,  3-C ) :   1.0855 B(  3-C ,  4-O ) :   1.0133 B(  3-C , 12-H ) :   0.9203
B(  3-C , 13-H ) :   0.9299 B(  4-O ,  5-C ) :   0.9729 B(  5-C ,  6-C ) :   0.9114
B(  5-C ,  7-C ) :   1.1268 B(  5-C ,  8-C ) :  -0.1105 B(  5-C , 14-H ) :   0.9562
B(  6-C , 15-H ) :   0.9330 B(  6-C , 16-H ) :   0.9313 B(  6-C , 17-H ) :   0.9263
B(  7-C ,  8-C ) :   2.6032 B(  8-C , 18-H ) :   0.8933

MP2 TOTAL ENERGY:     -385.117087124 Eh
FINAL SINGLE POINT ENERGY      -385.117087124021

DIPOLE MOMENT
-------------
                                X             Y             Z
Electronic contribution:     -2.38797      -1.38470      -3.02470
Nuclear contribution   :      2.86449       1.32390       3.18863
                        -----------------------------------------
Total Dipole Moment    :      0.47652      -0.06080       0.16393
                        -----------------------------------------
Magnitude (a.u.)       :      0.50758
Magnitude (Debye)      :      1.29018

                             ****ORCA TERMINATED NORMALLY****
TOTAL RUN TIME: 0 days 0 hours 15 minutes 35 seconds 730 msec
