                         Program Version 3.0.3 - RELEASE   -
|  1> ! RI-MP2 RIJK def2-TZVP def2-TZVP/C def2-TZVP/JK TIGHTSCF
|  2> % maxcore 2000
|  3> % mp2 density relaxed end
|  4> *xyz 0 1
|  5>  C       -0.0708382516     1.5020881704    -0.0023317144
|  6>  C        0.0232681870    -0.0195064816     0.0002739666
|  7>  C        0.8549451171    -0.5997457955    -1.1668761012
|  8>  O        1.4133035098    -1.8339549339    -0.6973905102
|  9>  C        0.9488320050    -2.0477832005     0.6363809922
| 10>  C        0.7821044772    -0.6328656774     1.1947669008
| 11>  C       -0.4149886449    -2.7541262700     0.6057099889
| 12>  O       -1.3336312057    -2.0633079260    -0.2261101493
| 13>  C       -1.3809818374    -0.6630517194    -0.0099452307
| 14>  H        0.9216950886     1.9551286060     0.0901012210
| 15>  H       -0.5246710038     1.8732719043    -0.9283136619
| 16>  H       -0.6818432535     1.8635123759     0.8320740862
| 17>  H        0.2423408112    -0.7885872634    -2.0561272140
| 18>  H        1.6741257966     0.0774356362    -1.4448428575
| 19>  H        1.6859886846    -2.6634321954     1.1605142529
| 20>  H        1.7543723052    -0.1528543486     1.3464010084
| 21>  H        0.2177380229    -0.5912580696     2.1309185311
| 22>  H       -0.3190120588    -3.7542080474     0.1742333386
| 23>  H       -0.8021923534    -2.8537709501     1.6349078323
| 24>  H       -1.8948367417    -0.4274436697     0.9384375086
| 25>  H       -1.9873427544    -0.2609334543    -0.8287322386
| 26> *
| 27>
| 28>                          ****END OF INPUT****

CARTESIAN COORDINATES (ANGSTROEM)
---------------------------------
  C     -0.070838    1.502088   -0.002332
  C      0.023268   -0.019506    0.000274
  C      0.854945   -0.599746   -1.166876
  O      1.413304   -1.833955   -0.697391
  C      0.948832   -2.047783    0.636381
  C      0.782104   -0.632866    1.194767
  C     -0.414989   -2.754126    0.605710
  O     -1.333631   -2.063308   -0.226110
  C     -1.380982   -0.663052   -0.009945
  H      0.921695    1.955129    0.090101
  H     -0.524671    1.873272   -0.928314
  H     -0.681843    1.863512    0.832074
  H      0.242341   -0.788587   -2.056127
  H      1.674126    0.077436   -1.444843
  H      1.685989   -2.663432    1.160514
  H      1.754372   -0.152854    1.346401
  H      0.217738   -0.591258    2.130919
  H     -0.319012   -3.754208    0.174233
  H     -0.802192   -2.853771    1.634908
  H     -1.894837   -0.427444    0.938438
  H     -1.987343   -0.260933   -0.828732

 Total Charge           Charge          ....    0
 Multiplicity           Mult            ....    1
 Number of Electrons    NEL             ....   70
 Basis Dimension        Dim             ....  351

ORBITAL ENERGIES
----------------

  NO   OCC          E(Eh)            E(eV)
   0   2.0000     -20.553093      -559.2781
   1   2.0000     -20.545836      -559.0806
   2   2.0000     -11.278156      -306.8942
   3   2.0000     -11.275368      -306.8184
   4   2.0000     -11.271261      -306.7066
   5   2.0000     -11.268448      -306.6301
   6   2.0000     -11.241150      -305.8872
   7   2.0000     -11.226408      -305.4861
   8   2.0000     -11.226123      -305.4783
   9   2.0000      -1.389243       -37.8032
  10   2.0000      -1.355583       -36.8873
  11   2.0000      -1.103273       -30.0216
  12   2.0000      -1.038833       -28.2681
  13   2.0000      -0.950613       -25.8675
  14   2.0000      -0.924697       -25.1623
  15   2.0000      -0.882012       -24.0008
  16   2.0000      -0.789276       -21.4773
  17   2.0000      -0.763172       -20.7670
  18   2.0000      -0.692258       -18.8373
  19   2.0000      -0.671386       -18.2693
  20   2.0000      -0.642206       -17.4753
  21   2.0000      -0.626058       -17.0359
  22   2.0000      -0.603334       -16.4176
  23   2.0000      -0.591005       -16.0821
  24   2.0000      -0.578120       -15.7314
  25   2.0000      -0.560930       -15.2637
  26   2.0000      -0.548911       -14.9366
  27   2.0000      -0.541907       -14.7460
  28   2.0000      -0.534071       -14.5328
  29   2.0000      -0.499647       -13.5961
  30   2.0000      -0.471597       -12.8328
  31   2.0000      -0.448922       -12.2158
  32   2.0000      -0.435431       -11.8487
  33   2.0000      -0.422267       -11.4905
  34   2.0000      -0.399913       -10.8822
  35   0.0000       0.128400         3.4940
  36   0.0000       0.152761         4.1568
  37   0.0000       0.170496         4.6394
  38   0.0000       0.182274         4.9599
  39   0.0000       0.186887         5.0855

MULLIKEN ATOMIC CHARGES
-----------------------
   0 C :   -0.411528
   1 C :    0.087831
   2 C :   -0.060927
   3 O :   -0.330076
   4 C :    0.090763
   5 C :   -0.305527
   6 C :   -0.066269
   7 O :   -0.315783
   8 C :   -0.087239
   9 H :    0.136814
  10 H :    0.139895
  11 H :    0.136177
  12 H :    0.102802
  13 H :    0.094714
  14 H :    0.113397
  15 H :    0.117759
  16 H :    0.127321
  17 H :    0.125953
  18 H :    0.086395
  19 H :    0.095858
  20 H :    0.121671
Sum of atomic charges:   -0.0000000

LOEWDIN ATOMIC CHARGES
----------------------
   0 C :   -0.268217
   1 C :   -0.310597
   2 C :   -0.247122
   3 O :    0.165951
   4 C :   -0.314089
   5 C :   -0.200322
   6 C :   -0.295432
   7 O :    0.161829
   8 C :   -0.275417
   9 H :    0.129012
  10 H :    0.129127
  11 H :    0.129032
  12 H :    0.130019
  13 H :    0.124049
  14 H :    0.143381
  15 H :    0.143210
  16 H :    0.141290
  17 H :    0.133189
  18 H :    0.122561
  19 H :    0.124687
  20 H :    0.133859

  Mayer bond orders larger than 0.1
B(  0-C ,  1-C ) :   0.8877 B(  0-C ,  9-H ) :   0.9361 B(  0-C , 10-H ) :   0.9411
B(  0-C , 11-H ) :   0.9340 B(  1-C ,  2-C ) :   0.9315 B(  1-C ,  5-C ) :   0.8954
B(  1-C ,  8-C ) :   0.9166 B(  2-C ,  3-O ) :   0.9505 B(  2-C , 12-H ) :   0.9102
B(  2-C , 13-H ) :   0.9182 B(  3-O ,  4-C ) :   0.9313 B(  4-C ,  5-C ) :   0.9523
B(  4-C ,  6-C ) :   0.9271 B(  4-C , 14-H ) :   0.9146 B(  5-C , 15-H ) :   0.9087
B(  5-C , 16-H ) :   0.9236 B(  6-C ,  7-O ) :   0.9333 B(  6-C , 17-H ) :   0.9253
B(  6-C , 18-H ) :   0.9201 B(  7-O ,  8-C ) :   0.9444 B(  8-C , 19-H ) :   0.9308
B(  8-C , 20-H ) :   0.9219

MP2 TOTAL ENERGY:     -423.540730046 Eh
FINAL SINGLE POINT ENERGY      -423.540730046345

DIPOLE MOMENT
-------------
                                X             Y             Z
Electronic contribution:      0.61960      -5.41392      -1.89306
Nuclear contribution   :     -0.65307       6.08862       2.54720
                        -----------------------------------------
Total Dipole Moment    :     -0.03347       0.67469       0.65414
                        -----------------------------------------
Magnitude (a.u.)       :      0.94034
Magnitude (Debye)      :      2.39015

                             ****ORCA TERMINATED NORMALLY****
TOTAL RUN TIME: 0 days 0 hours 19 minutes 38 seconds 329 msec
