                         Program Version 3.0.3 - RELEASE   -
|  1> ! RI-MP2 RIJK def2-TZVP def2-TZVP/C def2-TZVP/JK TIGHTSCF
|  2> % maxcore 2000
|  3> % mp2 density relaxed end
|  4> *xyz 0 1
|  5>  C        0.0467583884     1.5601360185    -0.0125017132
|  6>  C        0.0603050927     0.0335721648     0.0135895075
|  7>  O        0.8183281749    -0.3633354029     1.1426530525
|  8>  C       -1.3646759700    -0.5328738241     0.0526284636
|  9>  C       -1.5904166731    -2.0595714821     0.0378857267
| 10>  N       -0.9080648831    -2.5903562284     1.2273928630
| 11>  C       -2.3028085706    -2.0427262776     1.3620884632
| 12>  C       -2.1493247762    -0.5317082962     1.4068885388
| 13>  O       -2.6114470443     0.3283326543     2.0939592240
| 14>  H        1.0724003260     1.9337139903     0.0449757553
| 15>  H       -0.4108427958     1.9355743809    -0.9333730848
| 16>  H       -0.5120759763     1.9488469648     0.8435036083
| 17>  H        0.5372306718    -0.3341156731    -0.9138626927
| 18>  H        0.5671916562    -1.2754162104     1.3563724923
| 19>  H       -1.9923521775    -0.0425884459    -0.7008381315
| 20>  H       -1.8039959539    -2.6848486857    -0.8188619220
| 21>  H       -0.9936021032    -3.6057074035     1.2312872549
| 22>  H       -3.0939649159    -2.6695466537     1.7527863141
| 23> *
| 24>
| 25>                          ****END OF INPUT****

CARTESIAN COORDINATES (ANGSTROEM)
---------------------------------
  C      0.046758    1.560136   -0.012502
  C      0.060305    0.033572    0.013590
  O      0.818328   -0.363335    1.142653
  C     -1.364676   -0.532874    0.052628
  C     -1.590417   -2.059571    0.037886
  N     -0.908065   -2.590356    1.227393
  C     -2.302809   -2.042726    1.362088
  C     -2.149325   -0.531708    1.406889
  O     -2.611447    0.328333    2.093959
  H      1.072400    1.933714    0.044976
  H     -0.410843    1.935574   -0.933373
  H     -0.512076    1.948847    0.843504
  H      0.537231   -0.334116   -0.913863
  H      0.567192   -1.275416    1.356372
  H     -1.992352   -0.042588   -0.700838
  H     -1.803996   -2.684849   -0.818862
  H     -0.993602   -3.605707    1.231287
  H     -3.093965   -2.669547    1.752786

 Total Charge           Charge          ....    0
 Multiplicity           Mult            ....    1
 Number of Electrons    NEL             ....   68
 Basis Dimension        Dim             ....  333

ORBITAL ENERGIES
----------------

  NO   OCC          E(Eh)            E(eV)
   0   2.0000     -20.561333      -559.5023
   1   2.0000     -20.535356      -558.7955
   2   2.0000     -15.605473      -424.6465
   3   2.0000     -11.346770      -308.7613
   4   2.0000     -11.300553      -307.5037
   5   2.0000     -11.294669      -307.3436
   6   2.0000     -11.285470      -307.0933
   7   2.0000     -11.259621      -306.3899
   8   2.0000     -11.208630      -305.0023
   9   2.0000      -1.407053       -38.2879
  10   2.0000      -1.351141       -36.7664
  11   2.0000      -1.312078       -35.7035
  12   2.0000      -1.081969       -29.4419
  13   2.0000      -1.005394       -27.3581
  14   2.0000      -0.921268       -25.0690
  15   2.0000      -0.855939       -23.2913
  16   2.0000      -0.817105       -22.2346
  17   2.0000      -0.754756       -20.5379
  18   2.0000      -0.720546       -19.6071
  19   2.0000      -0.691670       -18.8213
  20   2.0000      -0.662346       -18.0234
  21   2.0000      -0.639293       -17.3961
  22   2.0000      -0.608526       -16.5588
  23   2.0000      -0.590709       -16.0740
  24   2.0000      -0.561824       -15.2880
  25   2.0000      -0.541584       -14.7373
  26   2.0000      -0.534069       -14.5328
  27   2.0000      -0.528104       -14.3704
  28   2.0000      -0.521218       -14.1831
  29   2.0000      -0.501799       -13.6547
  30   2.0000      -0.482022       -13.1165
  31   2.0000      -0.441393       -12.0109
  32   2.0000      -0.405640       -11.0380
  33   2.0000      -0.392303       -10.6751
  34   0.0000       0.109477         2.9790
  35   0.0000       0.143334         3.9003
  36   0.0000       0.144980         3.9451
  37   0.0000       0.161493         4.3945
  38   0.0000       0.170127         4.6294

MULLIKEN ATOMIC CHARGES
-----------------------
   0 C :   -0.403951
   1 C :    0.138286
   2 O :   -0.487349
   3 C :   -0.085656
   4 C :   -0.049268
   5 N :   -0.426597
   6 C :   -0.050406
   7 C :    0.100581
   8 O :   -0.240276
   9 H :    0.140914
  10 H :    0.113466
  11 H :    0.152156
  12 H :    0.078073
  13 H :    0.341483
  14 H :    0.127600
  15 H :    0.159860
  16 H :    0.228552
  17 H :    0.162530
Sum of atomic charges:    0.0000000

LOEWDIN ATOMIC CHARGES
----------------------
   0 C :   -0.288899
   1 C :   -0.360320
   2 O :   -0.017512
   3 C :   -0.171060
   4 C :   -0.203535
   5 N :    0.010124
   6 C :   -0.176236
   7 C :   -0.275479
   8 O :    0.180602
   9 H :    0.128518
  10 H :    0.121693
  11 H :    0.131432
  12 H :    0.135176
  13 H :    0.163523
  14 H :    0.171067
  15 H :    0.135416
  16 H :    0.178118
  17 H :    0.137373

  Mayer bond orders larger than 0.1
B(  0-C ,  1-C ) :   0.9098 B(  0-C ,  9-H ) :   0.9355 B(  0-C , 10-H ) :   0.9315
B(  0-C , 11-H ) :   0.9366 B(  1-C ,  2-O ) :   0.9568 B(  1-C ,  3-C ) :   0.8880
B(  1-C , 12-H ) :   0.9369 B(  2-O , 13-H ) :   0.7998 B(  3-C ,  4-C ) :   0.9281
B(  3-C ,  7-C ) :   0.8950 B(  3-C , 14-H ) :   0.8873 B(  4-C ,  5-N ) :   0.9264
B(  4-C ,  6-C ) :   0.8824 B(  4-C , 15-H ) :   0.9115 B(  5-N ,  6-C ) :   0.8200
B(  5-N , 16-H ) :   0.8672 B(  6-C ,  7-C ) :   0.9020 B(  6-C , 17-H ) :   0.9077
B(  7-C ,  8-O ) :   2.0215

MP2 TOTAL ENERGY:     -438.333287723 Eh
FINAL SINGLE POINT ENERGY      -438.333287722924

DIPOLE MOMENT
-------------
                                X             Y             Z
Electronic contribution:     -3.47095      -2.63536       4.05474
Nuclear contribution   :      2.80251       1.12869      -5.21454
                        -----------------------------------------
Total Dipole Moment    :     -0.66843      -1.50666      -1.15980
                        -----------------------------------------
Magnitude (a.u.)       :      2.01543
Magnitude (Debye)      :      5.12283

                             ****ORCA TERMINATED NORMALLY****
TOTAL RUN TIME: 0 days 0 hours 18 minutes 30 seconds 581 msec
