                         Program Version 3.0.3 - RELEASE   -
|  1> ! RI-MP2 RIJK def2-TZVP def2-TZVP/C def2-TZVP/JK TIGHTSCF
|  2> % maxcore 2000
|  3> % mp2 density relaxed end
|  4> *xyz 0 1
|  5>  C        0.1121063121     1.5504184893     0.0592756505
|  6>  C       -0.0013852994     0.0232620645     0.0057457146
|  7>  C       -1.4410251563    -0.5177037517    -0.0218097233
|  8>  C       -2.2086637881    -0.1172274166    -1.2946670373
|  9>  C       -3.6286794828    -0.7016379649    -1.3202319294
| 10>  C       -3.6101243394    -2.2266398245    -1.1480422780
| 11>  C       -2.8632953685    -2.6291039785     0.1275026974
| 12>  O       -2.7342654663    -4.0412349021     0.2527549327
| 13>  C       -1.4508388815    -2.0481054666     0.1385396126
| 14>  H        1.1581289409     1.8615408939     0.1438065000
| 15>  H       -0.2975713352     2.0253774703    -0.8374509318
| 16>  H       -0.4249522235     1.9564834658     0.9241512329
| 17>  H        0.5382545988    -0.3550745247    -0.8735583991
| 18>  H        0.5112725915    -0.4014903001     0.8784255579
| 19>  H       -1.9754941673    -0.0854100564     0.8394238922
| 20>  H       -2.2592876156     0.9729438033    -1.3851284994
| 21>  H       -1.6517327285    -0.4779622593    -2.1719012977
| 22>  H       -4.2196189986    -0.2510938494    -0.5107253035
| 23>  H       -4.1332238080    -0.4335373296    -2.2550463779
| 24>  H       -4.6343607568    -2.6224007265    -1.1229141960
| 25>  H       -3.1067773082    -2.6982979826    -2.0022631383
| 26>  H       -3.4133860292    -2.2243620857     0.9961044009
| 27>  H       -3.6168641755    -4.4234211313     0.2125442384
| 28>  H       -0.8856493569    -2.5110113022    -0.6823177882
| 29>  H       -0.9503476475    -2.3409488545     1.0682703994
| 30> *
| 31>
| 32>                          ****END OF INPUT****

CARTESIAN COORDINATES (ANGSTROEM)
---------------------------------
  C      0.112106    1.550418    0.059276
  C     -0.001385    0.023262    0.005746
  C     -1.441025   -0.517704   -0.021810
  C     -2.208664   -0.117227   -1.294667
  C     -3.628679   -0.701638   -1.320232
  C     -3.610124   -2.226640   -1.148042
  C     -2.863295   -2.629104    0.127503
  O     -2.734265   -4.041235    0.252755
  C     -1.450839   -2.048105    0.138540
  H      1.158129    1.861541    0.143807
  H     -0.297571    2.025377   -0.837451
  H     -0.424952    1.956483    0.924151
  H      0.538255   -0.355075   -0.873558
  H      0.511273   -0.401490    0.878426
  H     -1.975494   -0.085410    0.839424
  H     -2.259288    0.972944   -1.385128
  H     -1.651733   -0.477962   -2.171901
  H     -4.219619   -0.251094   -0.510725
  H     -4.133224   -0.433537   -2.255046
  H     -4.634361   -2.622401   -1.122914
  H     -3.106777   -2.698298   -2.002263
  H     -3.413386   -2.224362    0.996104
  H     -3.616864   -4.423421    0.212544
  H     -0.885649   -2.511011   -0.682318
  H     -0.950348   -2.340949    1.068270

 Total Charge           Charge          ....    0
 Multiplicity           Mult            ....    1
 Number of Electrons    NEL             ....   72
 Basis Dimension        Dim             ....  375

ORBITAL ENERGIES
----------------

  NO   OCC          E(Eh)            E(eV)
   0   2.0000     -20.548296      -559.1476
   1   2.0000     -11.271658      -306.7174
   2   2.0000     -11.221850      -305.3621
   3   2.0000     -11.220673      -305.3300
   4   2.0000     -11.217535      -305.2447
   5   2.0000     -11.215815      -305.1978
   6   2.0000     -11.215386      -305.1862
   7   2.0000     -11.210530      -305.0540
   8   2.0000     -11.209474      -305.0253
   9   2.0000      -1.354286       -36.8520
  10   2.0000      -1.117568       -30.4106
  11   2.0000      -1.045595       -28.4521
  12   2.0000      -0.994061       -27.0498
  13   2.0000      -0.970233       -26.4014
  14   2.0000      -0.862884       -23.4803
  15   2.0000      -0.826911       -22.5014
  16   2.0000      -0.788575       -21.4582
  17   2.0000      -0.756268       -20.5791
  18   2.0000      -0.682278       -18.5657
  19   2.0000      -0.644768       -17.5450
  20   2.0000      -0.620126       -16.8745
  21   2.0000      -0.610598       -16.6152
  22   2.0000      -0.593145       -16.1403
  23   2.0000      -0.579661       -15.7734
  24   2.0000      -0.570049       -15.5118
  25   2.0000      -0.535360       -14.5679
  26   2.0000      -0.531422       -14.4607
  27   2.0000      -0.514674       -14.0050
  28   2.0000      -0.494536       -13.4570
  29   2.0000      -0.490374       -13.3438
  30   2.0000      -0.474643       -12.9157
  31   2.0000      -0.472346       -12.8532
  32   2.0000      -0.453129       -12.3303
  33   2.0000      -0.446232       -12.1426
  34   2.0000      -0.428400       -11.6574
  35   2.0000      -0.416991       -11.3469
  36   0.0000       0.132541         3.6066
  37   0.0000       0.145934         3.9711
  38   0.0000       0.150998         4.1089
  39   0.0000       0.157924         4.2973
  40   0.0000       0.173308         4.7159

MULLIKEN ATOMIC CHARGES
-----------------------
   0 C :   -0.404774
   1 C :   -0.180296
   2 C :   -0.098429
   3 C :   -0.257056
   4 C :   -0.213574
   5 C :   -0.260315
   6 C :    0.089432
   7 O :   -0.458038
   8 C :   -0.193374
   9 H :    0.135692
  10 H :    0.127973
  11 H :    0.122135
  12 H :    0.105879
  13 H :    0.112893
  14 H :    0.078410
  15 H :    0.124429
  16 H :    0.103743
  17 H :    0.106065
  18 H :    0.123893
  19 H :    0.110710
  20 H :    0.113498
  21 H :    0.070288
  22 H :    0.309622
  23 H :    0.107457
  24 H :    0.123736
Sum of atomic charges:   -0.0000000

LOEWDIN ATOMIC CHARGES
----------------------
   0 C :   -0.320512
   1 C :   -0.272352
   2 C :   -0.257174
   3 C :   -0.241661
   4 C :   -0.262416
   5 C :   -0.257954
   6 C :   -0.351942
   7 O :   -0.023152
   8 C :   -0.219047
   9 H :    0.121208
  10 H :    0.118237
  11 H :    0.120549
  12 H :    0.137235
  13 H :    0.138308
  14 H :    0.152554
  15 H :    0.137446
  16 H :    0.140565
  17 H :    0.137760
  18 H :    0.136398
  19 H :    0.132501
  20 H :    0.141431
  21 H :    0.133102
  22 H :    0.170900
  23 H :    0.145422
  24 H :    0.142591

  Mayer bond orders larger than 0.1
B(  0-C ,  1-C ) :   0.9131 B(  0-C ,  9-H ) :   0.9423 B(  0-C , 10-H ) :   0.9423
B(  0-C , 11-H ) :   0.9380 B(  1-C ,  2-C ) :   0.9173 B(  1-C , 12-H ) :   0.9275
B(  1-C , 13-H ) :   0.9376 B(  2-C ,  3-C ) :   0.9169 B(  2-C ,  8-C ) :   0.9181
B(  2-C , 14-H ) :   0.9225 B(  3-C ,  4-C ) :   0.9377 B(  3-C , 15-H ) :   0.9315
B(  3-C , 16-H ) :   0.9208 B(  4-C ,  5-C ) :   0.9221 B(  4-C , 17-H ) :   0.9313
B(  4-C , 18-H ) :   0.9292 B(  5-C ,  6-C ) :   0.9216 B(  5-C , 19-H ) :   0.9257
B(  5-C , 20-H ) :   0.9268 B(  6-C ,  7-O ) :   1.0145 B(  6-C ,  8-C ) :   0.9235
B(  6-C , 21-H ) :   0.9467 B(  7-O , 22-H ) :   0.8478 B(  8-C , 23-H ) :   0.9159
B(  8-C , 24-H ) :   0.9250

MP2 TOTAL ENERGY:     -388.853466199 Eh
FINAL SINGLE POINT ENERGY      -388.853466199064

DIPOLE MOMENT
-------------
                                X             Y             Z
Electronic contribution:     -2.75929      -6.68453       1.06735
Nuclear contribution   :      2.25123       7.05356      -1.16759
                        -----------------------------------------
Total Dipole Moment    :     -0.50805       0.36903      -0.10024
                        -----------------------------------------
Magnitude (a.u.)       :      0.63588
Magnitude (Debye)      :      1.61628

                             ****ORCA TERMINATED NORMALLY****
TOTAL RUN TIME: 0 days 0 hours 21 minutes 15 seconds 657 msec
