                         Program Version 3.0.3 - RELEASE   -
|  1> ! RI-MP2 RIJK def2-TZVP def2-TZVP/C def2-TZVP/JK TIGHTSCF
|  2> % maxcore 2000
|  3> % mp2 density relaxed end
|  4> *xyz 0 1
|  5>  C       -0.1053481777    -1.2319561166    -0.1587416319
|  6>  C       -0.0625178480    -0.0341123806    -0.0561840551
|  7>  C        0.0224579330     1.4087900906     0.0568567525
|  8>  N       -0.2866293952     2.0093220626     1.4239915297
|  9>  C        0.7562421749     1.5174236027     2.3466255362
| 10>  C        1.1108125005     2.6153986822     1.4254305215
| 11>  C        1.4176092831     2.0759684678     0.0525621004
| 12>  C        2.7131591808     1.5691766889    -0.5011301556
| 13>  C        2.0485913000     2.7901218356    -1.1000687466
| 14>  H       -0.1613274709    -2.2887774508    -0.2485581142
| 15>  H       -0.6506013933     1.8824923364    -0.6642746585
| 16>  H        0.5401953907     1.7723464144     3.3796010880
| 17>  H        1.1706202159     0.5243518545     2.1940840094
| 18>  H        1.2816444021     3.6362285802     1.7529986481
| 19>  H        3.6119667742     1.7101941229     0.0903866376
| 20>  H        2.6844714134     0.6423401771    -1.0647955986
| 21>  H        1.5832658054     2.6954589973    -2.0763670886
| 22>  H        2.4970246611     3.7609828450    -0.9133457341
| 23> *
| 24>
| 25>                          ****END OF INPUT****

CARTESIAN COORDINATES (ANGSTROEM)
---------------------------------
  C     -0.105348   -1.231956   -0.158742
  C     -0.062518   -0.034112   -0.056184
  C      0.022458    1.408790    0.056857
  N     -0.286629    2.009322    1.423992
  C      0.756242    1.517424    2.346626
  C      1.110813    2.615399    1.425431
  C      1.417609    2.075968    0.052562
  C      2.713159    1.569177   -0.501130
  C      2.048591    2.790122   -1.100069
  H     -0.161327   -2.288777   -0.248558
  H     -0.650601    1.882492   -0.664275
  H      0.540195    1.772346    3.379601
  H      1.170620    0.524352    2.194084
  H      1.281644    3.636229    1.752999
  H      3.611967    1.710194    0.090387
  H      2.684471    0.642340   -1.064796
  H      1.583266    2.695459   -2.076367
  H      2.497025    3.760983   -0.913346

 Total Charge           Charge          ....    0
 Multiplicity           Mult            ....    1
 Number of Electrons    NEL             ....   64
 Basis Dimension        Dim             ....  333

ORBITAL ENERGIES
----------------

  NO   OCC          E(Eh)            E(eV)
   0   2.0000     -15.568719      -423.6464
   1   2.0000     -11.287996      -307.1620
   2   2.0000     -11.267021      -306.5912
   3   2.0000     -11.256765      -306.3121
   4   2.0000     -11.253004      -306.2098
   5   2.0000     -11.236466      -305.7598
   6   2.0000     -11.235250      -305.7267
   7   2.0000     -11.231513      -305.6250
   8   2.0000     -11.228787      -305.5508
   9   2.0000      -1.297323       -35.3020
  10   2.0000      -1.144414       -31.1411
  11   2.0000      -1.055048       -28.7093
  12   2.0000      -0.974801       -26.5257
  13   2.0000      -0.894878       -24.3509
  14   2.0000      -0.849848       -23.1255
  15   2.0000      -0.830171       -22.5901
  16   2.0000      -0.756839       -20.5946
  17   2.0000      -0.714951       -19.4548
  18   2.0000      -0.687266       -18.7015
  19   2.0000      -0.668835       -18.1999
  20   2.0000      -0.656151       -17.8548
  21   2.0000      -0.605824       -16.4853
  22   2.0000      -0.581611       -15.8264
  23   2.0000      -0.523491       -14.2449
  24   2.0000      -0.506361       -13.7788
  25   2.0000      -0.497744       -13.5443
  26   2.0000      -0.465852       -12.6765
  27   2.0000      -0.446801       -12.1581
  28   2.0000      -0.421395       -11.4667
  29   2.0000      -0.390989       -10.6394
  30   2.0000      -0.388113       -10.5611
  31   2.0000      -0.359909        -9.7936
  32   0.0000       0.143556         3.9064
  33   0.0000       0.152400         4.1470
  34   0.0000       0.156070         4.2469
  35   0.0000       0.165836         4.5126
  36   0.0000       0.173846         4.7306

MULLIKEN ATOMIC CHARGES
-----------------------
   0 C :   -0.160690
   1 C :   -0.087894
   2 C :    0.005930
   3 N :   -0.234003
   4 C :   -0.158718
   5 C :   -0.097969
   6 C :    0.006963
   7 C :   -0.241151
   8 C :   -0.291614
   9 H :    0.192315
  10 H :    0.127658
  11 H :    0.131454
  12 H :    0.139670
  13 H :    0.132729
  14 H :    0.130892
  15 H :    0.138750
  16 H :    0.133782
  17 H :    0.131897
Sum of atomic charges:    0.0000000

LOEWDIN ATOMIC CHARGES
----------------------
   0 C :   -0.086394
   1 C :   -0.086357
   2 C :   -0.192356
   3 N :    0.131893
   4 C :   -0.238358
   5 C :   -0.175858
   6 C :   -0.201418
   7 C :   -0.198453
   8 C :   -0.199031
   9 H :    0.128044
  10 H :    0.167086
  11 H :    0.133561
  12 H :    0.134191
  13 H :    0.135869
  14 H :    0.135621
  15 H :    0.139405
  16 H :    0.136312
  17 H :    0.136246

  Mayer bond orders larger than 0.1
B(  0-C ,  1-C ) :   2.5563 B(  0-C ,  9-H ) :   0.8965 B(  1-C ,  2-C ) :   1.1986
B(  2-C ,  3-N ) :   0.8860 B(  2-C ,  6-C ) :   0.9101 B(  2-C , 10-H ) :   0.9086
B(  3-N ,  4-C ) :   0.8863 B(  3-N ,  5-C ) :   0.9121 B(  4-C ,  5-C ) :   0.9544
B(  4-C , 11-H ) :   0.9298 B(  4-C , 12-H ) :   0.9015 B(  5-C ,  6-C ) :   0.9413
B(  5-C , 13-H ) :   0.8920 B(  6-C ,  7-C ) :   0.8549 B(  6-C ,  8-C ) :   0.8722
B(  7-C ,  8-C ) :   0.9361 B(  7-C , 14-H ) :   0.9212 B(  7-C , 15-H ) :   0.9138
B(  8-C , 16-H ) :   0.9229 B(  8-C , 17-H ) :   0.9210

MP2 TOTAL ENERGY:     -364.036661138 Eh
FINAL SINGLE POINT ENERGY      -364.036661137525

DIPOLE MOMENT
-------------
                                X             Y             Z
Electronic contribution:     -3.74550      -1.38903       0.86956
Nuclear contribution   :      4.43809       1.31909      -1.04199
                        -----------------------------------------
Total Dipole Moment    :      0.69260      -0.06993      -0.17243
                        -----------------------------------------
Magnitude (a.u.)       :      0.71716
Magnitude (Debye)      :      1.82287

                             ****ORCA TERMINATED NORMALLY****
TOTAL RUN TIME: 0 days 0 hours 19 minutes 5 seconds 228 msec
