                         Program Version 3.0.3 - RELEASE   -
|  1> ! RI-MP2 RIJK def2-TZVP def2-TZVP/C def2-TZVP/JK TIGHTSCF
|  2> % maxcore 2000
|  3> % mp2 density relaxed end
|  4> *xyz 0 1
|  5>  C       -0.0639340676    -1.2763560653    -0.0916209394
|  6>  C       -0.0361121347    -0.0748809337    -0.0395354264
|  7>  C       -0.0034886604     1.3695636992     0.0219961943
|  8>  C       -0.1309760800     2.0858108119     1.4263406202
|  9>  C        1.0226697054     1.4408837643     2.2255484345
| 10>  C        2.1564049567     1.4616990890     1.1355839878
| 11>  C        1.3908460415     2.1137653247    -0.0367182690
| 12>  C        0.6309876663     3.2219908947     0.7173468920
| 13>  O        0.5744467847     4.4134954672     0.6813022307
| 14>  H       -0.0945471893    -2.3366812992    -0.1436397727
| 15>  H       -0.7032459328     1.8035427663    -0.6975798835
| 16>  H       -1.0930910391     2.2303524339     1.9122707138
| 17>  H        1.2774517878     2.0245172927     3.1132408207
| 18>  H        0.7730858343     0.4252800748     2.5386943954
| 19>  H        3.0221426664     2.0565423760     1.4359158925
| 20>  H        2.4984009285     0.4569563759     0.8799778425
| 21>  H        1.9112467923     2.2855371577    -0.9760601936
| 22> *
| 23>
| 24>                          ****END OF INPUT****

CARTESIAN COORDINATES (ANGSTROEM)
---------------------------------
  C     -0.063934   -1.276356   -0.091621
  C     -0.036112   -0.074881   -0.039535
  C     -0.003489    1.369564    0.021996
  C     -0.130976    2.085811    1.426341
  C      1.022670    1.440884    2.225548
  C      2.156405    1.461699    1.135584
  C      1.390846    2.113765   -0.036718
  C      0.630988    3.221991    0.717347
  O      0.574447    4.413495    0.681302
  H     -0.094547   -2.336681   -0.143640
  H     -0.703246    1.803543   -0.697580
  H     -1.093091    2.230352    1.912271
  H      1.277452    2.024517    3.113241
  H      0.773086    0.425280    2.538694
  H      3.022143    2.056542    1.435916
  H      2.498401    0.456956    0.879978
  H      1.911247    2.285537   -0.976060

 Total Charge           Charge          ....    0
 Multiplicity           Mult            ....    1
 Number of Electrons    NEL             ....   64
 Basis Dimension        Dim             ....  327

ORBITAL ENERGIES
----------------

  NO   OCC          E(Eh)            E(eV)
   0   2.0000     -20.558227      -559.4178
   1   2.0000     -11.338880      -308.5466
   2   2.0000     -11.280221      -306.9504
   3   2.0000     -11.260598      -306.4164
   4   2.0000     -11.260568      -306.4156
   5   2.0000     -11.245560      -306.0072
   6   2.0000     -11.244638      -305.9822
   7   2.0000     -11.244124      -305.9682
   8   2.0000     -11.234757      -305.7133
   9   2.0000      -1.403036       -38.1785
  10   2.0000      -1.210715       -32.9452
  11   2.0000      -1.051000       -28.5992
  12   2.0000      -0.995758       -27.0959
  13   2.0000      -0.970941       -26.4206
  14   2.0000      -0.898528       -24.4502
  15   2.0000      -0.792288       -21.5592
  16   2.0000      -0.731574       -19.9072
  17   2.0000      -0.725289       -19.7361
  18   2.0000      -0.704209       -19.1625
  19   2.0000      -0.670464       -18.2442
  20   2.0000      -0.649235       -17.6666
  21   2.0000      -0.624981       -17.0066
  22   2.0000      -0.559214       -15.2170
  23   2.0000      -0.543911       -14.8006
  24   2.0000      -0.537971       -14.6389
  25   2.0000      -0.515422       -14.0253
  26   2.0000      -0.511518       -13.9191
  27   2.0000      -0.485008       -13.1977
  28   2.0000      -0.484445       -13.1824
  29   2.0000      -0.404182       -10.9984
  30   2.0000      -0.399510       -10.8712
  31   2.0000      -0.376195       -10.2368
  32   0.0000       0.130243         3.5441
  33   0.0000       0.142315         3.8726
  34   0.0000       0.154135         4.1942
  35   0.0000       0.155464         4.2304
  36   0.0000       0.168293         4.5795

MULLIKEN ATOMIC CHARGES
-----------------------
   0 C :   -0.120174
   1 C :   -0.007904
   2 C :   -0.340154
   3 C :    0.023262
   4 C :   -0.277230
   5 C :   -0.277233
   6 C :    0.023257
   7 C :    0.042286
   8 O :   -0.239035
   9 H :    0.193713
  10 H :    0.145028
  11 H :    0.145296
  12 H :    0.134435
  13 H :    0.137360
  14 H :    0.134435
  15 H :    0.137361
  16 H :    0.145297
Sum of atomic charges:   -0.0000000

LOEWDIN ATOMIC CHARGES
----------------------
   0 C :   -0.090235
   1 C :   -0.089130
   2 C :   -0.166386
   3 C :   -0.138836
   4 C :   -0.209766
   5 C :   -0.209765
   6 C :   -0.138833
   7 C :   -0.274417
   8 O :    0.171469
   9 H :    0.128229
  10 H :    0.175127
  11 H :    0.142593
  12 H :    0.138103
  13 H :    0.140576
  14 H :    0.138103
  15 H :    0.140577
  16 H :    0.142593

  Mayer bond orders larger than 0.1
B(  0-C ,  1-C ) :   2.6002 B(  0-C ,  2-C ) :  -0.1413 B(  0-C ,  9-H ) :   0.8821
B(  1-C ,  2-C ) :   1.1535 B(  2-C ,  3-C ) :   0.8555 B(  2-C ,  6-C ) :   0.8555
B(  2-C , 10-H ) :   0.9259 B(  3-C ,  4-C ) :   0.8934 B(  3-C ,  7-C ) :   0.8317
B(  3-C , 11-H ) :   0.8963 B(  4-C ,  5-C ) :   0.9517 B(  4-C , 12-H ) :   0.9288
B(  4-C , 13-H ) :   0.9155 B(  5-C ,  6-C ) :   0.8934 B(  5-C , 14-H ) :   0.9288
B(  5-C , 15-H ) :   0.9155 B(  6-C ,  7-C ) :   0.8317 B(  6-C , 16-H ) :   0.8963
B(  7-C ,  8-O ) :   2.0693

MP2 TOTAL ENERGY:     -383.977540099 Eh
FINAL SINGLE POINT ENERGY      -383.977540099053

DIPOLE MOMENT
-------------
                                X             Y             Z
Electronic contribution:     -2.19793       3.32425      -2.22271
Nuclear contribution   :      2.34287      -4.30081       2.35485
                        -----------------------------------------
Total Dipole Moment    :      0.14494      -0.97656       0.13213
                        -----------------------------------------
Magnitude (a.u.)       :      0.99606
Magnitude (Debye)      :      2.53178

                             ****ORCA TERMINATED NORMALLY****
TOTAL RUN TIME: 0 days 0 hours 18 minutes 26 seconds 536 msec
