                         Program Version 3.0.3 - RELEASE   -
|  1> ! RI-MP2 RIJK def2-TZVP def2-TZVP/C def2-TZVP/JK TIGHTSCF
|  2> % maxcore 2000
|  3> % mp2 density relaxed end
|  4> *xyz 0 1
|  5>  C       -0.0912998674     1.5361274947    -0.0017645187
|  6>  C       -0.0064529398     0.0218867371     0.0588945033
|  7>  C       -1.2085595985    -0.6754949473    -0.5536266079
|  8>  C        1.3615629356    -0.6529350860    -0.1900015060
|  9>  C        2.5366965233     0.1197850526    -0.4523568803
| 10>  N        3.4866521162     0.7540037828    -0.6461350658
| 11>  C        0.6974329332    -0.6480774289     1.2038872062
| 12>  C        1.3230681763     0.1154730938     2.3485922235
| 13>  O        0.1285194855    -1.8656057259     1.5930495756
| 14>  H        0.8267135282     2.0315773557     0.3179826302
| 15>  H       -0.2926223133     1.8565571581    -1.0293358512
| 16>  H       -0.9131426842     1.8966724810     0.6263175796
| 17>  H       -1.3088887719    -0.3988177298    -1.6083751031
| 18>  H       -1.1326863872    -1.7601448950    -0.4775995531
| 19>  H       -2.1256403396    -0.3684578922    -0.0388427725
| 20>  H        1.3226125533    -1.6070196357    -0.7052224739
| 21>  H        1.8207389093     1.0297639606     2.0241055873
| 22>  H        0.5601610456     0.3703234254     3.0904886169
| 23>  H        2.0806549654    -0.5063875329     2.8409595927
| 24>  H        0.8086929802    -2.3845313082     2.0372166371
| 25> *
| 26>
| 27>                          ****END OF INPUT****

CARTESIAN COORDINATES (ANGSTROEM)
---------------------------------
  C     -0.091300    1.536127   -0.001765
  C     -0.006453    0.021887    0.058895
  C     -1.208560   -0.675495   -0.553627
  C      1.361563   -0.652935   -0.190002
  C      2.536697    0.119785   -0.452357
  N      3.486652    0.754004   -0.646135
  C      0.697433   -0.648077    1.203887
  C      1.323068    0.115473    2.348592
  O      0.128519   -1.865606    1.593050
  H      0.826714    2.031577    0.317983
  H     -0.292622    1.856557   -1.029336
  H     -0.913143    1.896672    0.626318
  H     -1.308889   -0.398818   -1.608375
  H     -1.132686   -1.760145   -0.477600
  H     -2.125640   -0.368458   -0.038843
  H      1.322613   -1.607020   -0.705222
  H      1.820739    1.029764    2.024106
  H      0.560161    0.370323    3.090489
  H      2.080655   -0.506388    2.840960
  H      0.808693   -2.384531    2.037217

 Total Charge           Charge          ....    0
 Multiplicity           Mult            ....    1
 Number of Electrons    NEL             ....   68
 Basis Dimension        Dim             ....  345

ORBITAL ENERGIES
----------------

  NO   OCC          E(Eh)            E(eV)
   0   2.0000     -20.583309      -560.1003
   1   2.0000     -15.563496      -423.5043
   2   2.0000     -11.320338      -308.0421
   3   2.0000     -11.271969      -306.7259
   4   2.0000     -11.270986      -306.6991
   5   2.0000     -11.270085      -306.6746
   6   2.0000     -11.238364      -305.8114
   7   2.0000     -11.231882      -305.6350
   8   2.0000     -11.227866      -305.5258
   9   2.0000      -1.398868       -38.0651
  10   2.0000      -1.217831       -33.1389
  11   2.0000      -1.171207       -31.8702
  12   2.0000      -1.020282       -27.7633
  13   2.0000      -0.988228       -26.8910
  14   2.0000      -0.950538       -25.8655
  15   2.0000      -0.880410       -23.9572
  16   2.0000      -0.760699       -20.6997
  17   2.0000      -0.706257       -19.2182
  18   2.0000      -0.700111       -19.0510
  19   2.0000      -0.665507       -18.1094
  20   2.0000      -0.618178       -16.8215
  21   2.0000      -0.607391       -16.5279
  22   2.0000      -0.575805       -15.6684
  23   2.0000      -0.564197       -15.3526
  24   2.0000      -0.561856       -15.2889
  25   2.0000      -0.558626       -15.2010
  26   2.0000      -0.545736       -14.8502
  27   2.0000      -0.542066       -14.7504
  28   2.0000      -0.523700       -14.2506
  29   2.0000      -0.500601       -13.6221
  30   2.0000      -0.488085       -13.2815
  31   2.0000      -0.472297       -12.8519
  32   2.0000      -0.412924       -11.2362
  33   2.0000      -0.388910       -10.5828
  34   0.0000       0.115832         3.1520
  35   0.0000       0.143404         3.9022
  36   0.0000       0.162593         4.4244
  37   0.0000       0.171254         4.6601
  38   0.0000       0.173917         4.7325

MULLIKEN ATOMIC CHARGES
-----------------------
   0 C :   -0.390203
   1 C :    0.080727
   2 C :   -0.401016
   3 C :   -0.097628
   4 C :   -0.220780
   5 N :   -0.058142
   6 C :    0.180759
   7 C :   -0.408137
   8 O :   -0.453886
   9 H :    0.144992
  10 H :    0.142875
  11 H :    0.141500
  12 H :    0.138193
  13 H :    0.155203
  14 H :    0.135542
  15 H :    0.160341
  16 H :    0.146263
  17 H :    0.151649
  18 H :    0.128398
  19 H :    0.323349
Sum of atomic charges:   -0.0000000

LOEWDIN ATOMIC CHARGES
----------------------
   0 C :   -0.251096
   1 C :   -0.223232
   2 C :   -0.255634
   3 C :   -0.151926
   4 C :   -0.188129
   5 N :    0.053579
   6 C :   -0.318401
   7 C :   -0.261597
   8 O :    0.040162
   9 H :    0.132307
  10 H :    0.134790
  11 H :    0.132703
  12 H :    0.129845
  13 H :    0.133180
  14 H :    0.132381
  15 H :    0.174264
  16 H :    0.136706
  17 H :    0.134754
  18 H :    0.130843
  19 H :    0.184503

  Mayer bond orders larger than 0.1
B(  0-C ,  1-C ) :   0.9222 B(  0-C ,  9-H ) :   0.9279 B(  0-C , 10-H ) :   0.9333
B(  0-C , 11-H ) :   0.9367 B(  1-C ,  2-C ) :   0.9061 B(  1-C ,  3-C ) :   0.8055
B(  1-C ,  6-C ) :   0.8713 B(  2-C , 12-H ) :   0.9368 B(  2-C , 13-H ) :   0.9241
B(  2-C , 14-H ) :   0.9348 B(  3-C ,  4-C ) :   0.9422 B(  3-C ,  6-C ) :   0.8127
B(  3-C , 15-H ) :   0.9147 B(  4-C ,  5-N ) :   2.8464 B(  6-C ,  7-C ) :   0.9483
B(  6-C ,  8-O ) :   1.0017 B(  7-C , 16-H ) :   0.9311 B(  7-C , 17-H ) :   0.9398
B(  7-C , 18-H ) :   0.9152 B(  8-O , 19-H ) :   0.8359

MP2 TOTAL ENERGY:     -402.474567864 Eh
FINAL SINGLE POINT ENERGY      -402.474567864003

DIPOLE MOMENT
-------------
                                X             Y             Z
Electronic contribution:      6.38197      -2.45706      -1.68970
Nuclear contribution   :     -7.35203       1.88799       2.31811
                        -----------------------------------------
Total Dipole Moment    :     -0.97006      -0.56907       0.62842
                        -----------------------------------------
Magnitude (a.u.)       :      1.28832
Magnitude (Debye)      :      3.27465

                             ****ORCA TERMINATED NORMALLY****
TOTAL RUN TIME: 0 days 0 hours 22 minutes 35 seconds 414 msec
