                         Program Version 3.0.3 - RELEASE   -
|  1> ! RI-MP2 RIJK def2-TZVP def2-TZVP/C def2-TZVP/JK TIGHTSCF
|  2> % maxcore 2000
|  3> % mp2 density relaxed end
|  4> *xyz 0 1
|  5>  C        0.0333117846     1.4671953064     0.1782632236
|  6>  C       -0.1638768468    -0.0228797235     0.3939572942
|  7>  O        1.0744845035    -0.5741095182     0.8304892807
|  8>  C        1.0225619357    -1.9421441440     1.0500543298
|  9>  C        1.9429814115    -2.4935285363     2.1140317070
| 10>  C        2.8541569931    -1.5542797977     2.8744625288
| 11>  C        0.4350861428    -2.4680577442     2.3377029032
| 12>  O       -0.1220819654    -1.5262790079     3.1967760072
| 13>  C       -0.2074579654    -1.9796434342     4.5339726717
| 14>  H        0.8109727993     1.6500070900    -0.5690329500
| 15>  H       -0.8968805790     1.9276925321    -0.1681073282
| 16>  H        0.3340094346     1.9517871578     1.1115090209
| 17>  H       -0.9390620339    -0.2138568783     1.1469600085
| 18>  H       -0.4779956295    -0.5113183499    -0.5434176999
| 19>  H        0.8541133434    -2.5367944671     0.1492309620
| 20>  H        2.3661002241    -3.4716803693     1.8991942704
| 21>  H        2.3338735695    -0.6292536157     3.1249357706
| 22>  H        3.2090275607    -2.0187594061     3.8005603949
| 23>  H        3.7314213393    -1.2930058792     2.2738234188
| 24>  H       -0.1027120058    -3.4181618358     2.3082901311
| 25>  H       -0.8365349679    -2.8793837477     4.6132566922
| 26>  H        0.7822498081    -2.2106978096     4.9504495113
| 27>  H       -0.6640556764    -1.1764634417     5.1172365012
| 28> *
| 29>
| 30>                          ****END OF INPUT****

CARTESIAN COORDINATES (ANGSTROEM)
---------------------------------
  C      0.033312    1.467195    0.178263
  C     -0.163877   -0.022880    0.393957
  O      1.074485   -0.574110    0.830489
  C      1.022562   -1.942144    1.050054
  C      1.942981   -2.493529    2.114032
  C      2.854157   -1.554280    2.874463
  C      0.435086   -2.468058    2.337703
  O     -0.122082   -1.526279    3.196776
  C     -0.207458   -1.979643    4.533973
  H      0.810973    1.650007   -0.569033
  H     -0.896881    1.927693   -0.168107
  H      0.334009    1.951787    1.111509
  H     -0.939062   -0.213857    1.146960
  H     -0.477996   -0.511318   -0.543418
  H      0.854113   -2.536794    0.149231
  H      2.366100   -3.471680    1.899194
  H      2.333874   -0.629254    3.124936
  H      3.209028   -2.018759    3.800560
  H      3.731421   -1.293006    2.273823
  H     -0.102712   -3.418162    2.308290
  H     -0.836535   -2.879384    4.613257
  H      0.782250   -2.210698    4.950450
  H     -0.664056   -1.176463    5.117237

 Total Charge           Charge          ....    0
 Multiplicity           Mult            ....    1
 Number of Electrons    NEL             ....   72
 Basis Dimension        Dim             ....  363

ORBITAL ENERGIES
----------------

  NO   OCC          E(Eh)            E(eV)
   0   2.0000     -20.559942      -559.4645
   1   2.0000     -20.550255      -559.2009
   2   2.0000     -11.275699      -306.8274
   3   2.0000     -11.273608      -306.7705
   4   2.0000     -11.271576      -306.7152
   5   2.0000     -11.264635      -306.5263
   6   2.0000     -11.226516      -305.4890
   7   2.0000     -11.208622      -305.0021
   8   2.0000     -11.207351      -304.9675
   9   2.0000      -1.390473       -37.8367
  10   2.0000      -1.366842       -37.1937
  11   2.0000      -1.125703       -30.6319
  12   2.0000      -1.005313       -27.3560
  13   2.0000      -0.963356       -26.2143
  14   2.0000      -0.923287       -25.1239
  15   2.0000      -0.839404       -22.8414
  16   2.0000      -0.789414       -21.4810
  17   2.0000      -0.769989       -20.9525
  18   2.0000      -0.710975       -19.3466
  19   2.0000      -0.668977       -18.2038
  20   2.0000      -0.649829       -17.6827
  21   2.0000      -0.625433       -17.0189
  22   2.0000      -0.617624       -16.8064
  23   2.0000      -0.601853       -16.3772
  24   2.0000      -0.578936       -15.7537
  25   2.0000      -0.550011       -14.9666
  26   2.0000      -0.543157       -14.7801
  27   2.0000      -0.528525       -14.3819
  28   2.0000      -0.521567       -14.1926
  29   2.0000      -0.509071       -13.8525
  30   2.0000      -0.493028       -13.4160
  31   2.0000      -0.477013       -12.9802
  32   2.0000      -0.463768       -12.6198
  33   2.0000      -0.443288       -12.0625
  34   2.0000      -0.388543       -10.5728
  35   2.0000      -0.369118       -10.0442
  36   0.0000       0.138176         3.7600
  37   0.0000       0.155920         4.2428
  38   0.0000       0.161100         4.3838
  39   0.0000       0.173547         4.7224
  40   0.0000       0.190927         5.1954

MULLIKEN ATOMIC CHARGES
-----------------------
   0 C :   -0.367131
   1 C :   -0.044662
   2 O :   -0.300965
   3 C :    0.031462
   4 C :   -0.082137
   5 C :   -0.424320
   6 C :    0.021565
   7 O :   -0.305827
   8 C :   -0.217838
   9 H :    0.126422
  10 H :    0.119557
  11 H :    0.131627
  12 H :    0.115573
  13 H :    0.084083
  14 H :    0.103861
  15 H :    0.116767
  16 H :    0.161016
  17 H :    0.126525
  18 H :    0.135491
  19 H :    0.098514
  20 H :    0.113710
  21 H :    0.117782
  22 H :    0.138926
Sum of atomic charges:   -0.0000000

LOEWDIN ATOMIC CHARGES
----------------------
   0 C :   -0.318027
   1 C :   -0.336206
   2 O :    0.199873
   3 C :   -0.289350
   4 C :   -0.219065
   5 C :   -0.294380
   6 C :   -0.292311
   7 O :    0.171867
   8 C :   -0.345422
   9 H :    0.122788
  10 H :    0.123749
  11 H :    0.124351
  12 H :    0.123081
  13 H :    0.115451
  14 H :    0.132048
  15 H :    0.146453
  16 H :    0.133884
  17 H :    0.121784
  18 H :    0.128050
  19 H :    0.130607
  20 H :    0.102673
  21 H :    0.104721
  22 H :    0.113381

  Mayer bond orders larger than 0.1
B(  0-C ,  1-C ) :   0.9504 B(  0-C ,  9-H ) :   0.9355 B(  0-C , 10-H ) :   0.9321
B(  0-C , 11-H ) :   0.9380 B(  1-C ,  2-O ) :   0.8913 B(  1-C , 12-H ) :   0.9242
B(  1-C , 13-H ) :   0.9231 B(  2-O ,  3-C ) :   1.0003 B(  3-C ,  4-C ) :   0.8784
B(  3-C ,  6-C ) :   0.8765 B(  3-C , 14-H ) :   0.9337 B(  4-C ,  5-C ) :   0.8995
B(  4-C ,  6-C ) :   0.8693 B(  4-C , 15-H ) :   0.9175 B(  5-C , 16-H ) :   0.9334
B(  5-C , 17-H ) :   0.9388 B(  5-C , 18-H ) :   0.9360 B(  6-C ,  7-O ) :   0.9631
B(  6-C , 19-H ) :   0.9268 B(  7-O ,  8-C ) :   0.9037 B(  8-C , 20-H ) :   0.9371
B(  8-C , 21-H ) :   0.9361 B(  8-C , 22-H ) :   0.9397

MP2 TOTAL ENERGY:     -424.676495288 Eh
FINAL SINGLE POINT ENERGY      -424.676495287600

DIPOLE MOMENT
-------------
                                X             Y             Z
Electronic contribution:     -0.33340      -2.39119      -1.38789
Nuclear contribution   :      0.07178       1.88785       1.60082
                        -----------------------------------------
Total Dipole Moment    :     -0.26162      -0.50334       0.21293
                        -----------------------------------------
Magnitude (a.u.)       :      0.60592
Magnitude (Debye)      :      1.54012

                             ****ORCA TERMINATED NORMALLY****
TOTAL RUN TIME: 0 days 0 hours 17 minutes 26 seconds 466 msec
