                         Program Version 3.0.3 - RELEASE   -
|  1> ! RI-MP2 RIJK def2-TZVP def2-TZVP/C def2-TZVP/JK TIGHTSCF
|  2> % maxcore 2000
|  3> % mp2 density relaxed end
|  4> *xyz 0 1
|  5>  C       -0.0879967400     1.5477546822     0.0930403245
|  6>  C        0.0161388256     0.0226450769     0.0099670625
|  7>  C        0.7583127106    -0.4906798019    -1.2497056960
|  8>  C        2.2387555390    -0.0599322504    -1.2946063325
|  9>  C        0.6465624275    -1.9466340850    -1.3450084426
| 10>  C        0.5644030619    -3.1456428163    -1.4023443157
| 11>  C        0.4581676985    -4.6006824961    -1.4820518665
| 12>  C        1.1769190358    -5.1695483860    -2.6309313330
| 13>  N        1.7377144957    -5.6287372879    -3.5296847711
| 14>  H        0.8922028998     2.0237067543     0.1893278022
| 15>  H       -0.5745259370     1.9612250538    -0.7976658359
| 16>  H       -0.6823505218     1.8446744949     0.9623780501
| 17>  H        0.5241441658    -0.3700788095     0.8992511887
| 18>  H       -0.9896914246    -0.4112192692     0.0138632219
| 19>  H        0.2548672809    -0.0603940460    -2.1277771565
| 20>  H        2.3261680211     1.0293240602    -1.3149463580
| 21>  H        2.7752676004    -0.4341946887    -0.4170066706
| 22>  H        2.7300838237    -0.4576410510    -2.1860537314
| 23>  H        0.8516098265    -5.0688667175    -0.5703162823
| 24>  H       -0.5929927995    -4.9094501470    -1.5527591580
| 25> *
| 26>
| 27>                          ****END OF INPUT****

CARTESIAN COORDINATES (ANGSTROEM)
---------------------------------
  C     -0.087997    1.547755    0.093040
  C      0.016139    0.022645    0.009967
  C      0.758313   -0.490680   -1.249706
  C      2.238756   -0.059932   -1.294606
  C      0.646562   -1.946634   -1.345008
  C      0.564403   -3.145643   -1.402344
  C      0.458168   -4.600682   -1.482052
  C      1.176919   -5.169548   -2.630931
  N      1.737714   -5.628737   -3.529685
  H      0.892203    2.023707    0.189328
  H     -0.574526    1.961225   -0.797666
  H     -0.682351    1.844674    0.962378
  H      0.524144   -0.370079    0.899251
  H     -0.989691   -0.411219    0.013863
  H      0.254867   -0.060394   -2.127777
  H      2.326168    1.029324   -1.314946
  H      2.775268   -0.434195   -0.417007
  H      2.730084   -0.457641   -2.186054
  H      0.851610   -5.068867   -0.570316
  H     -0.592993   -4.909450   -1.552759

 Total Charge           Charge          ....    0
 Multiplicity           Mult            ....    1
 Number of Electrons    NEL             ....   66
 Basis Dimension        Dim             ....  345

ORBITAL ENERGIES
----------------

  NO   OCC          E(Eh)            E(eV)
   0   2.0000     -15.573067      -423.7647
   1   2.0000     -11.313226      -307.8485
   2   2.0000     -11.279363      -306.9271
   3   2.0000     -11.263377      -306.4921
   4   2.0000     -11.242794      -305.9320
   5   2.0000     -11.238761      -305.8222
   6   2.0000     -11.236111      -305.7501
   7   2.0000     -11.227768      -305.5231
   8   2.0000     -11.224257      -305.4276
   9   2.0000      -1.222990       -33.2792
  10   2.0000      -1.120192       -30.4820
  11   2.0000      -1.088949       -29.6318
  12   2.0000      -1.012381       -27.5483
  13   2.0000      -0.977088       -26.5879
  14   2.0000      -0.896001       -24.3814
  15   2.0000      -0.813700       -22.1419
  16   2.0000      -0.730957       -19.8903
  17   2.0000      -0.688773       -18.7425
  18   2.0000      -0.659779       -17.9535
  19   2.0000      -0.649608       -17.6767
  20   2.0000      -0.640185       -17.4203
  21   2.0000      -0.596578       -16.2337
  22   2.0000      -0.565847       -15.3975
  23   2.0000      -0.560000       -15.2384
  24   2.0000      -0.548798       -14.9335
  25   2.0000      -0.527114       -14.3435
  26   2.0000      -0.508757       -13.8440
  27   2.0000      -0.489053       -13.3078
  28   2.0000      -0.483577       -13.1588
  29   2.0000      -0.470020       -12.7899
  30   2.0000      -0.466842       -12.7034
  31   2.0000      -0.390546       -10.6273
  32   2.0000      -0.386794       -10.5252
  33   0.0000       0.115909         3.1540
  34   0.0000       0.131988         3.5916
  35   0.0000       0.154674         4.2089
  36   0.0000       0.163051         4.4368
  37   0.0000       0.166934         4.5425

MULLIKEN ATOMIC CHARGES
-----------------------
   0 C :   -0.414949
   1 C :   -0.164481
   2 C :   -0.214120
   3 C :   -0.398920
   4 C :    0.034687
   5 C :    0.056677
   6 C :   -0.243059
   7 C :   -0.125134
   8 N :   -0.064394
   9 H :    0.132413
  10 H :    0.126159
  11 H :    0.140402
  12 H :    0.112728
  13 H :    0.121136
  14 H :    0.113370
  15 H :    0.137427
  16 H :    0.128285
  17 H :    0.148422
  18 H :    0.186670
  19 H :    0.186681
Sum of atomic charges:    0.0000000

LOEWDIN ATOMIC CHARGES
----------------------
   0 C :   -0.317137
   1 C :   -0.257772
   2 C :   -0.267591
   3 C :   -0.272149
   4 C :   -0.036535
   5 C :   -0.068011
   6 C :   -0.229896
   7 C :   -0.173086
   8 N :    0.063378
   9 H :    0.120102
  10 H :    0.122432
  11 H :    0.124178
  12 H :    0.139992
  13 H :    0.141666
  14 H :    0.169367
  15 H :    0.123207
  16 H :    0.127395
  17 H :    0.129729
  18 H :    0.180292
  19 H :    0.180441

  Mayer bond orders larger than 0.1
B(  0-C ,  1-C ) :   0.9092 B(  0-C ,  9-H ) :   0.9415 B(  0-C , 10-H ) :   0.9367
B(  0-C , 11-H ) :   0.9407 B(  1-C ,  2-C ) :   0.9563 B(  1-C , 12-H ) :   0.9212
B(  1-C , 13-H ) :   0.9355 B(  2-C ,  3-C ) :   0.9206 B(  2-C ,  4-C ) :   1.1039
B(  2-C ,  5-C ) :  -0.1433 B(  2-C , 14-H ) :   0.9132 B(  3-C , 15-H ) :   0.9390
B(  3-C , 16-H ) :   0.9278 B(  3-C , 17-H ) :   0.9363 B(  4-C ,  5-C ) :   2.5904
B(  5-C ,  6-C ) :   0.9427 B(  6-C ,  7-C ) :   0.9404 B(  6-C , 18-H ) :   0.9209
B(  6-C , 19-H ) :   0.9240 B(  7-C ,  8-N ) :   2.8498

MP2 TOTAL ENERGY:     -365.333438120 Eh
FINAL SINGLE POINT ENERGY      -365.333438119586

DIPOLE MOMENT
-------------
                                X             Y             Z
Electronic contribution:      0.86428     -15.82842      -6.62618
Nuclear contribution   :     -1.56590      16.71733       7.83021
                        -----------------------------------------
Total Dipole Moment    :     -0.70162       0.88891       1.20404
                        -----------------------------------------
Magnitude (a.u.)       :      1.65292
Magnitude (Debye)      :      4.20138

                             ****ORCA TERMINATED NORMALLY****
TOTAL RUN TIME: 0 days 0 hours 15 minutes 33 seconds 701 msec
