                         Program Version 3.0.3 - RELEASE   -
|  1> ! RI-MP2 RIJK def2-TZVP def2-TZVP/C def2-TZVP/JK TIGHTSCF
|  2> % maxcore 2000
|  3> % mp2 density relaxed end
|  4> *xyz 0 1
|  5>  C        0.0078920509     1.5783965384    -0.0414686088
|  6>  C       -0.0001430894     0.0392923644    -0.0166335813
|  7>  C        0.5895970890    -0.4914902024    -1.3343608052
|  8>  C        0.7211075462    -0.5118148421     1.2366186651
|  9>  C        0.2026445325     0.0825940490     2.5483597446
| 10>  C        0.9027571001    -2.0704387816     1.3029458813
| 11>  N        2.3459537921    -1.8419717575     1.2119995359
| 12>  C        2.2762398285    -0.4745503996     1.1449551221
| 13>  O        3.1129521278     0.3868141323     1.0512565661
| 14>  H        1.0336290289     1.9566560716     0.0134281041
| 15>  H       -0.4403332005     1.9428287823    -0.9711624988
| 16>  H       -0.5594839366     2.0098751433     0.7868396505
| 17>  H       -1.0453998679    -0.2976905547     0.0494851707
| 18>  H        1.6193057457    -0.1438830977    -1.4680287085
| 19>  H        0.5911324916    -1.5836540991    -1.3912149475
| 20>  H        0.0029693595    -0.1225753011    -2.1812694309
| 21>  H       -0.8850992158    -0.0270106054     2.6270451043
| 22>  H        0.6564273719    -0.4194484580     3.4087283394
| 23>  H        0.4456223670     1.1447882466     2.6231770853
| 24>  H        0.5800583287    -2.5233287273     2.2462502407
| 25>  H        0.4846280791    -2.6377682329     0.4669056910
| 26>  H        3.1335669307    -2.4732000185     1.2139294698
| 27> *
| 28>
| 29>                          ****END OF INPUT****

CARTESIAN COORDINATES (ANGSTROEM)
---------------------------------
  C      0.007892    1.578397   -0.041469
  C     -0.000143    0.039292   -0.016634
  C      0.589597   -0.491490   -1.334361
  C      0.721108   -0.511815    1.236619
  C      0.202645    0.082594    2.548360
  C      0.902757   -2.070439    1.302946
  N      2.345954   -1.841972    1.212000
  C      2.276240   -0.474550    1.144955
  O      3.112952    0.386814    1.051257
  H      1.033629    1.956656    0.013428
  H     -0.440333    1.942829   -0.971162
  H     -0.559484    2.009875    0.786840
  H     -1.045400   -0.297691    0.049485
  H      1.619306   -0.143883   -1.468029
  H      0.591132   -1.583654   -1.391215
  H      0.002969   -0.122575   -2.181269
  H     -0.885099   -0.027011    2.627045
  H      0.656427   -0.419448    3.408728
  H      0.445622    1.144788    2.623177
  H      0.580058   -2.523329    2.246250
  H      0.484628   -2.637768    0.466906
  H      3.133567   -2.473200    1.213929

 Total Charge           Charge          ....    0
 Multiplicity           Mult            ....    1
 Number of Electrons    NEL             ....   70
 Basis Dimension        Dim             ....  357

ORBITAL ENERGIES
----------------

  NO   OCC          E(Eh)            E(eV)
   0   2.0000     -20.520532      -558.3921
   1   2.0000     -15.581957      -424.0066
   2   2.0000     -11.342339      -308.6407
   3   2.0000     -11.274145      -306.7851
   4   2.0000     -11.253961      -306.2359
   5   2.0000     -11.239385      -305.8392
   6   2.0000     -11.225981      -305.4745
   7   2.0000     -11.215035      -305.1766
   8   2.0000     -11.210142      -305.0435
   9   2.0000      -1.381963       -37.6051
  10   2.0000      -1.265159       -34.4267
  11   2.0000      -1.098390       -29.8887
  12   2.0000      -1.013545       -27.5800
  13   2.0000      -0.939220       -25.5575
  14   2.0000      -0.915020       -24.8990
  15   2.0000      -0.885122       -24.0854
  16   2.0000      -0.821782       -22.3618
  17   2.0000      -0.716114       -19.4865
  18   2.0000      -0.672210       -18.2918
  19   2.0000      -0.664989       -18.0953
  20   2.0000      -0.648684       -17.6516
  21   2.0000      -0.613457       -16.6930
  22   2.0000      -0.597153       -16.2494
  23   2.0000      -0.578657       -15.7460
  24   2.0000      -0.566367       -15.4116
  25   2.0000      -0.543312       -14.7843
  26   2.0000      -0.533750       -14.5241
  27   2.0000      -0.528981       -14.3943
  28   2.0000      -0.521344       -14.1865
  29   2.0000      -0.507167       -13.8007
  30   2.0000      -0.483778       -13.1643
  31   2.0000      -0.462983       -12.5984
  32   2.0000      -0.452002       -12.2996
  33   2.0000      -0.399194       -10.8626
  34   2.0000      -0.396095       -10.7783
  35   0.0000       0.132718         3.6115
  36   0.0000       0.142016         3.8644
  37   0.0000       0.158226         4.3055
  38   0.0000       0.167841         4.5672
  39   0.0000       0.180626         4.9151

MULLIKEN ATOMIC CHARGES
-----------------------
   0 C :   -0.448426
   1 C :   -0.057836
   2 C :   -0.420225
   3 C :    0.195529
   4 C :   -0.459350
   5 C :   -0.154994
   6 N :   -0.324254
   7 C :    0.151233
   8 O :   -0.320667
   9 H :    0.163558
  10 H :    0.129495
  11 H :    0.134730
  12 H :    0.090068
  13 H :    0.149784
  14 H :    0.120458
  15 H :    0.134942
  16 H :    0.137831
  17 H :    0.139215
  18 H :    0.159388
  19 H :    0.124970
  20 H :    0.121781
  21 H :    0.232771
Sum of atomic charges:   -0.0000000

LOEWDIN ATOMIC CHARGES
----------------------
   0 C :   -0.286381
   1 C :   -0.261346
   2 C :   -0.286912
   3 C :   -0.218962
   4 C :   -0.262767
   5 C :   -0.207122
   6 N :    0.128387
   7 C :   -0.416410
   8 O :    0.097792
   9 H :    0.133831
  10 H :    0.123680
  11 H :    0.121485
  12 H :    0.152996
  13 H :    0.132110
  14 H :    0.119125
  15 H :    0.124889
  16 H :    0.128393
  17 H :    0.130172
  18 H :    0.133600
  19 H :    0.123580
  20 H :    0.121641
  21 H :    0.168219

  Mayer bond orders larger than 0.1
B(  0-C ,  1-C ) :   0.9069 B(  0-C ,  9-H ) :   0.9278 B(  0-C , 10-H ) :   0.9373
B(  0-C , 11-H ) :   0.9384 B(  1-C ,  2-C ) :   0.9127 B(  1-C ,  3-C ) :   0.8914
B(  1-C , 12-H ) :   0.9262 B(  2-C , 13-H ) :   0.9290 B(  2-C , 14-H ) :   0.9387
B(  2-C , 15-H ) :   0.9367 B(  3-C ,  4-C ) :   0.8688 B(  3-C ,  5-C ) :   0.8641
B(  3-C ,  6-N ) :  -0.1177 B(  3-C ,  7-C ) :   0.8028 B(  4-C , 16-H ) :   0.9369
B(  4-C , 17-H ) :   0.9288 B(  4-C , 18-H ) :   0.9392 B(  5-C ,  6-N ) :   0.9160
B(  5-C , 19-H ) :   0.9248 B(  5-C , 20-H ) :   0.9287 B(  6-N ,  7-C ) :   1.1920
B(  6-N , 21-H ) :   0.8566 B(  7-C ,  8-O ) :   2.0069

MP2 TOTAL ENERGY:     -403.692330024 Eh
FINAL SINGLE POINT ENERGY      -403.692330023594

DIPOLE MOMENT
-------------
                                X             Y             Z
Electronic contribution:      7.69591      -2.42525       2.65306
Nuclear contribution   :     -8.57759       1.34055      -2.56190
                        -----------------------------------------
Total Dipole Moment    :     -0.88169      -1.08470       0.09116
                        -----------------------------------------
Magnitude (a.u.)       :      1.40081
Magnitude (Debye)      :      3.56056

                             ****ORCA TERMINATED NORMALLY****
TOTAL RUN TIME: 0 days 0 hours 23 minutes 14 seconds 96 msec
