                         Program Version 3.0.3 - RELEASE   -
|  1> ! RI-MP2 RIJK def2-TZVP def2-TZVP/C def2-TZVP/JK TIGHTSCF
|  2> % maxcore 2000
|  3> % mp2 density relaxed end
|  4> *xyz 0 1
|  5>  C       -0.1188481270     1.5855264328     0.0475751517
|  6>  C        0.0660854335     0.0748136706    -0.0167391350
|  7>  C        1.1719563775    -0.5294931862    -0.9596225135
|  8>  C        1.7582027696    -1.2883395566     0.2457634351
|  9>  C        2.1765143699    -0.3204299809     1.3166380213
| 10>  C        0.7169706249    -0.6635091890     1.1757464275
| 11>  C        0.1335614085    -1.7524073001     2.0531032101
| 12>  C        1.1538128795    -2.9270259860     1.9215089495
| 13>  C        1.8181267884    -2.7769551343     0.5181413674
| 14>  H        0.8206995212     2.0983124912     0.2794799609
| 15>  H       -0.4814927181     1.9788008775    -0.9089066361
| 16>  H       -0.8460380732     1.8602365546     0.8198954542
| 17>  H       -0.8968908427    -0.3955980862    -0.2438090013
| 18>  H        0.7605133228    -1.1849959710    -1.7313658957
| 19>  H        1.8444691423     0.1887450736    -1.4422261947
| 20>  H        2.6887616213    -0.7294689504     2.1806767229
| 21>  H        2.5325821861     0.6654822110     1.0313512555
| 22>  H       -0.0258831872    -1.4735546484     3.1008775057
| 23>  H       -0.8420668491    -2.0526774338     1.6506712263
| 24>  H        1.9152991756    -2.8479628786     2.7043833915
| 25>  H        0.6797854408    -3.9040507172     2.0527014522
| 26>  H        1.2253989401    -3.3039492104    -0.2399171300
| 27>  H        2.8227490052    -3.2146626420     0.4979998543
| 28> *
| 29>
| 30>                          ****END OF INPUT****

CARTESIAN COORDINATES (ANGSTROEM)
---------------------------------
  C     -0.118848    1.585526    0.047575
  C      0.066085    0.074814   -0.016739
  C      1.171956   -0.529493   -0.959623
  C      1.758203   -1.288340    0.245763
  C      2.176514   -0.320430    1.316638
  C      0.716971   -0.663509    1.175746
  C      0.133561   -1.752407    2.053103
  C      1.153813   -2.927026    1.921509
  C      1.818127   -2.776955    0.518141
  H      0.820700    2.098312    0.279480
  H     -0.481493    1.978801   -0.908907
  H     -0.846038    1.860237    0.819895
  H     -0.896891   -0.395598   -0.243809
  H      0.760513   -1.184996   -1.731366
  H      1.844469    0.188745   -1.442226
  H      2.688762   -0.729469    2.180677
  H      2.532582    0.665482    1.031351
  H     -0.025883   -1.473555    3.100878
  H     -0.842067   -2.052677    1.650671
  H      1.915299   -2.847963    2.704383
  H      0.679785   -3.904051    2.052701
  H      1.225399   -3.303949   -0.239917
  H      2.822749   -3.214663    0.498000

 Total Charge           Charge          ....    0
 Multiplicity           Mult            ....    1
 Number of Electrons    NEL             ....   68
 Basis Dimension        Dim             ....  363

ORBITAL ENERGIES
----------------

  NO   OCC          E(Eh)            E(eV)
   0   2.0000     -11.228723      -305.5491
   1   2.0000     -11.222151      -305.3703
   2   2.0000     -11.220126      -305.3151
   3   2.0000     -11.219974      -305.3110
   4   2.0000     -11.219750      -305.3049
   5   2.0000     -11.218630      -305.2744
   6   2.0000     -11.217193      -305.2353
   7   2.0000     -11.215210      -305.1814
   8   2.0000     -11.207323      -304.9668
   9   2.0000      -1.202555       -32.7232
  10   2.0000      -1.054722       -28.7004
  11   2.0000      -0.998452       -27.1693
  12   2.0000      -0.962014       -26.1777
  13   2.0000      -0.924795       -25.1650
  14   2.0000      -0.838418       -22.8145
  15   2.0000      -0.807665       -21.9777
  16   2.0000      -0.752537       -20.4776
  17   2.0000      -0.672783       -18.3074
  18   2.0000      -0.665279       -18.1032
  19   2.0000      -0.625148       -17.0111
  20   2.0000      -0.595288       -16.1986
  21   2.0000      -0.577489       -15.7143
  22   2.0000      -0.569815       -15.5054
  23   2.0000      -0.558698       -15.2030
  24   2.0000      -0.542734       -14.7685
  25   2.0000      -0.525340       -14.2952
  26   2.0000      -0.513898       -13.9839
  27   2.0000      -0.484073       -13.1723
  28   2.0000      -0.473670       -12.8892
  29   2.0000      -0.468051       -12.7363
  30   2.0000      -0.446181       -12.1412
  31   2.0000      -0.427080       -11.6214
  32   2.0000      -0.390012       -10.6128
  33   2.0000      -0.331841        -9.0299
  34   0.0000       0.135179         3.6784
  35   0.0000       0.154289         4.1984
  36   0.0000       0.166195         4.5224
  37   0.0000       0.167771         4.5653
  38   0.0000       0.184017         5.0073

MULLIKEN ATOMIC CHARGES
-----------------------
   0 C :   -0.400233
   1 C :   -0.062380
   2 C :   -0.264052
   3 C :    0.110356
   4 C :   -0.334082
   5 C :    0.120790
   6 C :   -0.304054
   7 C :   -0.229261
   8 C :   -0.288667
   9 H :    0.116127
  10 H :    0.129982
  11 H :    0.128624
  12 H :    0.085880
  13 H :    0.110063
  14 H :    0.115320
  15 H :    0.131975
  16 H :    0.126236
  17 H :    0.121473
  18 H :    0.110707
  19 H :    0.121059
  20 H :    0.123014
  21 H :    0.110022
  22 H :    0.121102
Sum of atomic charges:    0.0000000

LOEWDIN ATOMIC CHARGES
----------------------
   0 C :   -0.299020
   1 C :   -0.208837
   2 C :   -0.174076
   3 C :   -0.181152
   4 C :   -0.165799
   5 C :   -0.165652
   6 C :   -0.220201
   7 C :   -0.240398
   8 C :   -0.221003
   9 H :    0.121125
  10 H :    0.122515
  11 H :    0.124355
  12 H :    0.150140
  13 H :    0.133150
  14 H :    0.129291
  15 H :    0.143938
  16 H :    0.135675
  17 H :    0.134849
  18 H :    0.140777
  19 H :    0.132428
  20 H :    0.131390
  21 H :    0.141314
  22 H :    0.135189

  Mayer bond orders larger than 0.1
B(  0-C ,  1-C ) :   0.9154 B(  0-C ,  9-H ) :   0.9331 B(  0-C , 10-H ) :   0.9409
B(  0-C , 11-H ) :   0.9396 B(  1-C ,  2-C ) :   0.9903 B(  1-C ,  5-C ) :   0.9438
B(  1-C , 12-H ) :   0.9069 B(  2-C ,  3-C ) :   0.9371 B(  2-C , 13-H ) :   0.9065
B(  2-C , 14-H ) :   0.9119 B(  3-C ,  4-C ) :   0.8979 B(  3-C ,  5-C ) :   0.7524
B(  3-C ,  8-C ) :   0.9482 B(  4-C ,  5-C ) :   0.8906 B(  4-C , 15-H ) :   0.9206
B(  4-C , 16-H ) :   0.9139 B(  5-C ,  6-C ) :   0.9140 B(  6-C ,  7-C ) :   0.9211
B(  6-C , 17-H ) :   0.9311 B(  6-C , 18-H ) :   0.9265 B(  7-C ,  8-C ) :   0.9203
B(  7-C , 19-H ) :   0.9365 B(  7-C , 20-H ) :   0.9253 B(  8-C , 21-H ) :   0.9267
B(  8-C , 22-H ) :   0.9305

MP2 TOTAL ENERGY:     -350.492284377 Eh
FINAL SINGLE POINT ENERGY      -350.492284376534

DIPOLE MOMENT
-------------
                                X             Y             Z
Electronic contribution:      1.20801      -1.03208       0.02824
Nuclear contribution   :     -1.33590       0.87884      -0.04272
                        -----------------------------------------
Total Dipole Moment    :     -0.12789      -0.15324      -0.01448
                        -----------------------------------------
Magnitude (a.u.)       :      0.20012
Magnitude (Debye)      :      0.50867

                             ****ORCA TERMINATED NORMALLY****
TOTAL RUN TIME: 0 days 0 hours 22 minutes 36 seconds 737 msec
