                         Program Version 3.0.3 - RELEASE   -
|  1> ! RI-MP2 RIJK def2-TZVP def2-TZVP/C def2-TZVP/JK TIGHTSCF
|  2> % maxcore 2000
|  3> % mp2 density relaxed end
|  4> *xyz 0 1
|  5>  C       -0.0886215914     1.5190304842    -0.0951498647
|  6>  C        0.0996970324     0.0109175198     0.1030145869
|  7>  C        0.7333034592    -0.6626936085    -1.1390113810
|  8>  C        2.2355674930    -0.7548699422    -0.7810542782
|  9>  O        2.3976530865    -0.2174543576     0.5269008517
| 10>  C        1.1342456869    -0.3472067563     1.1933090698
| 11>  C        1.1650324275     0.4887537815     2.4595603882
| 12>  C        2.7888603570    -2.1794794101    -0.8110519781
| 13>  O        2.3613719770    -3.0713503985    -1.4964463685
| 14>  H        0.8699077337     2.0138087630    -0.2839729658
| 15>  H       -0.7398956068     1.7117528144    -0.9534275293
| 16>  H       -0.5458476116     1.9914874820     0.7792782640
| 17>  H       -0.8666129321    -0.4460711792     0.3398189111
| 18>  H        0.3404738517    -1.6671481233    -1.3144997477
| 19>  H        0.5657268527    -0.0826901209    -2.0489078529
| 20>  H        2.8701814331    -0.1645199094    -1.4572161423
| 21>  H        0.9820977282    -1.4054582556     1.4702751423
| 22>  H        1.3693414384     1.5386828704     2.2365478648
| 23>  H        0.2068972617     0.4211298510     2.9841583516
| 24>  H        1.9479521938     0.1255735548     3.1308519472
| 25>  H        3.6529403693    -2.3230268695    -0.1240282491
| 26> *
| 27>
| 28>                          ****END OF INPUT****

CARTESIAN COORDINATES (ANGSTROEM)
---------------------------------
  C     -0.088622    1.519030   -0.095150
  C      0.099697    0.010918    0.103015
  C      0.733303   -0.662694   -1.139011
  C      2.235567   -0.754870   -0.781054
  O      2.397653   -0.217454    0.526901
  C      1.134246   -0.347207    1.193309
  C      1.165032    0.488754    2.459560
  C      2.788860   -2.179479   -0.811052
  O      2.361372   -3.071350   -1.496446
  H      0.869908    2.013809   -0.283973
  H     -0.739896    1.711753   -0.953428
  H     -0.545848    1.991487    0.779278
  H     -0.866613   -0.446071    0.339819
  H      0.340474   -1.667148   -1.314500
  H      0.565727   -0.082690   -2.048908
  H      2.870181   -0.164520   -1.457216
  H      0.982098   -1.405458    1.470275
  H      1.369341    1.538683    2.236548
  H      0.206897    0.421130    2.984158
  H      1.947952    0.125574    3.130852
  H      3.652940   -2.323027   -0.124028

 Total Charge           Charge          ....    0
 Multiplicity           Mult            ....    1
 Number of Electrons    NEL             ....   70
 Basis Dimension        Dim             ....  351

ORBITAL ENERGIES
----------------

  NO   OCC          E(Eh)            E(eV)
   0   2.0000     -20.564753      -559.5954
   1   2.0000     -20.562014      -559.5209
   2   2.0000     -11.330577      -308.3207
   3   2.0000     -11.294765      -307.3462
   4   2.0000     -11.286650      -307.1254
   5   2.0000     -11.238026      -305.8022
   6   2.0000     -11.230726      -305.6036
   7   2.0000     -11.221339      -305.3482
   8   2.0000     -11.220420      -305.3232
   9   2.0000      -1.404924       -38.2299
  10   2.0000      -1.387872       -37.7659
  11   2.0000      -1.088699       -29.6250
  12   2.0000      -1.050288       -28.5798
  13   2.0000      -0.969025       -26.3685
  14   2.0000      -0.924134       -25.1470
  15   2.0000      -0.857411       -23.3313
  16   2.0000      -0.776953       -21.1420
  17   2.0000      -0.768509       -20.9122
  18   2.0000      -0.695052       -18.9133
  19   2.0000      -0.675568       -18.3831
  20   2.0000      -0.673212       -18.3190
  21   2.0000      -0.636527       -17.3208
  22   2.0000      -0.613277       -16.6881
  23   2.0000      -0.583980       -15.8909
  24   2.0000      -0.562764       -15.3136
  25   2.0000      -0.545532       -14.8447
  26   2.0000      -0.544939       -14.8285
  27   2.0000      -0.538160       -14.6441
  28   2.0000      -0.516831       -14.0637
  29   2.0000      -0.499338       -13.5877
  30   2.0000      -0.491130       -13.3643
  31   2.0000      -0.475752       -12.9459
  32   2.0000      -0.462760       -12.5924
  33   2.0000      -0.444537       -12.0965
  34   2.0000      -0.405289       -11.0285
  35   0.0000       0.119135         3.2418
  36   0.0000       0.137638         3.7453
  37   0.0000       0.151691         4.1277
  38   0.0000       0.161975         4.4076
  39   0.0000       0.172106         4.6832

MULLIKEN ATOMIC CHARGES
-----------------------
   0 C :   -0.483840
   1 C :    0.015690
   2 C :   -0.320987
   3 C :    0.148988
   4 O :   -0.326927
   5 C :    0.058391
   6 C :   -0.391266
   7 C :    0.043454
   8 O :   -0.262307
   9 H :    0.146017
  10 H :    0.138826
  11 H :    0.138488
  12 H :    0.104175
  13 H :    0.155286
  14 H :    0.127062
  15 H :    0.122200
  16 H :    0.080553
  17 H :    0.138319
  18 H :    0.130670
  19 H :    0.144189
  20 H :    0.093019
Sum of atomic charges:   -0.0000000

LOEWDIN ATOMIC CHARGES
----------------------
   0 C :   -0.293654
   1 C :   -0.252085
   2 C :   -0.207728
   3 C :   -0.307438
   4 O :    0.189926
   5 C :   -0.313417
   6 C :   -0.288968
   7 C :   -0.275051
   8 O :    0.137718
   9 H :    0.128827
  10 H :    0.124849
  11 H :    0.123393
  12 H :    0.151020
  13 H :    0.146070
  14 H :    0.140761
  15 H :    0.154172
  16 H :    0.139574
  17 H :    0.128051
  18 H :    0.129614
  19 H :    0.129018
  20 H :    0.115347

  Mayer bond orders larger than 0.1
B(  0-C ,  1-C ) :   0.8822 B(  0-C ,  9-H ) :   0.9360 B(  0-C , 10-H ) :   0.9382
B(  0-C , 11-H ) :   0.9411 B(  1-C ,  2-C ) :   0.8831 B(  1-C ,  5-C ) :   0.9202
B(  1-C , 12-H ) :   0.9197 B(  2-C ,  3-C ) :   0.9297 B(  2-C , 13-H ) :   0.9189
B(  2-C , 14-H ) :   0.9364 B(  3-C ,  4-O ) :   0.9182 B(  3-C ,  7-C ) :   0.8429
B(  3-C , 15-H ) :   0.8918 B(  4-O ,  5-C ) :   0.9162 B(  5-C ,  6-C ) :   0.9054
B(  5-C , 16-H ) :   0.9232 B(  6-C , 17-H ) :   0.9359 B(  6-C , 18-H ) :   0.9365
B(  6-C , 19-H ) :   0.9358 B(  7-C ,  8-O ) :   1.9943 B(  7-C , 20-H ) :   0.9371

MP2 TOTAL ENERGY:     -423.542504359 Eh
FINAL SINGLE POINT ENERGY      -423.542504359102

DIPOLE MOMENT
-------------
                                X             Y             Z
Electronic contribution:      5.71951      -7.40452      -4.06702
Nuclear contribution   :     -6.12045       8.07753       4.41063
                        -----------------------------------------
Total Dipole Moment    :     -0.40093       0.67302       0.34361
                        -----------------------------------------
Magnitude (a.u.)       :      0.85543
Magnitude (Debye)      :      2.17434

                             ****ORCA TERMINATED NORMALLY****
TOTAL RUN TIME: 0 days 0 hours 20 minutes 53 seconds 80 msec
