                         Program Version 3.0.3 - RELEASE   -
|  1> ! RI-MP2 RIJK def2-TZVP def2-TZVP/C def2-TZVP/JK TIGHTSCF
|  2> % maxcore 2000
|  3> % mp2 density relaxed end
|  4> *xyz 0 1
|  5>  N        0.3070260222     1.3176671443    -0.0632567349
|  6>  C        0.2083431261    -0.0718580359    -0.1004630099
|  7>  O        1.1801028484    -0.7921233466    -0.2333628203
|  8>  N       -1.0789237105    -0.5392185327     0.0532066141
|  9>  C       -1.3663635256    -1.9424218675     0.1988130350
| 10>  C       -1.9225697460    -2.4911563123     1.5438649059
| 11>  C       -2.8069569506    -3.4632949065     0.7160378262
| 12>  C       -2.6134976518    -2.5317544239    -0.5119867572
| 13>  H        1.2031583851     1.6387648281    -0.3981974055
| 14>  H       -0.4713630336     1.8471592945    -0.4279979272
| 15>  H       -1.7776328095     0.1093549620     0.3817588608
| 16>  H       -0.4564022652    -2.4705152194    -0.0888928377
| 17>  H       -1.2094598313    -2.9067619300     2.2592691430
| 18>  H       -2.5323648593    -1.7367358522     2.0538963189
| 19>  H       -2.3186110280    -4.4306614689     0.5713514066
| 20>  H       -3.8274153417    -3.6371182659     1.0621583358
| 21>  H       -3.4158590628    -1.7884024475    -0.5760702838
| 22>  H       -2.4748980660    -2.9813562194    -1.4980308699
| 23> *
| 24>
| 25>                          ****END OF INPUT****

CARTESIAN COORDINATES (ANGSTROEM)
---------------------------------
  N      0.307026    1.317667   -0.063257
  C      0.208343   -0.071858   -0.100463
  O      1.180103   -0.792123   -0.233363
  N     -1.078924   -0.539219    0.053207
  C     -1.366364   -1.942422    0.198813
  C     -1.922570   -2.491156    1.543865
  C     -2.806957   -3.463295    0.716038
  C     -2.613498   -2.531754   -0.511987
  H      1.203158    1.638765   -0.398197
  H     -0.471363    1.847159   -0.427998
  H     -1.777633    0.109355    0.381759
  H     -0.456402   -2.470515   -0.088893
  H     -1.209460   -2.906762    2.259269
  H     -2.532365   -1.736736    2.053896
  H     -2.318611   -4.430661    0.571351
  H     -3.827415   -3.637118    1.062158
  H     -3.415859   -1.788402   -0.576070
  H     -2.474898   -2.981356   -1.498031

 Total Charge           Charge          ....    0
 Multiplicity           Mult            ....    1
 Number of Electrons    NEL             ....   62
 Basis Dimension        Dim             ....  308

ORBITAL ENERGIES
----------------

  NO   OCC          E(Eh)            E(eV)
   0   2.0000     -20.506347      -558.0061
   1   2.0000     -15.577611      -423.8883
   2   2.0000     -15.576676      -423.8629
   3   2.0000     -11.372353      -309.4575
   4   2.0000     -11.261963      -306.4536
   5   2.0000     -11.224734      -305.4406
   6   2.0000     -11.223945      -305.4191
   7   2.0000     -11.223275      -305.4008
   8   2.0000      -1.388245       -37.7761
   9   2.0000      -1.240794       -33.7637
  10   2.0000      -1.192373       -32.4461
  11   2.0000      -1.112539       -30.2737
  12   2.0000      -0.904329       -24.6080
  13   2.0000      -0.901738       -24.5375
  14   2.0000      -0.803217       -21.8566
  15   2.0000      -0.778835       -21.1932
  16   2.0000      -0.731838       -19.9143
  17   2.0000      -0.696339       -18.9484
  18   2.0000      -0.650238       -17.6939
  19   2.0000      -0.641615       -17.4592
  20   2.0000      -0.610727       -16.6187
  21   2.0000      -0.603931       -16.4338
  22   2.0000      -0.550350       -14.9758
  23   2.0000      -0.543830       -14.7984
  24   2.0000      -0.518108       -14.0984
  25   2.0000      -0.479993       -13.0613
  26   2.0000      -0.456369       -12.4184
  27   2.0000      -0.451665       -12.2904
  28   2.0000      -0.440875       -11.9968
  29   2.0000      -0.422214       -11.4890
  30   2.0000      -0.381875       -10.3913
  31   0.0000       0.120424         3.2769
  32   0.0000       0.141798         3.8585
  33   0.0000       0.158496         4.3129
  34   0.0000       0.175304         4.7703
  35   0.0000       0.176780         4.8104

MULLIKEN ATOMIC CHARGES
-----------------------
   0 N :   -0.532593
   1 C :    0.398308
   2 O :   -0.400148
   3 N :   -0.364959
   4 C :   -0.039875
   5 C :   -0.200418
   6 C :   -0.229766
   7 C :   -0.185002
   8 H :    0.264540
   9 H :    0.245282
  10 H :    0.223080
  11 H :    0.141072
  12 H :    0.127749
  13 H :    0.096420
  14 H :    0.118224
  15 H :    0.118380
  16 H :    0.096856
  17 H :    0.122852
Sum of atomic charges:    0.0000000

LOEWDIN ATOMIC CHARGES
----------------------
   0 N :   -0.076612
   1 C :   -0.568917
   2 O :    0.051439
   3 N :    0.100691
   4 C :   -0.263963
   5 C :   -0.225286
   6 C :   -0.245348
   7 C :   -0.225354
   8 H :    0.174939
   9 H :    0.163538
  10 H :    0.181535
  11 H :    0.162543
  12 H :    0.125845
  13 H :    0.131389
  14 H :    0.134631
  15 H :    0.122408
  16 H :    0.131955
  17 H :    0.124568

  Mayer bond orders larger than 0.1
B(  0-N ,  1-C ) :   1.0704 B(  0-N ,  8-H ) :   0.8704 B(  0-N ,  9-H ) :   0.8733
B(  1-C ,  2-O ) :   1.9182 B(  1-C ,  3-N ) :   1.1140 B(  3-N ,  4-C ) :   0.8581
B(  3-N , 10-H ) :   0.8694 B(  4-C ,  5-C ) :   0.9441 B(  4-C ,  7-C ) :   0.9058
B(  4-C , 11-H ) :   0.9184 B(  5-C ,  6-C ) :   0.9483 B(  5-C , 12-H ) :   0.9325
B(  5-C , 13-H ) :   0.9157 B(  6-C ,  7-C ) :   0.9412 B(  6-C , 14-H ) :   0.9257
B(  6-C , 15-H ) :   0.9293 B(  7-C , 16-H ) :   0.9192 B(  7-C , 17-H ) :   0.9323

MP2 TOTAL ENERGY:     -380.521266338 Eh
FINAL SINGLE POINT ENERGY      -380.521266338441

DIPOLE MOMENT
-------------
                                X             Y             Z
Electronic contribution:      5.78881       4.17643      -1.40759
Nuclear contribution   :     -7.01352      -3.45352       1.34359
                        -----------------------------------------
Total Dipole Moment    :     -1.22471       0.72292      -0.06400
                        -----------------------------------------
Magnitude (a.u.)       :      1.42360
Magnitude (Debye)      :      3.61849

                             ****ORCA TERMINATED NORMALLY****
TOTAL RUN TIME: 0 days 0 hours 12 minutes 3 seconds 666 msec
