                         Program Version 3.0.3 - RELEASE   -
|  1> ! RI-MP2 RIJK def2-TZVP def2-TZVP/C def2-TZVP/JK TIGHTSCF
|  2> % maxcore 2000
|  3> % mp2 density relaxed end
|  4> *xyz 0 1
|  5>  O        0.0663830035     0.0748996980     0.0193296650
|  6>  C        0.0149336783     1.2648409793    -0.0418359581
|  7>  C       -1.0914722557     2.2835386002     0.0226191690
|  8>  C       -0.1259837668     3.2127023108     0.7967391172
|  9>  C        1.0465729225     2.4098753048     0.0944237491
| 10>  N        0.8268097971     3.1411068956    -1.2066301498
| 11>  C       -0.4805986909     3.5424587271    -0.6217974100
| 12>  C       -1.2993386206     4.5879090550    -1.1453614935
| 13>  N       -1.9461874829     5.4512896713    -1.5620245131
| 14>  H       -2.1586883485     2.1667760355     0.1462588881
| 15>  H       -0.2718708684     3.7000020955     1.7500300620
| 16>  H        2.0639915392     2.2531716428     0.4378613616
| 17>  H        1.4165451032     3.9737930040    -1.1981765875
| 18> *
| 19>
| 20>                          ****END OF INPUT****

CARTESIAN COORDINATES (ANGSTROEM)
---------------------------------
  O      0.066383    0.074900    0.019330
  C      0.014934    1.264841   -0.041836
  C     -1.091472    2.283539    0.022619
  C     -0.125984    3.212702    0.796739
  C      1.046573    2.409875    0.094424
  N      0.826810    3.141107   -1.206630
  C     -0.480599    3.542459   -0.621797
  C     -1.299339    4.587909   -1.145361
  N     -1.946187    5.451290   -1.562025
  H     -2.158688    2.166776    0.146259
  H     -0.271871    3.700002    1.750030
  H      2.063992    2.253172    0.437861
  H      1.416545    3.973793   -1.198177

 Total Charge           Charge          ....    0
 Multiplicity           Mult            ....    1
 Number of Electrons    NEL             ....   62
 Basis Dimension        Dim             ....  303

ORBITAL ENERGIES
----------------

  NO   OCC          E(Eh)            E(eV)
   0   2.0000     -20.571602      -559.7817
   1   2.0000     -15.606594      -424.6770
   2   2.0000     -15.599518      -424.4845
   3   2.0000     -11.365204      -309.2629
   4   2.0000     -11.354486      -308.9713
   5   2.0000     -11.321378      -308.0704
   6   2.0000     -11.307099      -307.6818
   7   2.0000     -11.300027      -307.4894
   8   2.0000     -11.298250      -307.4410
   9   2.0000      -1.421451       -38.6797
  10   2.0000      -1.346793       -36.6481
  11   2.0000      -1.241070       -33.7712
  12   2.0000      -1.140897       -31.0454
  13   2.0000      -1.028319       -27.9820
  14   2.0000      -0.911545       -24.8044
  15   2.0000      -0.870441       -23.6859
  16   2.0000      -0.793679       -21.5971
  17   2.0000      -0.759365       -20.6634
  18   2.0000      -0.678576       -18.4650
  19   2.0000      -0.667983       -18.1767
  20   2.0000      -0.659259       -17.9394
  21   2.0000      -0.621088       -16.9007
  22   2.0000      -0.602078       -16.3834
  23   2.0000      -0.579285       -15.7631
  24   2.0000      -0.553122       -15.0512
  25   2.0000      -0.536880       -14.6092
  26   2.0000      -0.500012       -13.6060
  27   2.0000      -0.478944       -13.0327
  28   2.0000      -0.448721       -12.2103
  29   2.0000      -0.437942       -11.9170
  30   2.0000      -0.402377       -10.9492
  31   0.0000       0.105831         2.8798
  32   0.0000       0.125520         3.4156
  33   0.0000       0.138082         3.7574
  34   0.0000       0.141705         3.8560
  35   0.0000       0.152486         4.1494

MULLIKEN ATOMIC CHARGES
-----------------------
   0 O :   -0.239625
   1 C :    0.152655
   2 C :   -0.143172
   3 C :   -0.183604
   4 C :    0.042243
   5 N :   -0.323727
   6 C :    0.237090
   7 C :   -0.272334
   8 N :   -0.027999
   9 H :    0.179659
  10 H :    0.186303
  11 H :    0.170935
  12 H :    0.221577
Sum of atomic charges:    0.0000000

LOEWDIN ATOMIC CHARGES
----------------------
   0 O :    0.178528
   1 C :   -0.289590
   2 C :   -0.066215
   3 C :   -0.066097
   4 C :   -0.147204
   5 N :    0.053837
   6 C :   -0.237089
   7 C :   -0.143394
   8 N :    0.094331
   9 H :    0.155976
  10 H :    0.147164
  11 H :    0.140178
  12 H :    0.179576

  Mayer bond orders larger than 0.1
B(  0-O ,  1-C ) :   2.0590 B(  1-C ,  2-C ) :   0.9242 B(  1-C ,  4-C ) :   0.8386
B(  2-C ,  3-C ) :   0.8243 B(  2-C ,  4-C ) :  -0.1018 B(  2-C ,  6-C ) :   0.8093
B(  2-C ,  9-H ) :   0.8997 B(  3-C ,  4-C ) :   0.8852 B(  3-C ,  6-C ) :   0.8358
B(  3-C , 10-H ) :   0.8720 B(  4-C ,  5-N ) :   0.8492 B(  4-C , 11-H ) :   0.8973
B(  5-N ,  6-C ) :   0.9647 B(  5-N , 12-H ) :   0.8602 B(  6-C ,  7-C ) :   0.8713
B(  7-C ,  8-N ) :   2.8589

MP2 TOTAL ENERGY:     -414.841961873 Eh
FINAL SINGLE POINT ENERGY      -414.841961872571

DIPOLE MOMENT
-------------
                                X             Y             Z
Electronic contribution:     -1.42085      -0.26499      -1.36631
Nuclear contribution   :      2.13789       0.64989       2.56326
                        -----------------------------------------
Total Dipole Moment    :      0.71704       0.38490       1.19696
                        -----------------------------------------
Magnitude (a.u.)       :      1.44741
Magnitude (Debye)      :      3.67903

                             ****ORCA TERMINATED NORMALLY****
TOTAL RUN TIME: 0 days 0 hours 14 minutes 4 seconds 324 msec
