                         Program Version 3.0.3 - RELEASE   -
|  1> ! RI-MP2 RIJK def2-TZVP def2-TZVP/C def2-TZVP/JK TIGHTSCF
|  2> % maxcore 2000
|  3> % mp2 density relaxed end
|  4> *xyz 0 1
|  5>  C        0.0232230577     1.5134022814     0.0470313277
|  6>  C        0.0069518569    -0.0033893374    -0.0205305495
|  7>  C        0.6637491877    -0.6354955208    -1.2698383810
|  8>  C        0.1481616053    -2.0649154897    -1.0880201731
|  9>  O        0.8352533046    -2.6471896220     0.0665713530
| 10>  C        1.0092161841    -1.7890758937     1.1006736316
| 11>  N        0.6800882789    -0.5648398382     1.1814276130
| 12>  C       -1.3004017562    -1.8325809532    -0.7003680536
| 13>  C       -1.3774042849    -0.6562230784    -0.0732595602
| 14>  H        1.0518775694     1.8863495547     0.0514286675
| 15>  H       -0.5025435425     1.9485673998    -0.8092123302
| 16>  H       -0.4580570380     1.8572309586     0.9675398901
| 17>  H        0.2714418511    -0.2029625701    -2.1936329010
| 18>  H        1.7544058485    -0.5622766627    -1.2628267226
| 19>  H        0.3347545412    -2.7611346206    -1.9050157853
| 20>  H        1.4961480250    -2.2952938401     1.9326799850
| 21>  H       -2.0821571266    -2.5743509741    -0.8038479790
| 22>  H       -2.2440566223    -0.2409753935     0.4281614073
| 23> *
| 24>
| 25>                          ****END OF INPUT****

CARTESIAN COORDINATES (ANGSTROEM)
---------------------------------
  C      0.023223    1.513402    0.047031
  C      0.006952   -0.003389   -0.020531
  C      0.663749   -0.635496   -1.269838
  C      0.148162   -2.064915   -1.088020
  O      0.835253   -2.647190    0.066571
  C      1.009216   -1.789076    1.100674
  N      0.680088   -0.564840    1.181428
  C     -1.300402   -1.832581   -0.700368
  C     -1.377404   -0.656223   -0.073260
  H      1.051878    1.886350    0.051429
  H     -0.502544    1.948567   -0.809212
  H     -0.458057    1.857231    0.967540
  H      0.271442   -0.202963   -2.193633
  H      1.754406   -0.562277   -1.262827
  H      0.334755   -2.761135   -1.905016
  H      1.496148   -2.295294    1.932680
  H     -2.082157   -2.574351   -0.803848
  H     -2.244057   -0.240975    0.428161

 Total Charge           Charge          ....    0
 Multiplicity           Mult            ....    1
 Number of Electrons    NEL             ....   66
 Basis Dimension        Dim             ....  333

ORBITAL ENERGIES
----------------

  NO   OCC          E(Eh)            E(eV)
   0   2.0000     -20.592446      -560.3489
   1   2.0000     -15.539777      -422.8588
   2   2.0000     -11.327336      -308.2325
   3   2.0000     -11.301773      -307.5369
   4   2.0000     -11.272826      -306.7492
   5   2.0000     -11.240099      -305.8586
   6   2.0000     -11.232410      -305.6494
   7   2.0000     -11.230696      -305.6028
   8   2.0000     -11.214488      -305.1617
   9   2.0000      -1.423228       -38.7280
  10   2.0000      -1.220654       -33.2157
  11   2.0000      -1.135852       -30.9081
  12   2.0000      -1.007746       -27.4222
  13   2.0000      -0.981569       -26.7098
  14   2.0000      -0.899133       -24.4667
  15   2.0000      -0.858297       -23.3555
  16   2.0000      -0.753903       -20.5148
  17   2.0000      -0.733246       -19.9526
  18   2.0000      -0.710283       -19.3278
  19   2.0000      -0.663733       -18.0611
  20   2.0000      -0.629131       -17.1195
  21   2.0000      -0.626779       -17.0555
  22   2.0000      -0.599377       -16.3099
  23   2.0000      -0.572133       -15.5685
  24   2.0000      -0.549653       -14.9568
  25   2.0000      -0.536650       -14.6030
  26   2.0000      -0.522467       -14.2171
  27   2.0000      -0.511451       -13.9173
  28   2.0000      -0.489450       -13.3186
  29   2.0000      -0.475043       -12.9266
  30   2.0000      -0.413097       -11.2409
  31   2.0000      -0.381889       -10.3917
  32   2.0000      -0.358007        -9.7419
  33   0.0000       0.130038         3.5385
  34   0.0000       0.143243         3.8979
  35   0.0000       0.161989         4.4079
  36   0.0000       0.171663         4.6712
  37   0.0000       0.180083         4.9003

MULLIKEN ATOMIC CHARGES
-----------------------
   0 C :   -0.397896
   1 C :    0.301001
   2 C :   -0.312492
   3 C :    0.122411
   4 O :   -0.266710
   5 C :    0.082577
   6 N :   -0.297871
   7 C :   -0.206557
   8 C :   -0.230799
   9 H :    0.134077
  10 H :    0.123762
  11 H :    0.136115
  12 H :    0.126463
  13 H :    0.138110
  14 H :    0.135521
  15 H :    0.134963
  16 H :    0.141176
  17 H :    0.136147
Sum of atomic charges:   -0.0000000

LOEWDIN ATOMIC CHARGES
----------------------
   0 C :   -0.266907
   1 C :   -0.317167
   2 C :   -0.183606
   3 C :   -0.242963
   4 O :    0.239687
   5 C :   -0.352731
   6 N :    0.111224
   7 C :   -0.130768
   8 C :   -0.089558
   9 H :    0.129853
  10 H :    0.126205
  11 H :    0.130440
  12 H :    0.148430
  13 H :    0.143716
  14 H :    0.142035
  15 H :    0.131996
  16 H :    0.138188
  17 H :    0.141927

  Mayer bond orders larger than 0.1
B(  0-C ,  1-C ) :   0.8750 B(  0-C ,  9-H ) :   0.9412 B(  0-C , 10-H ) :   0.9411
B(  0-C , 11-H ) :   0.9424 B(  1-C ,  2-C ) :   0.9320 B(  1-C ,  6-N ) :   0.8424
B(  1-C ,  8-C ) :   0.9049 B(  2-C ,  3-C ) :   0.9541 B(  2-C , 12-H ) :   0.9183
B(  2-C , 13-H ) :   0.9213 B(  3-C ,  4-O ) :   0.8146 B(  3-C ,  7-C ) :   0.9383
B(  3-C , 14-H ) :   0.9298 B(  4-O ,  5-C ) :   1.0880 B(  5-C ,  6-N ) :   1.8501
B(  5-C , 15-H ) :   0.9228 B(  7-C ,  8-C ) :   1.7526 B(  7-C , 16-H ) :   0.9255
B(  8-C , 17-H ) :   0.9213

MP2 TOTAL ENERGY:     -401.274634691 Eh
FINAL SINGLE POINT ENERGY      -401.274634690824

DIPOLE MOMENT
-------------
                                X             Y             Z
Electronic contribution:      0.89160      -5.43372       1.95479
Nuclear contribution   :     -1.20333       5.36724      -2.67197
                        -----------------------------------------
Total Dipole Moment    :     -0.31173      -0.06648      -0.71718
                        -----------------------------------------
Magnitude (a.u.)       :      0.78482
Magnitude (Debye)      :      1.99486

                             ****ORCA TERMINATED NORMALLY****
TOTAL RUN TIME: 0 days 0 hours 21 minutes 51 seconds 323 msec
