                         Program Version 3.0.3 - RELEASE   -
|  1> ! RI-MP2 RIJK def2-TZVP def2-TZVP/C def2-TZVP/JK TIGHTSCF
|  2> % maxcore 2000
|  3> % mp2 density relaxed end
|  4> *xyz 0 1
|  5>  C        0.0934023444     1.4154519856     0.0086300205
|  6>  N       -0.0040202269    -0.0283309796     0.0019015257
|  7>  C       -0.0127657586    -0.8207277741    -1.1332303301
|  8>  C       -0.0090382234    -0.2493272467    -2.5129701502
|  9>  C       -0.0272243539    -2.1328723816    -0.7198323730
| 10>  C       -0.0194613617    -2.1404627936     0.7012468818
| 11>  C       -0.0000688845    -0.8328261388     1.1285336491
| 12>  C        0.0192681173    -0.2766956685     2.5143887555
| 13>  H        1.1359128086     1.7594797995    -0.0018254936
| 14>  H       -0.4116733977     1.8293937085    -0.8665529400
| 15>  H       -0.3905983401     1.8192948188     0.9001762225
| 16>  H        0.8742672757     0.3705902933    -2.7143314234
| 17>  H       -0.0093806546    -1.0646187051    -3.2402196803
| 18>  H       -0.8914690852     0.3713243736    -2.7183665225
| 19>  H       -0.0488497330    -2.9908890487    -1.3751632078
| 20>  H       -0.0339594869    -3.0054396687     1.3475624473
| 21>  H        0.9051999307     0.3403566030     2.7129739601
| 22>  H       -0.8604423269     0.3420621532     2.7364530285
| 23>  H        0.0263473964    -1.1000776300     3.2324348499
| 24> *
| 25>
| 26>                          ****END OF INPUT****

CARTESIAN COORDINATES (ANGSTROEM)
---------------------------------
  C      0.093402    1.415452    0.008630
  N     -0.004020   -0.028331    0.001902
  C     -0.012766   -0.820728   -1.133230
  C     -0.009038   -0.249327   -2.512970
  C     -0.027224   -2.132872   -0.719832
  C     -0.019461   -2.140463    0.701247
  C     -0.000069   -0.832826    1.128534
  C      0.019268   -0.276696    2.514389
  H      1.135913    1.759480   -0.001825
  H     -0.411673    1.829394   -0.866553
  H     -0.390598    1.819295    0.900176
  H      0.874267    0.370590   -2.714331
  H     -0.009381   -1.064619   -3.240220
  H     -0.891469    0.371324   -2.718367
  H     -0.048850   -2.990889   -1.375163
  H     -0.033959   -3.005440    1.347562
  H      0.905200    0.340357    2.712974
  H     -0.860442    0.342062    2.736453
  H      0.026347   -1.100078    3.232435

 Total Charge           Charge          ....    0
 Multiplicity           Mult            ....    1
 Number of Electrons    NEL             ....   60
 Basis Dimension        Dim             ....  314

ORBITAL ENERGIES
----------------

  NO   OCC          E(Eh)            E(eV)
   0   2.0000     -15.591010      -424.2530
   1   2.0000     -11.266451      -306.5757
   2   2.0000     -11.244078      -305.9669
   3   2.0000     -11.244025      -305.9655
   4   2.0000     -11.225756      -305.4684
   5   2.0000     -11.225744      -305.4680
   6   2.0000     -11.192492      -304.5632
   7   2.0000     -11.191450      -304.5349
   8   2.0000      -1.288924       -35.0734
   9   2.0000      -1.065835       -29.0028
  10   2.0000      -1.040886       -28.3239
  11   2.0000      -0.973062       -26.4784
  12   2.0000      -0.924410       -25.1545
  13   2.0000      -0.870395       -23.6846
  14   2.0000      -0.762776       -20.7562
  15   2.0000      -0.719048       -19.5663
  16   2.0000      -0.657977       -17.9045
  17   2.0000      -0.637209       -17.3393
  18   2.0000      -0.605227       -16.4691
  19   2.0000      -0.576928       -15.6990
  20   2.0000      -0.568093       -15.4586
  21   2.0000      -0.564162       -15.3516
  22   2.0000      -0.548846       -14.9349
  23   2.0000      -0.545216       -14.8361
  24   2.0000      -0.526536       -14.3278
  25   2.0000      -0.508314       -13.8319
  26   2.0000      -0.496104       -13.4997
  27   2.0000      -0.493672       -13.4335
  28   2.0000      -0.327383        -8.9086
  29   2.0000      -0.272504        -7.4152
  30   0.0000       0.127328         3.4648
  31   0.0000       0.151696         4.1279
  32   0.0000       0.172835         4.7031
  33   0.0000       0.177903         4.8410
  34   0.0000       0.197227         5.3668

MULLIKEN ATOMIC CHARGES
-----------------------
   0 C :   -0.337834
   1 N :   -0.025205
   2 C :    0.083685
   3 C :   -0.466701
   4 C :   -0.210362
   5 C :   -0.210440
   6 C :    0.084037
   7 C :   -0.467228
   8 H :    0.149570
   9 H :    0.150179
  10 H :    0.150394
  11 H :    0.142344
  12 H :    0.149765
  13 H :    0.140523
  14 H :    0.117201
  15 H :    0.117210
  16 H :    0.142550
  17 H :    0.140544
  18 H :    0.149765
Sum of atomic charges:   -0.0000000

LOEWDIN ATOMIC CHARGES
----------------------
   0 C :   -0.270954
   1 N :    0.258504
   2 C :   -0.240810
   3 C :   -0.284863
   4 C :   -0.183910
   5 C :   -0.183941
   6 C :   -0.240827
   7 C :   -0.284966
   8 H :    0.120797
   9 H :    0.126848
  10 H :    0.126946
  11 H :    0.127328
  12 H :    0.137734
  13 H :    0.126406
  14 H :    0.137122
  15 H :    0.137122
  16 H :    0.127320
  17 H :    0.126395
  18 H :    0.137749

  Mayer bond orders larger than 0.1
B(  0-C ,  1-N ) :   0.8732 B(  0-C ,  8-H ) :   0.9271 B(  0-C ,  9-H ) :   0.9313
B(  0-C , 10-H ) :   0.9313 B(  1-N ,  2-C ) :   1.1414 B(  1-N ,  6-C ) :   1.1416
B(  2-C ,  3-C ) :   0.8592 B(  2-C ,  4-C ) :   1.4502 B(  3-C , 11-H ) :   0.9387
B(  3-C , 12-H ) :   0.9473 B(  3-C , 13-H ) :   0.9393 B(  4-C ,  5-C ) :   1.2536
B(  4-C , 14-H ) :   0.9413 B(  5-C ,  6-C ) :   1.4502 B(  5-C , 15-H ) :   0.9413
B(  6-C ,  7-C ) :   0.8587 B(  7-C , 16-H ) :   0.9389 B(  7-C , 17-H ) :   0.9392
B(  7-C , 18-H ) :   0.9472

MP2 TOTAL ENERGY:     -327.375879061 Eh
FINAL SINGLE POINT ENERGY      -327.375879060601

DIPOLE MOMENT
-------------
                                X             Y             Z
Electronic contribution:     -0.17659      -3.75222      -0.01882
Nuclear contribution   :      0.20413       4.64018       0.02360
                        -----------------------------------------
Total Dipole Moment    :      0.02754       0.88796       0.00478
                        -----------------------------------------
Magnitude (a.u.)       :      0.88840
Magnitude (Debye)      :      2.25813

                             ****ORCA TERMINATED NORMALLY****
TOTAL RUN TIME: 0 days 0 hours 13 minutes 47 seconds 478 msec
