                         Program Version 3.0.3 - RELEASE   -
|  1> ! RI-MP2 RIJK def2-TZVP def2-TZVP/C def2-TZVP/JK TIGHTSCF
|  2> % maxcore 2000
|  3> % mp2 density relaxed end
|  4> *xyz 0 1
|  5>  C        0.4205989348    -1.2553946366     0.1744299153
|  6>  C        0.2892501786    -0.0693307136     0.3099764962
|  7>  C        0.1299984651     1.3714020341     0.4528497980
|  8>  N        0.8153281443     2.0800961012    -0.6203243736
|  9>  C        0.8137035866     3.4349057100    -0.6843183926
| 10>  N        0.2934453198     4.1477354113     0.2397183612
| 11>  C        0.3504573213     5.5923370394     0.1545504246
| 12>  C        0.9861732142     6.1591538309    -1.0502317738
| 13>  N        1.4936554005     6.5473111211    -2.0138663950
| 14>  H        0.5323049620    -2.3064784913     0.0698027920
| 15>  H       -0.9365388357     1.6385217288     0.4666760118
| 16>  H        0.5332049237     1.7109944255     1.4148925516
| 17>  H        1.0999975808     1.5522572208    -1.4266576222
| 18>  H        1.3047678705     3.8351124991    -1.5783758457
| 19>  H       -0.6674576125     5.9992106127     0.2168580810
| 20>  H        0.8820131559     5.9893094367     1.0297993912
| 21> *
| 22>
| 23>                          ****END OF INPUT****

CARTESIAN COORDINATES (ANGSTROEM)
---------------------------------
  C      0.420599   -1.255395    0.174430
  C      0.289250   -0.069331    0.309976
  C      0.129998    1.371402    0.452850
  N      0.815328    2.080096   -0.620324
  C      0.813704    3.434906   -0.684318
  N      0.293445    4.147735    0.239718
  C      0.350457    5.592337    0.154550
  C      0.986173    6.159154   -1.050232
  N      1.493655    6.547311   -2.013866
  H      0.532305   -2.306478    0.069803
  H     -0.936539    1.638522    0.466676
  H      0.533205    1.710994    1.414893
  H      1.099998    1.552257   -1.426658
  H      1.304768    3.835112   -1.578376
  H     -0.667458    5.999211    0.216858
  H      0.882013    5.989309    1.029799

 Total Charge           Charge          ....    0
 Multiplicity           Mult            ....    1
 Number of Electrons    NEL             ....   64
 Basis Dimension        Dim             ....  321

ORBITAL ENERGIES
----------------

  NO   OCC          E(Eh)            E(eV)
   0   2.0000     -15.596885      -424.4128
   1   2.0000     -15.574696      -423.8090
   2   2.0000     -15.554973      -423.2723
   3   2.0000     -11.330449      -308.3172
   4   2.0000     -11.307339      -307.6883
   5   2.0000     -11.301508      -307.5297
   6   2.0000     -11.275846      -306.8314
   7   2.0000     -11.250742      -306.1482
   8   2.0000     -11.241318      -305.8918
   9   2.0000      -1.300533       -35.3893
  10   2.0000      -1.229353       -33.4524
  11   2.0000      -1.199922       -32.6515
  12   2.0000      -1.068192       -29.0670
  13   2.0000      -1.005253       -27.3543
  14   2.0000      -0.964200       -26.2372
  15   2.0000      -0.820524       -22.3276
  16   2.0000      -0.771268       -20.9873
  17   2.0000      -0.726141       -19.7593
  18   2.0000      -0.718485       -19.5510
  19   2.0000      -0.656953       -17.8766
  20   2.0000      -0.642782       -17.4910
  21   2.0000      -0.636973       -17.3329
  22   2.0000      -0.622442       -16.9375
  23   2.0000      -0.601847       -16.3771
  24   2.0000      -0.561963       -15.2918
  25   2.0000      -0.511890       -13.9292
  26   2.0000      -0.473229       -12.8772
  27   2.0000      -0.465523       -12.6675
  28   2.0000      -0.438958       -11.9446
  29   2.0000      -0.410179       -11.1615
  30   2.0000      -0.404276       -11.0009
  31   2.0000      -0.366524        -9.9736
  32   0.0000       0.133745         3.6394
  33   0.0000       0.138056         3.7567
  34   0.0000       0.149981         4.0812
  35   0.0000       0.153631         4.1805
  36   0.0000       0.159937         4.3521

MULLIKEN ATOMIC CHARGES
-----------------------
   0 C :   -0.091092
   1 C :   -0.058511
   2 C :   -0.223720
   3 N :   -0.311813
   4 C :    0.085526
   5 N :   -0.309261
   6 C :   -0.024249
   7 C :   -0.202360
   8 N :   -0.070726
   9 H :    0.198648
  10 H :    0.153422
  11 H :    0.160250
  12 H :    0.255427
  13 H :    0.123347
  14 H :    0.157658
  15 H :    0.157456
Sum of atomic charges:   -0.0000000

LOEWDIN ATOMIC CHARGES
----------------------
   0 C :   -0.087910
   1 C :   -0.114102
   2 C :   -0.258569
   3 N :    0.088762
   4 C :   -0.322537
   5 N :    0.051537
   6 C :   -0.292213
   7 C :   -0.201225
   8 N :    0.054175
   9 H :    0.129531
  10 H :    0.152647
  11 H :    0.157197
  12 H :    0.191359
  13 H :    0.135205
  14 H :    0.158106
  15 H :    0.158036

  Mayer bond orders larger than 0.1
B(  0-C ,  1-C ) :   2.6339 B(  0-C ,  2-C ) :  -0.1118 B(  0-C ,  9-H ) :   0.8911
B(  1-C ,  2-C ) :   1.0270 B(  2-C ,  3-N ) :   0.8714 B(  2-C , 10-H ) :   0.9441
B(  2-C , 11-H ) :   0.9340 B(  3-N ,  4-C ) :   1.1556 B(  3-N , 12-H ) :   0.8724
B(  4-C ,  5-N ) :   1.7138 B(  4-C , 13-H ) :   0.9003 B(  5-N ,  6-C ) :   0.9766
B(  6-C ,  7-C ) :   0.8604 B(  6-C , 14-H ) :   0.9148 B(  6-C , 15-H ) :   0.9124
B(  7-C ,  8-N ) :   2.8310

MP2 TOTAL ENERGY:     -396.196079382 Eh
FINAL SINGLE POINT ENERGY      -396.196079382348

DIPOLE MOMENT
-------------
                                X             Y             Z
Electronic contribution:      1.15206       2.22642      -1.93519
Nuclear contribution   :     -1.49079      -3.32696       2.39963
                        -----------------------------------------
Total Dipole Moment    :     -0.33873      -1.10054       0.46443
                        -----------------------------------------
Magnitude (a.u.)       :      1.24162
Magnitude (Debye)      :      3.15594

                             ****ORCA TERMINATED NORMALLY****
TOTAL RUN TIME: 0 days 0 hours 12 minutes 2 seconds 394 msec
