                         Program Version 3.0.3 - RELEASE   -
|  1> ! RI-MP2 RIJK def2-TZVP def2-TZVP/C def2-TZVP/JK TIGHTSCF
|  2> % maxcore 2000
|  3> % mp2 density relaxed end
|  4> *xyz 0 1
|  5>  O       -0.9263974245     1.2342500681     0.0138022699
|  6>  C        0.2153838245     0.9542271907    -0.2281823221
|  7>  C        1.4221623435     1.9036629928    -0.2988281520
|  8>  O        2.4941295329     1.4025504616    -0.5619202610
|  9>  N        1.2606473007     3.2603396271    -0.0681526891
| 10>  C        0.0945647824     3.9747718216     0.2429061659
| 11>  C        0.4363974483     5.2836295374     0.3780725673
| 12>  C        1.8522840369     5.3991845440     0.1470324862
| 13>  C        2.3319251365     4.1563870912    -0.1223848257
| 14>  H        0.5580062754    -0.0777440565    -0.4416532453
| 15>  H       -0.8454805930     3.4634200741     0.3314445901
| 16>  H       -0.2431070125     6.0872979507     0.6171263053
| 17>  H        2.4364636020     6.3060144097     0.1798488340
| 18>  H        3.3160450572     3.7862493777    -0.3501787435
| 19> *
| 20>
| 21>                          ****END OF INPUT****

CARTESIAN COORDINATES (ANGSTROEM)
---------------------------------
  O     -0.926397    1.234250    0.013802
  C      0.215384    0.954227   -0.228182
  C      1.422162    1.903663   -0.298828
  O      2.494130    1.402550   -0.561920
  N      1.260647    3.260340   -0.068153
  C      0.094565    3.974772    0.242906
  C      0.436397    5.283630    0.378073
  C      1.852284    5.399185    0.147032
  C      2.331925    4.156387   -0.122385
  H      0.558006   -0.077744   -0.441653
  H     -0.845481    3.463420    0.331445
  H     -0.243107    6.087298    0.617126
  H      2.436464    6.306014    0.179849
  H      3.316045    3.786249   -0.350179

 Total Charge           Charge          ....    0
 Multiplicity           Mult            ....    1
 Number of Electrons    NEL             ....   64
 Basis Dimension        Dim             ....  309

ORBITAL ENERGIES
----------------

  NO   OCC          E(Eh)            E(eV)
   0   2.0000     -20.609115      -560.8025
   1   2.0000     -20.579355      -559.9927
   2   2.0000     -15.642522      -425.6547
   3   2.0000     -11.399180      -310.1875
   4   2.0000     -11.375619      -309.5463
   5   2.0000     -11.274629      -306.7983
   6   2.0000     -11.272804      -306.7486
   7   2.0000     -11.237872      -305.7980
   8   2.0000     -11.236309      -305.7555
   9   2.0000      -1.452828       -39.5334
  10   2.0000      -1.432051       -38.9681
  11   2.0000      -1.318638       -35.8820
  12   2.0000      -1.097451       -29.8632
  13   2.0000      -1.006893       -27.3990
  14   2.0000      -0.958106       -26.0714
  15   2.0000      -0.862257       -23.4632
  16   2.0000      -0.801850       -21.8195
  17   2.0000      -0.766935       -20.8694
  18   2.0000      -0.730390       -19.8749
  19   2.0000      -0.703989       -19.1565
  20   2.0000      -0.678012       -18.4496
  21   2.0000      -0.649246       -17.6669
  22   2.0000      -0.632410       -17.2087
  23   2.0000      -0.601320       -16.3627
  24   2.0000      -0.575698       -15.6655
  25   2.0000      -0.572844       -15.5879
  26   2.0000      -0.555994       -15.1294
  27   2.0000      -0.529393       -14.4055
  28   2.0000      -0.519389       -14.1333
  29   2.0000      -0.450495       -12.2586
  30   2.0000      -0.377897       -10.2831
  31   2.0000      -0.327563        -8.9134
  32   0.0000       0.039716         1.0807
  33   0.0000       0.130818         3.5597
  34   0.0000       0.165886         4.5140
  35   0.0000       0.171584         4.6690
  36   0.0000       0.188771         5.1367

MULLIKEN ATOMIC CHARGES
-----------------------
   0 O :   -0.242051
   1 C :    0.095612
   2 C :    0.272624
   3 O :   -0.299527
   4 N :   -0.007173
   5 C :   -0.150878
   6 C :   -0.162569
   7 C :   -0.137945
   8 C :   -0.143899
   9 H :    0.132017
  10 H :    0.188491
  11 H :    0.142463
  12 H :    0.143110
  13 H :    0.169725
Sum of atomic charges:    0.0000000

LOEWDIN ATOMIC CHARGES
----------------------
   0 O :    0.167912
   1 C :   -0.243245
   2 C :   -0.378127
   3 O :    0.157445
   4 N :    0.276270
   5 C :   -0.179300
   6 C :   -0.171706
   7 C :   -0.166413
   8 C :   -0.172764
   9 H :    0.131541
  10 H :    0.145222
  11 H :    0.143747
  12 H :    0.143777
  13 H :    0.145641

  Mayer bond orders larger than 0.1
B(  0-O ,  1-C ) :   1.9431 B(  1-C ,  2-C ) :   0.8376 B(  1-C ,  9-H ) :   0.9319
B(  2-C ,  3-O ) :   1.8775 B(  2-C ,  4-N ) :   1.0384 B(  4-N ,  5-C ) :   1.0615
B(  4-N ,  8-C ) :   1.0183 B(  5-C ,  6-C ) :   1.5531 B(  5-C , 10-H ) :   0.9057
B(  6-C ,  7-C ) :   1.1558 B(  6-C , 11-H ) :   0.9305 B(  7-C ,  8-C ) :   1.5466
B(  7-C , 12-H ) :   0.9313 B(  8-C , 13-H ) :   0.9263

MP2 TOTAL ENERGY:     -436.005058836 Eh
FINAL SINGLE POINT ENERGY      -436.005058836209

DIPOLE MOMENT
-------------
                                X             Y             Z
Electronic contribution:     -0.23000      -4.01034      -0.55801
Nuclear contribution   :      0.15737       4.29061       0.61286
                        -----------------------------------------
Total Dipole Moment    :     -0.07263       0.28027       0.05486
                        -----------------------------------------
Magnitude (a.u.)       :      0.29468
Magnitude (Debye)      :      0.74902

                             ****ORCA TERMINATED NORMALLY****
TOTAL RUN TIME: 0 days 0 hours 13 minutes 21 seconds 273 msec
