                         Program Version 3.0.3 - RELEASE   -
|  1> ! RI-MP2 RIJK def2-TZVP def2-TZVP/C def2-TZVP/JK TIGHTSCF
|  2> % maxcore 2000
|  3> % mp2 density relaxed end
|  4> *xyz 0 1
|  5>  C       -0.3305755885     1.0586191403    -0.4139537426
|  6>  C        1.0634506660     1.0693891054     0.1136427787
|  7>  N        0.2658215412    -0.1489197031     0.1394930706
|  8>  C       -0.1793595748    -0.6618491050     1.4197104350
|  9>  C       -0.7084515940     0.2442492845     2.5929054967
| 10>  C       -1.8011426070    -0.8070136854     2.7946806531
| 11>  C       -2.2172542161    -1.4661821064     4.0326416457
| 12>  O       -3.0807459886    -0.5510950891     3.3391890368
| 13>  C       -1.5345022179    -1.4220152304     1.4217294786
| 14>  H       -1.0833294845     1.5945631994     0.1599647930
| 15>  H       -0.5151584701     1.0350443399    -1.4843429515
| 16>  H        1.9147811313     1.0677731076    -0.5615655307
| 17>  H        1.2268064610     1.5958908732     1.0527151325
| 18>  H        0.6213185544    -1.3057652568     1.7963158215
| 19>  H       -0.0306599580     0.4468631795     3.4250136140
| 20>  H       -1.1409845763     1.1881652041     2.2477527179
| 21>  H       -2.5328937419    -2.5088791825     4.0135341608
| 22>  H       -1.8381347350    -1.1126126945     4.9910777586
| 23>  H       -2.2142993448    -1.0089487405     0.6695990441
| 24>  H       -1.5140477964    -2.5097211403     1.3299189872
| 25> *
| 26>
| 27>                          ****END OF INPUT****

CARTESIAN COORDINATES (ANGSTROEM)
---------------------------------
  C     -0.330576    1.058619   -0.413954
  C      1.063451    1.069389    0.113643
  N      0.265822   -0.148920    0.139493
  C     -0.179360   -0.661849    1.419710
  C     -0.708452    0.244249    2.592905
  C     -1.801143   -0.807014    2.794681
  C     -2.217254   -1.466182    4.032642
  O     -3.080746   -0.551095    3.339189
  C     -1.534502   -1.422015    1.421729
  H     -1.083329    1.594563    0.159965
  H     -0.515158    1.035044   -1.484343
  H      1.914781    1.067773   -0.561566
  H      1.226806    1.595891    1.052715
  H      0.621319   -1.305765    1.796316
  H     -0.030660    0.446863    3.425014
  H     -1.140985    1.188165    2.247753
  H     -2.532894   -2.508879    4.013534
  H     -1.838135   -1.112613    4.991078
  H     -2.214299   -1.008949    0.669599
  H     -1.514048   -2.509721    1.329919

 Total Charge           Charge          ....    0
 Multiplicity           Mult            ....    1
 Number of Electrons    NEL             ....   68
 Basis Dimension        Dim             ....  345

ORBITAL ENERGIES
----------------

  NO   OCC          E(Eh)            E(eV)
   0   2.0000     -20.564799      -559.5966
   1   2.0000     -15.561375      -423.4465
   2   2.0000     -11.290944      -307.2422
   3   2.0000     -11.280390      -306.9550
   4   2.0000     -11.266053      -306.5649
   5   2.0000     -11.256490      -306.3047
   6   2.0000     -11.255551      -306.2791
   7   2.0000     -11.230080      -305.5860
   8   2.0000     -11.225817      -305.4700
   9   2.0000      -1.410570       -38.3836
  10   2.0000      -1.277190       -34.7541
  11   2.0000      -1.124715       -30.6051
  12   2.0000      -0.951839       -25.9008
  13   2.0000      -0.918814       -25.0022
  14   2.0000      -0.906726       -24.6733
  15   2.0000      -0.845231       -22.9999
  16   2.0000      -0.799548       -21.7568
  17   2.0000      -0.742193       -20.1961
  18   2.0000      -0.696837       -18.9619
  19   2.0000      -0.676601       -18.4112
  20   2.0000      -0.669924       -18.2296
  21   2.0000      -0.644773       -17.5452
  22   2.0000      -0.597708       -16.2645
  23   2.0000      -0.563720       -15.3396
  24   2.0000      -0.555646       -15.1199
  25   2.0000      -0.528361       -14.3774
  26   2.0000      -0.526559       -14.3284
  27   2.0000      -0.502799       -13.6819
  28   2.0000      -0.487088       -13.2543
  29   2.0000      -0.462958       -12.5977
  30   2.0000      -0.436486       -11.8774
  31   2.0000      -0.429136       -11.6774
  32   2.0000      -0.424381       -11.5480
  33   2.0000      -0.369485       -10.0542
  34   0.0000       0.141280         3.8444
  35   0.0000       0.151682         4.1275
  36   0.0000       0.159828         4.3492
  37   0.0000       0.172406         4.6914
  38   0.0000       0.184976         5.0335

MULLIKEN ATOMIC CHARGES
-----------------------
   0 C :   -0.200186
   1 C :   -0.165477
   2 N :   -0.213142
   3 C :   -0.064623
   4 C :   -0.196550
   5 C :    0.086455
   6 C :   -0.109548
   7 O :   -0.333731
   8 C :   -0.149569
   9 H :    0.125007
  10 H :    0.131970
  11 H :    0.130789
  12 H :    0.124960
  13 H :    0.101626
  14 H :    0.130006
  15 H :    0.120609
  16 H :    0.116395
  17 H :    0.114857
  18 H :    0.119259
  19 H :    0.130893
Sum of atomic charges:    0.0000000

LOEWDIN ATOMIC CHARGES
----------------------
   0 C :   -0.269292
   1 C :   -0.263077
   2 N :    0.112204
   3 C :   -0.260982
   4 C :   -0.187022
   5 C :   -0.323096
   6 C :   -0.237452
   7 O :    0.164596
   8 C :   -0.172053
   9 H :    0.120765
  10 H :    0.124510
  11 H :    0.123734
  12 H :    0.123887
  13 H :    0.149560
  14 H :    0.129620
  15 H :    0.142610
  16 H :    0.120913
  17 H :    0.120467
  18 H :    0.148338
  19 H :    0.131769

  Mayer bond orders larger than 0.1
B(  0-C ,  1-C ) :   0.9341 B(  0-C ,  2-N ) :   0.8830 B(  0-C ,  9-H ) :   0.9244
B(  0-C , 10-H ) :   0.9268 B(  1-C ,  2-N ) :   0.8828 B(  1-C , 11-H ) :   0.9269
B(  1-C , 12-H ) :   0.9220 B(  2-N ,  3-C ) :   0.9452 B(  3-C ,  4-C ) :   0.9401
B(  3-C ,  8-C ) :   0.9348 B(  3-C , 13-H ) :   0.9227 B(  4-C ,  5-C ) :   0.9104
B(  4-C , 14-H ) :   0.9173 B(  4-C , 15-H ) :   0.9040 B(  5-C ,  6-C ) :   1.0120
B(  5-C ,  7-O ) :   0.9159 B(  5-C ,  8-C ) :   0.8955 B(  6-C ,  7-O ) :   0.9001
B(  6-C , 16-H ) :   0.9155 B(  6-C , 17-H ) :   0.9154 B(  8-C , 18-H ) :   0.8940
B(  8-C , 19-H ) :   0.9248

MP2 TOTAL ENERGY:     -402.379902826 Eh
FINAL SINGLE POINT ENERGY      -402.379902826307

DIPOLE MOMENT
-------------
                                X             Y             Z
Electronic contribution:     -2.71763      -1.51524       1.54027
Nuclear contribution   :      3.30794       1.56363      -1.31223
                        -----------------------------------------
Total Dipole Moment    :      0.59031       0.04839       0.22804
                        -----------------------------------------
Magnitude (a.u.)       :      0.63467
Magnitude (Debye)      :      1.61321

                             ****ORCA TERMINATED NORMALLY****
TOTAL RUN TIME: 0 days 0 hours 16 minutes 28 seconds 978 msec
