                         Program Version 3.0.3 - RELEASE   -
|  1> ! RI-MP2 RIJK def2-TZVP def2-TZVP/C def2-TZVP/JK TIGHTSCF
|  2> % maxcore 2000
|  3> % mp2 density relaxed end
|  4> *xyz 0 1
|  5>  O        0.0070625702     1.3854210715    -0.2007276974
|  6>  N        0.0879107449    -0.0181821326    -0.1565930390
|  7>  C       -1.0489491485    -0.5815374494     0.0117947790
|  8>  C       -1.0063912541    -2.0919813469     0.0627105451
|  9>  C       -1.4364417531    -2.6530168432     1.4346956619
| 10>  C       -2.9607907240    -2.7472112181     1.6171054176
| 11>  O       -3.7021636322    -1.7220334472     0.9787908500
| 12>  C       -3.2841859503    -0.3967934491     1.2504817139
| 13>  C       -2.3627557249     0.1468155926     0.1484755849
| 14>  H        0.9315384807     1.6318378108    -0.3067020876
| 15>  H       -1.6524036989    -2.5062278200    -0.7218444453
| 16>  H        0.0200635701    -2.3951236717    -0.1566330228
| 17>  H       -1.0229164906    -3.6594279833     1.5660117566
| 18>  H       -0.9875976112    -2.0383327746     2.2229440146
| 19>  H       -3.3332809343    -3.6728097361     1.1656018268
| 20>  H       -3.2026793595    -2.7853895248     2.6918357751
| 21>  H       -4.1894073859     0.2200772162     1.2822461129
| 22>  H       -2.8058497597    -0.3229864886     2.2376177624
| 23>  H       -2.1766218819     1.2097651645     0.3145596180
| 24>  H       -2.9074596367     0.0577654399    -0.8013754866
| 25> *
| 26>
| 27>                          ****END OF INPUT****

CARTESIAN COORDINATES (ANGSTROEM)
---------------------------------
  O      0.007063    1.385421   -0.200728
  N      0.087911   -0.018182   -0.156593
  C     -1.048949   -0.581537    0.011795
  C     -1.006391   -2.091981    0.062711
  C     -1.436442   -2.653017    1.434696
  C     -2.960791   -2.747211    1.617105
  O     -3.702164   -1.722033    0.978791
  C     -3.284186   -0.396793    1.250482
  C     -2.362756    0.146816    0.148476
  H      0.931538    1.631838   -0.306702
  H     -1.652404   -2.506228   -0.721844
  H      0.020064   -2.395124   -0.156633
  H     -1.022916   -3.659428    1.566012
  H     -0.987598   -2.038333    2.222944
  H     -3.333281   -3.672810    1.165602
  H     -3.202679   -2.785390    2.691836
  H     -4.189407    0.220077    1.282246
  H     -2.805850   -0.322986    2.237618
  H     -2.176622    1.209765    0.314560
  H     -2.907460    0.057765   -0.801375

 Total Charge           Charge          ....    0
 Multiplicity           Mult            ....    1
 Number of Electrons    NEL             ....   70
 Basis Dimension        Dim             ....  345

ORBITAL ENERGIES
----------------

  NO   OCC          E(Eh)            E(eV)
   0   2.0000     -20.585361      -560.1561
   1   2.0000     -20.554865      -559.3263
   2   2.0000     -15.608816      -424.7375
   3   2.0000     -11.282268      -307.0061
   4   2.0000     -11.278467      -306.9027
   5   2.0000     -11.275267      -306.8156
   6   2.0000     -11.232927      -305.6635
   7   2.0000     -11.231950      -305.6369
   8   2.0000     -11.231210      -305.6167
   9   2.0000      -1.412016       -38.4229
  10   2.0000      -1.376683       -37.4615
  11   2.0000      -1.168666       -31.8010
  12   2.0000      -1.059138       -28.8206
  13   2.0000      -1.031488       -28.0682
  14   2.0000      -0.932879       -25.3849
  15   2.0000      -0.884219       -24.0608
  16   2.0000      -0.795755       -21.6536
  17   2.0000      -0.736586       -20.0435
  18   2.0000      -0.695031       -18.9128
  19   2.0000      -0.683038       -18.5864
  20   2.0000      -0.662153       -18.0181
  21   2.0000      -0.646759       -17.5992
  22   2.0000      -0.615973       -16.7615
  23   2.0000      -0.602899       -16.4057
  24   2.0000      -0.591231       -16.0882
  25   2.0000      -0.574230       -15.6256
  26   2.0000      -0.541279       -14.7289
  27   2.0000      -0.530750       -14.4424
  28   2.0000      -0.511679       -13.9235
  29   2.0000      -0.498895       -13.5756
  30   2.0000      -0.496414       -13.5081
  31   2.0000      -0.458995       -12.4899
  32   2.0000      -0.426605       -11.6085
  33   2.0000      -0.414998       -11.2927
  34   2.0000      -0.376392       -10.2422
  35   0.0000       0.131504         3.5784
  36   0.0000       0.153094         4.1659
  37   0.0000       0.159659         4.3445
  38   0.0000       0.164484         4.4758
  39   0.0000       0.182118         4.9557

MULLIKEN ATOMIC CHARGES
-----------------------
   0 O :   -0.376276
   1 N :   -0.086362
   2 C :   -0.012846
   3 C :   -0.169330
   4 C :   -0.252075
   5 C :   -0.077858
   6 O :   -0.319049
   7 C :   -0.075211
   8 C :   -0.213934
   9 H :    0.335647
  10 H :    0.121133
  11 H :    0.133097
  12 H :    0.130592
  13 H :    0.129627
  14 H :    0.117325
  15 H :    0.108349
  16 H :    0.124486
  17 H :    0.111592
  18 H :    0.146745
  19 H :    0.124346
Sum of atomic charges:    0.0000000

LOEWDIN ATOMIC CHARGES
----------------------
   0 O :   -0.084171
   1 N :    0.022359
   2 C :   -0.281321
   3 C :   -0.224081
   4 C :   -0.269749
   5 C :   -0.329286
   6 O :    0.150426
   7 C :   -0.310317
   8 C :   -0.239109
   9 H :    0.168137
  10 H :    0.149762
  11 H :    0.148565
  12 H :    0.143649
  13 H :    0.138678
  14 H :    0.130029
  15 H :    0.120246
  16 H :    0.130583
  17 H :    0.126169
  18 H :    0.152655
  19 H :    0.156775

  Mayer bond orders larger than 0.1
B(  0-O ,  1-N ) :   0.8046 B(  0-O ,  9-H ) :   0.8441 B(  1-N ,  2-C ) :   1.8628
B(  2-C ,  3-C ) :   0.9513 B(  2-C ,  8-C ) :   0.9585 B(  3-C ,  4-C ) :   0.8678
B(  3-C , 10-H ) :   0.9167 B(  3-C , 11-H ) :   0.9202 B(  4-C ,  5-C ) :   0.9189
B(  4-C , 12-H ) :   0.9192 B(  4-C , 13-H ) :   0.9375 B(  5-C ,  6-O ) :   0.9304
B(  5-C , 14-H ) :   0.9326 B(  5-C , 15-H ) :   0.9489 B(  6-O ,  7-C ) :   0.9090
B(  7-C ,  8-C ) :   0.9254 B(  7-C , 16-H ) :   0.9296 B(  7-C , 17-H ) :   0.9347
B(  8-C , 18-H ) :   0.9149 B(  8-C , 19-H ) :   0.9004

MP2 TOTAL ENERGY:     -439.527037971 Eh
FINAL SINGLE POINT ENERGY      -439.527037971383

DIPOLE MOMENT
-------------
                                X             Y             Z
Electronic contribution:      2.23873       3.68904      -2.62333
Nuclear contribution   :     -2.04660      -3.76424       2.97089
                        -----------------------------------------
Total Dipole Moment    :      0.19213      -0.07520       0.34756
                        -----------------------------------------
Magnitude (a.u.)       :      0.40418
Magnitude (Debye)      :      1.02736

                             ****ORCA TERMINATED NORMALLY****
TOTAL RUN TIME: 0 days 0 hours 17 minutes 45 seconds 548 msec
