                         Program Version 3.0.3 - RELEASE   -
|  1> ! RI-MP2 RIJK def2-TZVP def2-TZVP/C def2-TZVP/JK TIGHTSCF
|  2> % maxcore 2000
|  3> % mp2 density relaxed end
|  4> *xyz 0 1
|  5>  C        0.1197830807     1.5474430799    -0.3513721358
|  6>  C        0.0007031757     0.0749919510    -0.0221382864
|  7>  C        1.1891308925    -0.8504254589    -0.1062857111
|  8>  C        0.5699492423    -0.5357013350     1.2383128516
|  9>  C        1.3340849331     0.2790919874     2.2590057014
| 10>  O        0.4248740695     1.0142926808     3.0927103335
| 11>  C        0.6753734811     0.7449053551     4.4680607310
| 12>  C        1.7590374627    -0.2967436695     4.4736149527
| 13>  C        2.1375943341    -0.5521290740     3.2277270699
| 14>  H        1.1059222926     1.9462847408    -0.0976417499
| 15>  H       -0.0326771097     1.7157754324    -1.4232047352
| 16>  H       -0.6247178318     2.1364559794     0.1941396296
| 17>  H       -0.9454967168    -0.3621086766    -0.3314535235
| 18>  H        1.0641836746    -1.8460272188    -0.5175267986
| 19>  H        2.1524757299    -0.3993132223    -0.3283660508
| 20>  H       -0.0266489916    -1.3228104203     1.6921140557
| 21>  H        1.9879177597     0.9939339296     1.7320627743
| 22>  H        0.9851868923     1.6674723384     4.9867188435
| 23>  H       -0.2499718254     0.3993949023     4.9547879599
| 24>  H        2.1518655843    -0.7395627782     5.3802227580
| 25>  H        2.9011255600    -1.2473202638     2.9033771900
| 26> *
| 27>
| 28>                          ****END OF INPUT****

CARTESIAN COORDINATES (ANGSTROEM)
---------------------------------
  C      0.119783    1.547443   -0.351372
  C      0.000703    0.074992   -0.022138
  C      1.189131   -0.850425   -0.106286
  C      0.569949   -0.535701    1.238313
  C      1.334085    0.279092    2.259006
  O      0.424874    1.014293    3.092710
  C      0.675373    0.744905    4.468061
  C      1.759037   -0.296744    4.473615
  C      2.137594   -0.552129    3.227727
  H      1.105922    1.946285   -0.097642
  H     -0.032677    1.715775   -1.423205
  H     -0.624718    2.136456    0.194140
  H     -0.945497   -0.362109   -0.331454
  H      1.064184   -1.846027   -0.517527
  H      2.152476   -0.399313   -0.328366
  H     -0.026649   -1.322810    1.692114
  H      1.987918    0.993934    1.732063
  H      0.985187    1.667472    4.986719
  H     -0.249972    0.399395    4.954788
  H      2.151866   -0.739563    5.380223
  H      2.901126   -1.247320    2.903377

 Total Charge           Charge          ....    0
 Multiplicity           Mult            ....    1
 Number of Electrons    NEL             ....   68
 Basis Dimension        Dim             ....  351

ORBITAL ENERGIES
----------------

  NO   OCC          E(Eh)            E(eV)
   0   2.0000     -20.545290      -559.0658
   1   2.0000     -11.281664      -306.9897
   2   2.0000     -11.275821      -306.8307
   3   2.0000     -11.231550      -305.6260
   4   2.0000     -11.228798      -305.5511
   5   2.0000     -11.227418      -305.5136
   6   2.0000     -11.223588      -305.4094
   7   2.0000     -11.221148      -305.3430
   8   2.0000     -11.210823      -305.0620
   9   2.0000      -1.370917       -37.3046
  10   2.0000      -1.146537       -31.1988
  11   2.0000      -1.069406       -29.1000
  12   2.0000      -0.997408       -27.1409
  13   2.0000      -0.954138       -25.9634
  14   2.0000      -0.849494       -23.1159
  15   2.0000      -0.801581       -21.8121
  16   2.0000      -0.763141       -20.7661
  17   2.0000      -0.748347       -20.3636
  18   2.0000      -0.699140       -19.0246
  19   2.0000      -0.661123       -17.9901
  20   2.0000      -0.646711       -17.5979
  21   2.0000      -0.593174       -16.1411
  22   2.0000      -0.584571       -15.9070
  23   2.0000      -0.570033       -15.5114
  24   2.0000      -0.554706       -15.0943
  25   2.0000      -0.539200       -14.6724
  26   2.0000      -0.516322       -14.0498
  27   2.0000      -0.504644       -13.7321
  28   2.0000      -0.490169       -13.3382
  29   2.0000      -0.487055       -13.2535
  30   2.0000      -0.436102       -11.8669
  31   2.0000      -0.405939       -11.0462
  32   2.0000      -0.395378       -10.7588
  33   2.0000      -0.350102        -9.5268
  34   0.0000       0.148033         4.0282
  35   0.0000       0.155983         4.2445
  36   0.0000       0.159404         4.3376
  37   0.0000       0.163705         4.4546
  38   0.0000       0.171712         4.6725

MULLIKEN ATOMIC CHARGES
-----------------------
   0 C :   -0.390435
   1 C :   -0.053623
   2 C :   -0.319207
   3 C :   -0.094658
   4 C :    0.138842
   5 O :   -0.335319
   6 C :    0.007672
   7 C :   -0.162243
   8 C :   -0.241452
   9 H :    0.116826
  10 H :    0.131922
  11 H :    0.138319
  12 H :    0.115534
  13 H :    0.132363
  14 H :    0.123997
  15 H :    0.117215
  16 H :    0.095229
  17 H :    0.102384
  18 H :    0.105347
  19 H :    0.136038
  20 H :    0.135249
Sum of atomic charges:   -0.0000000

LOEWDIN ATOMIC CHARGES
----------------------
   0 C :   -0.293172
   1 C :   -0.229315
   2 C :   -0.209413
   3 C :   -0.190069
   4 C :   -0.275443
   5 O :    0.173158
   6 C :   -0.290215
   7 C :   -0.165395
   8 C :   -0.140272
   9 H :    0.123058
  10 H :    0.124509
  11 H :    0.128975
  12 H :    0.148225
  13 H :    0.130221
  14 H :    0.134634
  15 H :    0.151315
  16 H :    0.145634
  17 H :    0.124952
  18 H :    0.125426
  19 H :    0.139635
  20 H :    0.143550

  Mayer bond orders larger than 0.1
B(  0-C ,  1-C ) :   0.9248 B(  0-C ,  9-H ) :   0.9349 B(  0-C , 10-H ) :   0.9355
B(  0-C , 11-H ) :   0.9369 B(  1-C ,  2-C ) :   0.8975 B(  1-C ,  3-C ) :   0.8616
B(  1-C , 12-H ) :   0.9292 B(  2-C ,  3-C ) :   0.8720 B(  2-C , 13-H ) :   0.9245
B(  2-C , 14-H ) :   0.9230 B(  3-C ,  4-C ) :   0.9162 B(  3-C , 15-H ) :   0.9208
B(  4-C ,  5-O ) :   0.9165 B(  4-C ,  8-C ) :   0.9298 B(  4-C , 16-H ) :   0.9082
B(  5-O ,  6-C ) :   0.9477 B(  6-C ,  7-C ) :   0.9796 B(  6-C , 17-H ) :   0.9155
B(  6-C , 18-H ) :   0.9097 B(  7-C ,  8-C ) :   1.8077 B(  7-C , 19-H ) :   0.9170
B(  8-C , 20-H ) :   0.9182

MP2 TOTAL ENERGY:     -386.393328762 Eh
FINAL SINGLE POINT ENERGY      -386.393328762190

DIPOLE MOMENT
-------------
                                X             Y             Z
Electronic contribution:      0.56552      -0.94172       4.95325
Nuclear contribution   :     -0.23565       0.58438      -4.79472
                        -----------------------------------------
Total Dipole Moment    :      0.32988      -0.35735       0.15854
                        -----------------------------------------
Magnitude (a.u.)       :      0.51152
Magnitude (Debye)      :      1.30017

                             ****ORCA TERMINATED NORMALLY****
TOTAL RUN TIME: 0 days 0 hours 17 minutes 4 seconds 497 msec
