                         Program Version 3.0.3 - RELEASE   -
|  1> ! RI-MP2 RIJK def2-TZVP def2-TZVP/C def2-TZVP/JK TIGHTSCF
|  2> % maxcore 2000
|  3> % mp2 density relaxed end
|  4> *xyz 0 1
|  5>  O        0.0441479860     0.0731238745     0.0191241669
|  6>  C        0.0095484023     1.2683195567    -0.0332275120
|  7>  C       -1.0837697787     2.2953171650     0.0074282511
|  8>  C       -0.1140354811     3.2340256288     0.7382141691
|  9>  C        1.0668929050     2.3849899330     0.1129932982
| 10>  C        0.9006692697     3.1979827771    -1.2003020105
| 11>  C       -0.5007404446     3.5647215162    -0.6788086687
| 12>  C       -1.3655694772     4.5880973973    -1.1577802864
| 13>  C       -2.0775373478     5.4605095147    -1.5813221232
| 14>  H       -2.1495585399     2.1858349634     0.1484080828
| 15>  H       -0.2493542484     3.7455962422     1.6782581616
| 16>  H        2.0386156755     2.1862934451     0.5544318510
| 17>  H        1.5411150389     4.0825813093    -1.2219168514
| 18>  H        0.9777009208     2.6516813854    -2.1458899220
| 19>  H       -2.7088860907     6.2292695513    -1.9528288363
| 20> *
| 21>
| 22>                          ****END OF INPUT****

CARTESIAN COORDINATES (ANGSTROEM)
---------------------------------
  O      0.044148    0.073124    0.019124
  C      0.009548    1.268320   -0.033228
  C     -1.083770    2.295317    0.007428
  C     -0.114035    3.234026    0.738214
  C      1.066893    2.384990    0.112993
  C      0.900669    3.197983   -1.200302
  C     -0.500740    3.564722   -0.678809
  C     -1.365569    4.588097   -1.157780
  C     -2.077537    5.460510   -1.581322
  H     -2.149559    2.185835    0.148408
  H     -0.249354    3.745596    1.678258
  H      2.038616    2.186293    0.554432
  H      1.541115    4.082581   -1.221917
  H      0.977701    2.651681   -2.145890
  H     -2.708886    6.229270   -1.952829

 Total Charge           Charge          ....    0
 Multiplicity           Mult            ....    1
 Number of Electrons    NEL             ....   62
 Basis Dimension        Dim             ....  315

ORBITAL ENERGIES
----------------

  NO   OCC          E(Eh)            E(eV)
   0   2.0000     -20.549379      -559.1770
   1   2.0000     -11.341575      -308.6199
   2   2.0000     -11.294173      -307.3301
   3   2.0000     -11.278344      -306.8994
   4   2.0000     -11.267604      -306.6071
   5   2.0000     -11.267191      -306.5958
   6   2.0000     -11.259810      -306.3950
   7   2.0000     -11.250683      -306.1467
   8   2.0000     -11.240282      -305.8636
   9   2.0000      -1.396553       -38.0021
  10   2.0000      -1.266535       -34.4642
  11   2.0000      -1.058592       -28.8057
  12   2.0000      -1.005116       -27.3506
  13   2.0000      -0.963244       -26.2112
  14   2.0000      -0.874673       -23.8011
  15   2.0000      -0.813394       -22.1336
  16   2.0000      -0.750886       -20.4327
  17   2.0000      -0.726629       -19.7726
  18   2.0000      -0.706006       -19.2114
  19   2.0000      -0.654941       -17.8219
  20   2.0000      -0.649105       -17.6631
  21   2.0000      -0.605160       -16.4672
  22   2.0000      -0.587191       -15.9783
  23   2.0000      -0.553024       -15.0485
  24   2.0000      -0.525697       -14.3049
  25   2.0000      -0.489777       -13.3275
  26   2.0000      -0.479915       -13.0591
  27   2.0000      -0.438303       -11.9268
  28   2.0000      -0.406709       -11.0671
  29   2.0000      -0.388494       -10.5715
  30   2.0000      -0.374455       -10.1894
  31   0.0000       0.132192         3.5971
  32   0.0000       0.146466         3.9855
  33   0.0000       0.150584         4.0976
  34   0.0000       0.153134         4.1670
  35   0.0000       0.165566         4.5053

MULLIKEN ATOMIC CHARGES
-----------------------
   0 O :   -0.259509
   1 C :    0.150066
   2 C :   -0.149223
   3 C :   -0.141710
   4 C :   -0.069563
   5 C :   -0.172533
   6 C :   -0.209864
   7 C :   -0.003573
   8 C :   -0.093893
   9 H :    0.164299
  10 H :    0.175521
  11 H :    0.154148
  12 H :    0.129706
  13 H :    0.128733
  14 H :    0.197395
Sum of atomic charges:    0.0000000

LOEWDIN ATOMIC CHARGES
----------------------
   0 O :    0.157775
   1 C :   -0.294550
   2 C :   -0.073452
   3 C :   -0.061284
   4 C :   -0.119101
   5 C :   -0.142853
   6 C :   -0.171449
   7 C :   -0.069631
   8 C :   -0.074008
   9 H :    0.152021
  10 H :    0.145228
  11 H :    0.141270
  12 H :    0.146339
  13 H :    0.134436
  14 H :    0.129259

  Mayer bond orders larger than 0.1
B(  0-O ,  1-C ) :   2.0493 B(  1-C ,  2-C ) :   0.9017 B(  1-C ,  4-C ) :   0.8729
B(  2-C ,  3-C ) :   0.8423 B(  2-C ,  4-C ) :  -0.1106 B(  2-C ,  6-C ) :   0.7534
B(  2-C ,  9-H ) :   0.9097 B(  3-C ,  4-C ) :   0.8766 B(  3-C ,  6-C ) :   0.8048
B(  3-C , 10-H ) :   0.8869 B(  4-C ,  5-C ) :   0.8939 B(  4-C , 11-H ) :   0.9022
B(  5-C ,  6-C ) :   0.9470 B(  5-C , 12-H ) :   0.9154 B(  5-C , 13-H ) :   0.9177
B(  6-C ,  7-C ) :   1.2169 B(  6-C ,  8-C ) :  -0.1947 B(  7-C ,  8-C ) :   2.6246
B(  8-C , 14-H ) :   0.8643

MP2 TOTAL ENERGY:     -382.733012668 Eh
FINAL SINGLE POINT ENERGY      -382.733012667661

DIPOLE MOMENT
-------------
                                X             Y             Z
Electronic contribution:     -1.24081      -2.59335       0.56341
Nuclear contribution   :      1.29295       3.79206      -0.45419
                        -----------------------------------------
Total Dipole Moment    :      0.05214       1.19871       0.10921
                        -----------------------------------------
Magnitude (a.u.)       :      1.20481
Magnitude (Debye)      :      3.06238

                             ****ORCA TERMINATED NORMALLY****
TOTAL RUN TIME: 0 days 0 hours 15 minutes 55 seconds 565 msec
