                         Program Version 3.0.3 - RELEASE   -
|  1> ! RI-MP2 RIJK def2-TZVP def2-TZVP/C def2-TZVP/JK TIGHTSCF
|  2> % maxcore 2000
|  3> % mp2 density relaxed end
|  4> *xyz 0 1
|  5>  C        0.0506218524     1.5872204805    -0.0326931027
|  6>  C        0.0178049941     0.0485470856    -0.0350893503
|  7>  C       -1.4309930401    -0.5218271924     0.0424175917
|  8>  C       -2.1042820752    -0.1644692006     1.2784477064
|  9>  C       -2.6497964424     0.1319060023     2.3147210082
| 10>  C       -3.2716558482     0.4654937305     3.4838973600
| 11>  N       -3.7985948113     0.7510804842     4.4787910183
| 12>  C        0.6756053835    -0.4883555950    -1.2302404590
| 13>  N        1.1813758151    -0.9096603536    -2.1798905662
| 14>  H        1.0802105263     1.9496737080    -0.0660527438
| 15>  H       -0.4821104475     1.9880767434    -0.8996004613
| 16>  H       -0.4238947556     1.9657216381     0.8757024678
| 17>  H        0.5707576853    -0.3220207653     0.8358655742
| 18>  H       -2.0095871110    -0.1523448001    -0.8129960597
| 19>  H       -1.3985084254    -1.6134624356    -0.0495049936
| 20> *
| 21>
| 22>                          ****END OF INPUT****

CARTESIAN COORDINATES (ANGSTROEM)
---------------------------------
  C      0.050622    1.587220   -0.032693
  C      0.017805    0.048547   -0.035089
  C     -1.430993   -0.521827    0.042418
  C     -2.104282   -0.164469    1.278448
  C     -2.649796    0.131906    2.314721
  C     -3.271656    0.465494    3.483897
  N     -3.798595    0.751080    4.478791
  C      0.675605   -0.488356   -1.230240
  N      1.181376   -0.909660   -2.179891
  H      1.080211    1.949674   -0.066053
  H     -0.482110    1.988077   -0.899600
  H     -0.423895    1.965722    0.875702
  H      0.570758   -0.322021    0.835866
  H     -2.009587   -0.152345   -0.812996
  H     -1.398508   -1.613462   -0.049505

 Total Charge           Charge          ....    0
 Multiplicity           Mult            ....    1
 Number of Electrons    NEL             ....   62
 Basis Dimension        Dim             ....  315

ORBITAL ENERGIES
----------------

  NO   OCC          E(Eh)            E(eV)
   0   2.0000     -15.605462      -424.6462
   1   2.0000     -15.588904      -424.1956
   2   2.0000     -11.320182      -308.0378
   3   2.0000     -11.311977      -307.8145
   4   2.0000     -11.310337      -307.7699
   5   2.0000     -11.309490      -307.7469
   6   2.0000     -11.294060      -307.3270
   7   2.0000     -11.289846      -307.2123
   8   2.0000     -11.262907      -306.4793
   9   2.0000      -1.245240       -33.8847
  10   2.0000      -1.239641       -33.7323
  11   2.0000      -1.159678       -31.5564
  12   2.0000      -1.095602       -29.8129
  13   2.0000      -1.011810       -27.5327
  14   2.0000      -0.925345       -25.1799
  15   2.0000      -0.880806       -23.9679
  16   2.0000      -0.743566       -20.2335
  17   2.0000      -0.687284       -18.7019
  18   2.0000      -0.677403       -18.4331
  19   2.0000      -0.628086       -17.0911
  20   2.0000      -0.599453       -16.3119
  21   2.0000      -0.589111       -16.0305
  22   2.0000      -0.569954       -15.5092
  23   2.0000      -0.561789       -15.2871
  24   2.0000      -0.556781       -15.1508
  25   2.0000      -0.541593       -14.7375
  26   2.0000      -0.540578       -14.7099
  27   2.0000      -0.480649       -13.0791
  28   2.0000      -0.475567       -12.9408
  29   2.0000      -0.418552       -11.3894
  30   2.0000      -0.418065       -11.3761
  31   0.0000       0.077340         2.1045
  32   0.0000       0.083137         2.2623
  33   0.0000       0.105256         2.8642
  34   0.0000       0.139268         3.7897
  35   0.0000       0.145408         3.9567

MULLIKEN ATOMIC CHARGES
-----------------------
   0 C :   -0.405077
   1 C :    0.095741
   2 C :   -0.395728
   3 C :   -0.078483
   4 C :    0.321646
   5 C :   -0.216510
   6 N :   -0.032688
   7 C :   -0.216307
   8 N :   -0.044468
   9 H :    0.158190
  10 H :    0.144099
  11 H :    0.160058
  12 H :    0.146331
  13 H :    0.178640
  14 H :    0.184557
Sum of atomic charges:    0.0000000

LOEWDIN ATOMIC CHARGES
----------------------
   0 C :   -0.259241
   1 C :   -0.247367
   2 C :   -0.199693
   3 C :    0.001725
   4 C :   -0.053873
   5 C :   -0.174571
   6 N :    0.105212
   7 C :   -0.171562
   8 N :    0.071345
   9 H :    0.135055
  10 H :    0.133357
  11 H :    0.134262
  12 H :    0.180724
  13 H :    0.171685
  14 H :    0.172943

  Mayer bond orders larger than 0.1
B(  0-C ,  1-C ) :   0.8957 B(  0-C ,  9-H ) :   0.9315 B(  0-C , 10-H ) :   0.9252
B(  0-C , 11-H ) :   0.9318 B(  1-C ,  2-C ) :   0.9046 B(  1-C ,  7-C ) :   0.9068
B(  1-C , 12-H ) :   0.9081 B(  2-C ,  3-C ) :   1.0115 B(  2-C ,  4-C ) :  -0.1476
B(  2-C , 13-H ) :   0.9199 B(  2-C , 14-H ) :   0.9206 B(  3-C ,  4-C ) :   2.5629
B(  3-C ,  6-N ) :   0.1118 B(  4-C ,  5-C ) :   0.9488 B(  5-C ,  6-N ) :   2.7544
B(  7-C ,  8-N ) :   2.8727

MP2 TOTAL ENERGY:     -378.988262916 Eh
FINAL SINGLE POINT ENERGY      -378.988262916325

DIPOLE MOMENT
-------------
                                X             Y             Z
Electronic contribution:     -4.16094      -2.68756       4.62402
Nuclear contribution   :      4.36142       2.89433      -4.96653
                        -----------------------------------------
Total Dipole Moment    :      0.20048       0.20677      -0.34251
                        -----------------------------------------
Magnitude (a.u.)       :      0.44750
Magnitude (Debye)      :      1.13746

                             ****ORCA TERMINATED NORMALLY****
TOTAL RUN TIME: 0 days 0 hours 14 minutes 1 seconds 876 msec
