                         Program Version 3.0.3 - RELEASE   -
|  1> ! RI-MP2 RIJK def2-TZVP def2-TZVP/C def2-TZVP/JK TIGHTSCF
|  2> % maxcore 2000
|  3> % mp2 density relaxed end
|  4> *xyz 0 1
|  5>  C        0.0783457149     1.2367257347    -0.3431692130
|  6>  O       -0.1527593722     0.0488524120     0.3809259296
|  7>  C       -1.4240516017    -0.5349770534     0.2091171987
|  8>  C       -2.3616096227    -0.0020189595     1.2815929945
|  9>  C       -1.8807879845    -0.7765341464    -1.2771662629
| 10>  O       -0.7177970645    -1.6748668466    -1.4390661232
| 11>  C       -1.2958329409    -2.0522872907    -0.1300897410
| 12>  C       -2.6722162635    -2.0447397941    -0.8772930192
| 13>  O       -3.9207564873    -1.9354653522    -0.2549596426
| 14>  H        1.0330897762     1.6394266275     0.0043573395
| 15>  H        0.1509371561     1.0452828260    -1.4224177988
| 16>  H       -0.7002272950     1.9945988583    -0.1690657934
| 17>  H       -2.4640380448     1.0833350136     1.1743055626
| 18>  H       -3.3509641436    -0.4512963926     1.2403970408
| 19>  H       -1.9146265062    -0.1913923979     2.2624193504
| 20>  H       -2.0860158231    -0.0659002590    -2.0785946673
| 21>  H       -0.7931739501    -2.8404995439     0.4316629779
| 22>  H       -2.6713995806    -2.7724883414    -1.6938679066
| 23>  H       -4.2749194865    -2.8219786543    -0.1365741359
| 24> *
| 25>
| 26>                          ****END OF INPUT****

CARTESIAN COORDINATES (ANGSTROEM)
---------------------------------
  C      0.078346    1.236726   -0.343169
  O     -0.152759    0.048852    0.380926
  C     -1.424052   -0.534977    0.209117
  C     -2.361610   -0.002019    1.281593
  C     -1.880788   -0.776534   -1.277166
  O     -0.717797   -1.674867   -1.439066
  C     -1.295833   -2.052287   -0.130090
  C     -2.672216   -2.044740   -0.877293
  O     -3.920756   -1.935465   -0.254960
  H      1.033090    1.639427    0.004357
  H      0.150937    1.045283   -1.422418
  H     -0.700227    1.994599   -0.169066
  H     -2.464038    1.083335    1.174306
  H     -3.350964   -0.451296    1.240397
  H     -1.914627   -0.191392    2.262419
  H     -2.086016   -0.065900   -2.078595
  H     -0.793174   -2.840500    0.431663
  H     -2.671400   -2.772488   -1.693868
  H     -4.274919   -2.821979   -0.136574

 Total Charge           Charge          ....    0
 Multiplicity           Mult            ....    1
 Number of Electrons    NEL             ....   70
 Basis Dimension        Dim             ....  339

ORBITAL ENERGIES
----------------

  NO   OCC          E(Eh)            E(eV)
   0   2.0000     -20.577177      -559.9335
   1   2.0000     -20.554110      -559.3058
   2   2.0000     -20.548525      -559.1538
   3   2.0000     -11.302234      -307.5494
   4   2.0000     -11.300330      -307.4976
   5   2.0000     -11.299023      -307.4621
   6   2.0000     -11.296850      -307.4029
   7   2.0000     -11.266930      -306.5887
   8   2.0000     -11.210538      -305.0542
   9   2.0000      -1.419691       -38.6317
  10   2.0000      -1.382704       -37.6253
  11   2.0000      -1.357137       -36.9296
  12   2.0000      -1.069783       -29.1103
  13   2.0000      -0.979221       -26.6460
  14   2.0000      -0.927915       -25.2499
  15   2.0000      -0.891354       -24.2550
  16   2.0000      -0.863962       -23.5096
  17   2.0000      -0.736876       -20.0514
  18   2.0000      -0.721348       -19.6289
  19   2.0000      -0.707818       -19.2607
  20   2.0000      -0.652881       -17.7658
  21   2.0000      -0.632654       -17.2154
  22   2.0000      -0.622123       -16.9288
  23   2.0000      -0.601392       -16.3647
  24   2.0000      -0.592750       -16.1295
  25   2.0000      -0.557855       -15.1800
  26   2.0000      -0.550099       -14.9690
  27   2.0000      -0.534542       -14.5456
  28   2.0000      -0.512413       -13.9435
  29   2.0000      -0.494675       -13.4608
  30   2.0000      -0.480163       -13.0659
  31   2.0000      -0.442309       -12.0358
  32   2.0000      -0.435650       -11.8546
  33   2.0000      -0.426282       -11.5997
  34   2.0000      -0.403373       -10.9763
  35   0.0000       0.127502         3.4695
  36   0.0000       0.150114         4.0848
  37   0.0000       0.164739         4.4828
  38   0.0000       0.182507         4.9663
  39   0.0000       0.195863         5.3297

MULLIKEN ATOMIC CHARGES
-----------------------
   0 C :   -0.225588
   1 O :   -0.319495
   2 C :    0.288333
   3 C :   -0.424264
   4 C :   -0.090420
   5 O :   -0.305709
   6 C :   -0.067992
   7 C :    0.086101
   8 O :   -0.468033
   9 H :    0.141722
  10 H :    0.127312
  11 H :    0.108275
  12 H :    0.119957
  13 H :    0.167240
  14 H :    0.134079
  15 H :    0.144399
  16 H :    0.145005
  17 H :    0.109515
  18 H :    0.329563
Sum of atomic charges:   -0.0000000

LOEWDIN ATOMIC CHARGES
----------------------
   0 C :   -0.351089
   1 O :    0.187628
   2 C :   -0.318469
   3 C :   -0.275325
   4 C :   -0.188067
   5 O :    0.152781
   6 C :   -0.178491
   7 C :   -0.303060
   8 O :   -0.007378
   9 H :    0.114503
  10 H :    0.105808
  11 H :    0.100767
  12 H :    0.127052
  13 H :    0.131245
  14 H :    0.131099
  15 H :    0.126091
  16 H :    0.125328
  17 H :    0.138060
  18 H :    0.181518

  Mayer bond orders larger than 0.1
B(  0-C ,  1-O ) :   0.9087 B(  0-C ,  9-H ) :   0.9414 B(  0-C , 10-H ) :   0.9355
B(  0-C , 11-H ) :   0.9280 B(  1-O ,  2-C ) :   0.8930 B(  2-C ,  3-C ) :   0.9263
B(  2-C ,  4-C ) :   0.9109 B(  2-C ,  6-C ) :   0.9115 B(  3-C , 12-H ) :   0.9194
B(  3-C , 13-H ) :   0.9195 B(  3-C , 14-H ) :   0.9366 B(  4-C ,  5-O ) :   0.9104
B(  4-C ,  7-C ) :   0.9274 B(  4-C , 15-H ) :   0.8760 B(  5-O ,  6-C ) :   0.9160
B(  6-C ,  7-C ) :   0.8843 B(  6-C , 16-H ) :   0.8785 B(  7-C ,  8-O ) :   1.0526
B(  7-C , 17-H ) :   0.9375 B(  8-O , 18-H ) :   0.8368

MP2 TOTAL ENERGY:     -459.335376690 Eh
FINAL SINGLE POINT ENERGY      -459.335376689990

DIPOLE MOMENT
-------------
                                X             Y             Z
Electronic contribution:      0.24425      -4.96384      -2.07855
Nuclear contribution   :     -0.97497       4.78029       2.15618
                        -----------------------------------------
Total Dipole Moment    :     -0.73072      -0.18355       0.07762
                        -----------------------------------------
Magnitude (a.u.)       :      0.75741
Magnitude (Debye)      :      1.92518

                             ****ORCA TERMINATED NORMALLY****
TOTAL RUN TIME: 0 days 0 hours 18 minutes 5 seconds 18 msec
