                         Program Version 3.0.3 - RELEASE   -
|  1> ! RI-MP2 RIJK def2-TZVP def2-TZVP/C def2-TZVP/JK TIGHTSCF
|  2> % maxcore 2000
|  3> % mp2 density relaxed end
|  4> *xyz 0 1
|  5>  O       -0.0291933682     1.3588959076     0.0578003771
|  6>  C        0.0011134044    -0.0339235053    -0.0362113012
|  7>  C       -0.3884488181    -0.7670341790     1.2357338981
|  8>  O       -0.7802072290     0.0389297369     2.3070373680
|  9>  C       -1.3350483815    -0.7551227394     0.0480415718
| 10>  O       -2.4357537078     0.1028531685     0.1854938542
| 11>  C       -1.6176317673    -2.0016047113    -0.7603235588
| 12>  C       -1.9886776163    -1.6866623256    -2.1987539689
| 13>  O       -1.4824068158    -2.2098777690    -3.1575361606
| 14>  H       -0.9336951258     1.6209833154    -0.1732582066
| 15>  H        0.7960322833    -0.4214637047    -0.6667217518
| 16>  H        0.1126217164    -1.6865356472     1.5243981062
| 17>  H       -0.3966966442     0.9130804220     2.1299391198
| 18>  H       -2.5167870818     0.2722035782     1.1387283310
| 19>  H       -0.7544704996    -2.6733334456    -0.7645829034
| 20>  H       -2.4637175803    -2.5297521083    -0.2980095902
| 21>  H       -2.7838999083    -0.9180578134    -2.3110015647
| 22> *
| 23>
| 24>                          ****END OF INPUT****

CARTESIAN COORDINATES (ANGSTROEM)
---------------------------------
  O     -0.029193    1.358896    0.057800
  C      0.001113   -0.033924   -0.036211
  C     -0.388449   -0.767034    1.235734
  O     -0.780207    0.038930    2.307037
  C     -1.335048   -0.755123    0.048042
  O     -2.435754    0.102853    0.185494
  C     -1.617632   -2.001605   -0.760324
  C     -1.988678   -1.686662   -2.198754
  O     -1.482407   -2.209878   -3.157536
  H     -0.933695    1.620983   -0.173258
  H      0.796032   -0.421464   -0.666722
  H      0.112622   -1.686536    1.524398
  H     -0.396697    0.913080    2.129939
  H     -2.516787    0.272204    1.138728
  H     -0.754470   -2.673333   -0.764583
  H     -2.463718   -2.529752   -0.298010
  H     -2.783900   -0.918058   -2.311002

 Total Charge           Charge          ....    0
 Multiplicity           Mult            ....    1
 Number of Electrons    NEL             ....   70
 Basis Dimension        Dim             ....  327

ORBITAL ENERGIES
----------------

  NO   OCC          E(Eh)            E(eV)
   0   2.0000     -20.592025      -560.3375
   1   2.0000     -20.589620      -560.2721
   2   2.0000     -20.588319      -560.2366
   3   2.0000     -20.563291      -559.5556
   4   2.0000     -11.337595      -308.5116
   5   2.0000     -11.316062      -307.9257
   6   2.0000     -11.305003      -307.6248
   7   2.0000     -11.304274      -307.6049
   8   2.0000     -11.258119      -306.3490
   9   2.0000      -1.435979       -39.0750
  10   2.0000      -1.401862       -38.1466
  11   2.0000      -1.384692       -37.6794
  12   2.0000      -1.381708       -37.5982
  13   2.0000      -1.136483       -30.9253
  14   2.0000      -1.030998       -28.0549
  15   2.0000      -0.853480       -23.2244
  16   2.0000      -0.836124       -22.7521
  17   2.0000      -0.804627       -21.8950
  18   2.0000      -0.758938       -20.6518
  19   2.0000      -0.714409       -19.4400
  20   2.0000      -0.702423       -19.1139
  21   2.0000      -0.697356       -18.9760
  22   2.0000      -0.660748       -17.9799
  23   2.0000      -0.629093       -17.1185
  24   2.0000      -0.615558       -16.7502
  25   2.0000      -0.605700       -16.4819
  26   2.0000      -0.588208       -16.0059
  27   2.0000      -0.577809       -15.7230
  28   2.0000      -0.541409       -14.7325
  29   2.0000      -0.536268       -14.5926
  30   2.0000      -0.527486       -14.3536
  31   2.0000      -0.515063       -14.0156
  32   2.0000      -0.444147       -12.0859
  33   2.0000      -0.412306       -11.2194
  34   2.0000      -0.398263       -10.8373
  35   0.0000       0.115996         3.1564
  36   0.0000       0.138684         3.7738
  37   0.0000       0.140124         3.8130
  38   0.0000       0.166744         4.5373
  39   0.0000       0.178460         4.8562

MULLIKEN ATOMIC CHARGES
-----------------------
   0 O :   -0.497521
   1 C :    0.002902
   2 C :    0.062002
   3 O :   -0.500452
   4 C :    0.091163
   5 O :   -0.495954
   6 C :   -0.155595
   7 C :    0.074318
   8 O :   -0.261660
   9 H :    0.351578
  10 H :    0.141104
  11 H :    0.134842
  12 H :    0.351833
  13 H :    0.350116
  14 H :    0.121878
  15 H :    0.129723
  16 H :    0.099724
Sum of atomic charges:    0.0000000

LOEWDIN ATOMIC CHARGES
----------------------
   0 O :   -0.000631
   1 C :   -0.291161
   2 C :   -0.291603
   3 O :   -0.000644
   4 C :   -0.351167
   5 O :    0.022881
   6 C :   -0.221447
   7 C :   -0.282758
   8 O :    0.133903
   9 H :    0.188293
  10 H :    0.142470
  11 H :    0.139681
  12 H :    0.189350
  13 H :    0.190628
  14 H :    0.155174
  15 H :    0.160262
  16 H :    0.116768

  Mayer bond orders larger than 0.1
B(  0-O ,  1-C ) :   0.9287 B(  0-O ,  9-H ) :   0.8070 B(  1-C ,  2-C ) :   0.8648
B(  1-C ,  4-C ) :   0.8771 B(  1-C , 10-H ) :   0.9303 B(  2-C ,  3-O ) :   0.9090
B(  2-C ,  4-C ) :   0.8246 B(  2-C , 11-H ) :   0.9312 B(  3-O , 12-H ) :   0.8043
B(  4-C ,  5-O ) :   1.0344 B(  4-C ,  6-C ) :   0.8868 B(  5-O , 13-H ) :   0.7987
B(  6-C ,  7-C ) :   0.8826 B(  6-C , 14-H ) :   0.9072 B(  6-C , 15-H ) :   0.8996
B(  7-C ,  8-O ) :   1.9940 B(  7-C , 16-H ) :   0.9350

MP2 TOTAL ENERGY:     -495.316727544 Eh
FINAL SINGLE POINT ENERGY      -495.316727544166

DIPOLE MOMENT
-------------
                                X             Y             Z
Electronic contribution:     -0.22369       0.64022      -1.44141
Nuclear contribution   :      0.05361      -0.52881       2.23452
                        -----------------------------------------
Total Dipole Moment    :     -0.17008       0.11141       0.79311
                        -----------------------------------------
Magnitude (a.u.)       :      0.81876
Magnitude (Debye)      :      2.08112

                             ****ORCA TERMINATED NORMALLY****
TOTAL RUN TIME: 0 days 0 hours 15 minutes 37 seconds 4 msec
