                         Program Version 3.0.3 - RELEASE   -
|  1> ! RI-MP2 RIJK def2-TZVP def2-TZVP/C def2-TZVP/JK TIGHTSCF
|  2> % maxcore 2000
|  3> % mp2 density relaxed end
|  4> *xyz 0 1
|  5>  C        0.0563032194     1.5435780588     0.1436038588
|  6>  C       -0.1290217296     0.0313274274    -0.0272947286
|  7>  C        0.6368512662    -0.5359512041    -1.2138401618
|  8>  C        2.1902847418    -0.6127872789    -1.2025430865
|  9>  C        2.5983933522    -1.6054119224    -0.0863747662
| 10>  C        1.5178223659    -2.6773894918    -0.2673470930
| 11>  C        2.8177328828    -2.7629165983    -1.0345253550
| 12>  C        2.1323155900    -1.8873106159    -2.1270687872
| 13>  C        0.7217787274    -2.0681551637    -1.4480932782
| 14>  H        1.1111827643     1.7993519113     0.2918664436
| 15>  H       -0.2927911287     2.0890449207    -0.7404965737
| 16>  H       -0.5007334403     1.9200509659     1.0073924639
| 17>  H        0.1929167050    -0.4839599712     0.8864448118
| 18>  H       -1.1971752465    -0.1955694423    -0.1458024572
| 19>  H        0.3158208409    -0.0516791110    -2.1469047360
| 20>  H        2.8290055065     0.2478450023    -1.3982050055
| 21>  H        3.0708541098    -1.4089833013     0.8668096974
| 22>  H        1.1674657291    -3.2956408979     0.5483821521
| 23>  H        3.5813060025    -3.5286404276    -1.0612930778
| 24>  H        2.3078168108    -1.8832491114    -3.1996364088
| 25>  H       -0.0947376994    -2.6438720886    -1.8834742623
| 26> *
| 27>
| 28>                          ****END OF INPUT****

CARTESIAN COORDINATES (ANGSTROEM)
---------------------------------
  C      0.056303    1.543578    0.143604
  C     -0.129022    0.031327   -0.027295
  C      0.636851   -0.535951   -1.213840
  C      2.190285   -0.612787   -1.202543
  C      2.598393   -1.605412   -0.086375
  C      1.517822   -2.677389   -0.267347
  C      2.817733   -2.762917   -1.034525
  C      2.132316   -1.887311   -2.127069
  C      0.721779   -2.068155   -1.448093
  H      1.111183    1.799352    0.291866
  H     -0.292791    2.089045   -0.740497
  H     -0.500733    1.920051    1.007392
  H      0.192917   -0.483960    0.886445
  H     -1.197175   -0.195569   -0.145802
  H      0.315821   -0.051679   -2.146905
  H      2.829006    0.247845   -1.398205
  H      3.070854   -1.408983    0.866810
  H      1.167466   -3.295641    0.548382
  H      3.581306   -3.528640   -1.061293
  H      2.307817   -1.883249   -3.199636
  H     -0.094738   -2.643872   -1.883474

 Total Charge           Charge          ....    0
 Multiplicity           Mult            ....    1
 Number of Electrons    NEL             ....   66
 Basis Dimension        Dim             ....  351

ORBITAL ENERGIES
----------------

  NO   OCC          E(Eh)            E(eV)
   0   2.0000     -11.229085      -305.5589
   1   2.0000     -11.226581      -305.4908
   2   2.0000     -11.225744      -305.4680
   3   2.0000     -11.225642      -305.4652
   4   2.0000     -11.225240      -305.4543
   5   2.0000     -11.225047      -305.4491
   6   2.0000     -11.217578      -305.2458
   7   2.0000     -11.211086      -305.0692
   8   2.0000     -11.208547      -305.0001
   9   2.0000      -1.243997       -33.8509
  10   2.0000      -1.062629       -28.9156
  11   2.0000      -0.996856       -27.1258
  12   2.0000      -0.928254       -25.2591
  13   2.0000      -0.899624       -24.4800
  14   2.0000      -0.838087       -22.8055
  15   2.0000      -0.768004       -20.8985
  16   2.0000      -0.730260       -19.8714
  17   2.0000      -0.703655       -19.1474
  18   2.0000      -0.691923       -18.8282
  19   2.0000      -0.630049       -17.1445
  20   2.0000      -0.605807       -16.4849
  21   2.0000      -0.578853       -15.7514
  22   2.0000      -0.561640       -15.2830
  23   2.0000      -0.534152       -14.5350
  24   2.0000      -0.531128       -14.4527
  25   2.0000      -0.508419       -13.8348
  26   2.0000      -0.481343       -13.0980
  27   2.0000      -0.456689       -12.4271
  28   2.0000      -0.451066       -12.2741
  29   2.0000      -0.412554       -11.2262
  30   2.0000      -0.404472       -11.0062
  31   2.0000      -0.372825       -10.1451
  32   2.0000      -0.354275        -9.6403
  33   0.0000       0.138222         3.7612
  34   0.0000       0.162105         4.4111
  35   0.0000       0.162936         4.4337
  36   0.0000       0.170756         4.6465
  37   0.0000       0.189801         5.1648

MULLIKEN ATOMIC CHARGES
-----------------------
   0 C :   -0.402645
   1 C :   -0.224517
   2 C :   -0.121425
   3 C :   -0.025638
   4 C :   -0.218319
   5 C :   -0.215640
   6 C :   -0.150288
   7 C :   -0.133458
   8 C :    0.000228
   9 H :    0.125832
  10 H :    0.122442
  11 H :    0.132343
  12 H :    0.117998
  13 H :    0.107739
  14 H :    0.092409
  15 H :    0.130175
  16 H :    0.132878
  17 H :    0.133372
  18 H :    0.137582
  19 H :    0.133783
  20 H :    0.125148
Sum of atomic charges:    0.0000000

LOEWDIN ATOMIC CHARGES
----------------------
   0 C :   -0.317431
   1 C :   -0.273723
   2 C :   -0.202651
   3 C :   -0.137446
   4 C :   -0.142672
   5 C :   -0.142984
   6 C :   -0.136364
   7 C :   -0.101481
   8 C :   -0.135474
   9 H :    0.120649
  10 H :    0.119918
  11 H :    0.119584
  12 H :    0.141091
  13 H :    0.137264
  14 H :    0.155223
  15 H :    0.133511
  16 H :    0.134951
  17 H :    0.134946
  18 H :    0.129330
  19 H :    0.130161
  20 H :    0.133597

  Mayer bond orders larger than 0.1
B(  0-C ,  1-C ) :   0.9124 B(  0-C ,  9-H ) :   0.9404 B(  0-C , 10-H ) :   0.9399
B(  0-C , 11-H ) :   0.9414 B(  1-C ,  2-C ) :   0.9005 B(  1-C , 12-H ) :   0.9339
B(  1-C , 13-H ) :   0.9324 B(  2-C ,  3-C ) :   0.9200 B(  2-C ,  8-C ) :   0.9144
B(  2-C , 14-H ) :   0.9104 B(  3-C ,  4-C ) :   0.8585 B(  3-C ,  7-C ) :   0.9566
B(  3-C , 15-H ) :   0.9082 B(  4-C ,  5-C ) :   0.9098 B(  4-C ,  6-C ) :   0.8329
B(  4-C , 16-H ) :   0.9333 B(  5-C ,  6-C ) :   0.8360 B(  5-C ,  8-C ) :   0.8642
B(  5-C , 17-H ) :   0.9325 B(  6-C ,  7-C ) :   0.9320 B(  6-C , 18-H ) :   0.9182
B(  7-C ,  8-C ) :   0.9500 B(  7-C , 19-H ) :   0.9193 B(  8-C , 20-H ) :   0.9125

MP2 TOTAL ENERGY:     -349.235173632 Eh
FINAL SINGLE POINT ENERGY      -349.235173632280

DIPOLE MOMENT
-------------
                                X             Y             Z
Electronic contribution:      3.55701      -5.63686      -2.28147
Nuclear contribution   :     -3.57109       5.62344       2.28636
                        -----------------------------------------
Total Dipole Moment    :     -0.01408      -0.01343       0.00490
                        -----------------------------------------
Magnitude (a.u.)       :      0.02007
Magnitude (Debye)      :      0.05101

                             ****ORCA TERMINATED NORMALLY****
TOTAL RUN TIME: 0 days 0 hours 20 minutes 28 seconds 658 msec
