                         Program Version 3.0.3 - RELEASE   -
|  1> ! RI-MP2 RIJK def2-TZVP def2-TZVP/C def2-TZVP/JK TIGHTSCF
|  2> % maxcore 2000
|  3> % mp2 density relaxed end
|  4> *xyz 0 1
|  5>  C        0.1230529164     1.3400034107     0.0071962654
|  6>  O       -0.0413631519    -0.0575305012    -0.0293943065
|  7>  C        0.7445328822    -0.6749227860    -1.0266328144
|  8>  C        0.4721151958    -2.1749090832    -0.9825041251
|  9>  C       -0.9968591247    -2.5256698492    -1.2826575844
| 10>  C        1.3900310582    -2.9361689324    -1.9136926561
| 11>  O        2.2335993009    -2.4397284130    -2.6170989436
| 12>  H        1.1668075769     1.6228107003     0.2160863731
| 13>  H       -0.1746242185     1.8114086975    -0.9427579737
| 14>  H       -0.5141888726     1.7241340559     0.8074588758
| 15>  H        0.4973480699    -0.2747535035    -2.0239472878
| 16>  H        1.8146531189    -0.4777891784    -0.8614001375
| 17>  H        0.6984468352    -2.5366102267     0.0328886804
| 18>  H       -1.1729162723    -3.6034122027    -1.2082990124
| 19>  H       -1.6475909554    -2.0162497887    -0.5701033131
| 20>  H       -1.2761288254    -2.2042489104    -2.2919283525
| 21>  H        1.2230750464    -4.0389411291    -1.9138176975
| 22> *
| 23>
| 24>                          ****END OF INPUT****

CARTESIAN COORDINATES (ANGSTROEM)
---------------------------------
  C      0.123053    1.340003    0.007196
  O     -0.041363   -0.057531   -0.029394
  C      0.744533   -0.674923   -1.026633
  C      0.472115   -2.174909   -0.982504
  C     -0.996859   -2.525670   -1.282658
  C      1.390031   -2.936169   -1.913693
  O      2.233599   -2.439728   -2.617099
  H      1.166808    1.622811    0.216086
  H     -0.174624    1.811409   -0.942758
  H     -0.514189    1.724134    0.807459
  H      0.497348   -0.274754   -2.023947
  H      1.814653   -0.477789   -0.861400
  H      0.698447   -2.536610    0.032889
  H     -1.172916   -3.603412   -1.208299
  H     -1.647591   -2.016250   -0.570103
  H     -1.276129   -2.204249   -2.291928
  H      1.223075   -4.038941   -1.913818

 Total Charge           Charge          ....    0
 Multiplicity           Mult            ....    1
 Number of Electrons    NEL             ....   56
 Basis Dimension        Dim             ....  277

ORBITAL ENERGIES
----------------

  NO   OCC          E(Eh)            E(eV)
   0   2.0000     -20.559980      -559.4655
   1   2.0000     -20.558977      -559.4382
   2   2.0000     -11.332863      -308.3829
   3   2.0000     -11.278382      -306.9004
   4   2.0000     -11.273748      -306.7743
   5   2.0000     -11.247277      -306.0540
   6   2.0000     -11.229825      -305.5791
   7   2.0000      -1.398591       -38.0576
   8   2.0000      -1.381196       -37.5843
   9   2.0000      -1.088550       -29.6210
  10   2.0000      -0.961386       -26.1606
  11   2.0000      -0.908578       -24.7237
  12   2.0000      -0.865263       -23.5450
  13   2.0000      -0.767820       -20.8935
  14   2.0000      -0.690358       -18.7856
  15   2.0000      -0.674424       -18.3520
  16   2.0000      -0.659091       -17.9348
  17   2.0000      -0.631858       -17.1937
  18   2.0000      -0.616915       -16.7871
  19   2.0000      -0.590513       -16.0687
  20   2.0000      -0.560874       -15.2622
  21   2.0000      -0.548190       -14.9170
  22   2.0000      -0.530656       -14.4399
  23   2.0000      -0.503948       -13.7131
  24   2.0000      -0.488183       -13.2841
  25   2.0000      -0.477659       -12.9978
  26   2.0000      -0.427779       -11.6405
  27   2.0000      -0.419173       -11.4063
  28   0.0000       0.125940         3.4270
  29   0.0000       0.142845         3.8870
  30   0.0000       0.153818         4.1856
  31   0.0000       0.175711         4.7813
  32   0.0000       0.182850         4.9756

MULLIKEN ATOMIC CHARGES
-----------------------
   0 C :   -0.212477
   1 O :   -0.310665
   2 C :   -0.073106
   3 C :    0.019220
   4 C :   -0.426037
   5 C :    0.077214
   6 O :   -0.270541
   7 H :    0.113398
   8 H :    0.112535
   9 H :    0.138302
  10 H :    0.100177
  11 H :    0.114972
  12 H :    0.104964
  13 H :    0.135216
  14 H :    0.160958
  15 H :    0.129099
  16 H :    0.086772
Sum of atomic charges:   -0.0000000

LOEWDIN ATOMIC CHARGES
----------------------
   0 C :   -0.360019
   1 O :    0.134480
   2 C :   -0.303004
   3 C :   -0.287844
   4 C :   -0.284135
   5 C :   -0.272186
   6 O :    0.134306
   7 H :    0.102634
   8 H :    0.101994
   9 H :    0.113177
  10 H :    0.125611
  11 H :    0.127690
  12 H :    0.169244
  13 H :    0.124379
  14 H :    0.132615
  15 H :    0.126541
  16 H :    0.114516

  Mayer bond orders larger than 0.1
B(  0-C ,  1-O ) :   0.9179 B(  0-C ,  7-H ) :   0.9374 B(  0-C ,  8-H ) :   0.9365
B(  0-C ,  9-H ) :   0.9393 B(  1-O ,  2-C ) :   0.9415 B(  2-C ,  3-C ) :   0.9353
B(  2-C , 10-H ) :   0.9179 B(  2-C , 11-H ) :   0.9228 B(  3-C ,  4-C ) :   0.9031
B(  3-C ,  5-C ) :   0.8681 B(  3-C , 12-H ) :   0.8985 B(  4-C , 13-H ) :   0.9338
B(  4-C , 14-H ) :   0.9304 B(  4-C , 15-H ) :   0.9289 B(  5-C ,  6-O ) :   1.9927
B(  5-C , 16-H ) :   0.9486

MP2 TOTAL ENERGY:     -346.286660258 Eh
FINAL SINGLE POINT ENERGY      -346.286660258118

DIPOLE MOMENT
-------------
                                X             Y             Z
Electronic contribution:      4.09445      -2.85207      -1.82020
Nuclear contribution   :     -4.59771       2.91333       2.21471
                        -----------------------------------------
Total Dipole Moment    :     -0.50326       0.06126       0.39451
                        -----------------------------------------
Magnitude (a.u.)       :      0.64239
Magnitude (Debye)      :      1.63281

                             ****ORCA TERMINATED NORMALLY****
TOTAL RUN TIME: 0 days 0 hours 8 minutes 8 seconds 8 msec
