                         Program Version 3.0.3 - RELEASE   -
|  1> ! RI-MP2 RIJK def2-TZVP def2-TZVP/C def2-TZVP/JK TIGHTSCF
|  2> % maxcore 2000
|  3> % mp2 density relaxed end
|  4> *xyz 0 1
|  5>  N        0.1274349260     1.3716688939     0.1786605136
|  6>  C       -0.0552043205     0.0132416127     0.0380526961
|  7>  C       -1.1081445050    -0.8040112548    -0.0461498489
|  8>  O       -0.6343456419    -2.1212130026    -0.0400842707
|  9>  C        0.7160834174    -2.0719946462     0.0205174796
| 10>  O        1.4667856806    -2.9930596251     0.0230439107
| 11>  O        1.0932400664    -0.7443251003     0.0772820577
| 12>  H        0.9268169566     1.7186977861    -0.3375313343
| 13>  H       -0.7024069720     1.9113168790    -0.0251514916
| 14>  H       -2.1703411276    -0.6589149927    -0.0974664922
| 15> *
| 16>
| 17>                          ****END OF INPUT****

CARTESIAN COORDINATES (ANGSTROEM)
---------------------------------
  N      0.127435    1.371669    0.178661
  C     -0.055204    0.013242    0.038053
  C     -1.108145   -0.804011   -0.046150
  O     -0.634346   -2.121213   -0.040084
  C      0.716083   -2.071995    0.020517
  O      1.466786   -2.993060    0.023044
  O      1.093240   -0.744325    0.077282
  H      0.926817    1.718698   -0.337531
  H     -0.702407    1.911317   -0.025151
  H     -2.170341   -0.658915   -0.097466

 Total Charge           Charge          ....    0
 Multiplicity           Mult            ....    1
 Number of Electrons    NEL             ....   52
 Basis Dimension        Dim             ....  235

ORBITAL ENERGIES
----------------

  NO   OCC          E(Eh)            E(eV)
   0   2.0000     -20.651199      -561.9477
   1   2.0000     -20.639842      -561.6387
   2   2.0000     -20.554665      -559.3209
   3   2.0000     -15.609011      -424.7428
   4   2.0000     -11.446797      -311.4832
   5   2.0000     -11.366942      -309.3102
   6   2.0000     -11.299389      -307.4720
   7   2.0000      -1.550908       -42.2023
   8   2.0000      -1.421906       -38.6920
   9   2.0000      -1.401850       -38.1463
  10   2.0000      -1.251746       -34.0617
  11   2.0000      -1.037080       -28.2204
  12   2.0000      -0.886359       -24.1190
  13   2.0000      -0.870340       -23.6831
  14   2.0000      -0.755720       -20.5642
  15   2.0000      -0.726092       -19.7580
  16   2.0000      -0.708282       -19.2733
  17   2.0000      -0.697193       -18.9716
  18   2.0000      -0.654758       -17.8169
  19   2.0000      -0.618023       -16.8173
  20   2.0000      -0.596139       -16.2218
  21   2.0000      -0.589921       -16.0526
  22   2.0000      -0.547743       -14.9048
  23   2.0000      -0.492154       -13.3922
  24   2.0000      -0.489501       -13.3200
  25   2.0000      -0.339897        -9.2491
  26   0.0000       0.110774         3.0143
  27   0.0000       0.157532         4.2867
  28   0.0000       0.167886         4.5684
  29   0.0000       0.175801         4.7838
  30   0.0000       0.190454         5.1825

MULLIKEN ATOMIC CHARGES
-----------------------
   0 N :   -0.507045
   1 C :    0.258234
   2 C :   -0.113766
   3 O :   -0.208310
   4 C :    0.380510
   5 O :   -0.280809
   6 O :   -0.228440
   7 H :    0.272790
   8 H :    0.260195
   9 H :    0.166642
Sum of atomic charges:    0.0000000

LOEWDIN ATOMIC CHARGES
----------------------
   0 N :   -0.060287
   1 C :   -0.380185
   2 C :   -0.256319
   3 O :    0.302419
   4 C :   -0.560078
   5 O :    0.138932
   6 O :    0.316048
   7 H :    0.181748
   8 H :    0.180250
   9 H :    0.137472

  Mayer bond orders larger than 0.1
B(  0-N ,  1-C ) :   1.0835 B(  0-N ,  7-H ) :   0.8596 B(  0-N ,  8-H ) :   0.8738
B(  1-C ,  2-C ) :   1.6818 B(  1-C ,  6-O ) :   0.9978 B(  2-C ,  3-O ) :   0.9183
B(  2-C ,  9-H ) :   0.9263 B(  3-O ,  4-C ) :   1.1099 B(  4-C ,  5-O ) :   2.0530
B(  4-C ,  6-O ) :   1.0320

MP2 TOTAL ENERGY:     -395.878678247 Eh
FINAL SINGLE POINT ENERGY      -395.878678246743

DIPOLE MOMENT
-------------
                                X             Y             Z
Electronic contribution:      1.47178      -3.81279       0.09047
Nuclear contribution   :     -2.51241       5.71012      -0.51915
                        -----------------------------------------
Total Dipole Moment    :     -1.04062       1.89734      -0.42869
                        -----------------------------------------
Magnitude (a.u.)       :      2.20603
Magnitude (Debye)      :      5.60728

                             ****ORCA TERMINATED NORMALLY****
TOTAL RUN TIME: 0 days 0 hours 5 minutes 0 seconds 83 msec
