                         Program Version 3.0.3 - RELEASE   -
|  1> ! RI-MP2 RIJK def2-TZVP def2-TZVP/C def2-TZVP/JK TIGHTSCF
|  2> % maxcore 2000
|  3> % mp2 density relaxed end
|  4> *xyz 0 1
|  5>  C        0.0037117629     1.4641067428     0.0406049200
|  6>  C       -0.0594265168    -0.0227938232    -0.0360829836
|  7>  N       -1.0781073991    -0.7496536510     0.1836166434
|  8>  C       -0.6577457223    -2.1504961430    -0.0058303101
|  9>  C       -1.5503906109    -2.8787615034    -1.0148250612
| 10>  C       -3.0010928686    -3.0104040256    -0.5471375182
| 11>  O       -3.8049492488    -3.7361194711    -1.4670068625
| 12>  C        0.8284114760    -2.0394587569    -0.4460102664
| 13>  O        1.1152447708    -0.6271504371    -0.3729653103
| 14>  H        0.7457920378     1.7726438200     0.7836937451
| 15>  H        0.3160530366     1.8810568776    -0.9219215816
| 16>  H       -0.9736973128     1.8600910603     0.3135092969
| 17>  H       -0.7361934036    -2.6642935057     0.9618143532
| 18>  H       -1.5195811895    -2.3336286761    -1.9688648380
| 19>  H       -1.1481852053    -3.8817282588    -1.2048259836
| 20>  H       -3.0385363167    -3.5789297328     0.3892485102
| 21>  H       -3.4150844579    -2.0149965376    -0.3393811637
| 22>  H       -3.8968449133    -3.1992309723    -2.2602478425
| 23>  H        1.5245985265    -2.5673529747     0.2104088355
| 24>  H        0.9912501549    -2.3716682713    -1.4772394325
| 25> *
| 26>
| 27>                          ****END OF INPUT****

CARTESIAN COORDINATES (ANGSTROEM)
---------------------------------
  C      0.003712    1.464107    0.040605
  C     -0.059427   -0.022794   -0.036083
  N     -1.078107   -0.749654    0.183617
  C     -0.657746   -2.150496   -0.005830
  C     -1.550391   -2.878762   -1.014825
  C     -3.001093   -3.010404   -0.547138
  O     -3.804949   -3.736119   -1.467007
  C      0.828411   -2.039459   -0.446010
  O      1.115245   -0.627150   -0.372965
  H      0.745792    1.772644    0.783694
  H      0.316053    1.881057   -0.921922
  H     -0.973697    1.860091    0.313509
  H     -0.736193   -2.664294    0.961814
  H     -1.519581   -2.333629   -1.968865
  H     -1.148185   -3.881728   -1.204826
  H     -3.038536   -3.578930    0.389249
  H     -3.415084   -2.014997   -0.339381
  H     -3.896845   -3.199231   -2.260248
  H      1.524599   -2.567353    0.210409
  H      0.991250   -2.371668   -1.477239

 Total Charge           Charge          ....    0
 Multiplicity           Mult            ....    1
 Number of Electrons    NEL             ....   70
 Basis Dimension        Dim             ....  345

ORBITAL ENERGIES
----------------

  NO   OCC          E(Eh)            E(eV)
   0   2.0000     -20.592517      -560.3509
   1   2.0000     -20.550193      -559.1992
   2   2.0000     -15.540160      -422.8693
   3   2.0000     -11.335061      -308.4427
   4   2.0000     -11.290701      -307.2356
   5   2.0000     -11.267993      -306.6177
   6   2.0000     -11.266620      -306.5803
   7   2.0000     -11.238019      -305.8020
   8   2.0000     -11.225276      -305.4553
   9   2.0000      -1.435710       -39.0677
  10   2.0000      -1.353609       -36.8336
  11   2.0000      -1.212957       -33.0062
  12   2.0000      -1.077245       -29.3133
  13   2.0000      -1.009737       -27.4763
  14   2.0000      -0.953451       -25.9447
  15   2.0000      -0.867716       -23.6118
  16   2.0000      -0.811678       -22.0869
  17   2.0000      -0.761816       -20.7301
  18   2.0000      -0.694922       -18.9098
  19   2.0000      -0.686510       -18.6809
  20   2.0000      -0.675865       -18.3912
  21   2.0000      -0.635017       -17.2797
  22   2.0000      -0.606600       -16.5064
  23   2.0000      -0.597531       -16.2597
  24   2.0000      -0.584388       -15.9020
  25   2.0000      -0.567977       -15.4554
  26   2.0000      -0.554212       -15.0809
  27   2.0000      -0.525046       -14.2872
  28   2.0000      -0.523561       -14.2468
  29   2.0000      -0.512018       -13.9327
  30   2.0000      -0.505726       -13.7615
  31   2.0000      -0.473203       -12.8765
  32   2.0000      -0.446843       -12.1592
  33   2.0000      -0.420479       -11.4418
  34   2.0000      -0.377339       -10.2679
  35   0.0000       0.134273         3.6537
  36   0.0000       0.145710         3.9650
  37   0.0000       0.149743         4.0747
  38   0.0000       0.162239         4.4148
  39   0.0000       0.183309         4.9881

MULLIKEN ATOMIC CHARGES
-----------------------
   0 C :   -0.401176
   1 C :    0.215887
   2 N :   -0.301079
   3 C :    0.026294
   4 C :   -0.248936
   5 C :   -0.039066
   6 O :   -0.473286
   7 C :   -0.054362
   8 O :   -0.277505
   9 H :    0.149610
  10 H :    0.147516
  11 H :    0.158130
  12 H :    0.103496
  13 H :    0.098875
  14 H :    0.119505
  15 H :    0.103714
  16 H :    0.128606
  17 H :    0.312898
  18 H :    0.118629
  19 H :    0.112249
Sum of atomic charges:   -0.0000000

LOEWDIN ATOMIC CHARGES
----------------------
   0 C :   -0.261755
   1 C :   -0.397948
   2 N :    0.099896
   3 C :   -0.278320
   4 C :   -0.266455
   5 C :   -0.345038
   6 O :   -0.055044
   7 C :   -0.239331
   8 O :    0.226775
   9 H :    0.139061
  10 H :    0.138201
  11 H :    0.139688
  12 H :    0.147679
  13 H :    0.136516
  14 H :    0.141864
  15 H :    0.128017
  16 H :    0.121726
  17 H :    0.172104
  18 H :    0.125221
  19 H :    0.127143

  Mayer bond orders larger than 0.1
B(  0-C ,  1-C ) :   0.8881 B(  0-C ,  9-H ) :   0.9254 B(  0-C , 10-H ) :   0.9244
B(  0-C , 11-H ) :   0.9476 B(  1-C ,  2-N ) :   1.8503 B(  1-C ,  8-O ) :   1.0657
B(  2-N ,  3-C ) :   0.8883 B(  3-C ,  4-C ) :   0.8989 B(  3-C ,  7-C ) :   0.9024
B(  3-C , 12-H ) :   0.9262 B(  4-C ,  5-C ) :   0.9305 B(  4-C , 13-H ) :   0.9134
B(  4-C , 14-H ) :   0.9271 B(  5-C ,  6-O ) :   0.9232 B(  5-C , 15-H ) :   0.9223
B(  5-C , 16-H ) :   0.9426 B(  6-O , 17-H ) :   0.8496 B(  7-C ,  8-O ) :   0.8870
B(  7-C , 18-H ) :   0.9225 B(  7-C , 19-H ) :   0.9248

MP2 TOTAL ENERGY:     -439.587633782 Eh
FINAL SINGLE POINT ENERGY      -439.587633781901

DIPOLE MOMENT
-------------
                                X             Y             Z
Electronic contribution:      1.34513       0.33235       0.42942
Nuclear contribution   :     -0.67277       0.02848      -0.66478
                        -----------------------------------------
Total Dipole Moment    :      0.67237       0.36083      -0.23536
                        -----------------------------------------
Magnitude (a.u.)       :      0.79854
Magnitude (Debye)      :      2.02973

                             ****ORCA TERMINATED NORMALLY****
TOTAL RUN TIME: 0 days 0 hours 16 minutes 21 seconds 263 msec
