                         Program Version 3.0.3 - RELEASE   -
|  1> ! RI-MP2 RIJK def2-TZVP def2-TZVP/C def2-TZVP/JK TIGHTSCF
|  2> % maxcore 2000
|  3> % mp2 density relaxed end
|  4> *xyz 0 1
|  5>  C       -0.1055439064     1.6465155862    -0.1929985632
|  6>  C       -0.0169439015     0.1336006630    -0.0697166147
|  7>  C        0.6990955571    -0.6475160159    -1.1857371746
|  8>  N        2.0792178984    -0.1248890696    -1.2292210240
|  9>  C        1.7297421445    -1.1702197361    -0.2390289175
| 10>  C        1.0452949643    -0.4755619943     0.9286692191
| 11>  O        1.8423995943     0.4456098123     1.6620330242
| 12>  C        1.8096264631     0.3939478302     3.0065959591
| 13>  O        2.4323197747     1.1387270340     3.7011443449
| 14>  H        0.8692093138     2.0680068571    -0.4433919641
| 15>  H       -0.8203058111     1.9248961281    -0.9746666040
| 16>  H       -0.4439419636     2.0962119391     0.7458511669
| 17>  H       -0.9986556505    -0.3000837269     0.1440199641
| 18>  H        0.2519836907    -1.1357746423    -2.0421257508
| 19>  H        2.5645744421    -0.5955554532    -1.9919549680
| 20>  H        2.2528464130    -2.1181951481    -0.2213909794
| 21>  H        0.5826838082    -1.1942137157     1.6141735902
| 22>  H        1.1505261389    -0.4116114681     3.3889167922
| 23> *
| 24>
| 25>                          ****END OF INPUT****

CARTESIAN COORDINATES (ANGSTROEM)
---------------------------------
  C     -0.105544    1.646516   -0.192999
  C     -0.016944    0.133601   -0.069717
  C      0.699096   -0.647516   -1.185737
  N      2.079218   -0.124889   -1.229221
  C      1.729742   -1.170220   -0.239029
  C      1.045295   -0.475562    0.928669
  O      1.842400    0.445610    1.662033
  C      1.809626    0.393948    3.006596
  O      2.432320    1.138727    3.701144
  H      0.869209    2.068007   -0.443392
  H     -0.820306    1.924896   -0.974667
  H     -0.443942    2.096212    0.745851
  H     -0.998656   -0.300084    0.144020
  H      0.251984   -1.135775   -2.042126
  H      2.564574   -0.595555   -1.991955
  H      2.252846   -2.118195   -0.221391
  H      0.582684   -1.194214    1.614174
  H      1.150526   -0.411611    3.388917

 Total Charge           Charge          ....    0
 Multiplicity           Mult            ....    1
 Number of Electrons    NEL             ....   68
 Basis Dimension        Dim             ....  333

ORBITAL ENERGIES
----------------

  NO   OCC          E(Eh)            E(eV)
   0   2.0000     -20.605389      -560.7011
   1   2.0000     -20.547267      -559.1196
   2   2.0000     -15.574318      -423.7987
   3   2.0000     -11.381090      -309.6952
   4   2.0000     -11.313228      -307.8486
   5   2.0000     -11.276628      -306.8527
   6   2.0000     -11.275830      -306.8309
   7   2.0000     -11.250737      -306.1481
   8   2.0000     -11.213897      -305.1457
   9   2.0000      -1.460802       -39.7505
  10   2.0000      -1.372472       -37.3468
  11   2.0000      -1.294650       -35.2292
  12   2.0000      -1.079686       -29.3798
  13   2.0000      -0.981433       -26.7062
  14   2.0000      -0.903083       -24.5741
  15   2.0000      -0.850798       -23.1514
  16   2.0000      -0.837004       -22.7760
  17   2.0000      -0.772086       -21.0095
  18   2.0000      -0.743344       -20.2274
  19   2.0000      -0.702556       -19.1175
  20   2.0000      -0.664021       -18.0689
  21   2.0000      -0.656176       -17.8555
  22   2.0000      -0.613360       -16.6904
  23   2.0000      -0.591718       -16.1015
  24   2.0000      -0.573841       -15.6150
  25   2.0000      -0.544755       -14.8236
  26   2.0000      -0.539880       -14.6909
  27   2.0000      -0.518295       -14.1035
  28   2.0000      -0.500209       -13.6114
  29   2.0000      -0.494491       -13.4558
  30   2.0000      -0.458889       -12.4870
  31   2.0000      -0.453386       -12.3373
  32   2.0000      -0.431650       -11.7458
  33   2.0000      -0.378683       -10.3045
  34   0.0000       0.126097         3.4313
  35   0.0000       0.144270         3.9258
  36   0.0000       0.145778         3.9668
  37   0.0000       0.162228         4.4144
  38   0.0000       0.168673         4.5898

MULLIKEN ATOMIC CHARGES
-----------------------
   0 C :   -0.438187
   1 C :   -0.023030
   2 C :   -0.061188
   3 N :   -0.386017
   4 C :   -0.123118
   5 C :    0.089788
   6 O :   -0.201097
   7 C :    0.185177
   8 O :   -0.266621
   9 H :    0.169700
  10 H :    0.128310
  11 H :    0.128350
  12 H :    0.107983
  13 H :    0.147107
  14 H :    0.219047
  15 H :    0.149266
  16 H :    0.108998
  17 H :    0.065533
Sum of atomic charges:   -0.0000000

LOEWDIN ATOMIC CHARGES
----------------------
   0 C :   -0.292752
   1 C :   -0.214639
   2 C :   -0.212255
   3 N :    0.014603
   4 C :   -0.218109
   5 C :   -0.243373
   6 O :    0.284517
   7 C :   -0.452022
   8 O :    0.120475
   9 H :    0.135821
  10 H :    0.125537
  11 H :    0.126327
  12 H :    0.150606
  13 H :    0.130590
  14 H :    0.175234
  15 H :    0.130968
  16 H :    0.139272
  17 H :    0.099199

  Mayer bond orders larger than 0.1
B(  0-C ,  1-C ) :   0.8835 B(  0-C ,  9-H ) :   0.9313 B(  0-C , 10-H ) :   0.9355
B(  0-C , 11-H ) :   0.9345 B(  1-C ,  2-C ) :   0.9378 B(  1-C ,  5-C ) :   0.9743
B(  1-C , 12-H ) :   0.9266 B(  2-C ,  3-N ) :   0.9205 B(  2-C ,  4-C ) :   0.8620
B(  2-C , 13-H ) :   0.9135 B(  3-N ,  4-C ) :   0.9511 B(  3-N , 14-H ) :   0.8663
B(  4-C ,  5-C ) :   0.9283 B(  4-C , 15-H ) :   0.9105 B(  5-C ,  6-O ) :   0.8799
B(  5-C , 16-H ) :   0.9089 B(  6-O ,  7-C ) :   1.0662 B(  7-C ,  8-O ) :   2.0374
B(  7-C , 17-H ) :   0.9153

MP2 TOTAL ENERGY:     -438.334456230 Eh
FINAL SINGLE POINT ENERGY      -438.334456229925

DIPOLE MOMENT
-------------
                                X             Y             Z
Electronic contribution:      4.79338      -0.40896       5.04859
Nuclear contribution   :     -5.85129      -1.16482      -6.11059
                        -----------------------------------------
Total Dipole Moment    :     -1.05791      -1.57379      -1.06200
                        -----------------------------------------
Magnitude (a.u.)       :      2.17343
Magnitude (Debye)      :      5.52443

                             ****ORCA TERMINATED NORMALLY****
TOTAL RUN TIME: 0 days 0 hours 17 minutes 18 seconds 899 msec
