                         Program Version 3.0.3 - RELEASE   -
|  1> ! RI-MP2 RIJK def2-TZVP def2-TZVP/C def2-TZVP/JK TIGHTSCF
|  2> % maxcore 2000
|  3> % mp2 density relaxed end
|  4> *xyz 0 1
|  5>  C       -0.2260155765     1.5470893442    -0.0307823623
|  6>  C        0.0577572577     0.0582930759    -0.0271287888
|  7>  N        0.9990854267    -0.4746406159    -1.0771462386
|  8>  C        2.3498066414     0.0300163076    -0.7691215944
|  9>  C        1.8305873738    -1.0960491143     0.0265141939
| 10>  C        0.9091649836    -0.5797451143     1.1430377778
| 11>  N        1.5351556661     0.3557251723     2.0726124612
| 12>  C        0.1875079410    -1.6607016799     1.8280461143
| 13>  N       -0.3769476823    -2.4849847612     2.4115208540
| 14>  H        0.6594212053     2.1437344714     0.1950189228
| 15>  H       -0.6059324514     1.8383118019    -1.0152401175
| 16>  H       -0.9938853916     1.7904899502     0.7111302584
| 17>  H       -0.8749258732    -0.4984602866    -0.1401291539
| 18>  H        3.0634803820    -0.2116589605    -1.5503649598
| 19>  H        2.4851329728     0.9986810697    -0.3013574776
| 20>  H        2.2011044530    -2.1131316364    -0.0347084699
| 21>  H        0.8530919156     0.6784084204     2.7542417812
| 22>  H        2.2665932959    -0.1178989544     2.5972274293
| 23> *
| 24>
| 25>                          ****END OF INPUT****

CARTESIAN COORDINATES (ANGSTROEM)
---------------------------------
  C     -0.226016    1.547089   -0.030782
  C      0.057757    0.058293   -0.027129
  N      0.999085   -0.474641   -1.077146
  C      2.349807    0.030016   -0.769122
  C      1.830587   -1.096049    0.026514
  C      0.909165   -0.579745    1.143038
  N      1.535156    0.355725    2.072612
  C      0.187508   -1.660702    1.828046
  N     -0.376948   -2.484985    2.411521
  H      0.659421    2.143734    0.195019
  H     -0.605932    1.838312   -1.015240
  H     -0.993885    1.790490    0.711130
  H     -0.874926   -0.498460   -0.140129
  H      3.063480   -0.211659   -1.550365
  H      2.485133    0.998681   -0.301357
  H      2.201104   -2.113132   -0.034708
  H      0.853092    0.678408    2.754242
  H      2.266593   -0.117899    2.597227

 Total Charge           Charge          ....    0
 Multiplicity           Mult            ....    1
 Number of Electrons    NEL             ....   66
 Basis Dimension        Dim             ....  333

ORBITAL ENERGIES
----------------

  NO   OCC          E(Eh)            E(eV)
   0   2.0000     -15.578421      -423.9104
   1   2.0000     -15.577710      -423.8910
   2   2.0000     -15.577302      -423.8799
   3   2.0000     -11.325355      -308.1786
   4   2.0000     -11.287036      -307.1359
   5   2.0000     -11.285179      -307.0853
   6   2.0000     -11.276022      -306.8361
   7   2.0000     -11.270614      -306.6890
   8   2.0000     -11.231098      -305.6137
   9   2.0000      -1.319185       -35.8969
  10   2.0000      -1.231993       -33.5242
  11   2.0000      -1.202860       -32.7315
  12   2.0000      -1.051748       -28.6195
  13   2.0000      -0.992182       -26.9987
  14   2.0000      -0.920623       -25.0514
  15   2.0000      -0.830743       -22.6057
  16   2.0000      -0.788950       -21.4684
  17   2.0000      -0.748537       -20.3687
  18   2.0000      -0.700759       -19.0686
  19   2.0000      -0.660023       -17.9601
  20   2.0000      -0.641042       -17.4436
  21   2.0000      -0.606111       -16.4931
  22   2.0000      -0.590568       -16.0702
  23   2.0000      -0.567316       -15.4375
  24   2.0000      -0.561245       -15.2722
  25   2.0000      -0.545440       -14.8422
  26   2.0000      -0.514599       -14.0030
  27   2.0000      -0.505571       -13.7573
  28   2.0000      -0.464308       -12.6345
  29   2.0000      -0.456604       -12.4248
  30   2.0000      -0.440420       -11.9844
  31   2.0000      -0.436298       -11.8723
  32   2.0000      -0.389237       -10.5917
  33   0.0000       0.111997         3.0476
  34   0.0000       0.146412         3.9841
  35   0.0000       0.152077         4.1382
  36   0.0000       0.166584         4.5330
  37   0.0000       0.174001         4.7348

MULLIKEN ATOMIC CHARGES
-----------------------
   0 C :   -0.430117
   1 C :   -0.023845
   2 N :   -0.223240
   3 C :   -0.129457
   4 C :   -0.190693
   5 C :    0.398365
   6 N :   -0.562421
   7 C :   -0.282608
   8 N :   -0.045482
   9 H :    0.146541
  10 H :    0.153520
  11 H :    0.135803
  12 H :    0.131461
  13 H :    0.138450
  14 H :    0.147552
  15 H :    0.150151
  16 H :    0.244507
  17 H :    0.241514
Sum of atomic charges:    0.0000000

LOEWDIN ATOMIC CHARGES
----------------------
   0 C :   -0.292021
   1 C :   -0.220195
   2 N :    0.123867
   3 C :   -0.236737
   4 C :   -0.172491
   5 C :   -0.303175
   6 N :   -0.095854
   7 C :   -0.162477
   8 N :    0.065788
   9 H :    0.127442
  10 H :    0.136014
  11 H :    0.130864
  12 H :    0.156988
  13 H :    0.136899
  14 H :    0.132506
  15 H :    0.140661
  16 H :    0.165565
  17 H :    0.166356

  Mayer bond orders larger than 0.1
B(  0-C ,  1-C ) :   0.9223 B(  0-C ,  9-H ) :   0.9258 B(  0-C , 10-H ) :   0.9336
B(  0-C , 11-H ) :   0.9343 B(  1-C ,  2-N ) :   0.9338 B(  1-C ,  5-C ) :   0.9073
B(  1-C , 12-H ) :   0.9173 B(  2-N ,  3-C ) :   0.8654 B(  2-N ,  4-C ) :   0.9118
B(  3-C ,  4-C ) :   0.9548 B(  3-C , 13-H ) :   0.9327 B(  3-C , 14-H ) :   0.8960
B(  4-C ,  5-C ) :   0.8996 B(  4-C , 15-H ) :   0.8916 B(  5-C ,  6-N ) :   0.8680
B(  5-C ,  7-C ) :   0.9422 B(  6-N , 16-H ) :   0.8822 B(  6-N , 17-H ) :   0.8820
B(  7-C ,  8-N ) :   2.8782

MP2 TOTAL ENERGY:     -397.402549070 Eh
FINAL SINGLE POINT ENERGY      -397.402549070089

DIPOLE MOMENT
-------------
                                X             Y             Z
Electronic contribution:     -0.84831      -6.74005       2.33861
Nuclear contribution   :      1.58848       7.81216      -2.25589
                        -----------------------------------------
Total Dipole Moment    :      0.74016       1.07211       0.08272
                        -----------------------------------------
Magnitude (a.u.)       :      1.30541
Magnitude (Debye)      :      3.31809

                             ****ORCA TERMINATED NORMALLY****
TOTAL RUN TIME: 0 days 0 hours 18 minutes 38 seconds 774 msec
