                         Program Version 3.0.3 - RELEASE   -
|  1> ! RI-MP2 RIJK def2-TZVP def2-TZVP/C def2-TZVP/JK TIGHTSCF
|  2> % maxcore 2000
|  3> % mp2 density relaxed end
|  4> *xyz 0 1
|  5>  C       -0.1263887507     1.5019529881     0.0191915690
|  6>  C        0.0668671767     0.0085794876     0.0061301062
|  7>  O        1.1275893332    -0.5618434287     0.0065665458
|  8>  N       -1.1293865041    -0.7588919558    -0.0088937528
|  9>  C       -1.2346577552    -2.1276494254    -0.0310072765
| 10>  C       -2.5873432705    -2.3506350237    -0.0313218126
| 11>  N       -3.3200147097    -3.5223427880    -0.1107507449
| 12>  N       -3.2317667760    -1.1340206487    -0.0097261358
| 13>  N       -2.3553859194    -0.1829554185     0.0008657999
| 14>  H        0.8571048791     1.9699359763     0.0381725204
| 15>  H       -0.6852847845     1.8229814809    -0.8633565292
| 16>  H       -0.7125814343     1.8057107875     0.8898492178
| 17>  H       -0.3664130908    -2.7601764918    -0.0466397468
| 18>  H       -2.9023174414    -4.3169563032     0.3509711297
| 19>  H       -4.2807440423    -3.3873271064     0.1739065897
| 20> *
| 21>
| 22>                          ****END OF INPUT****

CARTESIAN COORDINATES (ANGSTROEM)
---------------------------------
  C     -0.126389    1.501953    0.019192
  C      0.066867    0.008579    0.006130
  O      1.127589   -0.561843    0.006567
  N     -1.129387   -0.758892   -0.008894
  C     -1.234658   -2.127649   -0.031007
  C     -2.587343   -2.350635   -0.031322
  N     -3.320015   -3.522343   -0.110751
  N     -3.231767   -1.134021   -0.009726
  N     -2.355386   -0.182955    0.000866
  H      0.857105    1.969936    0.038173
  H     -0.685285    1.822981   -0.863357
  H     -0.712581    1.805711    0.889849
  H     -0.366413   -2.760176   -0.046640
  H     -2.902317   -4.316956    0.350971
  H     -4.280744   -3.387327    0.173907

 Total Charge           Charge          ....    0
 Multiplicity           Mult            ....    1
 Number of Electrons    NEL             ....   66
 Basis Dimension        Dim             ....  315

ORBITAL ENERGIES
----------------

  NO   OCC          E(Eh)            E(eV)
   0   2.0000     -20.566653      -559.6471
   1   2.0000     -15.669529      -426.3896
   2   2.0000     -15.661720      -426.1771
   3   2.0000     -15.612757      -424.8447
   4   2.0000     -15.577618      -423.8885
   5   2.0000     -11.391359      -309.9747
   6   2.0000     -11.308827      -307.7288
   7   2.0000     -11.279284      -306.9249
   8   2.0000     -11.251398      -306.1661
   9   2.0000      -1.463678       -39.8287
  10   2.0000      -1.416537       -38.5459
  11   2.0000      -1.248614       -33.9765
  12   2.0000      -1.207316       -32.8527
  13   2.0000      -1.076155       -29.2837
  14   2.0000      -1.023572       -27.8528
  15   2.0000      -0.917911       -24.9776
  16   2.0000      -0.838334       -22.8122
  17   2.0000      -0.792804       -21.5733
  18   2.0000      -0.725256       -19.7352
  19   2.0000      -0.691383       -18.8135
  20   2.0000      -0.681588       -18.5470
  21   2.0000      -0.668501       -18.1908
  22   2.0000      -0.636702       -17.3255
  23   2.0000      -0.624426       -16.9915
  24   2.0000      -0.606879       -16.5140
  25   2.0000      -0.577122       -15.7043
  26   2.0000      -0.545150       -14.8343
  27   2.0000      -0.536952       -14.6112
  28   2.0000      -0.502167       -13.6647
  29   2.0000      -0.471627       -12.8336
  30   2.0000      -0.449871       -12.2416
  31   2.0000      -0.422007       -11.4834
  32   2.0000      -0.329489        -8.9659
  33   0.0000       0.079718         2.1692
  34   0.0000       0.129897         3.5347
  35   0.0000       0.141218         3.8427
  36   0.0000       0.176236         4.7956
  37   0.0000       0.188306         5.1241

MULLIKEN ATOMIC CHARGES
-----------------------
   0 C :   -0.361002
   1 C :    0.238572
   2 O :   -0.290360
   3 N :    0.131510
   4 C :   -0.225004
   5 C :    0.206554
   6 N :   -0.528314
   7 N :   -0.182487
   8 N :   -0.171018
   9 H :    0.158628
  10 H :    0.162354
  11 H :    0.162059
  12 H :    0.178401
  13 H :    0.254334
  14 H :    0.265772
Sum of atomic charges:   -0.0000000

LOEWDIN ATOMIC CHARGES
----------------------
   0 C :   -0.267751
   1 C :   -0.380715
   2 O :    0.157673
   3 N :    0.197021
   4 C :   -0.195516
   5 C :   -0.371522
   6 N :   -0.072532
   7 N :    0.022628
   8 N :   -0.017758
   9 H :    0.138885
  10 H :    0.146040
  11 H :    0.145610
  12 H :    0.148888
  13 H :    0.171273
  14 H :    0.177777

  Mayer bond orders larger than 0.1
B(  0-C ,  1-C ) :   0.9493 B(  0-C ,  9-H ) :   0.9292 B(  0-C , 10-H ) :   0.9057
B(  0-C , 11-H ) :   0.9060 B(  1-C ,  2-O ) :   1.9673 B(  1-C ,  3-N ) :   0.9295
B(  3-N ,  4-C ) :   1.1130 B(  3-N ,  8-N ) :   0.9900 B(  4-C ,  5-C ) :   1.4302
B(  4-C ,  8-N ) :   0.1175 B(  4-C , 12-H ) :   0.9246 B(  5-C ,  6-N ) :   1.0646
B(  5-C ,  7-N ) :   1.3053 B(  6-N , 13-H ) :   0.8761 B(  6-N , 14-H ) :   0.8668
B(  7-N ,  8-N ) :   1.2811

MP2 TOTAL ENERGY:     -449.415273711 Eh
FINAL SINGLE POINT ENERGY      -449.415273710552

DIPOLE MOMENT
-------------
                                X             Y             Z
Electronic contribution:     -0.20465      -1.64713      -0.15957
Nuclear contribution   :      0.33730       1.14414       0.58026
                        -----------------------------------------
Total Dipole Moment    :      0.13265      -0.50298       0.42069
                        -----------------------------------------
Magnitude (a.u.)       :      0.66901
Magnitude (Debye)      :      1.70048

                             ****ORCA TERMINATED NORMALLY****
TOTAL RUN TIME: 0 days 0 hours 15 minutes 2 seconds 867 msec
