                         Program Version 3.0.3 - RELEASE   -
|  1> ! RI-MP2 RIJK def2-TZVP def2-TZVP/C def2-TZVP/JK TIGHTSCF
|  2> % maxcore 2000
|  3> % mp2 density relaxed end
|  4> *xyz 0 1
|  5>  C        0.0603703174     1.4833059920     0.1102169445
|  6>  O        1.4887804096     1.4244023648    -0.1747508817
|  7>  C        1.3053916737     0.1094982537    -0.7735318480
|  8>  C        2.1515941422    -1.1200407720    -0.3923216863
|  9>  C        1.0574637753    -1.9297288772     0.3566021254
| 10>  C        0.4380677441    -0.8482884392     1.2376880635
| 11>  C       -0.0167773283    -0.0426811487    -0.0006289856
| 12>  C       -0.8805321522    -1.0850620336    -0.6844140702
| 13>  O       -0.0216439428    -2.2525006264    -0.5607891525
| 14>  H       -0.1486341292     1.9398426031     1.0823506427
| 15>  H       -0.4776142173     2.0261313866    -0.6789329114
| 16>  H        1.1846767063     0.2185367276    -1.8591714580
| 17>  H        2.5350542792    -1.6470922064    -1.2685281739
| 18>  H        2.9890228139    -0.8734554909     0.2676848719
| 19>  H        1.3878876466    -2.8615134198     0.8165166553
| 20>  H       -0.3954725661    -1.2018333566     1.8499470389
| 21>  H        1.1623794692    -0.3169047351     1.8566331151
| 22>  H       -1.8458505125    -1.2779899794    -0.1979549088
| 23>  H       -1.0514406991    -0.8852316425    -1.7479874009
| 24> *
| 25>
| 26>                          ****END OF INPUT****

CARTESIAN COORDINATES (ANGSTROEM)
---------------------------------
  C      0.060370    1.483306    0.110217
  O      1.488780    1.424402   -0.174751
  C      1.305392    0.109498   -0.773532
  C      2.151594   -1.120041   -0.392322
  C      1.057464   -1.929729    0.356602
  C      0.438068   -0.848288    1.237688
  C     -0.016777   -0.042681   -0.000629
  C     -0.880532   -1.085062   -0.684414
  O     -0.021644   -2.252501   -0.560789
  H     -0.148634    1.939843    1.082351
  H     -0.477614    2.026131   -0.678933
  H      1.184677    0.218537   -1.859171
  H      2.535054   -1.647092   -1.268528
  H      2.989023   -0.873455    0.267685
  H      1.387888   -2.861513    0.816517
  H     -0.395473   -1.201833    1.849947
  H      1.162379   -0.316905    1.856633
  H     -1.845851   -1.277990   -0.197955
  H     -1.051441   -0.885232   -1.747987

 Total Charge           Charge          ....    0
 Multiplicity           Mult            ....    1
 Number of Electrons    NEL             ....   68
 Basis Dimension        Dim             ....  339

ORBITAL ENERGIES
----------------

  NO   OCC          E(Eh)            E(eV)
   0   2.0000     -20.553651      -559.2933
   1   2.0000     -20.553216      -559.2814
   2   2.0000     -11.289756      -307.2099
   3   2.0000     -11.284773      -307.0743
   4   2.0000     -11.282129      -307.0023
   5   2.0000     -11.280455      -306.9568
   6   2.0000     -11.241181      -305.8881
   7   2.0000     -11.227073      -305.5042
   8   2.0000     -11.226396      -305.4858
   9   2.0000      -1.385897       -37.7122
  10   2.0000      -1.365079       -37.1457
  11   2.0000      -1.109233       -30.1838
  12   2.0000      -1.029581       -28.0163
  13   2.0000      -0.967659       -26.3313
  14   2.0000      -0.917710       -24.9722
  15   2.0000      -0.859470       -23.3874
  16   2.0000      -0.790446       -21.5091
  17   2.0000      -0.738470       -20.0948
  18   2.0000      -0.700258       -19.0550
  19   2.0000      -0.679728       -18.4963
  20   2.0000      -0.648164       -17.6374
  21   2.0000      -0.633480       -17.2379
  22   2.0000      -0.602005       -16.3814
  23   2.0000      -0.579742       -15.7756
  24   2.0000      -0.559205       -15.2168
  25   2.0000      -0.545904       -14.8548
  26   2.0000      -0.528839       -14.3904
  27   2.0000      -0.512726       -13.9520
  28   2.0000      -0.506433       -13.7808
  29   2.0000      -0.475510       -12.9393
  30   2.0000      -0.450612       -12.2618
  31   2.0000      -0.433832       -11.8052
  32   2.0000      -0.422286       -11.4910
  33   2.0000      -0.400370       -10.8946
  34   0.0000       0.136781         3.7220
  35   0.0000       0.156157         4.2492
  36   0.0000       0.167797         4.5660
  37   0.0000       0.175723         4.7817
  38   0.0000       0.185598         5.0504

MULLIKEN ATOMIC CHARGES
-----------------------
   0 C :   -0.009954
   1 O :   -0.322364
   2 C :    0.017690
   3 C :   -0.241252
   4 C :    0.087099
   5 C :   -0.308243
   6 C :    0.012915
   7 C :   -0.050060
   8 O :   -0.329273
   9 H :    0.115197
  10 H :    0.098031
  11 H :    0.088812
  12 H :    0.126997
  13 H :    0.122418
  14 H :    0.120524
  15 H :    0.126752
  16 H :    0.139655
  17 H :    0.100325
  18 H :    0.104732
Sum of atomic charges:    0.0000000

LOEWDIN ATOMIC CHARGES
----------------------
   0 C :   -0.228151
   1 O :    0.124643
   2 C :   -0.219807
   3 C :   -0.212752
   4 C :   -0.275551
   5 C :   -0.186200
   6 C :   -0.247474
   7 C :   -0.246526
   8 O :    0.146434
   9 H :    0.122306
  10 H :    0.123716
  11 H :    0.138489
  12 H :    0.138977
  13 H :    0.144846
  14 H :    0.136975
  15 H :    0.141958
  16 H :    0.149445
  17 H :    0.121243
  18 H :    0.127430

  Mayer bond orders larger than 0.1
B(  0-C ,  1-O ) :   0.9249 B(  0-C ,  6-C ) :   0.9410 B(  0-C ,  9-H ) :   0.9081
B(  0-C , 10-H ) :   0.9116 B(  1-O ,  2-C ) :   0.9732 B(  2-C ,  3-C ) :   0.9426
B(  2-C ,  6-C ) :   0.9144 B(  2-C , 11-H ) :   0.9257 B(  3-C ,  4-C ) :   0.9218
B(  3-C , 12-H ) :   0.9183 B(  3-C , 13-H ) :   0.8976 B(  4-C ,  5-C ) :   0.9485
B(  4-C ,  8-O ) :   0.9144 B(  4-C , 14-H ) :   0.9271 B(  5-C ,  6-C ) :   0.8994
B(  5-C , 15-H ) :   0.9153 B(  5-C , 16-H ) :   0.9124 B(  6-C ,  7-C ) :   0.9657
B(  7-C ,  8-O ) :   0.9506 B(  7-C , 17-H ) :   0.9160 B(  7-C , 18-H ) :   0.9155

MP2 TOTAL ENERGY:     -422.298693198 Eh
FINAL SINGLE POINT ENERGY      -422.298693198293

DIPOLE MOMENT
-------------
                                X             Y             Z
Electronic contribution:      0.42132       0.22442      -0.84002
Nuclear contribution   :     -0.80880      -0.15869       1.10223
                        -----------------------------------------
Total Dipole Moment    :     -0.38748       0.06573       0.26222
                        -----------------------------------------
Magnitude (a.u.)       :      0.47246
Magnitude (Debye)      :      1.20091

                             ****ORCA TERMINATED NORMALLY****
TOTAL RUN TIME: 0 days 0 hours 19 minutes 16 seconds 200 msec
