                         Program Version 3.0.3 - RELEASE   -
|  1> ! RI-MP2 RIJK def2-TZVP def2-TZVP/C def2-TZVP/JK TIGHTSCF
|  2> % maxcore 2000
|  3> % mp2 density relaxed end
|  4> *xyz 0 1
|  5>  C        0.1566204528     1.5340795417    -0.0103820785
|  6>  C       -0.0295941064     0.0398624585     0.0157980946
|  7>  C       -1.1997361258    -0.6102782426    -0.0516592458
|  8>  C       -2.5608885151     0.0317729726    -0.1103178445
|  9>  C       -1.2188010051    -2.1270005855    -0.0348631059
| 10>  O       -2.1865462773    -2.5722491087    -0.9869707430
| 11>  C        0.1604963992    -2.6931071275    -0.3760288768
| 12>  O        1.1563948332    -2.0882827381     0.4190296287
| 13>  C        1.2799239623    -0.7113590033     0.1302210494
| 14>  H        0.9105075515     1.8117329018    -0.7585577357
| 15>  H       -0.7570773206     2.0780821050    -0.2493617124
| 16>  H        0.5286823495     1.9027306088     0.9547587933
| 17>  H       -2.5240707655     1.1166445607    -0.0071731041
| 18>  H       -3.0672603284    -0.2157448842    -1.0479650358
| 19>  H       -3.1982076783    -0.3584550390     0.6935991253
| 20>  H       -1.5096177674    -2.4644136819     0.9750526465
| 21>  H       -2.3264269654    -3.5136003344    -0.8452059070
| 22>  H        0.2075629473    -3.7693767153    -0.1768774489
| 23>  H        0.3446511548    -2.5324805178    -1.4507635318
| 24>  H        1.8608050298    -0.5676021922    -0.8011658829
| 25>  H        1.8820176449    -0.2836115686     0.9418725651
| 26> *
| 27>
| 28>                          ****END OF INPUT****

CARTESIAN COORDINATES (ANGSTROEM)
---------------------------------
  C      0.156620    1.534080   -0.010382
  C     -0.029594    0.039862    0.015798
  C     -1.199736   -0.610278   -0.051659
  C     -2.560889    0.031773   -0.110318
  C     -1.218801   -2.127001   -0.034863
  O     -2.186546   -2.572249   -0.986971
  C      0.160496   -2.693107   -0.376029
  O      1.156395   -2.088283    0.419030
  C      1.279924   -0.711359    0.130221
  H      0.910508    1.811733   -0.758558
  H     -0.757077    2.078082   -0.249362
  H      0.528682    1.902731    0.954759
  H     -2.524071    1.116645   -0.007173
  H     -3.067260   -0.215745   -1.047965
  H     -3.198208   -0.358455    0.693599
  H     -1.509618   -2.464414    0.975053
  H     -2.326427   -3.513600   -0.845206
  H      0.207563   -3.769377   -0.176877
  H      0.344651   -2.532481   -1.450764
  H      1.860805   -0.567602   -0.801166
  H      1.882018   -0.283612    0.941873

 Total Charge           Charge          ....    0
 Multiplicity           Mult            ....    1
 Number of Electrons    NEL             ....   70
 Basis Dimension        Dim             ....  351

ORBITAL ENERGIES
----------------

  NO   OCC          E(Eh)            E(eV)
   0   2.0000     -20.560473      -559.4789
   1   2.0000     -20.556478      -559.3702
   2   2.0000     -11.282498      -307.0124
   3   2.0000     -11.277072      -306.8647
   4   2.0000     -11.272365      -306.7366
   5   2.0000     -11.231862      -305.6345
   6   2.0000     -11.228603      -305.5458
   7   2.0000     -11.223814      -305.4155
   8   2.0000     -11.212444      -305.1061
   9   2.0000      -1.383903       -37.6579
  10   2.0000      -1.363057       -37.0907
  11   2.0000      -1.104823       -30.0638
  12   2.0000      -1.030082       -28.0300
  13   2.0000      -0.969347       -26.3773
  14   2.0000      -0.935439       -25.4546
  15   2.0000      -0.853482       -23.2244
  16   2.0000      -0.839460       -22.8429
  17   2.0000      -0.719039       -19.5660
  18   2.0000      -0.682174       -18.5629
  19   2.0000      -0.668338       -18.1864
  20   2.0000      -0.661651       -18.0044
  21   2.0000      -0.634542       -17.2668
  22   2.0000      -0.591335       -16.0910
  23   2.0000      -0.576249       -15.6805
  24   2.0000      -0.564037       -15.3482
  25   2.0000      -0.550219       -14.9722
  26   2.0000      -0.547021       -14.8852
  27   2.0000      -0.541462       -14.7339
  28   2.0000      -0.530498       -14.4356
  29   2.0000      -0.522657       -14.2222
  30   2.0000      -0.496503       -13.5105
  31   2.0000      -0.467652       -12.7255
  32   2.0000      -0.451093       -12.2749
  33   2.0000      -0.404183       -10.9984
  34   2.0000      -0.333509        -9.0752
  35   0.0000       0.124411         3.3854
  36   0.0000       0.143732         3.9112
  37   0.0000       0.161273         4.3885
  38   0.0000       0.170754         4.6464
  39   0.0000       0.180505         4.9118

MULLIKEN ATOMIC CHARGES
-----------------------
   0 C :   -0.412043
   1 C :    0.021804
   2 C :   -0.051302
   3 C :   -0.402240
   4 C :    0.084190
   5 O :   -0.469212
   6 C :   -0.065551
   7 O :   -0.315107
   8 C :   -0.059113
   9 H :    0.137163
  10 H :    0.132348
  11 H :    0.143657
  12 H :    0.118874
  13 H :    0.159137
  14 H :    0.129439
  15 H :    0.086923
  16 H :    0.316021
  17 H :    0.117365
  18 H :    0.095267
  19 H :    0.107127
  20 H :    0.125254
Sum of atomic charges:   -0.0000000

LOEWDIN ATOMIC CHARGES
----------------------
   0 C :   -0.269394
   1 C :   -0.175487
   2 C :   -0.155067
   3 C :   -0.268662
   4 C :   -0.312032
   5 O :   -0.013969
   6 C :   -0.304660
   7 O :    0.164708
   8 C :   -0.282676
   9 H :    0.132726
  10 H :    0.126512
  11 H :    0.131796
  12 H :    0.122187
  13 H :    0.135886
  14 H :    0.132544
  15 H :    0.139857
  16 H :    0.174781
  17 H :    0.126408
  18 H :    0.127060
  19 H :    0.128960
  20 H :    0.138523

  Mayer bond orders larger than 0.1
B(  0-C ,  1-C ) :   0.8852 B(  0-C ,  9-H ) :   0.9304 B(  0-C , 10-H ) :   0.9488
B(  0-C , 11-H ) :   0.9328 B(  1-C ,  2-C ) :   1.7045 B(  1-C ,  8-C ) :   0.9265
B(  2-C ,  3-C ) :   0.9135 B(  2-C ,  4-C ) :   0.9314 B(  2-C ,  5-O ) :  -0.1014
B(  3-C , 12-H ) :   0.9487 B(  3-C , 13-H ) :   0.9308 B(  3-C , 14-H ) :   0.9251
B(  4-C ,  5-O ) :   1.0221 B(  4-C ,  6-C ) :   0.9365 B(  4-C , 15-H ) :   0.9229
B(  5-O , 16-H ) :   0.8462 B(  6-C ,  7-O ) :   0.9217 B(  6-C , 17-H ) :   0.9243
B(  6-C , 18-H ) :   0.9296 B(  7-O ,  8-C ) :   0.9518 B(  8-C , 19-H ) :   0.9492
B(  8-C , 20-H ) :   0.9190

MP2 TOTAL ENERGY:     -423.527336399 Eh
FINAL SINGLE POINT ENERGY      -423.527336399219

DIPOLE MOMENT
-------------
                                X             Y             Z
Electronic contribution:      1.33689      -5.51867       0.31938
Nuclear contribution   :     -1.45126       5.52321      -0.25064
                        -----------------------------------------
Total Dipole Moment    :     -0.11437       0.00453       0.06874
                        -----------------------------------------
Magnitude (a.u.)       :      0.13351
Magnitude (Debye)      :      0.33936

                             ****ORCA TERMINATED NORMALLY****
TOTAL RUN TIME: 0 days 0 hours 19 minutes 32 seconds 835 msec
