                         Program Version 3.0.3 - RELEASE   -
|  1> ! RI-MP2 RIJK def2-TZVP def2-TZVP/C def2-TZVP/JK TIGHTSCF
|  2> % maxcore 2000
|  3> % mp2 density relaxed end
|  4> *xyz 0 1
|  5>  C       -0.2238140430     1.3971799521    -0.3385349151
|  6>  O        0.1840099067     0.0887825253     0.0321749388
|  7>  C        0.7510649883    -0.6249954704    -1.0256411543
|  8>  C        1.0837453530    -2.0951492206    -0.6484859132
|  9>  N        0.2828867014    -2.5175542433    -1.8131613227
| 10>  C       -0.2149074109    -1.2352560607    -2.0572721175
| 11>  N       -1.1083971634    -0.7366213736    -2.7961199736
| 12>  C       -1.8992964596    -1.6586504217    -3.6013115099
| 13>  H        0.6343909588     1.9975920033    -0.6785645623
| 14>  H       -0.9742539915     1.3694570142    -1.1362559020
| 15>  H       -0.6484409727     1.8597483401     0.5552790836
| 16>  H        1.5855985000    -0.0728429466    -1.4831808390
| 17>  H        2.1335699572    -2.3969314834    -0.6919311028
| 18>  H        0.6525940065    -2.3574098513     0.3224707414
| 19>  H       -0.2345775781    -3.3812846196    -1.8842542395
| 20>  H       -2.6850039378    -2.1404307312    -3.0013634724
| 21>  H       -2.3963151090    -1.1063435625    -4.4032845885
| 22>  H       -1.2948208259    -2.4547903301    -4.0621643611
| 23> *
| 24>
| 25>                          ****END OF INPUT****

CARTESIAN COORDINATES (ANGSTROEM)
---------------------------------
  C     -0.223814    1.397180   -0.338535
  O      0.184010    0.088783    0.032175
  C      0.751065   -0.624995   -1.025641
  C      1.083745   -2.095149   -0.648486
  N      0.282887   -2.517554   -1.813161
  C     -0.214907   -1.235256   -2.057272
  N     -1.108397   -0.736621   -2.796120
  C     -1.899296   -1.658650   -3.601312
  H      0.634391    1.997592   -0.678565
  H     -0.974254    1.369457   -1.136256
  H     -0.648441    1.859748    0.555279
  H      1.585598   -0.072843   -1.483181
  H      2.133570   -2.396931   -0.691931
  H      0.652594   -2.357410    0.322471
  H     -0.234578   -3.381285   -1.884254
  H     -2.685004   -2.140431   -3.001363
  H     -2.396315   -1.106344   -4.403285
  H     -1.294821   -2.454790   -4.062164

 Total Charge           Charge          ....    0
 Multiplicity           Mult            ....    1
 Number of Electrons    NEL             ....   62
 Basis Dimension        Dim             ....  308

ORBITAL ENERGIES
----------------

  NO   OCC          E(Eh)            E(eV)
   0   2.0000     -20.562916      -559.5454
   1   2.0000     -15.575384      -423.8277
   2   2.0000     -15.528384      -422.5488
   3   2.0000     -11.303764      -307.5911
   4   2.0000     -11.294563      -307.3407
   5   2.0000     -11.269537      -306.6597
   6   2.0000     -11.264715      -306.5285
   7   2.0000     -11.240146      -305.8599
   8   2.0000      -1.386606       -37.7315
   9   2.0000      -1.284508       -34.9532
  10   2.0000      -1.184370       -32.2284
  11   2.0000      -0.999090       -27.1866
  12   2.0000      -0.941290       -25.6138
  13   2.0000      -0.908625       -24.7249
  14   2.0000      -0.857678       -23.3386
  15   2.0000      -0.764723       -20.8092
  16   2.0000      -0.689846       -18.7717
  17   2.0000      -0.663354       -18.0508
  18   2.0000      -0.658535       -17.9196
  19   2.0000      -0.619396       -16.8546
  20   2.0000      -0.606386       -16.5006
  21   2.0000      -0.590584       -16.0706
  22   2.0000      -0.580020       -15.7831
  23   2.0000      -0.559776       -15.2323
  24   2.0000      -0.520569       -14.1654
  25   2.0000      -0.507721       -13.8158
  26   2.0000      -0.486027       -13.2255
  27   2.0000      -0.459877       -12.5139
  28   2.0000      -0.439836       -11.9685
  29   2.0000      -0.386426       -10.5152
  30   2.0000      -0.353559        -9.6208
  31   0.0000       0.131942         3.5903
  32   0.0000       0.149167         4.0590
  33   0.0000       0.167898         4.5687
  34   0.0000       0.177561         4.8317
  35   0.0000       0.192627         5.2417

MULLIKEN ATOMIC CHARGES
-----------------------
   0 C :   -0.225150
   1 O :   -0.315751
   2 C :    0.155393
   3 C :   -0.098211
   4 N :   -0.360778
   5 C :    0.077177
   6 N :   -0.274389
   7 C :   -0.315865
   8 H :    0.105571
   9 H :    0.150623
  10 H :    0.134616
  11 H :    0.092520
  12 H :    0.115289
  13 H :    0.124128
  14 H :    0.239822
  15 H :    0.132717
  16 H :    0.144671
  17 H :    0.117617
Sum of atomic charges:   -0.0000000

LOEWDIN ATOMIC CHARGES
----------------------
   0 C :   -0.341116
   1 O :    0.160255
   2 C :   -0.272829
   3 C :   -0.220588
   4 N :    0.080608
   5 C :   -0.331879
   6 N :    0.050154
   7 C :   -0.340389
   8 H :    0.101953
   9 H :    0.111430
  10 H :    0.111948
  11 H :    0.136166
  12 H :    0.120791
  13 H :    0.128940
  14 H :    0.168242
  15 H :    0.113287
  16 H :    0.115987
  17 H :    0.107042

  Mayer bond orders larger than 0.1
B(  0-C ,  1-O ) :   0.8878 B(  0-C ,  8-H ) :   0.9357 B(  0-C ,  9-H ) :   0.9312
B(  0-C , 10-H ) :   0.9374 B(  1-O ,  2-C ) :   1.0052 B(  2-C ,  3-C ) :   0.9161
B(  2-C ,  5-C ) :   0.8496 B(  2-C , 11-H ) :   0.9324 B(  3-C ,  4-N ) :   0.9391
B(  3-C , 12-H ) :   0.9197 B(  3-C , 13-H ) :   0.9264 B(  4-N ,  5-C ) :   1.1153
B(  4-N , 14-H ) :   0.8638 B(  5-C ,  6-N ) :   1.9145 B(  6-N ,  7-C ) :   0.8757
B(  7-C , 15-H ) :   0.9274 B(  7-C , 16-H ) :   0.9481 B(  7-C , 17-H ) :   0.9289

MP2 TOTAL ENERGY:     -380.449319782 Eh
FINAL SINGLE POINT ENERGY      -380.449319781922

DIPOLE MOMENT
-------------
                                X             Y             Z
Electronic contribution:      1.74051      -1.01642       1.33672
Nuclear contribution   :     -1.55300       0.37213      -1.23044
                        -----------------------------------------
Total Dipole Moment    :      0.18750      -0.64429       0.10628
                        -----------------------------------------
Magnitude (a.u.)       :      0.67939
Magnitude (Debye)      :      1.72686

                             ****ORCA TERMINATED NORMALLY****
TOTAL RUN TIME: 0 days 0 hours 12 minutes 22 seconds 197 msec
