                         Program Version 3.0.3 - RELEASE   -
|  1> ! RI-MP2 RIJK def2-TZVP def2-TZVP/C def2-TZVP/JK TIGHTSCF
|  2> % maxcore 2000
|  3> % mp2 density relaxed end
|  4> *xyz 0 1
|  5>  C       -0.0465290001     1.5663141490     0.0030533524
|  6>  C        1.4586645157     1.9797776519     0.0156225187
|  7>  C        2.1116010441     0.8305130808     0.7365869871
|  8>  O        1.4570224859     0.4021271814     1.9367562142
|  9>  C        1.2007992043    -0.3413458296     0.7392629862
| 10>  C       -0.0756582755     0.0056806422     0.0201290876
| 11>  C        2.3782361683    -1.2652551973     0.4767678807
| 12>  N        2.9856493550    -0.7922071955    -0.7955595668
| 13>  C        3.2969573658    -0.0832067903     0.4740663958
| 14>  H       -0.5331974671     1.9466228771     0.9038343671
| 15>  H       -0.5795828113     1.9786536344    -0.8576465114
| 16>  H        1.8649054167     2.0205215955    -1.0008351046
| 17>  H        1.6132669132     2.9576598238     0.4814275411
| 18>  H       -0.9840940404    -0.3841680370     0.4890558456
| 19>  H       -0.0171212540    -0.4009406030    -0.9953070476
| 20>  H        2.5577916317    -2.2668131386     0.8471336325
| 21>  H        3.7755033941    -1.4065790884    -1.0018930531
| 22>  H        4.3126641537    -0.0089536964     0.8419731145
| 23> *
| 24>
| 25>                          ****END OF INPUT****

CARTESIAN COORDINATES (ANGSTROEM)
---------------------------------
  C     -0.046529    1.566314    0.003053
  C      1.458665    1.979778    0.015623
  C      2.111601    0.830513    0.736587
  O      1.457022    0.402127    1.936756
  C      1.200799   -0.341346    0.739263
  C     -0.075658    0.005681    0.020129
  C      2.378236   -1.265255    0.476768
  N      2.985649   -0.792207   -0.795560
  C      3.296957   -0.083207    0.474066
  H     -0.533197    1.946623    0.903834
  H     -0.579583    1.978654   -0.857647
  H      1.864905    2.020522   -1.000835
  H      1.613267    2.957660    0.481428
  H     -0.984094   -0.384168    0.489056
  H     -0.017121   -0.400941   -0.995307
  H      2.557792   -2.266813    0.847134
  H      3.775503   -1.406579   -1.001893
  H      4.312664   -0.008954    0.841973

 Total Charge           Charge          ....    0
 Multiplicity           Mult            ....    1
 Number of Electrons    NEL             ....   66
 Basis Dimension        Dim             ....  333

ORBITAL ENERGIES
----------------

  NO   OCC          E(Eh)            E(eV)
   0   2.0000     -20.568554      -559.6988
   1   2.0000     -15.575460      -423.8298
   2   2.0000     -11.279569      -306.9327
   3   2.0000     -11.278779      -306.9112
   4   2.0000     -11.277158      -306.8671
   5   2.0000     -11.276449      -306.8478
   6   2.0000     -11.230196      -305.5892
   7   2.0000     -11.230183      -305.5888
   8   2.0000     -11.224559      -305.4358
   9   2.0000      -1.426323       -38.8122
  10   2.0000      -1.274660       -34.6853
  11   2.0000      -1.085913       -29.5492
  12   2.0000      -0.986638       -26.8478
  13   2.0000      -0.980516       -26.6812
  14   2.0000      -0.857735       -23.3402
  15   2.0000      -0.857624       -23.3371
  16   2.0000      -0.783190       -21.3117
  17   2.0000      -0.712915       -19.3994
  18   2.0000      -0.709937       -19.3184
  19   2.0000      -0.676221       -18.4009
  20   2.0000      -0.628502       -17.1024
  21   2.0000      -0.611146       -16.6301
  22   2.0000      -0.590836       -16.0775
  23   2.0000      -0.543530       -14.7902
  24   2.0000      -0.517537       -14.0829
  25   2.0000      -0.507411       -13.8073
  26   2.0000      -0.504699       -13.7336
  27   2.0000      -0.485893       -13.2218
  28   2.0000      -0.478613       -13.0237
  29   2.0000      -0.470910       -12.8141
  30   2.0000      -0.456365       -12.4183
  31   2.0000      -0.376943       -10.2571
  32   2.0000      -0.374378       -10.1873
  33   0.0000       0.141203         3.8423
  34   0.0000       0.150767         4.1026
  35   0.0000       0.163318         4.4441
  36   0.0000       0.179199         4.8762
  37   0.0000       0.190341         5.1794

MULLIKEN ATOMIC CHARGES
-----------------------
   0 C :   -0.211027
   1 C :   -0.271669
   2 C :    0.250499
   3 O :   -0.328751
   4 C :    0.250500
   5 C :   -0.271669
   6 C :   -0.149414
   7 N :   -0.376020
   8 C :   -0.149414
   9 H :    0.121303
  10 H :    0.121612
  11 H :    0.129823
  12 H :    0.125931
  13 H :    0.125931
  14 H :    0.129823
  15 H :    0.144690
  16 H :    0.213163
  17 H :    0.144690
Sum of atomic charges:    0.0000000

LOEWDIN ATOMIC CHARGES
----------------------
   0 C :   -0.229618
   1 C :   -0.213156
   2 C :   -0.240395
   3 O :    0.227864
   4 C :   -0.240396
   5 C :   -0.213156
   6 C :   -0.192820
   7 N :    0.008601
   8 C :   -0.192819
   9 H :    0.139191
  10 H :    0.132108
  11 H :    0.150780
  12 H :    0.138925
  13 H :    0.138925
  14 H :    0.150780
  15 H :    0.132444
  16 H :    0.170297
  17 H :    0.132444

  Mayer bond orders larger than 0.1
B(  0-C ,  1-C ) :   0.9442 B(  0-C ,  5-C ) :   0.9442 B(  0-C ,  9-H ) :   0.9240
B(  0-C , 10-H ) :   0.9278 B(  1-C ,  2-C ) :   0.9482 B(  1-C , 11-H ) :   0.9113
B(  1-C , 12-H ) :   0.9238 B(  2-C ,  3-O ) :   0.9283 B(  2-C ,  4-C ) :   0.8248
B(  2-C ,  8-C ) :   0.9382 B(  3-O ,  4-C ) :   0.9283 B(  4-C ,  5-C ) :   0.9482
B(  4-C ,  6-C ) :   0.9382 B(  5-C , 13-H ) :   0.9238 B(  5-C , 14-H ) :   0.9113
B(  6-C ,  7-N ) :   0.9368 B(  6-C ,  8-C ) :   0.9371 B(  6-C , 15-H ) :   0.9055
B(  7-N ,  8-C ) :   0.9368 B(  7-N , 16-H ) :   0.8663 B(  8-C , 17-H ) :   0.9055

MP2 TOTAL ENERGY:     -401.190685122 Eh
FINAL SINGLE POINT ENERGY      -401.190685122400

DIPOLE MOMENT
-------------
                                X             Y             Z
Electronic contribution:      2.88422      -2.23433       3.22762
Nuclear contribution   :     -2.52466       1.95395      -3.62855
                        -----------------------------------------
Total Dipole Moment    :      0.35956      -0.28038      -0.40093
                        -----------------------------------------
Magnitude (a.u.)       :      0.60716
Magnitude (Debye)      :      1.54327

                             ****ORCA TERMINATED NORMALLY****
TOTAL RUN TIME: 0 days 0 hours 20 minutes 28 seconds 637 msec
