                         Program Version 3.0.3 - RELEASE   -
|  1> ! RI-MP2 RIJK def2-TZVP def2-TZVP/C def2-TZVP/JK TIGHTSCF
|  2> % maxcore 2000
|  3> % mp2 density relaxed end
|  4> *xyz 0 1
|  5>  O        0.2215133874     0.4602845053     0.9905799979
|  6>  C       -0.1328738917     0.1154541903    -0.3452627964
|  7>  C       -1.4880784433    -0.5379519444    -0.3141509583
|  8>  C       -1.8711359299    -1.5420214321    -1.4054988321
|  9>  C       -1.6246665537    -1.9866978261    -0.0049130914
| 10>  C       -0.6588102966    -3.0222040197     0.6079813108
| 11>  C       -1.2634963311    -2.6289354394     1.9909438424
| 12>  C       -2.4820365909    -2.7491119198     1.0221422229
| 13>  C       -1.8230883308    -4.0519582970     0.4725142536
| 14>  H        1.0653390315     0.9216108210     0.9683759272
| 15>  H       -0.1580718830     1.0109328494    -0.9869644289
| 16>  H        0.6002355677    -0.5810203609    -0.7834232761
| 17>  H       -2.2841131340     0.1173438865     0.0325140827
| 18>  H       -2.8878939822    -1.5082153355    -1.7846472223
| 19>  H       -1.1256730099    -1.7678882515    -2.1635189165
| 20>  H        0.3929861057    -3.1771741052     0.3635944116
| 21>  H       -1.1999735194    -3.3861759576     2.7777869181
| 22>  H       -1.0169742459    -1.6298903321     2.3538546756
| 23>  H       -3.5354726166    -2.5845078862     1.2545787910
| 24>  H       -2.0990558128    -4.3527121350    -0.5411361527
| 25>  H       -1.7944150406    -4.9050458101     1.1564025908
| 26> *
| 27>
| 28>                          ****END OF INPUT****

CARTESIAN COORDINATES (ANGSTROEM)
---------------------------------
  O      0.221513    0.460285    0.990580
  C     -0.132874    0.115454   -0.345263
  C     -1.488078   -0.537952   -0.314151
  C     -1.871136   -1.542021   -1.405499
  C     -1.624667   -1.986698   -0.004913
  C     -0.658810   -3.022204    0.607981
  C     -1.263496   -2.628935    1.990944
  C     -2.482037   -2.749112    1.022142
  C     -1.823088   -4.051958    0.472514
  H      1.065339    0.921611    0.968376
  H     -0.158072    1.010933   -0.986964
  H      0.600236   -0.581020   -0.783423
  H     -2.284113    0.117344    0.032514
  H     -2.887894   -1.508215   -1.784647
  H     -1.125673   -1.767888   -2.163519
  H      0.392986   -3.177174    0.363594
  H     -1.199974   -3.386176    2.777787
  H     -1.016974   -1.629890    2.353855
  H     -3.535473   -2.584508    1.254579
  H     -2.099056   -4.352712   -0.541136
  H     -1.794415   -4.905046    1.156403

 Total Charge           Charge          ....    0
 Multiplicity           Mult            ....    1
 Number of Electrons    NEL             ....   68
 Basis Dimension        Dim             ....  351

ORBITAL ENERGIES
----------------

  NO   OCC          E(Eh)            E(eV)
   0   2.0000     -20.552660      -559.2663
   1   2.0000     -11.275431      -306.8201
   2   2.0000     -11.236977      -305.7737
   3   2.0000     -11.236526      -305.7614
   4   2.0000     -11.234864      -305.7162
   5   2.0000     -11.221526      -305.3532
   6   2.0000     -11.220975      -305.3382
   7   2.0000     -11.218739      -305.2774
   8   2.0000     -11.217048      -305.2314
   9   2.0000      -1.355767       -36.8923
  10   2.0000      -1.212303       -32.9884
  11   2.0000      -1.110552       -30.2197
  12   2.0000      -0.939478       -25.5645
  13   2.0000      -0.894085       -24.3293
  14   2.0000      -0.851080       -23.1591
  15   2.0000      -0.827606       -22.5203
  16   2.0000      -0.785320       -21.3696
  17   2.0000      -0.699628       -19.0378
  18   2.0000      -0.688802       -18.7433
  19   2.0000      -0.670655       -18.2494
  20   2.0000      -0.641354       -17.4521
  21   2.0000      -0.622756       -16.9461
  22   2.0000      -0.601951       -16.3799
  23   2.0000      -0.567250       -15.4357
  24   2.0000      -0.541128       -14.7248
  25   2.0000      -0.500293       -13.6137
  26   2.0000      -0.492562       -13.4033
  27   2.0000      -0.466696       -12.6994
  28   2.0000      -0.448302       -12.1989
  29   2.0000      -0.445704       -12.1282
  30   2.0000      -0.437344       -11.9007
  31   2.0000      -0.428478       -11.6595
  32   2.0000      -0.396714       -10.7951
  33   2.0000      -0.382649       -10.4124
  34   0.0000       0.135818         3.6958
  35   0.0000       0.154639         4.2079
  36   0.0000       0.164379         4.4730
  37   0.0000       0.168290         4.5794
  38   0.0000       0.186309         5.0697

MULLIKEN ATOMIC CHARGES
-----------------------
   0 O :   -0.465462
   1 C :   -0.092521
   2 C :   -0.086319
   3 C :   -0.314991
   4 C :   -0.026546
   5 C :   -0.095618
   6 C :   -0.207328
   7 C :   -0.104243
   8 C :   -0.203275
   9 H :    0.311835
  10 H :    0.104678
  11 H :    0.093227
  12 H :    0.115232
  13 H :    0.129540
  14 H :    0.123231
  15 H :    0.126386
  16 H :    0.105832
  17 H :    0.138317
  18 H :    0.126940
  19 H :    0.112439
  20 H :    0.108647
Sum of atomic charges:   -0.0000000

LOEWDIN ATOMIC CHARGES
----------------------
   0 O :   -0.050295
   1 C :   -0.328889
   2 C :   -0.189462
   3 C :   -0.184505
   4 C :   -0.182161
   5 C :   -0.143341
   6 C :   -0.184151
   7 C :   -0.143223
   8 C :   -0.189159
   9 H :    0.170041
  10 H :    0.118601
  11 H :    0.120306
  12 H :    0.152197
  13 H :    0.134832
  14 H :    0.135507
  15 H :    0.124908
  16 H :    0.125344
  17 H :    0.134383
  18 H :    0.124964
  19 H :    0.127878
  20 H :    0.126226

  Mayer bond orders larger than 0.1
B(  0-O ,  1-C ) :   1.0199 B(  0-O ,  9-H ) :   0.8481 B(  1-C ,  2-C ) :   0.9104
B(  1-C , 10-H ) :   0.9294 B(  1-C , 11-H ) :   0.9195 B(  2-C ,  3-C ) :   0.9512
B(  2-C ,  4-C ) :   0.8706 B(  2-C , 12-H ) :   0.9100 B(  3-C ,  4-C ) :   0.8582
B(  3-C , 13-H ) :   0.9153 B(  3-C , 14-H ) :   0.9103 B(  4-C ,  5-C ) :   0.8582
B(  4-C ,  7-C ) :   0.8437 B(  5-C ,  6-C ) :   0.9227 B(  5-C ,  8-C ) :   0.9192
B(  5-C , 15-H ) :   0.8826 B(  6-C ,  7-C ) :   0.9291 B(  6-C , 16-H ) :   0.9236
B(  6-C , 17-H ) :   0.9191 B(  7-C ,  8-C ) :   0.9181 B(  7-C , 18-H ) :   0.8842
B(  8-C , 19-H ) :   0.9284 B(  8-C , 20-H ) :   0.9240

MP2 TOTAL ENERGY:     -386.339181819 Eh
FINAL SINGLE POINT ENERGY      -386.339181818614

DIPOLE MOMENT
-------------
                                X             Y             Z
Electronic contribution:      0.19953       1.43363       0.97527
Nuclear contribution   :      0.16042      -1.27041      -1.38904
                        -----------------------------------------
Total Dipole Moment    :      0.35995       0.16321      -0.41377
                        -----------------------------------------
Magnitude (a.u.)       :      0.57220
Magnitude (Debye)      :      1.45442

                             ****ORCA TERMINATED NORMALLY****
TOTAL RUN TIME: 0 days 0 hours 30 minutes 33 seconds 19 msec
