                         Program Version 3.0.3 - RELEASE   -
|  1> ! RI-MP2 RIJK def2-TZVP def2-TZVP/C def2-TZVP/JK TIGHTSCF
|  2> % maxcore 2000
|  3> % mp2 density relaxed end
|  4> *xyz 0 1
|  5>  C        0.0986763116     1.6426912675    -0.0412814117
|  6>  C       -0.0454315959     0.1203405187     0.0240787106
|  7>  N        0.6540163130    -0.4819241783     1.1623884791
|  8>  C       -0.0709815777    -0.7569356442     2.3206004098
|  9>  N       -1.3113304247    -0.5130911596     2.4107388447
| 10>  C       -1.9646095537    -0.8582760702     3.6568942821
| 11>  C        2.0333926165    -0.7287922385     1.1958181269
| 12>  N        2.7246634021    -0.3814221036     0.0570694154
| 13>  O        2.5966505726    -1.1829341344     2.1741603291
| 14>  H        1.1455517133     1.9453850719    -0.1322357155
| 15>  H       -0.4508388509     2.0357828480    -0.9025575182
| 16>  H       -0.3153191284     2.0955028970     0.8633472044
| 17>  H       -1.0957596506    -0.1462404354     0.1493383922
| 18>  H        0.2960743606    -0.3539625501    -0.9031426030
| 19>  H        0.5524483442    -1.1908894377     3.1047621719
| 20>  H       -1.2883151200    -1.2980645399     4.4067414348
| 21>  H       -2.4270827254     0.0357255172     4.0918001321
| 22>  H       -2.7752292442    -1.5711744553     3.4643451524
| 23>  H        2.2641849220    -0.2947091069    -0.8320400863
| 24>  H        3.6674932355    -0.7351453663     0.0405423793
| 25> *
| 26>
| 27>                          ****END OF INPUT****

CARTESIAN COORDINATES (ANGSTROEM)
---------------------------------
  C      0.098676    1.642691   -0.041281
  C     -0.045432    0.120341    0.024079
  N      0.654016   -0.481924    1.162388
  C     -0.070982   -0.756936    2.320600
  N     -1.311330   -0.513091    2.410739
  C     -1.964610   -0.858276    3.656894
  C      2.033393   -0.728792    1.195818
  N      2.724663   -0.381422    0.057069
  O      2.596651   -1.182934    2.174160
  H      1.145552    1.945385   -0.132236
  H     -0.450839    2.035783   -0.902558
  H     -0.315319    2.095503    0.863347
  H     -1.095760   -0.146240    0.149338
  H      0.296074   -0.353963   -0.903143
  H      0.552448   -1.190889    3.104762
  H     -1.288315   -1.298065    4.406741
  H     -2.427083    0.035726    4.091800
  H     -2.775229   -1.571174    3.464345
  H      2.264185   -0.294709   -0.832040
  H      3.667493   -0.735145    0.040542

 Total Charge           Charge          ....    0
 Multiplicity           Mult            ....    1
 Number of Electrons    NEL             ....   70
 Basis Dimension        Dim             ....  345

ORBITAL ENERGIES
----------------

  NO   OCC          E(Eh)            E(eV)
   0   2.0000     -20.517730      -558.3158
   1   2.0000     -15.602091      -424.5545
   2   2.0000     -15.589480      -424.2113
   3   2.0000     -15.540357      -422.8746
   4   2.0000     -11.389037      -309.9114
   5   2.0000     -11.306696      -307.6709
   6   2.0000     -11.274104      -306.7840
   7   2.0000     -11.242603      -305.9268
   8   2.0000     -11.224561      -305.4358
   9   2.0000      -1.405125       -38.2354
  10   2.0000      -1.286326       -35.0027
  11   2.0000      -1.224317       -33.3154
  12   2.0000      -1.184969       -32.2446
  13   2.0000      -1.031455       -28.0673
  14   2.0000      -0.949130       -25.8271
  15   2.0000      -0.883031       -24.0285
  16   2.0000      -0.845516       -23.0077
  17   2.0000      -0.762458       -20.7475
  18   2.0000      -0.744767       -20.2661
  19   2.0000      -0.690086       -18.7782
  20   2.0000      -0.664106       -18.0712
  21   2.0000      -0.637920       -17.3587
  22   2.0000      -0.629353       -17.1256
  23   2.0000      -0.610331       -16.6079
  24   2.0000      -0.600202       -16.3323
  25   2.0000      -0.582513       -15.8510
  26   2.0000      -0.558401       -15.1949
  27   2.0000      -0.544102       -14.8058
  28   2.0000      -0.529182       -14.3998
  29   2.0000      -0.510740       -13.8979
  30   2.0000      -0.472493       -12.8572
  31   2.0000      -0.451247       -12.2791
  32   2.0000      -0.430208       -11.7066
  33   2.0000      -0.405869       -11.0443
  34   2.0000      -0.356430        -9.6990
  35   0.0000       0.121417         3.3039
  36   0.0000       0.155472         4.2306
  37   0.0000       0.157812         4.2943
  38   0.0000       0.165175         4.4946
  39   0.0000       0.172430         4.6920

MULLIKEN ATOMIC CHARGES
-----------------------
   0 C :   -0.404022
   1 C :   -0.173385
   2 N :   -0.091629
   3 C :    0.034511
   4 N :   -0.273716
   5 C :   -0.266332
   6 C :    0.355520
   7 N :   -0.508494
   8 O :   -0.394760
   9 H :    0.137670
  10 H :    0.130701
  11 H :    0.149571
  12 H :    0.160594
  13 H :    0.110255
  14 H :    0.145567
  15 H :    0.099087
  16 H :    0.134078
  17 H :    0.134228
  18 H :    0.255746
  19 H :    0.264809
Sum of atomic charges:    0.0000000

LOEWDIN ATOMIC CHARGES
----------------------
   0 C :   -0.315707
   1 C :   -0.279883
   2 N :    0.198324
   3 C :   -0.272222
   4 N :    0.043345
   5 C :   -0.338724
   6 C :   -0.528244
   7 N :   -0.036078
   8 O :    0.059279
   9 H :    0.121060
  10 H :    0.124790
  11 H :    0.129594
  12 H :    0.148134
  13 H :    0.124465
  14 H :    0.140308
  15 H :    0.104913
  16 H :    0.116113
  17 H :    0.116114
  18 H :    0.165076
  19 H :    0.179343

  Mayer bond orders larger than 0.1
B(  0-C ,  1-C ) :   0.9063 B(  0-C ,  9-H ) :   0.9344 B(  0-C , 10-H ) :   0.9351
B(  0-C , 11-H ) :   0.9363 B(  1-C ,  2-N ) :   0.8423 B(  1-C , 12-H ) :   0.9079
B(  1-C , 13-H ) :   0.9370 B(  2-N ,  3-C ) :   1.0324 B(  2-N ,  6-C ) :   1.0630
B(  3-C ,  4-N ) :   1.7580 B(  3-C , 14-H ) :   0.9082 B(  4-N ,  5-C ) :   0.9052
B(  5-C , 15-H ) :   0.9302 B(  5-C , 16-H ) :   0.9337 B(  5-C , 17-H ) :   0.9326
B(  6-C ,  7-N ) :   1.1223 B(  6-C ,  8-O ) :   1.8941 B(  7-N , 18-H ) :   0.8647
B(  7-N , 19-H ) :   0.8644

MP2 TOTAL ENERGY:     -435.788973459 Eh
FINAL SINGLE POINT ENERGY      -435.788973458559

DIPOLE MOMENT
-------------
                                X             Y             Z
Electronic contribution:      5.87983      -3.84870       1.12186
Nuclear contribution   :     -6.01531       4.04372      -2.25183
                        -----------------------------------------
Total Dipole Moment    :     -0.13548       0.19502      -1.12997
                        -----------------------------------------
Magnitude (a.u.)       :      1.15465
Magnitude (Debye)      :      2.93488

                             ****ORCA TERMINATED NORMALLY****
TOTAL RUN TIME: 0 days 0 hours 16 minutes 8 seconds 750 msec
