                         Program Version 3.0.3 - RELEASE   -
|  1> ! RI-MP2 RIJK def2-TZVP def2-TZVP/C def2-TZVP/JK TIGHTSCF
|  2> % maxcore 2000
|  3> % mp2 density relaxed end
|  4> *xyz 0 1
|  5>  C        0.0007971476     1.5105122203    -0.0045796066
|  6>  C       -0.0642384410     0.0117294299    -0.0019854350
|  7>  C       -1.2202864534    -0.7004395675    -0.1085620829
|  8>  C       -1.1496760076    -2.1246193183    -0.0935017805
|  9>  O       -2.3400818725    -2.7609389827    -0.2038344478
| 10>  C        0.0456946272    -2.7804673221     0.0248399011
| 11>  C        1.2881885279    -2.0600214985     0.1396734864
| 12>  O        2.4109551376    -2.5273750116     0.2499657780
| 13>  N        1.1196917159    -0.6543580155     0.1153334949
| 14>  H        0.6162505871     1.8749717140    -0.8351400554
| 15>  H       -0.9971063429     1.9399285861    -0.1030740496
| 16>  H        0.4471327303     1.8852196114     0.9237457021
| 17>  H       -2.1782053612    -0.2094875599    -0.2031867144
| 18>  H       -2.1913348687    -3.7133196643    -0.1840402191
| 19>  H        0.1081186832    -3.8627858667     0.0371406988
| 20>  H        1.9863297304    -0.1403492846     0.1953322101
| 21> *
| 22>
| 23>                          ****END OF INPUT****

CARTESIAN COORDINATES (ANGSTROEM)
---------------------------------
  C      0.000797    1.510512   -0.004580
  C     -0.064238    0.011729   -0.001985
  C     -1.220286   -0.700440   -0.108562
  C     -1.149676   -2.124619   -0.093502
  O     -2.340082   -2.760939   -0.203834
  C      0.045695   -2.780467    0.024840
  C      1.288189   -2.060021    0.139673
  O      2.410955   -2.527375    0.249966
  N      1.119692   -0.654358    0.115333
  H      0.616251    1.874972   -0.835140
  H     -0.997106    1.939929   -0.103074
  H      0.447133    1.885220    0.923746
  H     -2.178205   -0.209488   -0.203187
  H     -2.191335   -3.713320   -0.184040
  H      0.108119   -3.862786    0.037141
  H      1.986330   -0.140349    0.195332

 Total Charge           Charge          ....    0
 Multiplicity           Mult            ....    1
 Number of Electrons    NEL             ....   66
 Basis Dimension        Dim             ....  321

ORBITAL ENERGIES
----------------

  NO   OCC          E(Eh)            E(eV)
   0   2.0000     -20.611964      -560.8801
   1   2.0000     -20.502830      -557.9104
   2   2.0000     -15.613621      -424.8682
   3   2.0000     -11.349317      -308.8306
   4   2.0000     -11.336499      -308.4818
   5   2.0000     -11.320576      -308.0485
   6   2.0000     -11.258704      -306.3649
   7   2.0000     -11.231328      -305.6200
   8   2.0000     -11.222071      -305.3681
   9   2.0000      -1.431838       -38.9623
  10   2.0000      -1.373317       -37.3699
  11   2.0000      -1.273985       -34.6669
  12   2.0000      -1.093977       -29.7686
  13   2.0000      -1.064427       -28.9645
  14   2.0000      -0.974351       -26.5134
  15   2.0000      -0.876445       -23.8493
  16   2.0000      -0.847544       -23.0629
  17   2.0000      -0.761013       -20.7082
  18   2.0000      -0.735875       -20.0242
  19   2.0000      -0.699045       -19.0220
  20   2.0000      -0.635400       -17.2901
  21   2.0000      -0.628770       -17.1097
  22   2.0000      -0.618465       -16.8293
  23   2.0000      -0.603625       -16.4255
  24   2.0000      -0.598234       -16.2788
  25   2.0000      -0.583442       -15.8763
  26   2.0000      -0.570700       -15.5295
  27   2.0000      -0.567760       -15.4495
  28   2.0000      -0.533596       -14.5199
  29   2.0000      -0.473005       -12.8711
  30   2.0000      -0.423546       -11.5253
  31   2.0000      -0.392850       -10.6900
  32   2.0000      -0.313432        -8.5289
  33   0.0000       0.103320         2.8115
  34   0.0000       0.121984         3.3194
  35   0.0000       0.135045         3.6748
  36   0.0000       0.164943         4.4883
  37   0.0000       0.169332         4.6078

MULLIKEN ATOMIC CHARGES
-----------------------
   0 C :   -0.440293
   1 C :    0.218734
   2 C :   -0.257663
   3 C :    0.261228
   4 O :   -0.406763
   5 C :   -0.266252
   6 C :    0.189480
   7 O :   -0.378093
   8 N :   -0.228456
   9 H :    0.154521
  10 H :    0.151133
  11 H :    0.154529
  12 H :    0.144093
  13 H :    0.335535
  14 H :    0.124574
  15 H :    0.243692
Sum of atomic charges:   -0.0000000

LOEWDIN ATOMIC CHARGES
----------------------
   0 C :   -0.260754
   1 C :   -0.228871
   2 C :   -0.133235
   3 C :   -0.277206
   4 O :    0.095414
   5 C :   -0.142221
   6 C :   -0.438302
   7 O :    0.054235
   8 N :    0.209916
   9 H :    0.136125
  10 H :    0.138042
  11 H :    0.136129
  12 H :    0.157323
  13 H :    0.196988
  14 H :    0.152794
  15 H :    0.203623

  Mayer bond orders larger than 0.1
B(  0-C ,  1-C ) :   0.8656 B(  0-C ,  9-H ) :   0.9274 B(  0-C , 10-H ) :   0.9458
B(  0-C , 11-H ) :   0.9274 B(  1-C ,  2-C ) :   1.5245 B(  1-C ,  8-N ) :   1.1870
B(  2-C ,  3-C ) :   1.1387 B(  2-C , 12-H ) :   0.9232 B(  3-C ,  4-O ) :   1.1054
B(  3-C ,  5-C ) :   1.4013 B(  4-O , 13-H ) :   0.8294 B(  5-C ,  6-C ) :   1.1038
B(  5-C , 14-H ) :   0.9394 B(  6-C ,  7-O ) :   1.9503 B(  6-C ,  8-N ) :   1.0263
B(  8-N , 15-H ) :   0.8562

MP2 TOTAL ENERGY:     -437.241580870 Eh
FINAL SINGLE POINT ENERGY      -437.241580869670

DIPOLE MOMENT
-------------
                                X             Y             Z
Electronic contribution:      1.17904      -5.82949       0.14715
Nuclear contribution   :     -2.13810       6.78968      -0.24467
                        -----------------------------------------
Total Dipole Moment    :     -0.95906       0.96020      -0.09752
                        -----------------------------------------
Magnitude (a.u.)       :      1.36062
Magnitude (Debye)      :      3.45841

                             ****ORCA TERMINATED NORMALLY****
TOTAL RUN TIME: 0 days 0 hours 15 minutes 37 seconds 175 msec
