                         Program Version 3.0.3 - RELEASE   -
|  1> ! RI-MP2 RIJK def2-TZVP def2-TZVP/C def2-TZVP/JK TIGHTSCF
|  2> % maxcore 2000
|  3> % mp2 density relaxed end
|  4> *xyz 0 1
|  5>  C        0.0234798183     1.5747451494     0.0625726577
|  6>  C        0.0075316244     0.0741728211    -0.0170281075
|  7>  C       -0.0248183265    -0.5940898773    -1.1747833663
|  8>  C       -0.0430915735    -2.1077521316    -1.2154686161
|  9>  C       -1.4170383478    -2.6434824636    -0.7628583231
| 10>  O       -1.4013942073    -2.5404604046     0.6654810300
| 11>  C       -0.0751297963    -2.1973308428     1.0973457615
| 12>  C        0.8238308170    -2.6431532930    -0.0597777062
| 13>  C        0.0272326327    -0.6768193234     1.3000893102
| 14>  H        0.9123539764     1.9338030077     0.5980961285
| 15>  H        0.0165172817     2.0330500721    -0.9301549621
| 16>  H       -0.8447257045     1.9512879989     0.6189071039
| 17>  H       -0.0623158820    -0.0535052609    -2.1173762792
| 18>  H        0.2436862362    -2.4895790884    -2.1976692891
| 19>  H       -2.2550988975    -2.0584468586    -1.1560904122
| 20>  H       -1.5537663243    -3.6943760216    -1.0594303354
| 21>  H        0.1115738250    -2.7265070949     2.0365883831
| 22>  H        0.9104720172    -3.7337412138    -0.0904276921
| 23>  H        1.8223373518    -2.2023065851    -0.0307130470
| 24>  H        0.9389902119    -0.4266334688     1.8642201039
| 25>  H       -0.8138462329    -0.3532828406     1.9276036676
| 26> *
| 27>
| 28>                          ****END OF INPUT****

CARTESIAN COORDINATES (ANGSTROEM)
---------------------------------
  C      0.023480    1.574745    0.062573
  C      0.007532    0.074173   -0.017028
  C     -0.024818   -0.594090   -1.174783
  C     -0.043092   -2.107752   -1.215469
  C     -1.417038   -2.643482   -0.762858
  O     -1.401394   -2.540460    0.665481
  C     -0.075130   -2.197331    1.097346
  C      0.823831   -2.643153   -0.059778
  C      0.027233   -0.676819    1.300089
  H      0.912354    1.933803    0.598096
  H      0.016517    2.033050   -0.930155
  H     -0.844726    1.951288    0.618907
  H     -0.062316   -0.053505   -2.117376
  H      0.243686   -2.489579   -2.197669
  H     -2.255099   -2.058447   -1.156090
  H     -1.553766   -3.694376   -1.059430
  H      0.111574   -2.726507    2.036588
  H      0.910472   -3.733741   -0.090428
  H      1.822337   -2.202307   -0.030713
  H      0.938990   -0.426633    1.864220
  H     -0.813846   -0.353283    1.927604

 Total Charge           Charge          ....    0
 Multiplicity           Mult            ....    1
 Number of Electrons    NEL             ....   68
 Basis Dimension        Dim             ....  351

ORBITAL ENERGIES
----------------

  NO   OCC          E(Eh)            E(eV)
   0   2.0000     -20.540722      -558.9415
   1   2.0000     -11.274224      -306.7872
   2   2.0000     -11.266568      -306.5789
   3   2.0000     -11.231519      -305.6252
   4   2.0000     -11.231438      -305.6230
   5   2.0000     -11.221999      -305.3661
   6   2.0000     -11.220961      -305.3379
   7   2.0000     -11.219414      -305.2958
   8   2.0000     -11.214988      -305.1753
   9   2.0000      -1.365811       -37.1656
  10   2.0000      -1.121278       -30.5115
  11   2.0000      -1.044414       -28.4199
  12   2.0000      -1.017222       -27.6800
  13   2.0000      -0.929841       -25.3023
  14   2.0000      -0.906360       -24.6633
  15   2.0000      -0.809799       -22.0358
  16   2.0000      -0.779486       -21.2109
  17   2.0000      -0.711623       -19.3643
  18   2.0000      -0.685714       -18.6592
  19   2.0000      -0.637021       -17.3342
  20   2.0000      -0.621510       -16.9122
  21   2.0000      -0.598644       -16.2899
  22   2.0000      -0.579495       -15.7688
  23   2.0000      -0.567030       -15.4297
  24   2.0000      -0.562791       -15.3143
  25   2.0000      -0.534324       -14.5397
  26   2.0000      -0.529311       -14.4033
  27   2.0000      -0.514611       -14.0033
  28   2.0000      -0.497566       -13.5395
  29   2.0000      -0.474329       -12.9072
  30   2.0000      -0.456064       -12.4101
  31   2.0000      -0.439894       -11.9701
  32   2.0000      -0.405460       -11.0331
  33   2.0000      -0.334226        -9.0947
  34   0.0000       0.133727         3.6389
  35   0.0000       0.149995         4.0816
  36   0.0000       0.156504         4.2587
  37   0.0000       0.167997         4.5714
  38   0.0000       0.184596         5.0231

MULLIKEN ATOMIC CHARGES
-----------------------
   0 C :   -0.426944
   1 C :    0.034651
   2 C :   -0.301850
   3 C :    0.042715
   4 C :   -0.059600
   5 O :   -0.342908
   6 C :    0.152930
   7 C :   -0.295829
   8 C :   -0.233387
   9 H :    0.132984
  10 H :    0.131849
  11 H :    0.137984
  12 H :    0.112060
  13 H :    0.124831
  14 H :    0.104467
  15 H :    0.095385
  16 H :    0.108835
  17 H :    0.124161
  18 H :    0.124912
  19 H :    0.110913
  20 H :    0.121839
Sum of atomic charges:   -0.0000000

LOEWDIN ATOMIC CHARGES
----------------------
   0 C :   -0.273302
   1 C :   -0.186586
   2 C :   -0.129704
   3 C :   -0.238635
   4 C :   -0.269607
   5 O :    0.159464
   6 C :   -0.292130
   7 C :   -0.208608
   8 C :   -0.204758
   9 H :    0.129018
  10 H :    0.127921
  11 H :    0.129905
  12 H :    0.141570
  13 H :    0.151332
  14 H :    0.125805
  15 H :    0.119147
  16 H :    0.139695
  17 H :    0.140063
  18 H :    0.143827
  19 H :    0.145084
  20 H :    0.150500

  Mayer bond orders larger than 0.1
B(  0-C ,  1-C ) :   0.8955 B(  0-C ,  9-H ) :   0.9286 B(  0-C , 10-H ) :   0.9454
B(  0-C , 11-H ) :   0.9335 B(  1-C ,  2-C ) :   1.7860 B(  1-C ,  8-C ) :   0.9783
B(  2-C ,  3-C ) :   0.9039 B(  2-C , 12-H ) :   0.9278 B(  3-C ,  4-C ) :   0.9160
B(  3-C ,  7-C ) :   0.9066 B(  3-C , 13-H ) :   0.9216 B(  4-C ,  5-O ) :   0.9516
B(  4-C , 14-H ) :   0.9174 B(  4-C , 15-H ) :   0.9246 B(  5-O ,  6-C ) :   0.9270
B(  6-C ,  7-C ) :   0.9334 B(  6-C ,  8-C ) :   0.9249 B(  6-C , 16-H ) :   0.9276
B(  7-C , 17-H ) :   0.9233 B(  7-C , 18-H ) :   0.9224 B(  8-C , 19-H ) :   0.9004
B(  8-C , 20-H ) :   0.9015

MP2 TOTAL ENERGY:     -386.440613368 Eh
FINAL SINGLE POINT ENERGY      -386.440613368243

DIPOLE MOMENT
-------------
                                X             Y             Z
Electronic contribution:     -1.76160      -3.54184       0.29379
Nuclear contribution   :      2.26797       3.69001      -0.57141
                        -----------------------------------------
Total Dipole Moment    :      0.50637       0.14817      -0.27761
                        -----------------------------------------
Magnitude (a.u.)       :      0.59618
Magnitude (Debye)      :      1.51537

                             ****ORCA TERMINATED NORMALLY****
TOTAL RUN TIME: 0 days 0 hours 22 minutes 9 seconds 171 msec
