                         Program Version 3.0.3 - RELEASE   -
|  1> ! RI-MP2 RIJK def2-TZVP def2-TZVP/C def2-TZVP/JK TIGHTSCF
|  2> % maxcore 2000
|  3> % mp2 density relaxed end
|  4> *xyz 0 1
|  5>  C       -0.0010553322     1.0319656753     0.8445839713
|  6>  N       -0.1462536021    -0.1627213431     0.0331100003
|  7>  C       -1.3478723849    -0.7527099450    -0.2062733069
|  8>  O       -2.4039046315    -0.3529395709     0.2553982409
|  9>  C       -1.3087385491    -1.9654798588    -1.1568694673
| 10>  N       -2.4911947104    -2.8010201754    -1.0747861109
| 11>  C       -2.5703124991    -3.5992656167     0.1435812889
| 12>  C       -3.6816924960    -4.6305409125     0.0360472514
| 13>  O       -4.2278226465    -5.1406291667     0.9784614582
| 14>  H        0.6371808372     0.8466712786     1.7153394191
| 15>  H        0.4258925757     1.8580559606     0.2654008240
| 16>  H       -0.9973862152     1.3131640049     1.1868627835
| 17>  H        0.6777329280    -0.5674006809    -0.3808268044
| 18>  H       -1.2163765860    -1.5744911889    -2.1794583341
| 19>  H       -0.4159370527    -2.5751069217    -0.9717126121
| 20>  H       -3.2938951537    -2.1763690911    -1.0986375138
| 21>  H       -1.6347573078    -4.1708664599     0.2438811137
| 22>  H       -2.7011227877    -3.0268645652     1.0734043006
| 23>  H       -3.9417746061    -4.8939729225    -1.0145663123
| 24> *
| 25>
| 26>                          ****END OF INPUT****

CARTESIAN COORDINATES (ANGSTROEM)
---------------------------------
  C     -0.001055    1.031966    0.844584
  N     -0.146254   -0.162721    0.033110
  C     -1.347872   -0.752710   -0.206273
  O     -2.403905   -0.352940    0.255398
  C     -1.308739   -1.965480   -1.156869
  N     -2.491195   -2.801020   -1.074786
  C     -2.570312   -3.599266    0.143581
  C     -3.681692   -4.630541    0.036047
  O     -4.227823   -5.140629    0.978461
  H      0.637181    0.846671    1.715339
  H      0.425893    1.858056    0.265401
  H     -0.997386    1.313164    1.186863
  H      0.677733   -0.567401   -0.380827
  H     -1.216377   -1.574491   -2.179458
  H     -0.415937   -2.575107   -0.971713
  H     -3.293895   -2.176369   -1.098638
  H     -1.634757   -4.170866    0.243881
  H     -2.701123   -3.026865    1.073404
  H     -3.941775   -4.893973   -1.014566

 Total Charge           Charge          ....    0
 Multiplicity           Mult            ....    1
 Number of Electrons    NEL             ....   70
 Basis Dimension        Dim             ....  339

ORBITAL ENERGIES
----------------

  NO   OCC          E(Eh)            E(eV)
   0   2.0000     -20.553905      -559.3002
   1   2.0000     -20.526847      -558.5639
   2   2.0000     -15.597435      -424.4278
   3   2.0000     -15.564017      -423.5184
   4   2.0000     -11.357086      -309.0420
   5   2.0000     -11.327281      -308.2310
   6   2.0000     -11.282182      -307.0038
   7   2.0000     -11.268616      -306.6346
   8   2.0000     -11.266753      -306.5839
   9   2.0000      -1.393630       -37.9226
  10   2.0000      -1.392545       -37.8931
  11   2.0000      -1.241936       -33.7948
  12   2.0000      -1.229472       -33.4556
  13   2.0000      -1.022702       -27.8291
  14   2.0000      -0.967410       -26.3246
  15   2.0000      -0.898793       -24.4574
  16   2.0000      -0.799434       -21.7537
  17   2.0000      -0.799113       -21.7450
  18   2.0000      -0.729858       -19.8605
  19   2.0000      -0.691259       -18.8101
  20   2.0000      -0.664815       -18.0905
  21   2.0000      -0.651872       -17.7383
  22   2.0000      -0.631538       -17.1850
  23   2.0000      -0.624525       -16.9942
  24   2.0000      -0.608991       -16.5715
  25   2.0000      -0.587674       -15.9914
  26   2.0000      -0.576710       -15.6931
  27   2.0000      -0.557257       -15.1637
  28   2.0000      -0.555164       -15.1068
  29   2.0000      -0.518952       -14.1214
  30   2.0000      -0.502374       -13.6703
  31   2.0000      -0.447319       -12.1722
  32   2.0000      -0.419194       -11.4069
  33   2.0000      -0.405074       -11.0226
  34   2.0000      -0.395162       -10.7529
  35   0.0000       0.113053         3.0763
  36   0.0000       0.128020         3.4836
  37   0.0000       0.153958         4.1894
  38   0.0000       0.158792         4.3209
  39   0.0000       0.160513         4.3678

MULLIKEN ATOMIC CHARGES
-----------------------
   0 C :   -0.280182
   1 N :   -0.332209
   2 C :    0.284080
   3 O :   -0.393402
   4 C :   -0.188209
   5 N :   -0.338757
   6 C :   -0.111154
   7 C :    0.084253
   8 O :   -0.264945
   9 H :    0.137453
  10 H :    0.136944
  11 H :    0.179693
  12 H :    0.239434
  13 H :    0.152360
  14 H :    0.125429
  15 H :    0.221333
  16 H :    0.122630
  17 H :    0.140843
  18 H :    0.084404
Sum of atomic charges:    0.0000000

LOEWDIN ATOMIC CHARGES
----------------------
   0 C :   -0.310205
   1 N :    0.079794
   2 C :   -0.469404
   3 O :    0.070757
   4 C :   -0.292993
   5 N :   -0.015040
   6 C :   -0.309718
   7 C :   -0.295791
   8 O :    0.131669
   9 H :    0.116275
  10 H :    0.115976
  11 H :    0.135598
  12 H :    0.185150
  13 H :    0.146225
  14 H :    0.136918
  15 H :    0.181501
  16 H :    0.147022
  17 H :    0.135677
  18 H :    0.110589

  Mayer bond orders larger than 0.1
B(  0-C ,  1-N ) :   0.8396 B(  0-C ,  9-H ) :   0.9350 B(  0-C , 10-H ) :   0.9359
B(  0-C , 11-H ) :   0.9265 B(  1-N ,  2-C ) :   1.1800 B(  1-N , 12-H ) :   0.8761
B(  2-C ,  3-O ) :   1.8955 B(  2-C ,  4-C ) :   0.8791 B(  4-C ,  5-N ) :   1.0007
B(  4-C , 13-H ) :   0.9060 B(  4-C , 14-H ) :   0.9423 B(  5-N ,  6-C ) :   0.9338
B(  5-N , 15-H ) :   0.8695 B(  6-C ,  7-C ) :   0.8816 B(  6-C , 16-H ) :   0.9010
B(  6-C , 17-H ) :   0.8894 B(  7-C ,  8-O ) :   2.0054 B(  7-C , 18-H ) :   0.9347

MP2 TOTAL ENERGY:     -455.627417281 Eh
FINAL SINGLE POINT ENERGY      -455.627417281401

DIPOLE MOMENT
-------------
                                X             Y             Z
Electronic contribution:     -5.22402      -4.10621       0.40300
Nuclear contribution   :      7.21026       4.94414      -1.06950
                        -----------------------------------------
Total Dipole Moment    :      1.98624       0.83792      -0.66650
                        -----------------------------------------
Magnitude (a.u.)       :      2.25644
Magnitude (Debye)      :      5.73540

                             ****ORCA TERMINATED NORMALLY****
TOTAL RUN TIME: 0 days 0 hours 14 minutes 3 seconds 40 msec
