                         Program Version 3.0.3 - RELEASE   -
|  1> ! RI-MP2 RIJK def2-TZVP def2-TZVP/C def2-TZVP/JK TIGHTSCF
|  2> % maxcore 2000
|  3> % mp2 density relaxed end
|  4> *xyz 0 1
|  5>  C       -0.0055051594     1.5055280077     0.0964366806
|  6>  C        0.0176012265     0.0087390288    -0.0154083568
|  7>  C        0.9074390302    -0.8099077538    -1.0067530279
|  8>  C        0.7205393437    -1.8135822447     0.1629085303
|  9>  O        0.7089956656    -0.6820472863     1.0689694508
| 10>  C       -0.7858410934    -2.1621165213     0.0314545582
| 11>  N       -1.6058386551    -1.5737619563     1.1155265992
| 12>  C       -1.3174960609    -0.7907111364    -0.1077891592
| 13>  H        1.0087660302     1.9097894671     0.1527846212
| 14>  H       -0.5087415779     1.9462574231    -0.7706457072
| 15>  H       -0.5495479263     1.8059078764     0.9974525014
| 16>  H        0.5073388630    -1.0630959610    -1.9935506738
| 17>  H        1.9254157610    -0.4208693503    -1.0681655752
| 18>  H        1.4380069527    -2.5909315956     0.4224142303
| 19>  H       -1.1302755677    -3.0185456505    -0.5354788168
| 20>  H       -2.5488893552    -1.9503706974     1.0220094221
| 21>  H       -2.1072371669    -0.4981036293    -0.7897642873
| 22> *
| 23>
| 24>                          ****END OF INPUT****

CARTESIAN COORDINATES (ANGSTROEM)
---------------------------------
  C     -0.005505    1.505528    0.096437
  C      0.017601    0.008739   -0.015408
  C      0.907439   -0.809908   -1.006753
  C      0.720539   -1.813582    0.162909
  O      0.708996   -0.682047    1.068969
  C     -0.785841   -2.162117    0.031455
  N     -1.605839   -1.573762    1.115527
  C     -1.317496   -0.790711   -0.107789
  H      1.008766    1.909789    0.152785
  H     -0.508742    1.946257   -0.770646
  H     -0.549548    1.805908    0.997453
  H      0.507339   -1.063096   -1.993551
  H      1.925416   -0.420869   -1.068166
  H      1.438007   -2.590932    0.422414
  H     -1.130276   -3.018546   -0.535479
  H     -2.548889   -1.950371    1.022009
  H     -2.107237   -0.498104   -0.789764

 Total Charge           Charge          ....    0
 Multiplicity           Mult            ....    1
 Number of Electrons    NEL             ....   60
 Basis Dimension        Dim             ....  302

ORBITAL ENERGIES
----------------

  NO   OCC          E(Eh)            E(eV)
   0   2.0000     -20.542540      -558.9909
   1   2.0000     -15.560584      -423.4250
   2   2.0000     -11.295452      -307.3649
   3   2.0000     -11.289219      -307.1953
   4   2.0000     -11.258558      -306.3609
   5   2.0000     -11.257198      -306.3239
   6   2.0000     -11.231807      -305.6330
   7   2.0000     -11.219711      -305.3039
   8   2.0000      -1.396602       -38.0035
   9   2.0000      -1.250577       -34.0299
  10   2.0000      -1.042611       -28.3709
  11   2.0000      -1.008551       -27.4441
  12   2.0000      -0.898308       -24.4442
  13   2.0000      -0.891938       -24.2709
  14   2.0000      -0.773104       -21.0372
  15   2.0000      -0.748050       -20.3555
  16   2.0000      -0.704763       -19.1776
  17   2.0000      -0.662496       -18.0274
  18   2.0000      -0.641634       -17.4597
  19   2.0000      -0.603171       -16.4131
  20   2.0000      -0.568942       -15.4817
  21   2.0000      -0.547895       -14.9090
  22   2.0000      -0.528239       -14.3741
  23   2.0000      -0.502244       -13.6668
  24   2.0000      -0.488395       -13.2899
  25   2.0000      -0.482426       -13.1275
  26   2.0000      -0.480936       -13.0869
  27   2.0000      -0.438353       -11.9282
  28   2.0000      -0.414322       -11.2743
  29   2.0000      -0.364287        -9.9128
  30   0.0000       0.134017         3.6468
  31   0.0000       0.150081         4.0839
  32   0.0000       0.163523         4.4497
  33   0.0000       0.178147         4.8476
  34   0.0000       0.198005         5.3880

MULLIKEN ATOMIC CHARGES
-----------------------
   0 C :   -0.419281
   1 C :    0.184917
   2 C :   -0.211135
   3 C :    0.054272
   4 O :   -0.291898
   5 C :   -0.129627
   6 N :   -0.365461
   7 C :   -0.094599
   8 H :    0.140996
   9 H :    0.129829
  10 H :    0.152703
  11 H :    0.110440
  12 H :    0.119006
  13 H :    0.137975
  14 H :    0.130313
  15 H :    0.216414
  16 H :    0.135135
Sum of atomic charges:    0.0000000

LOEWDIN ATOMIC CHARGES
----------------------
   0 C :   -0.268571
   1 C :   -0.306498
   2 C :   -0.178044
   3 C :   -0.239814
   4 O :    0.202755
   5 C :   -0.236631
   6 N :    0.010662
   7 C :   -0.217155
   8 H :    0.131529
   9 H :    0.132324
  10 H :    0.138127
  11 H :    0.127340
  12 H :    0.135971
  13 H :    0.129878
  14 H :    0.133024
  15 H :    0.170403
  16 H :    0.134701

  Mayer bond orders larger than 0.1
B(  0-C ,  1-C ) :   0.8549 B(  0-C ,  8-H ) :   0.9448 B(  0-C ,  9-H ) :   0.9340
B(  0-C , 10-H ) :   0.9418 B(  1-C ,  2-C ) :   0.9362 B(  1-C ,  4-O ) :   0.9510
B(  1-C ,  7-C ) :   0.8637 B(  2-C ,  3-C ) :   0.9462 B(  2-C , 11-H ) :   0.9040
B(  2-C , 12-H ) :   0.9231 B(  3-C ,  4-O ) :   0.9547 B(  3-C ,  5-C ) :   0.8940
B(  3-C , 13-H ) :   0.9030 B(  5-C ,  6-N ) :   1.0083 B(  5-C ,  7-C ) :   0.9452
B(  5-C , 14-H ) :   0.9192 B(  6-N ,  7-C ) :   1.0103 B(  6-N , 15-H ) :   0.8665
B(  7-C , 16-H ) :   0.9144

MP2 TOTAL ENERGY:     -363.183104495 Eh
FINAL SINGLE POINT ENERGY      -363.183104495279

DIPOLE MOMENT
-------------
                                X             Y             Z
Electronic contribution:      0.02032      -3.01911       2.70514
Nuclear contribution   :     -0.41837       2.86407      -3.91055
                        -----------------------------------------
Total Dipole Moment    :     -0.39805      -0.15504      -1.20541
                        -----------------------------------------
Magnitude (a.u.)       :      1.27886
Magnitude (Debye)      :      3.25061

                             ****ORCA TERMINATED NORMALLY****
TOTAL RUN TIME: 0 days 0 hours 13 minutes 54 seconds 223 msec
