                         Program Version 3.0.3 - RELEASE   -
|  1> ! RI-MP2 RIJK def2-TZVP def2-TZVP/C def2-TZVP/JK TIGHTSCF
|  2> % maxcore 2000
|  3> % mp2 density relaxed end
|  4> *xyz 0 1
|  5>  C       -0.0553472344     1.5659821407    -0.0416357714
|  6>  C        0.0483746789     0.0366867739    -0.0332743654
|  7>  C        0.6625908943    -0.5072166745    -1.3341145520
|  8>  C        0.6633528142    -2.0404447842    -1.3602545038
|  9>  C        1.3949170524    -2.6261639367    -0.1372009307
| 10>  C        0.8710225599    -2.0366457238     1.1659820867
| 11>  O        0.5462664271    -2.7299065073     2.1029840522
| 12>  C        0.7840322440    -0.5092835245     1.2235344359
| 13>  C        2.1910926256     0.0825926955     1.4508255272
| 14>  H        0.9211755057     2.0386429939    -0.1894077405
| 15>  H       -0.7074809484     1.9020317267    -0.8544751528
| 16>  H       -0.4719896674     1.9435745878     0.8983730360
| 17>  H       -0.9770157596    -0.3583588101     0.0227177827
| 18>  H        0.0990931382    -0.1197280161    -2.1908226699
| 19>  H        1.6885257358    -0.1324238914    -1.4494391981
| 20>  H       -0.3729145043    -2.4026201202    -1.3649293106
| 21>  H        1.1264987764    -2.4115364603    -2.2806490774
| 22>  H        1.3044122870    -3.7135434859    -0.0824249093
| 23>  H        2.4648872437    -2.3863139176    -0.2111009337
| 24>  H        0.1812915533    -0.2813513348     2.1092816291
| 25>  H        2.8548292807    -0.0693985139     0.5945059234
| 26>  H        2.1330495271     1.1576328873     1.6399873121
| 27>  H        2.6591807397    -0.3823521545     2.3237400905
| 28> *
| 29>
| 30>                          ****END OF INPUT****

CARTESIAN COORDINATES (ANGSTROEM)
---------------------------------
  C     -0.055347    1.565982   -0.041636
  C      0.048375    0.036687   -0.033274
  C      0.662591   -0.507217   -1.334115
  C      0.663353   -2.040445   -1.360255
  C      1.394917   -2.626164   -0.137201
  C      0.871023   -2.036646    1.165982
  O      0.546266   -2.729907    2.102984
  C      0.784032   -0.509284    1.223534
  C      2.191093    0.082593    1.450826
  H      0.921176    2.038643   -0.189408
  H     -0.707481    1.902032   -0.854475
  H     -0.471990    1.943575    0.898373
  H     -0.977016   -0.358359    0.022718
  H      0.099093   -0.119728   -2.190823
  H      1.688526   -0.132424   -1.449439
  H     -0.372915   -2.402620   -1.364929
  H      1.126499   -2.411536   -2.280649
  H      1.304412   -3.713543   -0.082425
  H      2.464887   -2.386314   -0.211101
  H      0.181292   -0.281351    2.109282
  H      2.854829   -0.069399    0.594506
  H      2.133050    1.157633    1.639987
  H      2.659181   -0.382352    2.323740

 Total Charge           Charge          ....    0
 Multiplicity           Mult            ....    1
 Number of Electrons    NEL             ....   70
 Basis Dimension        Dim             ....  363

ORBITAL ENERGIES
----------------

  NO   OCC          E(Eh)            E(eV)
   0   2.0000     -20.537457      -558.8526
   1   2.0000     -11.318803      -308.0003
   2   2.0000     -11.238967      -305.8279
   3   2.0000     -11.236916      -305.7720
   4   2.0000     -11.234577      -305.7084
   5   2.0000     -11.232318      -305.6469
   6   2.0000     -11.228512      -305.5434
   7   2.0000     -11.227062      -305.5039
   8   2.0000     -11.221147      -305.3429
   9   2.0000      -1.380246       -37.5584
  10   2.0000      -1.130840       -30.7717
  11   2.0000      -1.049862       -28.5682
  12   2.0000      -1.017788       -27.6954
  13   2.0000      -0.945553       -25.7298
  14   2.0000      -0.903428       -24.5835
  15   2.0000      -0.833208       -22.6728
  16   2.0000      -0.787019       -21.4159
  17   2.0000      -0.715944       -19.4818
  18   2.0000      -0.663547       -18.0560
  19   2.0000      -0.647446       -17.6179
  20   2.0000      -0.628304       -17.0970
  21   2.0000      -0.606546       -16.5050
  22   2.0000      -0.594892       -16.1878
  23   2.0000      -0.570518       -15.5246
  24   2.0000      -0.562096       -15.2954
  25   2.0000      -0.551812       -15.0156
  26   2.0000      -0.545755       -14.8508
  27   2.0000      -0.529947       -14.4206
  28   2.0000      -0.514079       -13.9888
  29   2.0000      -0.499081       -13.5807
  30   2.0000      -0.480719       -13.0810
  31   2.0000      -0.467448       -12.7199
  32   2.0000      -0.454958       -12.3800
  33   2.0000      -0.449068       -12.2198
  34   2.0000      -0.389404       -10.5962
  35   0.0000       0.124734         3.3942
  36   0.0000       0.133321         3.6278
  37   0.0000       0.146902         3.9974
  38   0.0000       0.168507         4.5853
  39   0.0000       0.169296         4.6068

MULLIKEN ATOMIC CHARGES
-----------------------
   0 C :   -0.419152
   1 C :   -0.063620
   2 C :   -0.277642
   3 C :   -0.211528
   4 C :   -0.242326
   5 C :    0.129407
   6 O :   -0.270953
   7 C :    0.051556
   8 C :   -0.486567
   9 H :    0.133008
  10 H :    0.136555
  11 H :    0.139225
  12 H :    0.099142
  13 H :    0.125866
  14 H :    0.113681
  15 H :    0.119805
  16 H :    0.128998
  17 H :    0.137267
  18 H :    0.126879
  19 H :    0.097945
  20 H :    0.131054
  21 H :    0.146631
  22 H :    0.154769
Sum of atomic charges:   -0.0000000

LOEWDIN ATOMIC CHARGES
----------------------
   0 C :   -0.291402
   1 C :   -0.255956
   2 C :   -0.243535
   3 C :   -0.255969
   4 C :   -0.225772
   5 C :   -0.301574
   6 O :    0.149268
   7 C :   -0.222329
   8 C :   -0.281580
   9 H :    0.123347
  10 H :    0.124865
  11 H :    0.125925
  12 H :    0.158363
  13 H :    0.141159
  14 H :    0.138582
  15 H :    0.141035
  16 H :    0.137588
  17 H :    0.145760
  18 H :    0.151524
  19 H :    0.161142
  20 H :    0.121093
  21 H :    0.127140
  22 H :    0.131327

  Mayer bond orders larger than 0.1
B(  0-C ,  1-C ) :   0.8943 B(  0-C ,  9-H ) :   0.9360 B(  0-C , 10-H ) :   0.9390
B(  0-C , 11-H ) :   0.9413 B(  1-C ,  2-C ) :   0.9180 B(  1-C ,  7-C ) :   0.8765
B(  1-C , 12-H ) :   0.9296 B(  2-C ,  3-C ) :   0.9244 B(  2-C , 13-H ) :   0.9251
B(  2-C , 14-H ) :   0.9291 B(  3-C ,  4-C ) :   0.8917 B(  3-C , 15-H ) :   0.9308
B(  3-C , 16-H ) :   0.9310 B(  4-C ,  5-C ) :   0.9253 B(  4-C , 17-H ) :   0.9200
B(  4-C , 18-H ) :   0.9101 B(  5-C ,  6-O ) :   2.0676 B(  5-C ,  7-C ) :   0.8900
B(  7-C ,  8-C ) :   0.8584 B(  7-C , 19-H ) :   0.9026 B(  8-C , 20-H ) :   0.9303
B(  8-C , 21-H ) :   0.9352 B(  8-C , 22-H ) :   0.9376

MP2 TOTAL ENERGY:     -387.662749351 Eh
FINAL SINGLE POINT ENERGY      -387.662749351401

DIPOLE MOMENT
-------------
                                X             Y             Z
Electronic contribution:     -1.38799      -7.00182       4.59249
Nuclear contribution   :      1.63825       7.71698      -5.50532
                        -----------------------------------------
Total Dipole Moment    :      0.25026       0.71516      -0.91283
                        -----------------------------------------
Magnitude (a.u.)       :      1.18631
Magnitude (Debye)      :      3.01537

                             ****ORCA TERMINATED NORMALLY****
TOTAL RUN TIME: 0 days 0 hours 23 minutes 28 seconds 547 msec
