                         Program Version 3.0.3 - RELEASE   -
|  1> ! RI-MP2 RIJK def2-TZVP def2-TZVP/C def2-TZVP/JK TIGHTSCF
|  2> % maxcore 2000
|  3> % mp2 density relaxed end
|  4> *xyz 0 1
|  5>  C        0.8743287430     1.6732922746     0.1081500992
|  6>  C        0.1297473105     0.3430572848    -0.0002235445
|  7>  C        0.5091455181    -0.6148921731    -1.1794151200
|  8>  C        1.1788331524    -0.0616211777    -2.4318218602
|  9>  C        1.3141329790    -1.5318882122    -0.1857627071
| 10>  C        0.9985084375    -3.0243588109    -0.2745970332
| 11>  C        2.8320523810    -1.3247949392    -0.1959542092
| 12>  C        0.5980395552    -0.7733753354     0.9851300516
| 13>  O        1.3155747270    -0.4302854481     2.1475514024
| 14>  H        1.9613376941     1.5734431467     0.0196274448
| 15>  H        0.5549583316     2.3653991881    -0.6774570741
| 16>  H        0.6641982989     2.1455286621     1.0733119081
| 17>  H       -0.9427477179     0.5537652852     0.0634127219
| 18>  H       -0.3916397028    -1.1574297278    -1.4885689431
| 19>  H        2.0839211375     0.5099971694    -2.2075223366
| 20>  H        1.4610898861    -0.8710861174    -3.1143532432
| 21>  H        0.4977060887     0.6014601068    -2.9767526330
| 22>  H        1.3800526242    -3.4596763474    -1.2062035744
| 23>  H        1.4528635658    -3.5740816297     0.5581040320
| 24>  H       -0.0818000536    -3.2024376309    -0.2422685994
| 25>  H        3.1289664390    -0.2716012912    -0.1755272495
| 26>  H        3.2854913719    -1.8134521568     0.6728807370
| 27>  H        3.2779026025    -1.7631984040    -1.0950421189
| 28>  H       -0.2555678367    -1.3554042417     1.3459867168
| 29>  H        2.0715395871     0.1073148858     1.8914294526
| 30> *
| 31>
| 32>                          ****END OF INPUT****

CARTESIAN COORDINATES (ANGSTROEM)
---------------------------------
  C      0.874329    1.673292    0.108150
  C      0.129747    0.343057   -0.000224
  C      0.509146   -0.614892   -1.179415
  C      1.178833   -0.061621   -2.431822
  C      1.314133   -1.531888   -0.185763
  C      0.998508   -3.024359   -0.274597
  C      2.832052   -1.324795   -0.195954
  C      0.598040   -0.773375    0.985130
  O      1.315575   -0.430285    2.147551
  H      1.961338    1.573443    0.019627
  H      0.554958    2.365399   -0.677457
  H      0.664198    2.145529    1.073312
  H     -0.942748    0.553765    0.063413
  H     -0.391640   -1.157430   -1.488569
  H      2.083921    0.509997   -2.207522
  H      1.461090   -0.871086   -3.114353
  H      0.497706    0.601460   -2.976753
  H      1.380053   -3.459676   -1.206204
  H      1.452864   -3.574082    0.558104
  H     -0.081800   -3.202438   -0.242269
  H      3.128966   -0.271601   -0.175527
  H      3.285491   -1.813452    0.672881
  H      3.277903   -1.763198   -1.095042
  H     -0.255568   -1.355404    1.345987
  H      2.071540    0.107315    1.891429

 Total Charge           Charge          ....    0
 Multiplicity           Mult            ....    1
 Number of Electrons    NEL             ....   72
 Basis Dimension        Dim             ....  375

ORBITAL ENERGIES
----------------

  NO   OCC          E(Eh)            E(eV)
   0   2.0000     -20.551640      -559.2386
   1   2.0000     -11.268412      -306.6291
   2   2.0000     -11.229231      -305.5629
   3   2.0000     -11.223903      -305.4179
   4   2.0000     -11.222290      -305.3740
   5   2.0000     -11.217854      -305.2533
   6   2.0000     -11.216386      -305.2134
   7   2.0000     -11.214410      -305.1596
   8   2.0000     -11.210748      -305.0600
   9   2.0000      -1.358821       -36.9754
  10   2.0000      -1.138749       -30.9869
  11   2.0000      -1.027117       -27.9493
  12   2.0000      -0.983058       -26.7504
  13   2.0000      -0.943844       -25.6833
  14   2.0000      -0.926709       -25.2170
  15   2.0000      -0.837216       -22.7818
  16   2.0000      -0.791250       -21.5310
  17   2.0000      -0.724275       -19.7085
  18   2.0000      -0.663383       -18.0516
  19   2.0000      -0.643753       -17.5174
  20   2.0000      -0.627124       -17.0649
  21   2.0000      -0.612145       -16.6573
  22   2.0000      -0.576435       -15.6856
  23   2.0000      -0.556188       -15.1346
  24   2.0000      -0.551918       -15.0184
  25   2.0000      -0.543454       -14.7881
  26   2.0000      -0.541367       -14.7313
  27   2.0000      -0.536668       -14.6035
  28   2.0000      -0.529152       -14.3990
  29   2.0000      -0.522905       -14.2290
  30   2.0000      -0.518942       -14.1211
  31   2.0000      -0.484718       -13.1899
  32   2.0000      -0.447230       -12.1697
  33   2.0000      -0.419744       -11.4218
  34   2.0000      -0.408582       -11.1181
  35   2.0000      -0.393171       -10.6987
  36   0.0000       0.122956         3.3458
  37   0.0000       0.145177         3.9505
  38   0.0000       0.159088         4.3290
  39   0.0000       0.166243         4.5237
  40   0.0000       0.190171         5.1748

MULLIKEN ATOMIC CHARGES
-----------------------
   0 C :   -0.506549
   1 C :    0.011733
   2 C :   -0.066389
   3 C :   -0.421210
   4 C :    0.158095
   5 C :   -0.431299
   6 C :   -0.501556
   7 C :   -0.031430
   8 O :   -0.442314
   9 H :    0.119252
  10 H :    0.139825
  11 H :    0.157726
  12 H :    0.101177
  13 H :    0.093053
  14 H :    0.124844
  15 H :    0.135341
  16 H :    0.136586
  17 H :    0.128145
  18 H :    0.137423
  19 H :    0.125764
  20 H :    0.121112
  21 H :    0.157451
  22 H :    0.139386
  23 H :    0.093765
  24 H :    0.320068
Sum of atomic charges:    0.0000000

LOEWDIN ATOMIC CHARGES
----------------------
   0 C :   -0.304702
   1 C :   -0.216771
   2 C :   -0.195171
   3 C :   -0.297722
   4 C :   -0.266903
   5 C :   -0.277533
   6 C :   -0.279168
   7 C :   -0.270246
   8 O :   -0.003586
   9 H :    0.115579
  10 H :    0.127453
  11 H :    0.129040
  12 H :    0.141773
  13 H :    0.152597
  14 H :    0.121942
  15 H :    0.125595
  16 H :    0.125807
  17 H :    0.124799
  18 H :    0.128238
  19 H :    0.123393
  20 H :    0.118044
  21 H :    0.130918
  22 H :    0.130014
  23 H :    0.144330
  24 H :    0.172279

  Mayer bond orders larger than 0.1
B(  0-C ,  1-C ) :   0.8553 B(  0-C ,  9-H ) :   0.9417 B(  0-C , 10-H ) :   0.9371
B(  0-C , 11-H ) :   0.9368 B(  1-C ,  2-C ) :   0.9200 B(  1-C ,  7-C ) :   0.8905
B(  1-C , 12-H ) :   0.9095 B(  2-C ,  3-C ) :   0.8802 B(  2-C ,  4-C ) :   0.9257
B(  2-C , 13-H ) :   0.9214 B(  3-C , 14-H ) :   0.9349 B(  3-C , 15-H ) :   0.9420
B(  3-C , 16-H ) :   0.9415 B(  4-C ,  5-C ) :   0.8772 B(  4-C ,  6-C ) :   0.8472
B(  4-C ,  7-C ) :   0.8760 B(  5-C , 17-H ) :   0.9408 B(  5-C , 18-H ) :   0.9382
B(  5-C , 19-H ) :   0.9300 B(  6-C , 20-H ) :   0.9385 B(  6-C , 21-H ) :   0.9375
B(  6-C , 22-H ) :   0.9352 B(  7-C ,  8-O ) :   1.0224 B(  7-C , 23-H ) :   0.9249
B(  8-O , 24-H ) :   0.8358

MP2 TOTAL ENERGY:     -388.821503762 Eh
FINAL SINGLE POINT ENERGY      -388.821503762493

DIPOLE MOMENT
-------------
                                X             Y             Z
Electronic contribution:     -2.07030      -0.22795       5.11244
Nuclear contribution   :      2.20277       0.39922      -5.72511
                        -----------------------------------------
Total Dipole Moment    :      0.13247       0.17127      -0.61266
                        -----------------------------------------
Magnitude (a.u.)       :      0.64980
Magnitude (Debye)      :      1.65166

                             ****ORCA TERMINATED NORMALLY****
TOTAL RUN TIME: 0 days 0 hours 23 minutes 52 seconds 734 msec
