                         Program Version 3.0.3 - RELEASE   -
|  1> ! RI-MP2 RIJK def2-TZVP def2-TZVP/C def2-TZVP/JK TIGHTSCF
|  2> % maxcore 2000
|  3> % mp2 density relaxed end
|  4> *xyz 0 1
|  5>  C        0.0621559193     1.5105114039     0.0778273710
|  6>  C        1.3631165651     0.7529104384    -0.0389076452
|  7>  O        2.1973111003     0.8537535243     1.0723225763
|  8>  C        3.1002652294    -0.2347813761     1.2405659111
|  9>  C        2.4240489107    -1.5916276174     1.4406821892
| 10>  C        1.3742913057    -1.6379034539     2.5603528691
| 11>  C        0.1640640127    -0.7105318276     2.3572589521
| 12>  O       -0.4007366246    -0.8295901045     1.0551226852
| 13>  C        0.0475136036    -0.0004173959     0.0266980991
| 14>  H       -0.0944965261     1.9791646505     1.0436985784
| 15>  H       -0.3193753812     2.0757264456    -0.7654258053
| 16>  H        1.8937282571     0.7494332306    -0.9940805196
| 17>  H        3.7884862879    -0.2862828725     0.3811901132
| 18>  H        3.6918070415     0.0327358700     2.1229949699
| 19>  H        1.9575769342    -1.9152367943     0.5045439967
| 20>  H        3.2142895139    -2.3216208470     1.6556280095
| 21>  H        1.0126857431    -2.6693694569     2.6428880761
| 22>  H        1.8345814269    -1.3882756241     3.5263561733
| 23>  H       -0.6346471137    -1.0075193675     3.0459677641
| 24>  H        0.4289474341     0.3252061761     2.5820691147
| 25>  H       -0.2778662699    -0.4338443418    -0.9152042287
| 26> *
| 27>
| 28>                          ****END OF INPUT****

CARTESIAN COORDINATES (ANGSTROEM)
---------------------------------
  C      0.062156    1.510511    0.077827
  C      1.363117    0.752910   -0.038908
  O      2.197311    0.853754    1.072323
  C      3.100265   -0.234781    1.240566
  C      2.424049   -1.591628    1.440682
  C      1.374291   -1.637903    2.560353
  C      0.164064   -0.710532    2.357259
  O     -0.400737   -0.829590    1.055123
  C      0.047514   -0.000417    0.026698
  H     -0.094497    1.979165    1.043699
  H     -0.319375    2.075726   -0.765426
  H      1.893728    0.749433   -0.994081
  H      3.788486   -0.286283    0.381190
  H      3.691807    0.032736    2.122995
  H      1.957577   -1.915237    0.504544
  H      3.214290   -2.321621    1.655628
  H      1.012686   -2.669369    2.642888
  H      1.834581   -1.388276    3.526356
  H     -0.634647   -1.007519    3.045968
  H      0.428947    0.325206    2.582069
  H     -0.277866   -0.433844   -0.915204

 Total Charge           Charge          ....    0
 Multiplicity           Mult            ....    1
 Number of Electrons    NEL             ....   70
 Basis Dimension        Dim             ....  351

ORBITAL ENERGIES
----------------

  NO   OCC          E(Eh)            E(eV)
   0   2.0000     -20.560340      -559.4753
   1   2.0000     -20.554045      -559.3040
   2   2.0000     -11.282756      -307.0194
   3   2.0000     -11.281468      -306.9844
   4   2.0000     -11.276125      -306.8390
   5   2.0000     -11.268245      -306.6245
   6   2.0000     -11.222361      -305.3760
   7   2.0000     -11.221105      -305.3418
   8   2.0000     -11.220567      -305.3271
   9   2.0000      -1.390158       -37.8281
  10   2.0000      -1.366297       -37.1788
  11   2.0000      -1.124453       -30.5979
  12   2.0000      -1.056629       -28.7523
  13   2.0000      -0.981613       -26.7111
  14   2.0000      -0.879377       -23.9291
  15   2.0000      -0.832159       -22.6442
  16   2.0000      -0.811246       -22.0751
  17   2.0000      -0.755619       -20.5615
  18   2.0000      -0.694822       -18.9071
  19   2.0000      -0.682702       -18.5773
  20   2.0000      -0.658834       -17.9278
  21   2.0000      -0.638333       -17.3699
  22   2.0000      -0.616009       -16.7625
  23   2.0000      -0.608939       -16.5701
  24   2.0000      -0.567910       -15.4536
  25   2.0000      -0.546537       -14.8720
  26   2.0000      -0.538097       -14.6424
  27   2.0000      -0.531178       -14.4541
  28   2.0000      -0.509098       -13.8533
  29   2.0000      -0.493741       -13.4354
  30   2.0000      -0.478228       -13.0132
  31   2.0000      -0.462187       -12.5768
  32   2.0000      -0.433324       -11.7913
  33   2.0000      -0.399032       -10.8582
  34   2.0000      -0.363083        -9.8800
  35   0.0000       0.139251         3.7892
  36   0.0000       0.153450         4.1756
  37   0.0000       0.167620         4.5612
  38   0.0000       0.176597         4.8055
  39   0.0000       0.191888         5.2215

MULLIKEN ATOMIC CHARGES
-----------------------
   0 C :   -0.266250
   1 C :    0.010367
   2 O :   -0.301334
   3 C :   -0.079602
   4 C :   -0.209139
   5 C :   -0.233734
   6 C :   -0.048985
   7 O :   -0.312678
   8 C :    0.019791
   9 H :    0.137301
  10 H :    0.132169
  11 H :    0.097255
  12 H :    0.104549
  13 H :    0.119180
  14 H :    0.128381
  15 H :    0.126073
  16 H :    0.118912
  17 H :    0.100967
  18 H :    0.120443
  19 H :    0.119670
  20 H :    0.116663
Sum of atomic charges:    0.0000000

LOEWDIN ATOMIC CHARGES
----------------------
   0 C :   -0.214368
   1 C :   -0.307113
   2 O :    0.187568
   3 C :   -0.313699
   4 C :   -0.278518
   5 C :   -0.270547
   6 C :   -0.308905
   7 O :    0.188414
   8 C :   -0.304673
   9 H :    0.143021
  10 H :    0.131603
  11 H :    0.130990
  12 H :    0.122000
  13 H :    0.130707
  14 H :    0.144719
  15 H :    0.143878
  16 H :    0.139668
  17 H :    0.139856
  18 H :    0.127687
  19 H :    0.124497
  20 H :    0.143214

  Mayer bond orders larger than 0.1
B(  0-C ,  1-C ) :   0.8601 B(  0-C ,  8-C ) :   0.8865 B(  0-C ,  9-H ) :   0.9068
B(  0-C , 10-H ) :   0.9187 B(  1-C ,  2-O ) :   0.9809 B(  1-C ,  8-C ) :   0.8750
B(  1-C , 11-H ) :   0.9218 B(  2-O ,  3-C ) :   0.9091 B(  3-C ,  4-C ) :   0.9271
B(  3-C , 12-H ) :   0.9432 B(  3-C , 13-H ) :   0.9299 B(  4-C ,  5-C ) :   0.9227
B(  4-C , 14-H ) :   0.9300 B(  4-C , 15-H ) :   0.9265 B(  5-C ,  6-C ) :   0.9331
B(  5-C , 16-H ) :   0.9244 B(  5-C , 17-H ) :   0.9229 B(  6-C ,  7-O ) :   0.8759
B(  6-C , 18-H ) :   0.9351 B(  6-C , 19-H ) :   0.9330 B(  7-O ,  8-C ) :   0.9781
B(  8-C , 20-H ) :   0.9394

MP2 TOTAL ENERGY:     -423.484409856 Eh
FINAL SINGLE POINT ENERGY      -423.484409856132

DIPOLE MOMENT
-------------
                                X             Y             Z
Electronic contribution:     -2.05865       1.96522      -1.59188
Nuclear contribution   :      2.47813      -2.13939       1.52379
                        -----------------------------------------
Total Dipole Moment    :      0.41948      -0.17418      -0.06809
                        -----------------------------------------
Magnitude (a.u.)       :      0.45928
Magnitude (Debye)      :      1.16740

                             ****ORCA TERMINATED NORMALLY****
TOTAL RUN TIME: 0 days 0 hours 18 minutes 43 seconds 377 msec
