                         Program Version 3.0.3 - RELEASE   -
|  1> ! RI-MP2 RIJK def2-TZVP def2-TZVP/C def2-TZVP/JK TIGHTSCF
|  2> % maxcore 2000
|  3> % mp2 density relaxed end
|  4> *xyz 0 1
|  5>  C       -0.0119140740     1.4583407435    -0.1744242258
|  6>  N       -0.0485953954     0.0335179078     0.0800120585
|  7>  C       -1.3064542319    -0.5924443798     0.5242057817
|  8>  C       -0.4692472022    -1.6318156825     1.3039123146
|  9>  O       -0.2296634325    -2.8351524001     0.6255920715
| 10>  C        0.7041737170    -0.5674995816     1.2250121644
| 11>  C        2.1028953600    -1.0650691418     0.8746308697
| 12>  C        0.7223587557     0.2703545574     2.4256579378
| 13>  C        0.7157059263     0.9714799988     3.4039653440
| 14>  H        1.0093558542     1.7669074960    -0.4200715091
| 15>  H       -0.6454907644     1.6822116273    -1.0392918383
| 16>  H       -0.3595811353     2.0634609800     0.6793508328
| 17>  H       -1.9089596112     0.0431960818     1.1921701849
| 18>  H       -1.9439258786    -0.9765512707    -0.2804005981
| 19>  H       -0.7958663263    -1.8921694204     2.3097886967
| 20>  H       -0.0529835366    -2.6186500124    -0.2973270525
| 21>  H        2.0589109512    -1.7626438596     0.0361032215
| 22>  H        2.7468156053    -0.2248165076     0.5978456772
| 23>  H        2.5553389621    -1.5729186763     1.7308776662
| 24>  H        0.7196293265     1.5838591403     4.2717939422
| 25> *
| 26>
| 27>                          ****END OF INPUT****

CARTESIAN COORDINATES (ANGSTROEM)
---------------------------------
  C     -0.011914    1.458341   -0.174424
  N     -0.048595    0.033518    0.080012
  C     -1.306454   -0.592444    0.524206
  C     -0.469247   -1.631816    1.303912
  O     -0.229663   -2.835152    0.625592
  C      0.704174   -0.567500    1.225012
  C      2.102895   -1.065069    0.874631
  C      0.722359    0.270355    2.425658
  C      0.715706    0.971480    3.403965
  H      1.009356    1.766907   -0.420072
  H     -0.645491    1.682212   -1.039292
  H     -0.359581    2.063461    0.679351
  H     -1.908960    0.043196    1.192170
  H     -1.943926   -0.976551   -0.280401
  H     -0.795866   -1.892169    2.309789
  H     -0.052984   -2.618650   -0.297327
  H      2.058911   -1.762644    0.036103
  H      2.746816   -0.224817    0.597846
  H      2.555339   -1.572919    1.730878
  H      0.719629    1.583859    4.271794

 Total Charge           Charge          ....    0
 Multiplicity           Mult            ....    1
 Number of Electrons    NEL             ....   68
 Basis Dimension        Dim             ....  345

ORBITAL ENERGIES
----------------

  NO   OCC          E(Eh)            E(eV)
   0   2.0000     -20.563495      -559.5611
   1   2.0000     -15.556964      -423.3265
   2   2.0000     -11.291249      -307.2505
   3   2.0000     -11.289285      -307.1971
   4   2.0000     -11.255302      -306.2723
   5   2.0000     -11.244469      -305.9776
   6   2.0000     -11.235775      -305.7410
   7   2.0000     -11.228587      -305.5454
   8   2.0000     -11.220560      -305.3270
   9   2.0000      -1.376883       -37.4669
  10   2.0000      -1.254929       -34.1484
  11   2.0000      -1.063421       -28.9372
  12   2.0000      -1.012941       -27.5635
  13   2.0000      -0.992303       -27.0019
  14   2.0000      -0.881167       -23.9778
  15   2.0000      -0.876838       -23.8600
  16   2.0000      -0.795317       -21.6417
  17   2.0000      -0.727312       -19.7912
  18   2.0000      -0.697073       -18.9683
  19   2.0000      -0.657434       -17.8897
  20   2.0000      -0.639905       -17.4127
  21   2.0000      -0.622296       -16.9335
  22   2.0000      -0.610750       -16.6194
  23   2.0000      -0.581036       -15.8108
  24   2.0000      -0.558473       -15.1968
  25   2.0000      -0.545642       -14.8477
  26   2.0000      -0.544364       -14.8129
  27   2.0000      -0.531040       -14.4503
  28   2.0000      -0.482982       -13.1426
  29   2.0000      -0.465874       -12.6771
  30   2.0000      -0.445121       -12.1124
  31   2.0000      -0.397544       -10.8177
  32   2.0000      -0.385537       -10.4910
  33   2.0000      -0.365735        -9.9521
  34   0.0000       0.137367         3.7380
  35   0.0000       0.152235         4.1425
  36   0.0000       0.164446         4.4748
  37   0.0000       0.165670         4.5081
  38   0.0000       0.169965         4.6250

MULLIKEN ATOMIC CHARGES
-----------------------
   0 C :   -0.346141
   1 N :   -0.163465
   2 C :   -0.197960
   3 C :    0.085058
   4 O :   -0.453991
   5 C :    0.037107
   6 C :   -0.342885
   7 C :   -0.084590
   8 C :   -0.189612
   9 H :    0.136986
  10 H :    0.139619
  11 H :    0.124238
  12 H :    0.106318
  13 H :    0.119247
  14 H :    0.130639
  15 H :    0.324844
  16 H :    0.112716
  17 H :    0.135097
  18 H :    0.137654
  19 H :    0.189121
Sum of atomic charges:   -0.0000000

LOEWDIN ATOMIC CHARGES
----------------------
   0 C :   -0.330510
   1 N :    0.108134
   2 C :   -0.245151
   3 C :   -0.270943
   4 O :    0.004875
   5 C :   -0.287477
   6 C :   -0.251337
   7 C :   -0.071055
   8 C :   -0.091791
   9 H :    0.120384
  10 H :    0.119936
  11 H :    0.108787
  12 H :    0.127080
  13 H :    0.121643
  14 H :    0.139907
  15 H :    0.181547
  16 H :    0.123232
  17 H :    0.130949
  18 H :    0.134241
  19 H :    0.127548

  Mayer bond orders larger than 0.1
B(  0-C ,  1-N ) :   0.9272 B(  0-C ,  9-H ) :   0.9354 B(  0-C , 10-H ) :   0.9324
B(  0-C , 11-H ) :   0.9296 B(  1-N ,  2-C ) :   0.9401 B(  1-N ,  5-C ) :   0.9028
B(  2-C ,  3-C ) :   0.9589 B(  2-C , 12-H ) :   0.9115 B(  2-C , 13-H ) :   0.9132
B(  3-C ,  4-O ) :   0.9617 B(  3-C ,  5-C ) :   0.8471 B(  3-C , 14-H ) :   0.9207
B(  4-O , 15-H ) :   0.8334 B(  5-C ,  6-C ) :   0.9535 B(  5-C ,  7-C ) :   1.1722
B(  6-C , 16-H ) :   0.9203 B(  6-C , 17-H ) :   0.9312 B(  6-C , 18-H ) :   0.9328
B(  7-C ,  8-C ) :   2.5801 B(  8-C , 19-H ) :   0.8954

MP2 TOTAL ENERGY:     -402.395003567 Eh
FINAL SINGLE POINT ENERGY      -402.395003567035

DIPOLE MOMENT
-------------
                                X             Y             Z
Electronic contribution:     -0.89989      -2.57674       2.78442
Nuclear contribution   :      0.81007       3.18297      -2.91127
                        -----------------------------------------
Total Dipole Moment    :     -0.08982       0.60622      -0.12685
                        -----------------------------------------
Magnitude (a.u.)       :      0.62583
Magnitude (Debye)      :      1.59074

                             ****ORCA TERMINATED NORMALLY****
TOTAL RUN TIME: 0 days 0 hours 20 minutes 37 seconds 480 msec
