                         Program Version 3.0.3 - RELEASE   -
|  1> ! RI-MP2 RIJK def2-TZVP def2-TZVP/C def2-TZVP/JK TIGHTSCF
|  2> % maxcore 2000
|  3> % mp2 density relaxed end
|  4> *xyz 0 1
|  5>  N       -0.4017407823    -0.7364489530    -1.0350056933
|  6>  C       -0.1517212715     0.1765517974    -0.3740638075
|  7>  C        0.1402839862     1.3545325308     0.4488989315
|  8>  N        1.4534306954     1.9061455697     0.1855293976
|  9>  C        2.0262153663     2.2059968086    -1.0100363168
| 10>  C        3.2415800625     2.7877994564    -0.7253226110
| 11>  C        3.3077428926     2.7993508694     0.6841850160
| 12>  N        2.2224019295     2.2665922943     1.2362943974
| 13>  H       -0.6447360738     2.1026190106     0.2817335804
| 14>  H        0.1235159315     1.0838866191     1.5071778465
| 15>  H        1.5385929451     1.9706812982    -1.9427623245
| 16>  H        3.9743104279     3.1415396751    -1.4318904064
| 17>  H        4.1004062105     3.1684333633     1.3180889102
| 18> *
| 19>
| 20>                          ****END OF INPUT****

CARTESIAN COORDINATES (ANGSTROEM)
---------------------------------
  N     -0.401741   -0.736449   -1.035006
  C     -0.151721    0.176552   -0.374064
  C      0.140284    1.354533    0.448899
  N      1.453431    1.906146    0.185529
  C      2.026215    2.205997   -1.010036
  C      3.241580    2.787799   -0.725323
  C      3.307743    2.799351    0.684185
  N      2.222402    2.266592    1.236294
  H     -0.644736    2.102619    0.281734
  H      0.123516    1.083887    1.507178
  H      1.538593    1.970681   -1.942762
  H      3.974310    3.141540   -1.431890
  H      4.100406    3.168433    1.318089

 Total Charge           Charge          ....    0
 Multiplicity           Mult            ....    1
 Number of Electrons    NEL             ....   56
 Basis Dimension        Dim             ....  278

ORBITAL ENERGIES
----------------

  NO   OCC          E(Eh)            E(eV)
   0   2.0000     -15.662504      -426.1984
   1   2.0000     -15.601634      -424.5421
   2   2.0000     -15.591885      -424.2768
   3   2.0000     -11.341639      -308.6217
   4   2.0000     -11.292639      -307.2883
   5   2.0000     -11.291253      -307.2506
   6   2.0000     -11.267184      -306.5957
   7   2.0000     -11.235305      -305.7282
   8   2.0000      -1.400295       -38.1040
   9   2.0000      -1.240035       -33.7431
  10   2.0000      -1.155087       -31.4315
  11   2.0000      -1.079234       -29.3675
  12   2.0000      -1.003217       -27.2989
  13   2.0000      -0.833692       -22.6859
  14   2.0000      -0.807488       -21.9729
  15   2.0000      -0.755417       -20.5559
  16   2.0000      -0.721761       -19.6401
  17   2.0000      -0.671146       -18.2628
  18   2.0000      -0.624602       -16.9963
  19   2.0000      -0.604362       -16.4455
  20   2.0000      -0.594724       -16.1833
  21   2.0000      -0.576327       -15.6827
  22   2.0000      -0.570972       -15.5369
  23   2.0000      -0.488148       -13.2832
  24   2.0000      -0.481680       -13.1072
  25   2.0000      -0.476350       -12.9622
  26   2.0000      -0.375350       -10.2138
  27   2.0000      -0.362161        -9.8549
  28   0.0000       0.116836         3.1793
  29   0.0000       0.133097         3.6217
  30   0.0000       0.153443         4.1754
  31   0.0000       0.165478         4.5029
  32   0.0000       0.169815         4.6209

MULLIKEN ATOMIC CHARGES
-----------------------
   0 N :   -0.048303
   1 C :   -0.169167
   2 C :   -0.078315
   3 N :    0.137806
   4 C :   -0.131508
   5 C :   -0.183234
   6 C :   -0.091173
   7 N :   -0.272174
   8 H :    0.176698
   9 H :    0.198721
  10 H :    0.169854
  11 H :    0.148901
  12 H :    0.141893
Sum of atomic charges:    0.0000000

LOEWDIN ATOMIC CHARGES
----------------------
   0 N :    0.080215
   1 C :   -0.183292
   2 C :   -0.225288
   3 N :    0.193570
   4 C :   -0.213190
   5 C :   -0.197163
   6 C :   -0.265743
   7 N :    0.046094
   8 H :    0.164694
   9 H :    0.174317
  10 H :    0.145503
  11 H :    0.144064
  12 H :    0.136219

  Mayer bond orders larger than 0.1
B(  0-N ,  1-C ) :   2.8329 B(  1-C ,  2-C ) :   0.8961 B(  2-C ,  3-N ) :   0.8849
B(  2-C ,  8-H ) :   0.9129 B(  2-C ,  9-H ) :   0.9023 B(  3-N ,  4-C ) :   1.1858
B(  3-N ,  7-N ) :   1.0003 B(  4-C ,  5-C ) :   1.4528 B(  4-C ,  7-N ) :   0.1066
B(  4-C , 10-H ) :   0.9005 B(  5-C ,  6-C ) :   1.3092 B(  5-C , 11-H ) :   0.9198
B(  6-C ,  7-N ) :   1.4730 B(  6-C , 12-H ) :   0.9346

MP2 TOTAL ENERGY:     -357.043863026 Eh
FINAL SINGLE POINT ENERGY      -357.043863025900

DIPOLE MOMENT
-------------
                                X             Y             Z
Electronic contribution:     -1.64863      -2.28441      -0.01679
Nuclear contribution   :      1.60933       3.23217       0.04013
                        -----------------------------------------
Total Dipole Moment    :     -0.03930       0.94776       0.02334
                        -----------------------------------------
Magnitude (a.u.)       :      0.94886
Magnitude (Debye)      :      2.41181

                             ****ORCA TERMINATED NORMALLY****
TOTAL RUN TIME: 0 days 0 hours 10 minutes 25 seconds 121 msec
