                         Program Version 3.0.3 - RELEASE   -
|  1> ! RI-MP2 RIJK def2-TZVP def2-TZVP/C def2-TZVP/JK TIGHTSCF
|  2> % maxcore 2000
|  3> % mp2 density relaxed end
|  4> *xyz 0 1
|  5>  C       -0.1678778216     1.5914090341    -0.0248372162
|  6>  C       -0.0339354190     0.0749206960    -0.0007985805
|  7>  C        1.1853887955    -0.5967233129    -0.6770360402
|  8>  C        1.5640802492    -0.5945804414    -2.1335644329
|  9>  C        2.1302681750    -0.2942605835     0.5481588117
| 10>  C        2.5820794880    -1.7636979774     0.6534690578
| 11>  C        1.0920138280    -1.8460110951     0.2733086490
| 12>  C        0.7152987730    -0.6089895970     1.1679906555
| 13>  C        0.3508791379    -0.6262355488     2.6280547847
| 14>  H        0.7786737930     2.0855513955     0.2195410272
| 15>  H       -0.4818345085     1.9459325733    -1.0131024148
| 16>  H       -0.9174528938     1.9345626034     0.6971792942
| 17>  H       -0.9938248904    -0.4015357365    -0.2485363697
| 18>  H        1.7269291786     0.4257463219    -2.4991316486
| 19>  H        2.4854608056    -1.1609161711    -2.3093067194
| 20>  H        0.7744505643    -1.0441891710    -2.7466350840
| 21>  H        2.7209956832     0.6104720405     0.7046858655
| 22>  H        3.3045776444    -2.1148433533    -0.0903804381
| 23>  H        2.8617285283    -2.1264249963     1.6478738899
| 24>  H        0.4655292349    -2.7260470787     0.1078401659
| 25>  H        1.0776569660    -1.1976229357     3.2161652609
| 26>  H        0.3156786919     0.3889266810     3.0396763641
| 27>  H       -0.6343896635    -1.0809765171     2.7828920679
| 28> *
| 29>
| 30>                          ****END OF INPUT****

CARTESIAN COORDINATES (ANGSTROEM)
---------------------------------
  C     -0.167878    1.591409   -0.024837
  C     -0.033935    0.074921   -0.000799
  C      1.185389   -0.596723   -0.677036
  C      1.564080   -0.594580   -2.133564
  C      2.130268   -0.294261    0.548159
  C      2.582079   -1.763698    0.653469
  C      1.092014   -1.846011    0.273309
  C      0.715299   -0.608990    1.167991
  C      0.350879   -0.626236    2.628055
  H      0.778674    2.085551    0.219541
  H     -0.481835    1.945933   -1.013102
  H     -0.917453    1.934563    0.697179
  H     -0.993825   -0.401536   -0.248536
  H      1.726929    0.425746   -2.499132
  H      2.485461   -1.160916   -2.309307
  H      0.774451   -1.044189   -2.746635
  H      2.720996    0.610472    0.704686
  H      3.304578   -2.114843   -0.090380
  H      2.861729   -2.126425    1.647874
  H      0.465529   -2.726047    0.107840
  H      1.077657   -1.197623    3.216165
  H      0.315679    0.388927    3.039676
  H     -0.634390   -1.080977    2.782892

 Total Charge           Charge          ....    0
 Multiplicity           Mult            ....    1
 Number of Electrons    NEL             ....   68
 Basis Dimension        Dim             ....  363

ORBITAL ENERGIES
----------------

  NO   OCC          E(Eh)            E(eV)
   0   2.0000     -11.235791      -305.7414
   1   2.0000     -11.235705      -305.7391
   2   2.0000     -11.228966      -305.5557
   3   2.0000     -11.228596      -305.5456
   4   2.0000     -11.218595      -305.2735
   5   2.0000     -11.216120      -305.2061
   6   2.0000     -11.212107      -305.0969
   7   2.0000     -11.212105      -305.0969
   8   2.0000     -11.207924      -304.9831
   9   2.0000      -1.234792       -33.6004
  10   2.0000      -1.027218       -27.9520
  11   2.0000      -0.998522       -27.1712
  12   2.0000      -0.960372       -26.1331
  13   2.0000      -0.918685       -24.9987
  14   2.0000      -0.853825       -23.2338
  15   2.0000      -0.787677       -21.4338
  16   2.0000      -0.760893       -20.7049
  17   2.0000      -0.673052       -18.3147
  18   2.0000      -0.638484       -17.3740
  19   2.0000      -0.617679       -16.8079
  20   2.0000      -0.598421       -16.2839
  21   2.0000      -0.577769       -15.7219
  22   2.0000      -0.569268       -15.4906
  23   2.0000      -0.551326       -15.0024
  24   2.0000      -0.547500       -14.8982
  25   2.0000      -0.545641       -14.8476
  26   2.0000      -0.531499       -14.4628
  27   2.0000      -0.512737       -13.9523
  28   2.0000      -0.443958       -12.0807
  29   2.0000      -0.417943       -11.3728
  30   2.0000      -0.411473       -11.1967
  31   2.0000      -0.409076       -11.1315
  32   2.0000      -0.402222       -10.9450
  33   2.0000      -0.390901       -10.6369
  34   0.0000       0.132883         3.6159
  35   0.0000       0.154790         4.2121
  36   0.0000       0.165203         4.4954
  37   0.0000       0.169776         4.6198
  38   0.0000       0.187180         5.0934

MULLIKEN ATOMIC CHARGES
-----------------------
   0 C :   -0.441216
   1 C :    0.005753
   2 C :   -0.018389
   3 C :   -0.430749
   4 C :   -0.095049
   5 C :   -0.257463
   6 C :   -0.058103
   7 C :   -0.018385
   8 C :   -0.430748
   9 H :    0.128930
  10 H :    0.132070
  11 H :    0.132070
  12 H :    0.083007
  13 H :    0.136046
  14 H :    0.134776
  15 H :    0.133917
  16 H :    0.122758
  17 H :    0.109243
  18 H :    0.109241
  19 H :    0.117551
  20 H :    0.134777
  21 H :    0.136046
  22 H :    0.133917
Sum of atomic charges:   -0.0000000

LOEWDIN ATOMIC CHARGES
----------------------
   0 C :   -0.295452
   1 C :   -0.176807
   2 C :   -0.171724
   3 C :   -0.277945
   4 C :   -0.109397
   5 C :   -0.205857
   6 C :   -0.106716
   7 C :   -0.171723
   8 C :   -0.277946
   9 H :    0.125959
  10 H :    0.124253
  11 H :    0.124254
  12 H :    0.143158
  13 H :    0.128661
  14 H :    0.129924
  15 H :    0.128673
  16 H :    0.125101
  17 H :    0.124925
  18 H :    0.124923
  19 H :    0.126478
  20 H :    0.129924
  21 H :    0.128661
  22 H :    0.128673

  Mayer bond orders larger than 0.1
B(  0-C ,  1-C ) :   0.8859 B(  0-C ,  9-H ) :   0.9398 B(  0-C , 10-H ) :   0.9383
B(  0-C , 11-H ) :   0.9383 B(  1-C ,  2-C ) :   0.8789 B(  1-C ,  7-C ) :   0.8789
B(  1-C , 12-H ) :   0.9181 B(  2-C ,  3-C ) :   0.8366 B(  2-C ,  4-C ) :   0.8419
B(  2-C ,  6-C ) :   0.8483 B(  3-C , 13-H ) :   0.9435 B(  3-C , 14-H ) :   0.9424
B(  3-C , 15-H ) :   0.9456 B(  4-C ,  5-C ) :   0.9216 B(  4-C ,  7-C ) :   0.8419
B(  4-C , 16-H ) :   0.8874 B(  5-C ,  6-C ) :   0.9253 B(  5-C , 17-H ) :   0.9201
B(  5-C , 18-H ) :   0.9201 B(  6-C ,  7-C ) :   0.8483 B(  6-C , 19-H ) :   0.8916
B(  7-C ,  8-C ) :   0.8366 B(  8-C , 20-H ) :   0.9424 B(  8-C , 21-H ) :   0.9435
B(  8-C , 22-H ) :   0.9456

MP2 TOTAL ENERGY:     -350.452129363 Eh
FINAL SINGLE POINT ENERGY      -350.452129362602

DIPOLE MOMENT
-------------
                                X             Y             Z
Electronic contribution:      0.91888      -2.28348       0.21895
Nuclear contribution   :     -0.96788       2.31859      -0.23121
                        -----------------------------------------
Total Dipole Moment    :     -0.04901       0.03511      -0.01226
                        -----------------------------------------
Magnitude (a.u.)       :      0.06152
Magnitude (Debye)      :      0.15637

                             ****ORCA TERMINATED NORMALLY****
TOTAL RUN TIME: 0 days 0 hours 22 minutes 17 seconds 328 msec
