                         Program Version 3.0.3 - RELEASE   -
|  1> ! RI-MP2 RIJK def2-TZVP def2-TZVP/C def2-TZVP/JK TIGHTSCF
|  2> % maxcore 2000
|  3> % mp2 density relaxed end
|  4> *xyz 0 1
|  5>  C       -0.2057727716     1.5473572257     0.0021404676
|  6>  C        0.0313875548     0.0427939169     0.0196561006
|  7>  C        1.1162187365    -0.5224057078    -0.9600539537
|  8>  C        1.9131081257    -1.0441861220     0.2396441253
|  9>  C        2.7802557591    -2.2917069114     0.4260993368
| 10>  C        3.6460560557    -1.5024406476     1.4594199832
| 11>  C        2.9198287648    -0.1755652653     1.0723064207
| 12>  C        1.7887251232     0.2773805870     2.0319969275
| 13>  C        0.7850993639    -0.6031862462     1.2381330937
| 14>  H        0.7293553146     2.1129186865     0.0741306601
| 15>  H       -0.6933656172     1.8470990582    -0.9322308638
| 16>  H       -0.8506608435     1.8625802216     0.8302502262
| 17>  H       -0.9278710199    -0.4626271693    -0.1281815162
| 18>  H        0.7330728154    -1.3152699406    -1.6108461647
| 19>  H        1.6298266874     0.2124742338    -1.5902707569
| 20>  H        2.2793925797    -3.2015108766     0.7725782755
| 21>  H        3.3483638214    -2.5395846518    -0.4772413473
| 22>  H        3.4871872343    -1.7988519798     2.5003916025
| 23>  H        4.7206972307    -1.5155666076     1.2641428168
| 24>  H        3.5518024077     0.5908180698     0.6167257593
| 25>  H        1.9357927915    -0.0233620277     3.0744195149
| 26>  H        1.5695003004     1.3486609770     2.0237638600
| 27>  H        0.1915064454    -1.3207927128     1.8097763821
| 28> *
| 29>
| 30>                          ****END OF INPUT****

CARTESIAN COORDINATES (ANGSTROEM)
---------------------------------
  C     -0.205773    1.547357    0.002140
  C      0.031388    0.042794    0.019656
  C      1.116219   -0.522406   -0.960054
  C      1.913108   -1.044186    0.239644
  C      2.780256   -2.291707    0.426099
  C      3.646056   -1.502441    1.459420
  C      2.919829   -0.175565    1.072306
  C      1.788725    0.277381    2.031997
  C      0.785099   -0.603186    1.238133
  H      0.729355    2.112919    0.074131
  H     -0.693366    1.847099   -0.932231
  H     -0.850661    1.862580    0.830250
  H     -0.927871   -0.462627   -0.128182
  H      0.733073   -1.315270   -1.610846
  H      1.629827    0.212474   -1.590271
  H      2.279393   -3.201511    0.772578
  H      3.348364   -2.539585   -0.477241
  H      3.487187   -1.798852    2.500392
  H      4.720697   -1.515567    1.264143
  H      3.551802    0.590818    0.616726
  H      1.935793   -0.023362    3.074420
  H      1.569500    1.348661    2.023764
  H      0.191506   -1.320793    1.809776

 Total Charge           Charge          ....    0
 Multiplicity           Mult            ....    1
 Number of Electrons    NEL             ....   68
 Basis Dimension        Dim             ....  363

ORBITAL ENERGIES
----------------

  NO   OCC          E(Eh)            E(eV)
   0   2.0000     -11.223292      -305.4013
   1   2.0000     -11.218350      -305.2668
   2   2.0000     -11.217081      -305.2323
   3   2.0000     -11.216069      -305.2048
   4   2.0000     -11.215557      -305.1908
   5   2.0000     -11.213344      -305.1306
   6   2.0000     -11.211899      -305.0913
   7   2.0000     -11.210791      -305.0611
   8   2.0000     -11.209682      -305.0309
   9   2.0000      -1.174766       -31.9670
  10   2.0000      -1.067240       -29.0411
  11   2.0000      -0.990717       -26.9588
  12   2.0000      -0.957579       -26.0570
  13   2.0000      -0.875082       -23.8122
  14   2.0000      -0.845003       -22.9937
  15   2.0000      -0.813606       -22.1393
  16   2.0000      -0.751693       -20.4546
  17   2.0000      -0.666758       -18.1434
  18   2.0000      -0.662803       -18.0358
  19   2.0000      -0.626045       -17.0355
  20   2.0000      -0.615698       -16.7540
  21   2.0000      -0.575214       -15.6524
  22   2.0000      -0.571656       -15.5556
  23   2.0000      -0.552897       -15.0451
  24   2.0000      -0.541374       -14.7315
  25   2.0000      -0.513192       -13.9647
  26   2.0000      -0.504216       -13.7204
  27   2.0000      -0.485583       -13.2134
  28   2.0000      -0.459012       -12.4903
  29   2.0000      -0.445191       -12.1143
  30   2.0000      -0.424753       -11.5581
  31   2.0000      -0.411121       -11.1872
  32   2.0000      -0.383479       -10.4350
  33   2.0000      -0.365238        -9.9386
  34   0.0000       0.139898         3.8068
  35   0.0000       0.153200         4.1688
  36   0.0000       0.156759         4.2656
  37   0.0000       0.161467         4.3937
  38   0.0000       0.186384         5.0718

MULLIKEN ATOMIC CHARGES
-----------------------
   0 C :   -0.441651
   1 C :   -0.037480
   2 C :   -0.248988
   3 C :    0.073182
   4 C :   -0.230820
   5 C :   -0.248550
   6 C :   -0.071954
   7 C :   -0.318671
   8 C :   -0.044494
   9 H :    0.127027
  10 H :    0.134364
  11 H :    0.132306
  12 H :    0.089956
  13 H :    0.110804
  14 H :    0.105199
  15 H :    0.106821
  16 H :    0.109132
  17 H :    0.109204
  18 H :    0.113454
  19 H :    0.097699
  20 H :    0.109234
  21 H :    0.123139
  22 H :    0.101088
Sum of atomic charges:   -0.0000000

LOEWDIN ATOMIC CHARGES
----------------------
   0 C :   -0.303415
   1 C :   -0.224123
   2 C :   -0.186566
   3 C :   -0.180619
   4 C :   -0.209428
   5 C :   -0.211549
   6 C :   -0.156706
   7 C :   -0.208700
   8 C :   -0.134337
   9 H :    0.121647
  10 H :    0.124821
  11 H :    0.124416
  12 H :    0.145501
  13 H :    0.133638
  14 H :    0.129810
  15 H :    0.125287
  16 H :    0.135443
  17 H :    0.129395
  18 H :    0.126542
  19 H :    0.130321
  20 H :    0.128330
  21 H :    0.128991
  22 H :    0.131303

  Mayer bond orders larger than 0.1
B(  0-C ,  1-C ) :   0.8976 B(  0-C ,  9-H ) :   0.9361 B(  0-C , 10-H ) :   0.9397
B(  0-C , 11-H ) :   0.9426 B(  1-C ,  2-C ) :   0.9523 B(  1-C ,  8-C ) :   0.9027
B(  1-C , 12-H ) :   0.9183 B(  2-C ,  3-C ) :   0.9095 B(  2-C , 13-H ) :   0.9109
B(  2-C , 14-H ) :   0.9062 B(  3-C ,  4-C ) :   0.9068 B(  3-C ,  6-C ) :   0.9053
B(  3-C ,  8-C ) :   0.9011 B(  4-C ,  5-C ) :   0.9704 B(  4-C , 15-H ) :   0.9161
B(  4-C , 16-H ) :   0.9143 B(  5-C ,  6-C ) :   0.9153 B(  5-C , 17-H ) :   0.9148
B(  5-C , 18-H ) :   0.9236 B(  6-C ,  7-C ) :   0.9312 B(  6-C , 19-H ) :   0.9053
B(  7-C ,  8-C ) :   0.9085 B(  7-C , 20-H ) :   0.9101 B(  7-C , 21-H ) :   0.9237
B(  8-C , 22-H ) :   0.9033

MP2 TOTAL ENERGY:     -350.463289116 Eh
FINAL SINGLE POINT ENERGY      -350.463289115991

DIPOLE MOMENT
-------------
                                X             Y             Z
Electronic contribution:      1.01376      -2.03655       0.26918
Nuclear contribution   :     -1.06103       2.02669      -0.31019
                        -----------------------------------------
Total Dipole Moment    :     -0.04727      -0.00986      -0.04100
                        -----------------------------------------
Magnitude (a.u.)       :      0.06335
Magnitude (Debye)      :      0.16101

                             ****ORCA TERMINATED NORMALLY****
TOTAL RUN TIME: 0 days 0 hours 22 minutes 17 seconds 800 msec
