                         Program Version 3.0.3 - RELEASE   -
|  1> ! RI-MP2 RIJK def2-TZVP def2-TZVP/C def2-TZVP/JK TIGHTSCF
|  2> % maxcore 2000
|  3> % mp2 density relaxed end
|  4> *xyz 0 1
|  5>  O       -0.0093259747     0.0951269580     0.5531714684
|  6>  C        0.0146133839     1.1961454513     0.0656324105
|  7>  O       -1.1475444054     1.7397022107    -0.3759707814
|  8>  C       -1.1980518934     3.0270385078    -1.0146447446
|  9>  C       -0.0542353141     3.9359823197    -0.5883945642
| 10>  N        1.2335740497     3.2715292309    -0.7644409567
| 11>  C        1.2614829851     2.0317087323    -0.0232203097
| 12>  C        2.1171813008     2.0066973830     1.2441173146
| 13>  C        2.5746007204     1.2866033693     0.0167416132
| 14>  H       -1.1699208847     2.8677631158    -2.1013397628
| 15>  H       -2.1770539835     3.4455587389    -0.7599727576
| 16>  H       -0.0808096896     4.8612177929    -1.1730590564
| 17>  H       -0.1601204081     4.2074386039     0.4686185850
| 18>  H        1.3816709764     3.0814889357    -1.7526099648
| 19>  H        2.5946461388     2.9471254005     1.4914691501
| 20>  H        1.7495680599     1.4140532504     2.0724458799
| 21>  H        2.5122303801     0.2057201164     0.0089149156
| 22>  H        3.3809198986     1.7261224124    -0.5595246092
| 23> *
| 24>
| 25>                          ****END OF INPUT****

CARTESIAN COORDINATES (ANGSTROEM)
---------------------------------
  O     -0.009326    0.095127    0.553171
  C      0.014613    1.196145    0.065632
  O     -1.147544    1.739702   -0.375971
  C     -1.198052    3.027039   -1.014645
  C     -0.054235    3.935982   -0.588395
  N      1.233574    3.271529   -0.764441
  C      1.261483    2.031709   -0.023220
  C      2.117181    2.006697    1.244117
  C      2.574601    1.286603    0.016742
  H     -1.169921    2.867763   -2.101340
  H     -2.177054    3.445559   -0.759973
  H     -0.080810    4.861218   -1.173059
  H     -0.160120    4.207439    0.468619
  H      1.381671    3.081489   -1.752610
  H      2.594646    2.947125    1.491469
  H      1.749568    1.414053    2.072446
  H      2.512230    0.205720    0.008915
  H      3.380920    1.726122   -0.559525

 Total Charge           Charge          ....    0
 Multiplicity           Mult            ....    1
 Number of Electrons    NEL             ....   68
 Basis Dimension        Dim             ....  333

ORBITAL ENERGIES
----------------

  NO   OCC          E(Eh)            E(eV)
   0   2.0000     -20.598310      -560.5085
   1   2.0000     -20.528497      -558.6088
   2   2.0000     -15.571582      -423.7243
   3   2.0000     -11.376891      -309.5809
   4   2.0000     -11.302903      -307.5676
   5   2.0000     -11.284487      -307.0665
   6   2.0000     -11.274542      -306.7959
   7   2.0000     -11.241520      -305.8973
   8   2.0000     -11.240488      -305.8692
   9   2.0000      -1.451663       -39.5018
  10   2.0000      -1.355403       -36.8824
  11   2.0000      -1.250381       -34.0246
  12   2.0000      -1.134439       -30.8697
  13   2.0000      -1.018282       -27.7089
  14   2.0000      -0.898082       -24.4381
  15   2.0000      -0.878128       -23.8951
  16   2.0000      -0.837847       -22.7990
  17   2.0000      -0.752362       -20.4728
  18   2.0000      -0.721748       -19.6398
  19   2.0000      -0.692331       -18.8393
  20   2.0000      -0.671341       -18.2681
  21   2.0000      -0.651822       -17.7370
  22   2.0000      -0.625321       -17.0158
  23   2.0000      -0.618087       -16.8190
  24   2.0000      -0.592731       -16.1290
  25   2.0000      -0.565833       -15.3971
  26   2.0000      -0.548075       -14.9139
  27   2.0000      -0.527901       -14.3649
  28   2.0000      -0.516763       -14.0618
  29   2.0000      -0.469657       -12.7800
  30   2.0000      -0.458931       -12.4881
  31   2.0000      -0.453899       -12.3512
  32   2.0000      -0.423599       -11.5267
  33   2.0000      -0.377773       -10.2797
  34   0.0000       0.123242         3.3536
  35   0.0000       0.147967         4.0264
  36   0.0000       0.163297         4.4435
  37   0.0000       0.166477         4.5301
  38   0.0000       0.182651         4.9702

MULLIKEN ATOMIC CHARGES
-----------------------
   0 O :   -0.314959
   1 C :    0.277977
   2 O :   -0.208721
   3 C :   -0.067529
   4 C :   -0.172718
   5 N :   -0.316270
   6 C :    0.021318
   7 C :   -0.246876
   8 C :   -0.284944
   9 H :    0.110754
  10 H :    0.127918
  11 H :    0.142426
  12 H :    0.127637
  13 H :    0.211881
  14 H :    0.136265
  15 H :    0.154017
  16 H :    0.160026
  17 H :    0.141797
Sum of atomic charges:   -0.0000000

LOEWDIN ATOMIC CHARGES
----------------------
   0 O :    0.131087
   1 C :   -0.448383
   2 O :    0.259303
   3 C :   -0.290498
   4 C :   -0.308573
   5 N :    0.032921
   6 C :   -0.287605
   7 C :   -0.182609
   8 C :   -0.189289
   9 H :    0.126204
  10 H :    0.133190
  11 H :    0.139710
  12 H :    0.141318
  13 H :    0.177352
  14 H :    0.138706
  15 H :    0.142046
  16 H :    0.145813
  17 H :    0.139306

  Mayer bond orders larger than 0.1
B(  0-O ,  1-C ) :   1.9643 B(  1-C ,  2-O ) :   1.1463 B(  1-C ,  6-C ) :   0.9359
B(  2-O ,  3-C ) :   0.8579 B(  3-C ,  4-C ) :   0.9477 B(  3-C ,  9-H ) :   0.9240
B(  3-C , 10-H ) :   0.9260 B(  4-C ,  5-N ) :   0.9385 B(  4-C , 11-H ) :   0.9254
B(  4-C , 12-H ) :   0.9271 B(  5-N ,  6-C ) :   0.9788 B(  5-N , 13-H ) :   0.8755
B(  6-C ,  7-C ) :   0.8132 B(  6-C ,  8-C ) :   0.8575 B(  7-C ,  8-C ) :   0.9734
B(  7-C , 14-H ) :   0.9243 B(  7-C , 15-H ) :   0.9178 B(  8-C , 16-H ) :   0.9145
B(  8-C , 17-H ) :   0.9230

MP2 TOTAL ENERGY:     -438.381348571 Eh
FINAL SINGLE POINT ENERGY      -438.381348571079

DIPOLE MOMENT
-------------
                                X             Y             Z
Electronic contribution:     -3.04054      -4.41340       0.49425
Nuclear contribution   :      3.28945       5.79316      -1.24410
                        -----------------------------------------
Total Dipole Moment    :      0.24891       1.37976      -0.74985
                        -----------------------------------------
Magnitude (a.u.)       :      1.58996
Magnitude (Debye)      :      4.04136

                             ****ORCA TERMINATED NORMALLY****
TOTAL RUN TIME: 0 days 0 hours 16 minutes 27 seconds 783 msec
