                         Program Version 3.0.3 - RELEASE   -
|  1> ! RI-MP2 RIJK def2-TZVP def2-TZVP/C def2-TZVP/JK TIGHTSCF
|  2> % maxcore 2000
|  3> % mp2 density relaxed end
|  4> *xyz 0 1
|  5>  O        0.0788597821    -0.0303898357     0.0179633039
|  6>  C       -0.0118655081     1.1739435153     0.0225522564
|  7>  C       -1.3344673482     1.9414947672     0.0401909015
|  8>  N       -1.4014209271     3.0449871139    -0.9438307571
|  9>  C       -0.1499446535     3.6896331677    -1.2701113869
| 10>  C        0.8900015015     4.1158818270    -0.2807730221
| 11>  O        0.9564473329     3.2512250662     0.8551141980
| 12>  C        1.1917545656     2.1029177985    -0.0074819741
| 13>  C        1.2026003164     2.9973186952    -1.2665781297
| 14>  H       -2.1506554382     1.2415544876    -0.1472287945
| 15>  H       -1.4624351456     2.3511475256     1.0492215176
| 16>  H       -1.7818826582     2.6714309646    -1.8072319421
| 17>  H       -0.2653669785     4.4030189101    -2.0825059617
| 18>  H        1.2685006519     5.1247582987    -0.1585459029
| 19>  H        2.1230067701     1.5894976902     0.2395719818
| 20>  H        1.8914537568     2.9210981779    -2.0972734182
| 21> *
| 22>
| 23>                          ****END OF INPUT****

CARTESIAN COORDINATES (ANGSTROEM)
---------------------------------
  O      0.078860   -0.030390    0.017963
  C     -0.011866    1.173944    0.022552
  C     -1.334467    1.941495    0.040191
  N     -1.401421    3.044987   -0.943831
  C     -0.149945    3.689633   -1.270111
  C      0.890002    4.115882   -0.280773
  O      0.956447    3.251225    0.855114
  C      1.191755    2.102918   -0.007482
  C      1.202600    2.997319   -1.266578
  H     -2.150655    1.241554   -0.147229
  H     -1.462435    2.351148    1.049222
  H     -1.781883    2.671431   -1.807232
  H     -0.265367    4.403019   -2.082506
  H      1.268501    5.124758   -0.158546
  H      2.123007    1.589498    0.239572
  H      1.891454    2.921098   -2.097273

 Total Charge           Charge          ....    0
 Multiplicity           Mult            ....    1
 Number of Electrons    NEL             ....   66
 Basis Dimension        Dim             ....  321

ORBITAL ENERGIES
----------------

  NO   OCC          E(Eh)            E(eV)
   0   2.0000     -20.576755      -559.9220
   1   2.0000     -20.558126      -559.4150
   2   2.0000     -15.570699      -423.7003
   3   2.0000     -11.333744      -308.4069
   4   2.0000     -11.308583      -307.7222
   5   2.0000     -11.308354      -307.7160
   6   2.0000     -11.287093      -307.1374
   7   2.0000     -11.269054      -306.6466
   8   2.0000     -11.256211      -306.2971
   9   2.0000      -1.421235       -38.6738
  10   2.0000      -1.395339       -37.9691
  11   2.0000      -1.233391       -33.5623
  12   2.0000      -1.116827       -30.3904
  13   2.0000      -1.021245       -27.7895
  14   2.0000      -0.942127       -25.6366
  15   2.0000      -0.844222       -22.9724
  16   2.0000      -0.791054       -21.5257
  17   2.0000      -0.744577       -20.2610
  18   2.0000      -0.733554       -19.9610
  19   2.0000      -0.688662       -18.7395
  20   2.0000      -0.667427       -18.1616
  21   2.0000      -0.646234       -17.5849
  22   2.0000      -0.619306       -16.8522
  23   2.0000      -0.609780       -16.5930
  24   2.0000      -0.568449       -15.4683
  25   2.0000      -0.558002       -15.1840
  26   2.0000      -0.539511       -14.6808
  27   2.0000      -0.526228       -14.3194
  28   2.0000      -0.493374       -13.4254
  29   2.0000      -0.480977       -13.0880
  30   2.0000      -0.439849       -11.9689
  31   2.0000      -0.401135       -10.9154
  32   2.0000      -0.353736        -9.6256
  33   0.0000       0.123646         3.3646
  34   0.0000       0.134514         3.6603
  35   0.0000       0.154888         4.2147
  36   0.0000       0.167141         4.5481
  37   0.0000       0.176875         4.8130

MULLIKEN ATOMIC CHARGES
-----------------------
   0 O :   -0.263692
   1 C :    0.091030
   2 C :   -0.146752
   3 N :   -0.317302
   4 C :   -0.073664
   5 C :    0.064926
   6 O :   -0.333056
   7 C :    0.160917
   8 C :   -0.235888
   9 H :    0.148355
  10 H :    0.131997
  11 H :    0.216788
  12 H :    0.129368
  13 H :    0.139423
  14 H :    0.136025
  15 H :    0.151524
Sum of atomic charges:   -0.0000000

LOEWDIN ATOMIC CHARGES
----------------------
   0 O :    0.160781
   1 C :   -0.307338
   2 C :   -0.255282
   3 N :    0.009336
   4 C :   -0.256431
   5 C :   -0.219240
   6 O :    0.178213
   7 C :   -0.205363
   8 C :   -0.151745
   9 H :    0.140645
  10 H :    0.150334
  11 H :    0.178953
  12 H :    0.158730
  13 H :    0.132747
  14 H :    0.148499
  15 H :    0.137159

  Mayer bond orders larger than 0.1
B(  0-O ,  1-C ) :   2.0153 B(  1-C ,  2-C ) :   0.9163 B(  1-C ,  7-C ) :   0.8851
B(  2-C ,  3-N ) :   0.9550 B(  2-C ,  9-H ) :   0.9270 B(  2-C , 10-H ) :   0.8947
B(  3-N ,  4-C ) :   1.0040 B(  3-N , 11-H ) :   0.8773 B(  4-C ,  5-C ) :   0.8694
B(  4-C ,  8-C ) :   0.8796 B(  4-C , 12-H ) :   0.9300 B(  5-C ,  6-O ) :   0.9221
B(  5-C ,  8-C ) :   0.8739 B(  5-C , 13-H ) :   0.9197 B(  6-O ,  7-C ) :   0.9173
B(  7-C ,  8-C ) :   0.8998 B(  7-C , 14-H ) :   0.9151 B(  8-C , 15-H ) :   0.9071

MP2 TOTAL ENERGY:     -437.115230677 Eh
FINAL SINGLE POINT ENERGY      -437.115230676629

DIPOLE MOMENT
-------------
                                X             Y             Z
Electronic contribution:      1.45578      -2.15455       1.78633
Nuclear contribution   :     -1.29783       2.90885      -2.70967
                        -----------------------------------------
Total Dipole Moment    :      0.15795       0.75429      -0.92334
                        -----------------------------------------
Magnitude (a.u.)       :      1.20269
Magnitude (Debye)      :      3.05699

                             ****ORCA TERMINATED NORMALLY****
TOTAL RUN TIME: 0 days 0 hours 18 minutes 3 seconds 547 msec
