                         Program Version 3.0.3 - RELEASE   -
|  1> ! RI-MP2 RIJK def2-TZVP def2-TZVP/C def2-TZVP/JK TIGHTSCF
|  2> % maxcore 2000
|  3> % mp2 density relaxed end
|  4> *xyz 0 1
|  5>  C        0.0977980749     1.4345622685    -0.0339438744
|  6>  C       -0.0267794861    -0.0575783313     0.0957048435
|  7>  C       -1.3655918098    -0.8204450227     0.0696246729
|  8>  C       -0.8187478034    -1.7906657966     1.1637460711
|  9>  C        0.5046564054    -1.0156829979     1.1551494212
| 10>  C        1.1431110142    -0.9737571653    -0.2253976367
| 11>  C        1.1353521548    -2.0995874442    -1.2153983476
| 12>  N        2.3126324931    -2.2406854433    -1.9066386278
| 13>  O        0.1840626953    -2.8304066960    -1.4349747322
| 14>  H        1.1030064693     1.7798664206     0.2305539079
| 15>  H       -0.1065086603     1.7621948241    -1.0605056503
| 16>  H       -0.6153849064     1.9452201260     0.6233987204
| 17>  H       -2.1809056660    -0.1942267575     0.4422390891
| 18>  H       -1.6524486924    -1.2708082594    -0.8799620266
| 19>  H       -1.3433524413    -1.6800897542     2.1158020621
| 20>  H       -0.7685745572    -2.8455486096     0.8944086966
| 21>  H        1.1212101081    -0.8052838209     2.0229682577
| 22>  H        2.0810693796    -0.4220388583    -0.2067225310
| 23>  H        3.1543032722    -1.7691030029    -1.6258465907
| 24>  H        2.3979922758    -3.0466295289    -2.5050091454
| 25> *
| 26>
| 27>                          ****END OF INPUT****

CARTESIAN COORDINATES (ANGSTROEM)
---------------------------------
  C      0.097798    1.434562   -0.033944
  C     -0.026779   -0.057578    0.095705
  C     -1.365592   -0.820445    0.069625
  C     -0.818748   -1.790666    1.163746
  C      0.504656   -1.015683    1.155149
  C      1.143111   -0.973757   -0.225398
  C      1.135352   -2.099587   -1.215398
  N      2.312632   -2.240685   -1.906639
  O      0.184063   -2.830407   -1.434975
  H      1.103006    1.779866    0.230554
  H     -0.106509    1.762195   -1.060506
  H     -0.615385    1.945220    0.623399
  H     -2.180906   -0.194227    0.442239
  H     -1.652449   -1.270808   -0.879962
  H     -1.343352   -1.680090    2.115802
  H     -0.768575   -2.845549    0.894409
  H      1.121210   -0.805284    2.022968
  H      2.081069   -0.422039   -0.206723
  H      3.154303   -1.769103   -1.625847
  H      2.397992   -3.046630   -2.505009

 Total Charge           Charge          ....    0
 Multiplicity           Mult            ....    1
 Number of Electrons    NEL             ....   68
 Basis Dimension        Dim             ....  345

ORBITAL ENERGIES
----------------

  NO   OCC          E(Eh)            E(eV)
   0   2.0000     -20.508093      -558.0536
   1   2.0000     -15.577470      -423.8845
   2   2.0000     -11.347070      -308.7695
   3   2.0000     -11.246554      -306.0343
   4   2.0000     -11.242457      -305.9228
   5   2.0000     -11.238290      -305.8094
   6   2.0000     -11.222983      -305.3929
   7   2.0000     -11.215062      -305.1774
   8   2.0000     -11.213486      -305.1345
   9   2.0000      -1.374204       -37.3940
  10   2.0000      -1.205130       -32.7933
  11   2.0000      -1.191367       -32.4187
  12   2.0000      -0.998778       -27.1781
  13   2.0000      -0.980452       -26.6795
  14   2.0000      -0.880671       -23.9643
  15   2.0000      -0.853606       -23.2278
  16   2.0000      -0.765550       -20.8317
  17   2.0000      -0.719556       -19.5801
  18   2.0000      -0.700189       -19.0531
  19   2.0000      -0.681137       -18.5347
  20   2.0000      -0.635091       -17.2817
  21   2.0000      -0.606085       -16.4924
  22   2.0000      -0.601603       -16.3705
  23   2.0000      -0.579460       -15.7679
  24   2.0000      -0.565949       -15.4003
  25   2.0000      -0.552380       -15.0310
  26   2.0000      -0.538445       -14.6518
  27   2.0000      -0.501124       -13.6363
  28   2.0000      -0.473497       -12.8845
  29   2.0000      -0.451229       -12.2786
  30   2.0000      -0.426240       -11.5986
  31   2.0000      -0.410457       -11.1691
  32   2.0000      -0.402272       -10.9464
  33   2.0000      -0.369023       -10.0416
  34   0.0000       0.126134         3.4323
  35   0.0000       0.145561         3.9609
  36   0.0000       0.165622         4.5068
  37   0.0000       0.173303         4.7158
  38   0.0000       0.180506         4.9118

MULLIKEN ATOMIC CHARGES
-----------------------
   0 C :   -0.400057
   1 C :    0.070225
   2 C :   -0.213947
   3 C :   -0.218411
   4 C :   -0.131731
   5 C :   -0.187494
   6 C :    0.305986
   7 N :   -0.475890
   8 O :   -0.375052
   9 H :    0.124085
  10 H :    0.139816
  11 H :    0.130831
  12 H :    0.110577
  13 H :    0.134497
  14 H :    0.115150
  15 H :    0.129994
  16 H :    0.128105
  17 H :    0.103458
  18 H :    0.253679
  19 H :    0.256180
Sum of atomic charges:   -0.0000000

LOEWDIN ATOMIC CHARGES
----------------------
   0 C :   -0.273538
   1 C :   -0.199636
   2 C :   -0.185003
   3 C :   -0.209926
   4 C :   -0.138553
   5 C :   -0.148432
   6 C :   -0.452979
   7 N :   -0.025941
   8 O :    0.082879
   9 H :    0.127391
  10 H :    0.130768
  11 H :    0.128167
  12 H :    0.133329
  13 H :    0.134719
  14 H :    0.132369
  15 H :    0.132835
  16 H :    0.135201
  17 H :    0.158410
  18 H :    0.166628
  19 H :    0.171312

  Mayer bond orders larger than 0.1
B(  0-C ,  1-C ) :   0.8787 B(  0-C ,  9-H ) :   0.9352 B(  0-C , 10-H ) :   0.9400
B(  0-C , 11-H ) :   0.9369 B(  1-C ,  2-C ) :   0.9671 B(  1-C ,  4-C ) :   0.8086
B(  1-C ,  5-C ) :   0.8820 B(  2-C ,  3-C ) :   1.0033 B(  2-C , 12-H ) :   0.9215
B(  2-C , 13-H ) :   0.9010 B(  3-C ,  4-C ) :   0.9860 B(  3-C , 14-H ) :   0.9247
B(  3-C , 15-H ) :   0.9043 B(  4-C ,  5-C ) :   0.8569 B(  4-C , 16-H ) :   0.9142
B(  5-C ,  6-C ) :   0.9076 B(  5-C , 17-H ) :   0.9094 B(  6-C ,  7-N ) :   1.1448
B(  6-C ,  8-O ) :   1.9348 B(  7-N , 18-H ) :   0.8735 B(  7-N , 19-H ) :   0.8577

MP2 TOTAL ENERGY:     -402.467752625 Eh
FINAL SINGLE POINT ENERGY      -402.467752624764

DIPOLE MOMENT
-------------
                                X             Y             Z
Electronic contribution:      1.93728      -5.28650      -2.86789
Nuclear contribution   :     -0.84085       5.96445       3.11325
                        -----------------------------------------
Total Dipole Moment    :      1.09643       0.67796       0.24537
                        -----------------------------------------
Magnitude (a.u.)       :      1.31224
Magnitude (Debye)      :      3.33546

                             ****ORCA TERMINATED NORMALLY****
TOTAL RUN TIME: 0 days 0 hours 20 minutes 41 seconds 206 msec
