                         Program Version 3.0.3 - RELEASE   -
|  1> ! RI-MP2 RIJK def2-TZVP def2-TZVP/C def2-TZVP/JK TIGHTSCF
|  2> % maxcore 2000
|  3> % mp2 density relaxed end
|  4> *xyz 0 1
|  5>  C       -0.3072325991     1.4498427200    -0.0071945679
|  6>  N        0.0066720102     0.0297271466     0.0207947118
|  7>  C        0.2232388673    -0.6530339670    -1.1525661627
|  8>  N        0.5058418206    -1.8956907330    -1.2776136402
|  9>  C        0.6174009099    -2.6903818606    -0.1121239019
| 10>  N        0.8969046243    -3.9415372130    -0.1487644753
| 11>  C        0.3952370715    -2.0060332355     1.1545450599
| 12>  C        0.1003968208    -0.6924154895     1.2169573685
| 13>  C       -0.1342764711     0.0437831074     2.5027743239
| 14>  H        0.4434561263     2.0396465922     0.5283019299
| 15>  H       -0.3223688445     1.7816521371    -1.0466035530
| 16>  H       -1.2892950578     1.6547752346     0.4306988731
| 17>  H        0.1357591589    -0.0350204076    -2.0460386289
| 18>  H        1.0122995962    -4.2170230882    -1.1265887567
| 19>  H        0.4739325997    -2.5884527013     2.0638191875
| 20>  H       -0.0279960688    -0.6461472311     3.3407311772
| 21>  H        0.5818067758     0.8615208046     2.6433118351
| 22>  H       -1.1386001601     0.4802903042     2.5476136297
| 23> *
| 24>
| 25>                          ****END OF INPUT****

CARTESIAN COORDINATES (ANGSTROEM)
---------------------------------
  C     -0.307233    1.449843   -0.007195
  N      0.006672    0.029727    0.020795
  C      0.223239   -0.653034   -1.152566
  N      0.505842   -1.895691   -1.277614
  C      0.617401   -2.690382   -0.112124
  N      0.896905   -3.941537   -0.148764
  C      0.395237   -2.006033    1.154545
  C      0.100397   -0.692415    1.216957
  C     -0.134276    0.043783    2.502774
  H      0.443456    2.039647    0.528302
  H     -0.322369    1.781652   -1.046604
  H     -1.289295    1.654775    0.430699
  H      0.135759   -0.035020   -2.046039
  H      1.012300   -4.217023   -1.126589
  H      0.473933   -2.588453    2.063819
  H     -0.027996   -0.646147    3.340731
  H      0.581807    0.861521    2.643312
  H     -1.138600    0.480290    2.547614

 Total Charge           Charge          ....    0
 Multiplicity           Mult            ....    1
 Number of Electrons    NEL             ....   66
 Basis Dimension        Dim             ....  333

ORBITAL ENERGIES
----------------

  NO   OCC          E(Eh)            E(eV)
   0   2.0000     -15.626462      -425.2176
   1   2.0000     -15.550337      -423.1462
   2   2.0000     -15.501185      -421.8087
   3   2.0000     -11.334722      -308.4335
   4   2.0000     -11.303755      -307.5908
   5   2.0000     -11.296182      -307.3847
   6   2.0000     -11.292685      -307.2896
   7   2.0000     -11.253177      -306.2145
   8   2.0000     -11.223940      -305.4189
   9   2.0000      -1.334546       -36.3148
  10   2.0000      -1.233785       -33.5730
  11   2.0000      -1.149141       -31.2697
  12   2.0000      -1.086767       -29.5724
  13   2.0000      -0.992416       -27.0050
  14   2.0000      -0.962191       -26.1826
  15   2.0000      -0.885479       -24.0951
  16   2.0000      -0.818761       -22.2796
  17   2.0000      -0.727766       -19.8035
  18   2.0000      -0.706272       -19.2186
  19   2.0000      -0.669222       -18.2105
  20   2.0000      -0.665512       -18.1095
  21   2.0000      -0.615471       -16.7478
  22   2.0000      -0.596727       -16.2378
  23   2.0000      -0.592097       -16.1118
  24   2.0000      -0.579385       -15.7659
  25   2.0000      -0.567271       -15.4362
  26   2.0000      -0.559516       -15.2252
  27   2.0000      -0.550544       -14.9811
  28   2.0000      -0.462039       -12.5727
  29   2.0000      -0.428669       -11.6647
  30   2.0000      -0.406942       -11.0735
  31   2.0000      -0.404502       -11.0071
  32   2.0000      -0.299992        -8.1632
  33   0.0000       0.112823         3.0701
  34   0.0000       0.124708         3.3935
  35   0.0000       0.134263         3.6535
  36   0.0000       0.149202         4.0600
  37   0.0000       0.166710         4.5364

MULLIKEN ATOMIC CHARGES
-----------------------
   0 C :   -0.319769
   1 N :   -0.042201
   2 C :    0.021567
   3 N :   -0.268410
   4 C :    0.081914
   5 N :   -0.366565
   6 C :   -0.212147
   7 C :    0.144900
   8 C :   -0.424585
   9 H :    0.151842
  10 H :    0.150340
  11 H :    0.151878
  12 H :    0.132030
  13 H :    0.210753
  14 H :    0.132445
  15 H :    0.160353
  16 H :    0.147851
  17 H :    0.147804
Sum of atomic charges:    0.0000000

LOEWDIN ATOMIC CHARGES
----------------------
   0 C :   -0.270411
   1 N :    0.212367
   2 C :   -0.270252
   3 N :    0.117881
   4 C :   -0.378361
   5 N :   -0.078102
   6 C :   -0.107874
   7 C :   -0.206504
   8 C :   -0.259520
   9 H :    0.123107
  10 H :    0.129912
  11 H :    0.123097
  12 H :    0.139271
  13 H :    0.158324
  14 H :    0.159032
  15 H :    0.141032
  16 H :    0.133502
  17 H :    0.133501

  Mayer bond orders larger than 0.1
B(  0-C ,  1-N ) :   0.8832 B(  0-C ,  9-H ) :   0.9298 B(  0-C , 10-H ) :   0.9269
B(  0-C , 11-H ) :   0.9298 B(  1-N ,  2-C ) :   1.1085 B(  1-N ,  7-C ) :   1.0357
B(  2-C ,  3-N ) :   1.7586 B(  2-C , 12-H ) :   0.9206 B(  3-N ,  4-C ) :   1.0423
B(  4-C ,  5-N ) :   2.0197 B(  4-C ,  6-C ) :   1.0509 B(  5-N , 13-H ) :   0.8667
B(  6-C ,  7-C ) :   1.5683 B(  6-C , 14-H ) :   0.9308 B(  7-C ,  8-C ) :   0.8931
B(  8-C , 15-H ) :   0.9416 B(  8-C , 16-H ) :   0.9307 B(  8-C , 17-H ) :   0.9307

MP2 TOTAL ENERGY:     -397.465745389 Eh
FINAL SINGLE POINT ENERGY      -397.465745388594

DIPOLE MOMENT
-------------
                                X             Y             Z
Electronic contribution:      1.60225      -6.14967      -4.27330
Nuclear contribution   :     -2.20042       8.72735       4.74631
                        -----------------------------------------
Total Dipole Moment    :     -0.59817       2.57768       0.47301
                        -----------------------------------------
Magnitude (a.u.)       :      2.68812
Magnitude (Debye)      :      6.83266

                             ****ORCA TERMINATED NORMALLY****
TOTAL RUN TIME: 0 days 0 hours 17 minutes 26 seconds 622 msec
