                         Program Version 3.0.3 - RELEASE   -
|  1> ! RI-MP2 RIJK def2-TZVP def2-TZVP/C def2-TZVP/JK TIGHTSCF
|  2> % maxcore 2000
|  3> % mp2 density relaxed end
|  4> *xyz 0 1
|  5>  C       -0.0106205976     1.3889813124     0.1066601739
|  6>  O       -0.0106653423    -0.0188848237     0.0292964575
|  7>  C       -1.3057932680    -0.5821716995    -0.0498064120
|  8>  C       -1.1355889446    -2.1080911772     0.0005271788
|  9>  C       -0.3866982649    -2.6105205926    -1.2444040198
| 10>  O       -0.4112432510    -2.4379580259     1.1844709179
| 11>  C       -2.5143651833    -2.7769375120     0.1399679398
| 12>  C       -2.4331308200    -4.2851143689     0.2639204874
| 13>  O       -3.0980931919    -5.0538653656    -0.3838926974
| 14>  H        1.0305101578     1.7120709225     0.1774343270
| 15>  H       -0.4647900075     1.8422711488    -0.7871382590
| 16>  H       -0.5581580642     1.7461573343     0.9919859056
| 17>  H       -1.9162022166    -0.2501575489     0.8050405852
| 18>  H       -1.8124378368    -0.2700658667    -0.9769771700
| 19>  H        0.5639081401    -2.0818532722    -1.3483648271
| 20>  H       -0.1821995544    -3.6809125565    -1.1578259793
| 21>  H       -0.9733343052    -2.4442719686    -2.1539614892
| 22>  H        0.3323560478    -1.8229164281     1.2177130523
| 23>  H       -2.9784161022    -2.4034693366     1.0631605991
| 24>  H       -3.1648538683    -2.5308890677    -0.7039081806
| 25>  H       -1.7103644969    -4.6444683673     1.0255971300
| 26> *
| 27>
| 28>                          ****END OF INPUT****

CARTESIAN COORDINATES (ANGSTROEM)
---------------------------------
  C     -0.010621    1.388981    0.106660
  O     -0.010665   -0.018885    0.029296
  C     -1.305793   -0.582172   -0.049806
  C     -1.135589   -2.108091    0.000527
  C     -0.386698   -2.610521   -1.244404
  O     -0.411243   -2.437958    1.184471
  C     -2.514365   -2.776938    0.139968
  C     -2.433131   -4.285114    0.263920
  O     -3.098093   -5.053865   -0.383893
  H      1.030510    1.712071    0.177434
  H     -0.464790    1.842271   -0.787138
  H     -0.558158    1.746157    0.991986
  H     -1.916202   -0.250158    0.805041
  H     -1.812438   -0.270066   -0.976977
  H      0.563908   -2.081853   -1.348365
  H     -0.182200   -3.680913   -1.157826
  H     -0.973334   -2.444272   -2.153961
  H      0.332356   -1.822916    1.217713
  H     -2.978416   -2.403469    1.063161
  H     -3.164854   -2.530889   -0.703908
  H     -1.710364   -4.644468    1.025597

 Total Charge           Charge          ....    0
 Multiplicity           Mult            ....    1
 Number of Electrons    NEL             ....   72
 Basis Dimension        Dim             ....  351

ORBITAL ENERGIES
----------------

  NO   OCC          E(Eh)            E(eV)
   0   2.0000     -20.577754      -559.9491
   1   2.0000     -20.558946      -559.4374
   2   2.0000     -20.550222      -559.2000
   3   2.0000     -11.324655      -308.1595
   4   2.0000     -11.303558      -307.5855
   5   2.0000     -11.291287      -307.2515
   6   2.0000     -11.288048      -307.1634
   7   2.0000     -11.239806      -305.8507
   8   2.0000     -11.220825      -305.3342
   9   2.0000      -1.404239       -38.2113
  10   2.0000      -1.388749       -37.7898
  11   2.0000      -1.365099       -37.1462
  12   2.0000      -1.085546       -29.5392
  13   2.0000      -0.996130       -27.1061
  14   2.0000      -0.962625       -26.1944
  15   2.0000      -0.904268       -24.6064
  16   2.0000      -0.811506       -22.0822
  17   2.0000      -0.779131       -21.2012
  18   2.0000      -0.710591       -19.3362
  19   2.0000      -0.689614       -18.7654
  20   2.0000      -0.678357       -18.4590
  21   2.0000      -0.657475       -17.8908
  22   2.0000      -0.639096       -17.3907
  23   2.0000      -0.618869       -16.8403
  24   2.0000      -0.605012       -16.4632
  25   2.0000      -0.586932       -15.9712
  26   2.0000      -0.581081       -15.8120
  27   2.0000      -0.546908       -14.8821
  28   2.0000      -0.534204       -14.5364
  29   2.0000      -0.531357       -14.4590
  30   2.0000      -0.509501       -13.8642
  31   2.0000      -0.504792       -13.7361
  32   2.0000      -0.480769       -13.0824
  33   2.0000      -0.449696       -12.2368
  34   2.0000      -0.444257       -12.0888
  35   2.0000      -0.409971       -11.1559
  36   0.0000       0.123905         3.3716
  37   0.0000       0.142796         3.8857
  38   0.0000       0.154491         4.2039
  39   0.0000       0.163746         4.4558
  40   0.0000       0.175402         4.7729

MULLIKEN ATOMIC CHARGES
-----------------------
   0 C :   -0.223683
   1 O :   -0.333224
   2 C :   -0.073445
   3 C :    0.194331
   4 C :   -0.431550
   5 O :   -0.487326
   6 C :   -0.143536
   7 C :    0.064591
   8 O :   -0.268788
   9 H :    0.143403
  10 H :    0.118614
  11 H :    0.119656
  12 H :    0.108869
  13 H :    0.104752
  14 H :    0.147288
  15 H :    0.148783
  16 H :    0.125868
  17 H :    0.327846
  18 H :    0.128212
  19 H :    0.120174
  20 H :    0.109165
Sum of atomic charges:    0.0000000

LOEWDIN ATOMIC CHARGES
----------------------
   0 C :   -0.354445
   1 O :    0.127728
   2 C :   -0.293416
   3 C :   -0.409997
   4 C :   -0.270175
   5 O :    0.007841
   6 C :   -0.221579
   7 C :   -0.289011
   8 O :    0.126795
   9 H :    0.115121
  10 H :    0.104773
  11 H :    0.104429
  12 H :    0.127061
  13 H :    0.127429
  14 H :    0.129332
  15 H :    0.130593
  16 H :    0.129584
  17 H :    0.179544
  18 H :    0.158883
  19 H :    0.150785
  20 H :    0.118726

  Mayer bond orders larger than 0.1
B(  0-C ,  1-O ) :   0.9093 B(  0-C ,  9-H ) :   0.9385 B(  0-C , 10-H ) :   0.9374
B(  0-C , 11-H ) :   0.9373 B(  1-O ,  2-C ) :   0.9179 B(  2-C ,  3-C ) :   0.9191
B(  2-C , 12-H ) :   0.9288 B(  2-C , 13-H ) :   0.9201 B(  3-C ,  4-C ) :   0.9422
B(  3-C ,  5-O ) :   0.9241 B(  3-C ,  6-C ) :   0.8846 B(  4-C , 14-H ) :   0.9257
B(  4-C , 15-H ) :   0.9322 B(  4-C , 16-H ) :   0.9270 B(  5-O , 17-H ) :   0.8214
B(  6-C ,  7-C ) :   0.8781 B(  6-C , 18-H ) :   0.9073 B(  6-C , 19-H ) :   0.9033
B(  7-C ,  8-O ) :   1.9937 B(  7-C , 20-H ) :   0.9397

MP2 TOTAL ENERGY:     -460.631111653 Eh
FINAL SINGLE POINT ENERGY      -460.631111652622

DIPOLE MOMENT
-------------
                                X             Y             Z
Electronic contribution:     -2.28439      -7.10722       1.93491
Nuclear contribution   :      2.68004       8.80449      -1.89257
                        -----------------------------------------
Total Dipole Moment    :      0.39565       1.69727       0.04233
                        -----------------------------------------
Magnitude (a.u.)       :      1.74329
Magnitude (Debye)      :      4.43108

                             ****ORCA TERMINATED NORMALLY****
TOTAL RUN TIME: 0 days 0 hours 17 minutes 38 seconds 440 msec
