                         Program Version 3.0.3 - RELEASE   -
|  1> ! RI-MP2 RIJK def2-TZVP def2-TZVP/C def2-TZVP/JK TIGHTSCF
|  2> % maxcore 2000
|  3> % mp2 density relaxed end
|  4> *xyz 0 1
|  5>  C        0.0217495978     1.5492234445     0.0105841727
|  6>  C       -0.0190493315     0.0486612487     0.0594736341
|  7>  C        1.1499731399    -0.8204443076    -0.3307270401
|  8>  C        0.5904658493    -0.9468380159     1.0640172789
|  9>  C        1.4116668744    -0.7207529471     2.3010493981
| 10>  C       -0.6817163996    -1.8047673209     1.0033178103
| 11>  C       -1.3001506164    -0.7945549451    -0.0167379778
| 12>  H        1.0065760579     1.9325192756     0.2985905572
| 13>  H       -0.1897791411     1.9207617974    -1.0001009259
| 14>  H       -0.7196618610     1.9931259803     0.6856337631
| 15>  H        1.0305831464    -1.6248623135    -1.0554383533
| 16>  H        2.1042301036    -0.3051321500    -0.3992768461
| 17>  H        2.1353790458     0.0890068054     2.1586518993
| 18>  H        0.7811916665    -0.4579075251     3.1588620427
| 19>  H        1.9783756394    -1.6203033442     2.5729355163
| 20>  H       -0.5503263015    -2.8377904787     0.6620601089
| 21>  H       -1.2285044709    -1.8215022217     1.9502122057
| 22>  H       -2.1733341617    -0.2784118761     0.3919111260
| 23>  H       -1.5617626574    -1.1852041659    -1.0066059800
| 24> *
| 25>
| 26>                          ****END OF INPUT****

CARTESIAN COORDINATES (ANGSTROEM)
---------------------------------
  C      0.021750    1.549223    0.010584
  C     -0.019049    0.048661    0.059474
  C      1.149973   -0.820444   -0.330727
  C      0.590466   -0.946838    1.064017
  C      1.411667   -0.720753    2.301049
  C     -0.681716   -1.804767    1.003318
  C     -1.300151   -0.794555   -0.016738
  H      1.006576    1.932519    0.298591
  H     -0.189779    1.920762   -1.000101
  H     -0.719662    1.993126    0.685634
  H      1.030583   -1.624862   -1.055438
  H      2.104230   -0.305132   -0.399277
  H      2.135379    0.089007    2.158652
  H      0.781192   -0.457908    3.158862
  H      1.978376   -1.620303    2.572936
  H     -0.550326   -2.837790    0.662060
  H     -1.228504   -1.821502    1.950212
  H     -2.173334   -0.278412    0.391911
  H     -1.561763   -1.185204   -1.006606

 Total Charge           Charge          ....    0
 Multiplicity           Mult            ....    1
 Number of Electrons    NEL             ....   54
 Basis Dimension        Dim             ....  289

ORBITAL ENERGIES
----------------

  NO   OCC          E(Eh)            E(eV)
   0   2.0000     -11.228349      -305.5389
   1   2.0000     -11.227747      -305.5225
   2   2.0000     -11.217198      -305.2355
   3   2.0000     -11.216676      -305.2213
   4   2.0000     -11.214469      -305.1612
   5   2.0000     -11.214461      -305.1610
   6   2.0000     -11.214415      -305.1597
   7   2.0000      -1.186692       -32.2915
   8   2.0000      -0.988754       -26.9054
   9   2.0000      -0.986013       -26.8308
  10   2.0000      -0.941106       -25.6088
  11   2.0000      -0.847758       -23.0687
  12   2.0000      -0.777378       -21.1535
  13   2.0000      -0.674807       -18.3624
  14   2.0000      -0.648222       -17.6390
  15   2.0000      -0.617531       -16.8039
  16   2.0000      -0.595350       -16.2003
  17   2.0000      -0.567444       -15.4409
  18   2.0000      -0.557580       -15.1725
  19   2.0000      -0.544988       -14.8299
  20   2.0000      -0.529502       -14.4085
  21   2.0000      -0.522015       -14.2048
  22   2.0000      -0.502682       -13.6787
  23   2.0000      -0.451904       -12.2969
  24   2.0000      -0.442765       -12.0482
  25   2.0000      -0.386947       -10.5294
  26   2.0000      -0.351874        -9.5750
  27   0.0000       0.134633         3.6636
  28   0.0000       0.162780         4.4295
  29   0.0000       0.169042         4.5999
  30   0.0000       0.186381         5.0717
  31   0.0000       0.190714         5.1896

MULLIKEN ATOMIC CHARGES
-----------------------
   0 C :   -0.410113
   1 C :    0.047860
   2 C :   -0.285138
   3 C :    0.047927
   4 C :   -0.410105
   5 C :   -0.218157
   6 C :   -0.218123
   7 H :    0.125118
   8 H :    0.134773
   9 H :    0.126220
  10 H :    0.119551
  11 H :    0.123009
  12 H :    0.125112
  13 H :    0.126216
  14 H :    0.134774
  15 H :    0.108452
  16 H :    0.107077
  17 H :    0.107040
  18 H :    0.108507
Sum of atomic charges:   -0.0000000

LOEWDIN ATOMIC CHARGES
----------------------
   0 C :   -0.277992
   1 C :   -0.218146
   2 C :   -0.174620
   3 C :   -0.218107
   4 C :   -0.278000
   5 C :   -0.193136
   6 C :   -0.193145
   7 H :    0.128258
   8 H :    0.128578
   9 H :    0.126057
  10 H :    0.130847
  11 H :    0.139816
  12 H :    0.128257
  13 H :    0.126055
  14 H :    0.128578
  15 H :    0.125326
  16 H :    0.133022
  17 H :    0.133013
  18 H :    0.125341

  Mayer bond orders larger than 0.1
B(  0-C ,  1-C ) :   0.8908 B(  0-C ,  7-H ) :   0.9362 B(  0-C ,  8-H ) :   0.9399
B(  0-C ,  9-H ) :   0.9404 B(  1-C ,  2-C ) :   0.8780 B(  1-C ,  3-C ) :   0.8112
B(  1-C ,  6-C ) :   0.9425 B(  2-C ,  3-C ) :   0.8780 B(  2-C , 10-H ) :   0.9124
B(  2-C , 11-H ) :   0.9339 B(  3-C ,  4-C ) :   0.8908 B(  3-C ,  5-C ) :   0.9426
B(  4-C , 12-H ) :   0.9362 B(  4-C , 13-H ) :   0.9404 B(  4-C , 14-H ) :   0.9399
B(  5-C ,  6-C ) :   0.9927 B(  5-C , 15-H ) :   0.9148 B(  5-C , 16-H ) :   0.9167
B(  6-C , 17-H ) :   0.9167 B(  6-C , 18-H ) :   0.9148

MP2 TOTAL ENERGY:     -273.258231648 Eh
FINAL SINGLE POINT ENERGY      -273.258231648485

DIPOLE MOMENT
-------------
                                X             Y             Z
Electronic contribution:     -0.48102      -1.36307      -1.05877
Nuclear contribution   :      0.49392       1.46505       1.15180
                        -----------------------------------------
Total Dipole Moment    :      0.01290       0.10197       0.09304
                        -----------------------------------------
Magnitude (a.u.)       :      0.13864
Magnitude (Debye)      :      0.35239

                             ****ORCA TERMINATED NORMALLY****
TOTAL RUN TIME: 0 days 0 hours 9 minutes 39 seconds 392 msec
