                         Program Version 3.0.3 - RELEASE   -
|  1> ! RI-MP2 RIJK def2-TZVP def2-TZVP/C def2-TZVP/JK TIGHTSCF
|  2> % maxcore 2000
|  3> % mp2 density relaxed end
|  4> *xyz 0 1
|  5>  C        0.0514766847    -6.3425380600    -0.0323648284
|  6>  C        0.0492354661    -5.1332275122    -0.0259049566
|  7>  C        0.0461317926    -3.7804690305    -0.0186467806
|  8>  C        0.0446771302    -2.5627165285    -0.0120845595
|  9>  C        0.0400551292    -1.2111180422    -0.0047831274
| 10>  C        0.0371487729    -0.0004698924     0.0017466562
| 11>  C        0.0111447087     1.4564392422     0.0098287562
| 12>  C        1.3514511050     2.0589250644     0.0002217055
| 13>  N        2.3976928886     2.5463793112    -0.0071822407
| 14>  H        0.0553146143    -7.4046700688    -0.0380670975
| 15>  H       -0.5425545207     1.8321437215    -0.8610994192
| 16>  H       -0.5257237516     1.8227019153     0.8951969620
| 17> *
| 18>
| 19>                          ****END OF INPUT****

CARTESIAN COORDINATES (ANGSTROEM)
---------------------------------
  C      0.051477   -6.342538   -0.032365
  C      0.049235   -5.133228   -0.025905
  C      0.046132   -3.780469   -0.018647
  C      0.044677   -2.562717   -0.012085
  C      0.040055   -1.211118   -0.004783
  C      0.037149   -0.000470    0.001747
  C      0.011145    1.456439    0.009829
  C      1.351451    2.058925    0.000222
  N      2.397693    2.546379   -0.007182
  H      0.055315   -7.404670   -0.038067
  H     -0.542555    1.832144   -0.861099
  H     -0.525724    1.822702    0.895197

 Total Charge           Charge          ....    0
 Multiplicity           Mult            ....    1
 Number of Electrons    NEL             ....   58
 Basis Dimension        Dim             ....  297

ORBITAL ENERGIES
----------------

  NO   OCC          E(Eh)            E(eV)
   0   2.0000     -15.587375      -424.1540
   1   2.0000     -11.333504      -308.4003
   2   2.0000     -11.292733      -307.2909
   3   2.0000     -11.288422      -307.1736
   4   2.0000     -11.287490      -307.1482
   5   2.0000     -11.284821      -307.0756
   6   2.0000     -11.280752      -306.9649
   7   2.0000     -11.275645      -306.8259
   8   2.0000     -11.270621      -306.6892
   9   2.0000      -1.236693       -33.6521
  10   2.0000      -1.135867       -30.9085
  11   2.0000      -1.109927       -30.2026
  12   2.0000      -1.063352       -28.9353
  13   2.0000      -1.011687       -27.5294
  14   2.0000      -0.892173       -24.2773
  15   2.0000      -0.811986       -22.0953
  16   2.0000      -0.744606       -20.2618
  17   2.0000      -0.727014       -19.7830
  18   2.0000      -0.696357       -18.9488
  19   2.0000      -0.669705       -18.2236
  20   2.0000      -0.573132       -15.5957
  21   2.0000      -0.530832       -14.4447
  22   2.0000      -0.530498       -14.4356
  23   2.0000      -0.484080       -13.1725
  24   2.0000      -0.481455       -13.1011
  25   2.0000      -0.455772       -12.4022
  26   2.0000      -0.452210       -12.3052
  27   2.0000      -0.353696        -9.6246
  28   2.0000      -0.351637        -9.5685
  29   0.0000       0.057972         1.5775
  30   0.0000       0.059957         1.6315
  31   0.0000       0.107521         2.9258
  32   0.0000       0.141260         3.8439
  33   0.0000       0.154191         4.1957

MULLIKEN ATOMIC CHARGES
-----------------------
   0 C :   -0.133857
   1 C :    0.027384
   2 C :   -0.027400
   3 C :   -0.079388
   4 C :    0.038082
   5 C :   -0.026290
   6 C :   -0.210872
   7 C :   -0.125442
   8 N :   -0.055186
   9 H :    0.202576
  10 H :    0.195196
  11 H :    0.195196
Sum of atomic charges:   -0.0000000

LOEWDIN ATOMIC CHARGES
----------------------
   0 C :   -0.022916
   1 C :   -0.092411
   2 C :   -0.008689
   3 C :   -0.011474
   4 C :   -0.045528
   5 C :   -0.003387
   6 C :   -0.223447
   7 C :   -0.170976
   8 N :    0.074288
   9 H :    0.133347
  10 H :    0.185597
  11 H :    0.185597

  Mayer bond orders larger than 0.1
B(  0-C ,  1-C ) :   2.5385 B(  0-C ,  3-C ) :   0.1020 B(  0-C ,  9-H ) :   0.8710
B(  1-C ,  2-C ) :   1.3180 B(  1-C ,  4-C ) :   0.1073 B(  2-C ,  3-C ) :   2.5018
B(  3-C ,  4-C ) :   1.3050 B(  4-C ,  5-C ) :   2.4877 B(  5-C ,  6-C ) :   0.9309
B(  6-C ,  7-C ) :   0.9353 B(  6-C , 10-H ) :   0.9147 B(  6-C , 11-H ) :   0.9147
B(  7-C ,  8-N ) :   2.8369

MP2 TOTAL ENERGY:     -360.449128945 Eh
FINAL SINGLE POINT ENERGY      -360.449128944912

DIPOLE MOMENT
-------------
                                X             Y             Z
Electronic contribution:      0.93492      -0.90807      -0.01391
Nuclear contribution   :     -2.23741       0.34682       0.02339
                        -----------------------------------------
Total Dipole Moment    :     -1.30249      -0.56125       0.00949
                        -----------------------------------------
Magnitude (a.u.)       :      1.41830
Magnitude (Debye)      :      3.60502

                             ****ORCA TERMINATED NORMALLY****
TOTAL RUN TIME: 0 days 0 hours 9 minutes 42 seconds 14 msec
