                         Program Version 3.0.3 - RELEASE   -
|  1> ! RI-MP2 RIJK def2-TZVP def2-TZVP/C def2-TZVP/JK TIGHTSCF
|  2> % maxcore 2000
|  3> % mp2 density relaxed end
|  4> *xyz 0 1
|  5>  C        0.0628242617     1.5001536161    -0.3767302534
|  6>  C       -0.0868482352     0.0662387711     0.0618616861
|  7>  O        1.0574696616    -0.7922669469    -0.0412434743
|  8>  C        0.5422112808    -0.5095951493     1.2639665309
|  9>  C        1.4223705784     0.2591017295     2.2106852086
| 10>  C        0.8417636529     0.8571273506     3.4309352328
| 11>  O        1.5706273271    -0.3559896434     3.5075999568
| 12>  C        2.7257947902     0.8426195907     1.7004919217
| 13>  O        3.4141715533     1.5692330758     2.3701080557
| 14>  H        0.9621928197     1.9695726804     0.0289609506
| 15>  H        0.1139952231     1.5587458224    -1.4685703161
| 16>  H       -0.8042666876     2.0841306852    -0.0504337598
| 17>  H       -1.0089233419    -0.4136674419    -0.2716513865
| 18>  H        0.0501253612    -1.3514858373     1.7527442172
| 19>  H        1.3356763657     1.7256663100     3.8606936229
| 20>  H       -0.2329050349     0.7732660613     3.5900588093
| 21>  H        3.0075131540     0.5400170956     0.6756773073
| 22> *
| 23>
| 24>                          ****END OF INPUT****

CARTESIAN COORDINATES (ANGSTROEM)
---------------------------------
  C      0.062824    1.500154   -0.376730
  C     -0.086848    0.066239    0.061862
  O      1.057470   -0.792267   -0.041243
  C      0.542211   -0.509595    1.263967
  C      1.422371    0.259102    2.210685
  C      0.841764    0.857127    3.430935
  O      1.570627   -0.355990    3.507600
  C      2.725795    0.842620    1.700492
  O      3.414172    1.569233    2.370108
  H      0.962193    1.969573    0.028961
  H      0.113995    1.558746   -1.468570
  H     -0.804267    2.084131   -0.050434
  H     -1.008923   -0.413667   -0.271651
  H      0.050125   -1.351486    1.752744
  H      1.335676    1.725666    3.860694
  H     -0.232905    0.773266    3.590059
  H      3.007513    0.540017    0.675677

 Total Charge           Charge          ....    0
 Multiplicity           Mult            ....    1
 Number of Electrons    NEL             ....   68
 Basis Dimension        Dim             ....  327

ORBITAL ENERGIES
----------------

  NO   OCC          E(Eh)            E(eV)
   0   2.0000     -20.594734      -560.4112
   1   2.0000     -20.587442      -560.2128
   2   2.0000     -20.569648      -559.7286
   3   2.0000     -11.342937      -308.6570
   4   2.0000     -11.318036      -307.9794
   5   2.0000     -11.311130      -307.7915
   6   2.0000     -11.309909      -307.7583
   7   2.0000     -11.305692      -307.6435
   8   2.0000     -11.246451      -306.0315
   9   2.0000      -1.445964       -39.3467
  10   2.0000      -1.429405       -38.8961
  11   2.0000      -1.401912       -38.1480
  12   2.0000      -1.037784       -28.2395
  13   2.0000      -1.017878       -27.6979
  14   2.0000      -0.924064       -25.1451
  15   2.0000      -0.914273       -24.8786
  16   2.0000      -0.838888       -22.8273
  17   2.0000      -0.777141       -21.1471
  18   2.0000      -0.726897       -19.7799
  19   2.0000      -0.721417       -19.6307
  20   2.0000      -0.678145       -18.4533
  21   2.0000      -0.652271       -17.7492
  22   2.0000      -0.618731       -16.8365
  23   2.0000      -0.608665       -16.5626
  24   2.0000      -0.591203       -16.0875
  25   2.0000      -0.584403       -15.9024
  26   2.0000      -0.561473       -15.2784
  27   2.0000      -0.538244       -14.6464
  28   2.0000      -0.531759       -14.4699
  29   2.0000      -0.501282       -13.6406
  30   2.0000      -0.480292       -13.0694
  31   2.0000      -0.472846       -12.8668
  32   2.0000      -0.433039       -11.7836
  33   2.0000      -0.418846       -11.3974
  34   0.0000       0.099631         2.7111
  35   0.0000       0.134251         3.6532
  36   0.0000       0.155152         4.2219
  37   0.0000       0.165898         4.5143
  38   0.0000       0.181972         4.9517

MULLIKEN ATOMIC CHARGES
-----------------------
   0 C :   -0.385071
   1 C :    0.053016
   2 O :   -0.333948
   3 C :   -0.028057
   4 C :    0.196268
   5 C :   -0.082101
   6 O :   -0.314899
   7 C :    0.052068
   8 O :   -0.258531
   9 H :    0.139021
  10 H :    0.147969
  11 H :    0.136997
  12 H :    0.117808
  13 H :    0.151615
  14 H :    0.145689
  15 H :    0.125086
  16 H :    0.137069
Sum of atomic charges:   -0.0000000

LOEWDIN ATOMIC CHARGES
----------------------
   0 C :   -0.288051
   1 C :   -0.282531
   2 O :    0.167265
   3 C :   -0.233360
   4 C :   -0.303879
   5 C :   -0.229647
   6 O :    0.192484
   7 C :   -0.251514
   8 O :    0.156255
   9 H :    0.130838
  10 H :    0.133703
  11 H :    0.134111
  12 H :    0.139882
  13 H :    0.151937
  14 H :    0.131274
  15 H :    0.125164
  16 H :    0.126069

  Mayer bond orders larger than 0.1
B(  0-C ,  1-C ) :   0.8966 B(  0-C ,  9-H ) :   0.9362 B(  0-C , 10-H ) :   0.9320
B(  0-C , 11-H ) :   0.9247 B(  1-C ,  2-O ) :   0.8705 B(  1-C ,  3-C ) :   0.9615
B(  1-C , 12-H ) :   0.9223 B(  2-O ,  3-C ) :   0.9140 B(  3-C ,  4-C ) :   0.8657
B(  3-C , 13-H ) :   0.9186 B(  4-C ,  5-C ) :   0.9451 B(  4-C ,  6-O ) :   0.8295
B(  4-C ,  7-C ) :   0.8538 B(  5-C ,  6-O ) :   0.9018 B(  5-C , 14-H ) :   0.9039
B(  5-C , 15-H ) :   0.9080 B(  7-C ,  8-O ) :   1.9807 B(  7-C , 16-H ) :   0.9504

MP2 TOTAL ENERGY:     -458.177103562 Eh
FINAL SINGLE POINT ENERGY      -458.177103562124

DIPOLE MOMENT
-------------
                                X             Y             Z
Electronic contribution:      5.06225      -3.11262       3.66846
Nuclear contribution   :     -6.49674       3.52657      -4.15040
                        -----------------------------------------
Total Dipole Moment    :     -1.43448       0.41395      -0.48195
                        -----------------------------------------
Magnitude (a.u.)       :      1.56887
Magnitude (Debye)      :      3.98776

                             ****ORCA TERMINATED NORMALLY****
TOTAL RUN TIME: 0 days 0 hours 16 minutes 15 seconds 652 msec
