                         Program Version 3.0.3 - RELEASE   -
|  1> ! RI-MP2 RIJK def2-TZVP def2-TZVP/C def2-TZVP/JK TIGHTSCF
|  2> % maxcore 2000
|  3> % mp2 density relaxed end
|  4> *xyz 0 1
|  5>  C       -0.5048705330     1.3392856520     0.0591200363
|  6>  C        0.1077950337    -0.0520425962    -0.0558759491
|  7>  C        1.2075168852    -0.2081107951    -1.1142000137
|  8>  O        1.9559453373    -1.3676634501    -0.7488305334
|  9>  C        1.6906464761    -1.7145591015     0.5985806268
| 10>  C        0.8695599938    -0.5494127517     1.1973470605
| 11>  O        1.6967224122     0.5149020136     1.6385580137
| 12>  C       -0.0214622835    -0.9928972834     2.2834117083
| 13>  N       -0.6999565519    -1.3380790888     3.1531021725
| 14>  H        0.2570705886     2.0826733327     0.3019608234
| 15>  H       -0.9796004335     1.6232400830    -0.8850672071
| 16>  H       -1.2711327250     1.3664551005     0.8393307756
| 17>  H       -0.6773292096    -0.7893534764    -0.2588982637
| 18>  H        0.8020976529    -0.3566872515    -2.1198502517
| 19>  H        1.8615404881     0.6744234886    -1.1259417000
| 20>  H        1.1270600979    -2.6564186972     0.6512849213
| 21>  H        2.6327377234    -1.8465945388     1.1452868380
| 22>  H        2.2475154974     0.1987179103     2.3632012022
| 23> *
| 24>
| 25>                          ****END OF INPUT****

CARTESIAN COORDINATES (ANGSTROEM)
---------------------------------
  C     -0.504871    1.339286    0.059120
  C      0.107795   -0.052043   -0.055876
  C      1.207517   -0.208111   -1.114200
  O      1.955945   -1.367663   -0.748831
  C      1.690646   -1.714559    0.598581
  C      0.869560   -0.549413    1.197347
  O      1.696722    0.514902    1.638558
  C     -0.021462   -0.992897    2.283412
  N     -0.699957   -1.338079    3.153102
  H      0.257071    2.082673    0.301961
  H     -0.979600    1.623240   -0.885067
  H     -1.271133    1.366455    0.839331
  H     -0.677329   -0.789353   -0.258898
  H      0.802098   -0.356687   -2.119850
  H      1.861540    0.674423   -1.125942
  H      1.127060   -2.656419    0.651285
  H      2.632738   -1.846595    1.145287
  H      2.247515    0.198718    2.363201

 Total Charge           Charge          ....    0
 Multiplicity           Mult            ....    1
 Number of Electrons    NEL             ....   68
 Basis Dimension        Dim             ....  333

ORBITAL ENERGIES
----------------

  NO   OCC          E(Eh)            E(eV)
   0   2.0000     -20.596497      -560.4592
   1   2.0000     -20.571021      -559.7659
   2   2.0000     -15.586234      -424.1230
   3   2.0000     -11.350038      -308.8502
   4   2.0000     -11.304848      -307.6206
   5   2.0000     -11.289170      -307.1939
   6   2.0000     -11.282975      -307.0254
   7   2.0000     -11.261485      -306.4406
   8   2.0000     -11.231283      -305.6188
   9   2.0000      -1.418361       -38.5956
  10   2.0000      -1.387069       -37.7441
  11   2.0000      -1.230756       -33.4906
  12   2.0000      -1.106519       -30.1099
  13   2.0000      -1.036106       -28.1939
  14   2.0000      -0.948284       -25.8041
  15   2.0000      -0.876071       -23.8391
  16   2.0000      -0.821503       -22.3542
  17   2.0000      -0.780787       -21.2463
  18   2.0000      -0.704390       -19.1674
  19   2.0000      -0.676025       -18.3956
  20   2.0000      -0.658186       -17.9102
  21   2.0000      -0.635331       -17.2882
  22   2.0000      -0.590764       -16.0755
  23   2.0000      -0.583668       -15.8824
  24   2.0000      -0.578791       -15.7497
  25   2.0000      -0.571788       -15.5591
  26   2.0000      -0.565413       -15.3857
  27   2.0000      -0.522858       -14.2277
  28   2.0000      -0.513158       -13.9637
  29   2.0000      -0.500563       -13.6210
  30   2.0000      -0.494007       -13.4426
  31   2.0000      -0.478741       -13.0272
  32   2.0000      -0.447003       -12.1636
  33   2.0000      -0.433731       -11.8024
  34   0.0000       0.110892         3.0175
  35   0.0000       0.143288         3.8991
  36   0.0000       0.151280         4.1165
  37   0.0000       0.168828         4.5940
  38   0.0000       0.176254         4.7961

MULLIKEN ATOMIC CHARGES
-----------------------
   0 C :   -0.433734
   1 C :   -0.102909
   2 C :   -0.017472
   3 O :   -0.310162
   4 C :   -0.029785
   5 C :    0.352527
   6 O :   -0.463787
   7 C :   -0.288526
   8 N :   -0.038750
   9 H :    0.154272
  10 H :    0.142004
  11 H :    0.149693
  12 H :    0.120644
  13 H :    0.116245
  14 H :    0.098761
  15 H :    0.113994
  16 H :    0.105652
  17 H :    0.331333
Sum of atomic charges:   -0.0000000

LOEWDIN ATOMIC CHARGES
----------------------
   0 C :   -0.280633
   1 C :   -0.228470
   2 C :   -0.268119
   3 O :    0.152740
   4 C :   -0.255938
   5 C :   -0.359538
   6 O :    0.048464
   7 C :   -0.152147
   8 N :    0.076212
   9 H :    0.132292
  10 H :    0.129349
  11 H :    0.132576
  12 H :    0.166780
  13 H :    0.128781
  14 H :    0.128309
  15 H :    0.133724
  16 H :    0.129763
  17 H :    0.185858

  Mayer bond orders larger than 0.1
B(  0-C ,  1-C ) :   0.9261 B(  0-C ,  9-H ) :   0.9284 B(  0-C , 10-H ) :   0.9370
B(  0-C , 11-H ) :   0.9303 B(  1-C ,  2-C ) :   0.9589 B(  1-C ,  5-C ) :   0.8397
B(  1-C , 12-H ) :   0.9190 B(  2-C ,  3-O ) :   0.9420 B(  2-C , 13-H ) :   0.9152
B(  2-C , 14-H ) :   0.9119 B(  3-O ,  4-C ) :   0.9817 B(  4-C ,  5-C ) :   0.9440
B(  4-C , 15-H ) :   0.9171 B(  4-C , 16-H ) :   0.8943 B(  5-C ,  6-O ) :   0.8780
B(  5-C ,  7-C ) :   0.9020 B(  6-O , 17-H ) :   0.8318 B(  7-C ,  8-N ) :   2.8723

MP2 TOTAL ENERGY:     -438.385424237 Eh
FINAL SINGLE POINT ENERGY      -438.385424237158

DIPOLE MOMENT
-------------
                                X             Y             Z
Electronic contribution:      1.07416      -3.83336       4.87878
Nuclear contribution   :     -0.64998       4.14220      -5.44783
                        -----------------------------------------
Total Dipole Moment    :      0.42419       0.30884      -0.56905
                        -----------------------------------------
Magnitude (a.u.)       :      0.77404
Magnitude (Debye)      :      1.96746

                             ****ORCA TERMINATED NORMALLY****
TOTAL RUN TIME: 0 days 0 hours 18 minutes 27 seconds 64 msec
