                         Program Version 3.0.3 - RELEASE   -
|  1> ! RI-MP2 RIJK def2-TZVP def2-TZVP/C def2-TZVP/JK TIGHTSCF
|  2> % maxcore 2000
|  3> % mp2 density relaxed end
|  4> *xyz 0 1
|  5>  C       -0.0827841438     1.5541068633    -0.0000393296
|  6>  C        0.0155110782     0.0316713897     0.0196192702
|  7>  C        0.9336680669    -0.5507654027    -1.0670015365
|  8>  C        2.2780853052    -0.6448867344    -0.4243053752
|  9>  O        2.1838076380    -0.1692671874     0.9104108946
| 10>  C        0.8313853852    -0.5615873219     1.2013435510
| 11>  C        0.8410796417    -2.0589394667     0.7959543141
| 12>  O        0.4380681819    -3.0205877017     1.3893278403
| 13>  C        1.4582917502    -1.9184418958    -0.5616737298
| 14>  H        0.9048496062     2.0047766134     0.1280543592
| 15>  H       -0.4997465129     1.9050576757    -0.9499769408
| 16>  H       -0.7323536759     1.9160804655     0.8032260212
| 17>  H       -0.9804178319    -0.4245212329    -0.0099311004
| 18>  H        0.7966409020    -0.3607282736    -2.1230684420
| 19>  H        3.2335126239    -0.4800405446    -0.9003292211
| 20>  H        0.5606451302    -0.3128458185     2.2229220551
| 21>  H        1.7110510948    -2.7461987272    -1.2066962002
| 22> *
| 23>
| 24>                          ****END OF INPUT****

CARTESIAN COORDINATES (ANGSTROEM)
---------------------------------
  C     -0.082784    1.554107   -0.000039
  C      0.015511    0.031671    0.019619
  C      0.933668   -0.550765   -1.067002
  C      2.278085   -0.644887   -0.424305
  O      2.183808   -0.169267    0.910411
  C      0.831385   -0.561587    1.201344
  C      0.841080   -2.058939    0.795954
  O      0.438068   -3.020588    1.389328
  C      1.458292   -1.918442   -0.561674
  H      0.904850    2.004777    0.128054
  H     -0.499747    1.905058   -0.949977
  H     -0.732354    1.916080    0.803226
  H     -0.980418   -0.424521   -0.009931
  H      0.796641   -0.360728   -2.123068
  H      3.233513   -0.480041   -0.900329
  H      0.560645   -0.312846    2.222922
  H      1.711051   -2.746199   -1.206696

 Total Charge           Charge          ....    0
 Multiplicity           Mult            ....    1
 Number of Electrons    NEL             ....   66
 Basis Dimension        Dim             ....  327

ORBITAL ENERGIES
----------------

  NO   OCC          E(Eh)            E(eV)
   0   2.0000     -20.580935      -560.0357
   1   2.0000     -20.554423      -559.3143
   2   2.0000     -11.337202      -308.5010
   3   2.0000     -11.308669      -307.7245
   4   2.0000     -11.299487      -307.4747
   5   2.0000     -11.261964      -306.4536
   6   2.0000     -11.257338      -306.3277
   7   2.0000     -11.253351      -306.2192
   8   2.0000     -11.227855      -305.5255
   9   2.0000      -1.425455       -38.7886
  10   2.0000      -1.391907       -37.8757
  11   2.0000      -1.174276       -31.9537
  12   2.0000      -1.064602       -28.9693
  13   2.0000      -0.989793       -26.9336
  14   2.0000      -0.902732       -24.5646
  15   2.0000      -0.813282       -22.1305
  16   2.0000      -0.802708       -21.8428
  17   2.0000      -0.756433       -20.5836
  18   2.0000      -0.729749       -19.8575
  19   2.0000      -0.674937       -18.3660
  20   2.0000      -0.632654       -17.2154
  21   2.0000      -0.622455       -16.9379
  22   2.0000      -0.607976       -16.5439
  23   2.0000      -0.583874       -15.8880
  24   2.0000      -0.574049       -15.6207
  25   2.0000      -0.565094       -15.3770
  26   2.0000      -0.531418       -14.4606
  27   2.0000      -0.520625       -14.1669
  28   2.0000      -0.508732       -13.8433
  29   2.0000      -0.480581       -13.0773
  30   2.0000      -0.446670       -12.1545
  31   2.0000      -0.422091       -11.4857
  32   2.0000      -0.376482       -10.2446
  33   0.0000       0.132383         3.6023
  34   0.0000       0.140554         3.8247
  35   0.0000       0.156781         4.2662
  36   0.0000       0.169411         4.6099
  37   0.0000       0.175559         4.7772

MULLIKEN ATOMIC CHARGES
-----------------------
   0 C :   -0.445159
   1 C :   -0.057714
   2 C :   -0.164973
   3 C :   -0.014261
   4 O :   -0.307729
   5 C :    0.119418
   6 C :    0.110899
   7 O :   -0.254785
   8 C :   -0.140310
   9 H :    0.154909
  10 H :    0.133487
  11 H :    0.137000
  12 H :    0.122206
  13 H :    0.148584
  14 H :    0.149241
  15 H :    0.152373
  16 H :    0.156815
Sum of atomic charges:   -0.0000000

LOEWDIN ATOMIC CHARGES
----------------------
   0 C :   -0.284636
   1 C :   -0.222809
   2 C :   -0.141669
   3 C :   -0.227832
   4 O :    0.206138
   5 C :   -0.216084
   6 C :   -0.280619
   7 O :    0.165911
   8 C :   -0.134617
   9 H :    0.132467
  10 H :    0.126563
  11 H :    0.126625
  12 H :    0.160310
  13 H :    0.149414
  14 H :    0.143415
  15 H :    0.146858
  16 H :    0.150566

  Mayer bond orders larger than 0.1
B(  0-C ,  1-C ) :   0.8747 B(  0-C ,  9-H ) :   0.9399 B(  0-C , 10-H ) :   0.9358
B(  0-C , 11-H ) :   0.9375 B(  1-C ,  2-C ) :   0.9300 B(  1-C ,  5-C ) :   0.8952
B(  1-C , 12-H ) :   0.9214 B(  2-C ,  3-C ) :   0.9026 B(  2-C ,  8-C ) :   0.7765
B(  2-C , 13-H ) :   0.9186 B(  3-C ,  4-O ) :   0.9582 B(  3-C ,  8-C ) :   0.8369
B(  3-C , 14-H ) :   0.9307 B(  4-O ,  5-C ) :   0.8915 B(  5-C ,  6-C ) :   0.8669
B(  5-C ,  8-C ) :  -0.1205 B(  5-C , 15-H ) :   0.8925 B(  6-C ,  7-O ) :   2.0474
B(  6-C ,  8-C ) :   0.9507 B(  8-C , 16-H ) :   0.9121

MP2 TOTAL ENERGY:     -421.129474225 Eh
FINAL SINGLE POINT ENERGY      -421.129474225294

DIPOLE MOMENT
-------------
                                X             Y             Z
Electronic contribution:      2.62048      -6.61786       2.94495
Nuclear contribution   :     -2.70241       7.39208      -3.95834
                        -----------------------------------------
Total Dipole Moment    :     -0.08192       0.77422      -1.01339
                        -----------------------------------------
Magnitude (a.u.)       :      1.27793
Magnitude (Debye)      :      3.24823

                             ****ORCA TERMINATED NORMALLY****
TOTAL RUN TIME: 0 days 0 hours 18 minutes 11 seconds 977 msec
