                         Program Version 3.0.3 - RELEASE   -
|  1> ! RI-MP2 RIJK def2-TZVP def2-TZVP/C def2-TZVP/JK TIGHTSCF
|  2> % maxcore 2000
|  3> % mp2 density relaxed end
|  4> *xyz 0 1
|  5>  C        0.0818968609     1.5302692997    -0.0189696172
|  6>  C       -0.0465487322    -0.0067768275     0.0225848876
|  7>  C       -1.5148236173    -0.4370715898     0.0443520854
|  8>  C        0.7634051484    -0.6383267261    -1.1346787225
|  9>  O        2.1169875597    -0.6578669644    -0.6949554075
| 10>  C        2.1040685749    -1.0079505034     0.6814346998
| 11>  C        0.7587817699    -0.5479949145     1.1939368290
| 12>  N        0.3097784120    -0.5981370543     2.3798571739
| 13>  O        1.2730100767    -1.1386805639     3.2559507081
| 14>  H        1.1303409287     1.8320559465    -0.0975705117
| 15>  H       -0.4556779228     1.9332614789    -0.8843383147
| 16>  H       -0.3379493517     1.9752598438     0.8874282580
| 17>  H       -2.0384847344    -0.0682200403    -0.8443521369
| 18>  H       -1.6090196292    -1.5269348438     0.0706180266
| 19>  H       -2.0186722523    -0.0373273492     0.9281513823
| 20>  H        0.4052219536    -1.6608390110    -1.3400127703
| 21>  H        0.7211075797    -0.0599049254    -2.0611938969
| 22>  H        2.2109879629    -2.0950759506     0.8296347230
| 23>  H        2.9428157615    -0.5208290607     1.1876655035
| 24>  H        0.8099734208    -1.1315272539     4.1003063306
| 25> *
| 26>
| 27>                          ****END OF INPUT****

CARTESIAN COORDINATES (ANGSTROEM)
---------------------------------
  C      0.081897    1.530269   -0.018970
  C     -0.046549   -0.006777    0.022585
  C     -1.514824   -0.437072    0.044352
  C      0.763405   -0.638327   -1.134679
  O      2.116988   -0.657867   -0.694955
  C      2.104069   -1.007951    0.681435
  C      0.758782   -0.547995    1.193937
  N      0.309778   -0.598137    2.379857
  O      1.273010   -1.138681    3.255951
  H      1.130341    1.832056   -0.097571
  H     -0.455678    1.933261   -0.884338
  H     -0.337949    1.975260    0.887428
  H     -2.038485   -0.068220   -0.844352
  H     -1.609020   -1.526935    0.070618
  H     -2.018672   -0.037327    0.928151
  H      0.405222   -1.660839   -1.340013
  H      0.721108   -0.059905   -2.061194
  H      2.210988   -2.095076    0.829635
  H      2.942816   -0.520829    1.187666
  H      0.809973   -1.131527    4.100306

 Total Charge           Charge          ....    0
 Multiplicity           Mult            ....    1
 Number of Electrons    NEL             ....   70
 Basis Dimension        Dim             ....  345

ORBITAL ENERGIES
----------------

  NO   OCC          E(Eh)            E(eV)
   0   2.0000     -20.593245      -560.3707
   1   2.0000     -20.562963      -559.5467
   2   2.0000     -15.615735      -424.9258
   3   2.0000     -11.286806      -307.1296
   4   2.0000     -11.281134      -306.9753
   5   2.0000     -11.277412      -306.8740
   6   2.0000     -11.252755      -306.2030
   7   2.0000     -11.222739      -305.3862
   8   2.0000     -11.222417      -305.3775
   9   2.0000      -1.419547       -38.6278
  10   2.0000      -1.389605       -37.8131
  11   2.0000      -1.173192       -31.9242
  12   2.0000      -1.082498       -29.4563
  13   2.0000      -0.974793       -26.5255
  14   2.0000      -0.941359       -25.6157
  15   2.0000      -0.921611       -25.0783
  16   2.0000      -0.814819       -22.1723
  17   2.0000      -0.722251       -19.6535
  18   2.0000      -0.701390       -19.0858
  19   2.0000      -0.683896       -18.6098
  20   2.0000      -0.669122       -18.2077
  21   2.0000      -0.627106       -17.0644
  22   2.0000      -0.614418       -16.7192
  23   2.0000      -0.598284       -16.2801
  24   2.0000      -0.578518       -15.7423
  25   2.0000      -0.567786       -15.4502
  26   2.0000      -0.553041       -15.0490
  27   2.0000      -0.547953       -14.9106
  28   2.0000      -0.531154       -14.4534
  29   2.0000      -0.498423       -13.5628
  30   2.0000      -0.496130       -13.5004
  31   2.0000      -0.471053       -12.8180
  32   2.0000      -0.437234       -11.8978
  33   2.0000      -0.416471       -11.3328
  34   2.0000      -0.384967       -10.4755
  35   0.0000       0.130968         3.5638
  36   0.0000       0.148829         4.0498
  37   0.0000       0.151962         4.1351
  38   0.0000       0.167533         4.5588
  39   0.0000       0.178221         4.8497

MULLIKEN ATOMIC CHARGES
-----------------------
   0 C :   -0.447168
   1 C :    0.156227
   2 C :   -0.416435
   3 C :   -0.054709
   4 O :   -0.323253
   5 C :   -0.022739
   6 C :   -0.070792
   7 N :   -0.095383
   8 O :   -0.371491
   9 H :    0.151086
  10 H :    0.131807
  11 H :    0.142503
  12 H :    0.134031
  13 H :    0.130915
  14 H :    0.147525
  15 H :    0.098610
  16 H :    0.120217
  17 H :    0.113361
  18 H :    0.139196
  19 H :    0.336493
Sum of atomic charges:   -0.0000000

LOEWDIN ATOMIC CHARGES
----------------------
   0 C :   -0.256667
   1 C :   -0.293976
   2 C :   -0.263359
   3 C :   -0.256444
   4 O :    0.152964
   5 C :   -0.273387
   6 C :   -0.249058
   7 N :    0.034315
   8 O :   -0.072898
   9 H :    0.132540
  10 H :    0.125976
  11 H :    0.129646
  12 H :    0.126896
  13 H :    0.127731
  14 H :    0.132343
  15 H :    0.124832
  16 H :    0.132093
  17 H :    0.136639
  18 H :    0.140322
  19 H :    0.169492

  Mayer bond orders larger than 0.1
B(  0-C ,  1-C ) :   0.8756 B(  0-C ,  9-H ) :   0.9284 B(  0-C , 10-H ) :   0.9339
B(  0-C , 11-H ) :   0.9352 B(  1-C ,  2-C ) :   0.9063 B(  1-C ,  3-C ) :   0.9171
B(  1-C ,  6-C ) :   0.8983 B(  2-C , 12-H ) :   0.9370 B(  2-C , 13-H ) :   0.9296
B(  2-C , 14-H ) :   0.9312 B(  3-C ,  4-O ) :   0.9120 B(  3-C , 15-H ) :   0.9262
B(  3-C , 16-H ) :   0.9212 B(  4-O ,  5-C ) :   0.9472 B(  5-C ,  6-C ) :   0.9842
B(  5-C , 17-H ) :   0.9080 B(  5-C , 18-H ) :   0.9051 B(  6-C ,  7-N ) :   1.8667
B(  7-N ,  8-O ) :   0.8002 B(  8-O , 19-H ) :   0.8441

MP2 TOTAL ENERGY:     -439.533537285 Eh
FINAL SINGLE POINT ENERGY      -439.533537284920

DIPOLE MOMENT
-------------
                                X             Y             Z
Electronic contribution:      4.72751      -2.85507       4.40864
Nuclear contribution   :     -5.20207       2.84696      -4.28561
                        -----------------------------------------
Total Dipole Moment    :     -0.47456      -0.00811       0.12303
                        -----------------------------------------
Magnitude (a.u.)       :      0.49032
Magnitude (Debye)      :      1.24628

                             ****ORCA TERMINATED NORMALLY****
TOTAL RUN TIME: 0 days 0 hours 19 minutes 16 seconds 544 msec
