                         Program Version 3.0.3 - RELEASE   -
|  1> ! RI-MP2 RIJK def2-TZVP def2-TZVP/C def2-TZVP/JK TIGHTSCF
|  2> % maxcore 2000
|  3> % mp2 density relaxed end
|  4> *xyz 0 1
|  5>  C       -0.0454883943     1.5711363553     0.0545030218
|  6>  C        1.4846690379     1.3662983396     0.0002230128
|  7>  O        1.7604259486     0.7452395429     1.2675218579
|  8>  C        0.8575915840    -0.3940706341     1.2005934069
|  9>  C        1.6965166150    -1.5726102191     0.7028305651
| 10>  C        2.1520013378    -1.0693610512    -0.7005491156
| 11>  C        1.2407064308     0.1408338966    -0.9413580435
| 12>  C       -0.0154521337     0.0250748068    -0.0092869486
| 13>  H       -0.4456037393     2.0591923317     0.9461850265
| 14>  H       -0.4596388754     2.0134736184    -0.8543897583
| 15>  H        2.2092559136     2.1571241240    -0.1923901844
| 16>  H        0.3565934497    -0.5278761254     2.1615828883
| 17>  H        2.5303892664    -1.7798772641     1.3777157905
| 18>  H        1.0864469258    -2.4807080812     0.6280336482
| 19>  H        3.2081874206    -0.7844812969    -0.7058350208
| 20>  H        2.0173604784    -1.8320476977    -1.4728643781
| 21>  H        1.0389779386     0.4113964305    -1.9777453318
| 22>  H       -0.8833957244    -0.5910057360    -0.2427531270
| 23> *
| 24>
| 25>                          ****END OF INPUT****

CARTESIAN COORDINATES (ANGSTROEM)
---------------------------------
  C     -0.045488    1.571136    0.054503
  C      1.484669    1.366298    0.000223
  O      1.760426    0.745240    1.267522
  C      0.857592   -0.394071    1.200593
  C      1.696517   -1.572610    0.702831
  C      2.152001   -1.069361   -0.700549
  C      1.240706    0.140834   -0.941358
  C     -0.015452    0.025075   -0.009287
  H     -0.445604    2.059192    0.946185
  H     -0.459639    2.013474   -0.854390
  H      2.209256    2.157124   -0.192390
  H      0.356593   -0.527876    2.161583
  H      2.530389   -1.779877    1.377716
  H      1.086447   -2.480708    0.628034
  H      3.208187   -0.784481   -0.705835
  H      2.017360   -1.832048   -1.472864
  H      1.038978    0.411396   -1.977745
  H     -0.883396   -0.591006   -0.242753

 Total Charge           Charge          ....    0
 Multiplicity           Mult            ....    1
 Number of Electrons    NEL             ....   60
 Basis Dimension        Dim             ....  308

ORBITAL ENERGIES
----------------

  NO   OCC          E(Eh)            E(eV)
   0   2.0000     -20.542737      -558.9963
   1   2.0000     -11.279007      -306.9174
   2   2.0000     -11.273110      -306.7569
   3   2.0000     -11.232904      -305.6629
   4   2.0000     -11.229430      -305.5683
   5   2.0000     -11.222073      -305.3681
   6   2.0000     -11.218527      -305.2716
   7   2.0000     -11.216809      -305.2249
   8   2.0000      -1.378885       -37.5214
   9   2.0000      -1.130740       -30.7690
  10   2.0000      -1.051842       -28.6221
  11   2.0000      -0.966362       -26.2960
  12   2.0000      -0.884305       -24.0632
  13   2.0000      -0.827359       -22.5136
  14   2.0000      -0.759563       -20.6688
  15   2.0000      -0.744911       -20.2701
  16   2.0000      -0.705397       -19.1948
  17   2.0000      -0.652339       -17.7510
  18   2.0000      -0.636023       -17.3071
  19   2.0000      -0.589407       -16.0386
  20   2.0000      -0.549367       -14.9490
  21   2.0000      -0.532858       -14.4998
  22   2.0000      -0.512194       -13.9375
  23   2.0000      -0.504180       -13.7194
  24   2.0000      -0.494666       -13.4605
  25   2.0000      -0.477644       -12.9974
  26   2.0000      -0.467022       -12.7083
  27   2.0000      -0.446299       -12.1444
  28   2.0000      -0.415562       -11.3080
  29   2.0000      -0.385601       -10.4927
  30   0.0000       0.140303         3.8178
  31   0.0000       0.160647         4.3714
  32   0.0000       0.164718         4.4822
  33   0.0000       0.182404         4.9635
  34   0.0000       0.197247         5.3674

MULLIKEN ATOMIC CHARGES
-----------------------
   0 C :   -0.254401
   1 C :    0.052122
   2 O :   -0.337486
   3 C :    0.064838
   4 C :   -0.217047
   5 C :   -0.253172
   6 C :   -0.114306
   7 C :   -0.121123
   8 H :    0.119647
   9 H :    0.117589
  10 H :    0.123837
  11 H :    0.115728
  12 H :    0.118266
  13 H :    0.105798
  14 H :    0.113174
  15 H :    0.116771
  16 H :    0.121104
  17 H :    0.128659
Sum of atomic charges:    0.0000000

LOEWDIN ATOMIC CHARGES
----------------------
   0 C :   -0.206696
   1 C :   -0.249863
   2 O :    0.174643
   3 C :   -0.253630
   4 C :   -0.233197
   5 C :   -0.229265
   6 C :   -0.183397
   7 C :   -0.176961
   8 H :    0.128686
   9 H :    0.138704
  10 H :    0.128353
  11 H :    0.135421
  12 H :    0.136688
  13 H :    0.135479
  14 H :    0.138952
  15 H :    0.134005
  16 H :    0.146153
  17 H :    0.135925

  Mayer bond orders larger than 0.1
B(  0-C ,  1-C ) :   0.9255 B(  0-C ,  7-C ) :   0.9288 B(  0-C ,  8-H ) :   0.9182
B(  0-C ,  9-H ) :   0.9262 B(  1-C ,  2-O ) :   0.9272 B(  1-C ,  6-C ) :   0.9191
B(  1-C , 10-H ) :   0.9110 B(  2-O ,  3-C ) :   0.9235 B(  3-C ,  4-C ) :   0.9458
B(  3-C ,  7-C ) :   0.9099 B(  3-C , 11-H ) :   0.9157 B(  4-C ,  5-C ) :   0.9851
B(  4-C , 12-H ) :   0.9189 B(  4-C , 13-H ) :   0.9120 B(  5-C ,  6-C ) :   0.9341
B(  5-C , 14-H ) :   0.9124 B(  5-C , 15-H ) :   0.9308 B(  6-C ,  7-C ) :   0.8874
B(  6-C , 16-H ) :   0.9156 B(  7-C , 17-H ) :   0.9077

MP2 TOTAL ENERGY:     -347.198225509 Eh
FINAL SINGLE POINT ENERGY      -347.198225509060

DIPOLE MOMENT
-------------
                                X             Y             Z
Electronic contribution:      0.46648       2.00535       1.80281
Nuclear contribution   :     -0.84496      -2.22956      -2.30892
                        -----------------------------------------
Total Dipole Moment    :     -0.37848      -0.22421      -0.50611
                        -----------------------------------------
Magnitude (a.u.)       :      0.67057
Magnitude (Debye)      :      1.70446

                             ****ORCA TERMINATED NORMALLY****
TOTAL RUN TIME: 0 days 0 hours 13 minutes 38 seconds 529 msec
