                         Program Version 3.0.3 - RELEASE   -
|  1> ! RI-MP2 RIJK def2-TZVP def2-TZVP/C def2-TZVP/JK TIGHTSCF
|  2> % maxcore 2000
|  3> % mp2 density relaxed end
|  4> *xyz 0 1
|  5>  C        0.0509838447     1.4027201284     0.0054125960
|  6>  N       -0.0017578155    -0.0433226371     0.0331738388
|  7>  C        0.5191770499    -0.6574936832    -0.9333973981
|  8>  O        0.4762726845    -2.0004235592    -1.0069382638
|  9>  C        1.2536650522    -2.6227104559    -2.0455428997
| 10>  C        2.6935501465    -2.8149181195    -1.5744367981
| 11>  C        0.5564523551    -3.9335738084    -2.3833258767
| 12>  H        0.5731396197     1.8172679791    -0.8734130571
| 13>  H       -0.9664183611     1.8108339192     0.0214645348
| 14>  H        0.5536188525     1.7707733955     0.9073581567
| 15>  H        1.0198629031    -0.1699290035    -1.7868968937
| 16>  H        1.2418266358    -1.9665036915    -2.9282908815
| 17>  H        2.7179024371    -3.4431974958    -0.6789074093
| 18>  H        3.2914743290    -3.2960531643    -2.3548090163
| 19>  H        3.1589030864    -1.8550088718    -1.3311783124
| 20>  H       -0.4709318996    -3.7508003447    -2.7081225168
| 21>  H        1.0902574041    -4.4531864805    -3.1843364977
| 22>  H        0.5281653055    -4.5860492269    -1.5055311950
| 23> *
| 24>
| 25>                          ****END OF INPUT****

CARTESIAN COORDINATES (ANGSTROEM)
---------------------------------
  C      0.050984    1.402720    0.005413
  N     -0.001758   -0.043323    0.033174
  C      0.519177   -0.657494   -0.933397
  O      0.476273   -2.000424   -1.006938
  C      1.253665   -2.622710   -2.045543
  C      2.693550   -2.814918   -1.574437
  C      0.556452   -3.933574   -2.383326
  H      0.573140    1.817268   -0.873413
  H     -0.966418    1.810834    0.021465
  H      0.553619    1.770773    0.907358
  H      1.019863   -0.169929   -1.786897
  H      1.241827   -1.966504   -2.928291
  H      2.717902   -3.443197   -0.678907
  H      3.291474   -3.296053   -2.354809
  H      3.158903   -1.855009   -1.331178
  H     -0.470932   -3.750800   -2.708123
  H      1.090257   -4.453186   -3.184336
  H      0.528165   -4.586049   -1.505531

 Total Charge           Charge          ....    0
 Multiplicity           Mult            ....    1
 Number of Electrons    NEL             ....   56
 Basis Dimension        Dim             ....  283

ORBITAL ENERGIES
----------------

  NO   OCC          E(Eh)            E(eV)
   0   2.0000     -20.581341      -560.0468
   1   2.0000     -15.537074      -422.7853
   2   2.0000     -11.324880      -308.1656
   3   2.0000     -11.299328      -307.4704
   4   2.0000     -11.243470      -305.9504
   5   2.0000     -11.226156      -305.4792
   6   2.0000     -11.223143      -305.3972
   7   2.0000      -1.418203       -38.5913
   8   2.0000      -1.214490       -33.0479
   9   2.0000      -1.064457       -28.9654
  10   2.0000      -0.950587       -25.8668
  11   2.0000      -0.937938       -25.5226
  12   2.0000      -0.823712       -22.4143
  13   2.0000      -0.804084       -21.8802
  14   2.0000      -0.699889       -19.0449
  15   2.0000      -0.654780       -17.8175
  16   2.0000      -0.642478       -17.4827
  17   2.0000      -0.608589       -16.5606
  18   2.0000      -0.582339       -15.8463
  19   2.0000      -0.573701       -15.6112
  20   2.0000      -0.551583       -15.0093
  21   2.0000      -0.538985       -14.6665
  22   2.0000      -0.533897       -14.5281
  23   2.0000      -0.528515       -14.3816
  24   2.0000      -0.488590       -13.2952
  25   2.0000      -0.483217       -13.1490
  26   2.0000      -0.407269       -11.0823
  27   2.0000      -0.374235       -10.1835
  28   0.0000       0.132919         3.6169
  29   0.0000       0.152241         4.1427
  30   0.0000       0.157016         4.2726
  31   0.0000       0.171318         4.6618
  32   0.0000       0.187794         5.1101

MULLIKEN ATOMIC CHARGES
-----------------------
   0 C :   -0.248624
   1 N :   -0.197658
   2 C :    0.059089
   3 O :   -0.216757
   4 C :    0.044723
   5 C :   -0.374011
   6 C :   -0.361834
   7 H :    0.087984
   8 H :    0.134348
   9 H :    0.134470
  10 H :    0.055060
  11 H :    0.084456
  12 H :    0.137214
  13 H :    0.130400
  14 H :    0.132354
  15 H :    0.138738
  16 H :    0.123410
  17 H :    0.136638
Sum of atomic charges:   -0.0000000

LOEWDIN ATOMIC CHARGES
----------------------
   0 C :   -0.341496
   1 N :    0.056142
   2 C :   -0.374110
   3 O :    0.259831
   4 C :   -0.356433
   5 C :   -0.293883
   6 C :   -0.289449
   7 H :    0.099499
   8 H :    0.116533
   9 H :    0.116357
  10 H :    0.105799
  11 H :    0.134767
  12 H :    0.129923
  13 H :    0.127462
  14 H :    0.124663
  15 H :    0.127711
  16 H :    0.127108
  17 H :    0.129577

  Mayer bond orders larger than 0.1
B(  0-C ,  1-N ) :   0.8870 B(  0-C ,  7-H ) :   0.9267 B(  0-C ,  8-H ) :   0.9316
B(  0-C ,  9-H ) :   0.9330 B(  1-N ,  2-C ) :   1.8819 B(  2-C ,  3-O ) :   1.0750
B(  2-C , 10-H ) :   0.9230 B(  3-O ,  4-C ) :   0.8602 B(  4-C ,  5-C ) :   0.9342
B(  4-C ,  6-C ) :   0.9386 B(  4-C , 11-H ) :   0.9357 B(  5-C , 12-H ) :   0.9299
B(  5-C , 13-H ) :   0.9311 B(  5-C , 14-H ) :   0.9296 B(  6-C , 15-H ) :   0.9350
B(  6-C , 16-H ) :   0.9291 B(  6-C , 17-H ) :   0.9336

MP2 TOTAL ENERGY:     -326.423628703 Eh
FINAL SINGLE POINT ENERGY      -326.423628703414

DIPOLE MOMENT
-------------
                                X             Y             Z
Electronic contribution:     -2.94637       1.27133       2.59955
Nuclear contribution   :      3.63838      -1.23866      -3.61975
                        -----------------------------------------
Total Dipole Moment    :      0.69201       0.03267      -1.02020
                        -----------------------------------------
Magnitude (a.u.)       :      1.23319
Magnitude (Debye)      :      3.13452

                             ****ORCA TERMINATED NORMALLY****
TOTAL RUN TIME: 0 days 0 hours 8 minutes 34 seconds 316 msec
