                         Program Version 3.0.3 - RELEASE   -
|  1> ! RI-MP2 RIJK def2-TZVP def2-TZVP/C def2-TZVP/JK TIGHTSCF
|  2> % maxcore 2000
|  3> % mp2 density relaxed end
|  4> *xyz 0 1
|  5>  C       -0.0775419791     1.4255987830     0.0160176291
|  6>  N       -0.0076301326    -0.0228304088     0.0789830049
|  7>  N        0.0030394742    -0.7525815625    -1.0287879320
|  8>  N        0.0701584225    -2.0206854917    -0.6870714572
|  9>  C        0.1031670568    -2.1032838946     0.6567224610
| 10>  O        0.1718516048    -3.2571703116     1.3215088150
| 11>  C        0.0547320981    -0.8238581439     1.1936293884
| 12>  C        0.0606072376    -0.3402906871     2.5131162906
| 13>  N        0.0646152052     0.0806957655     3.5930398290
| 14>  H        0.8043043591     1.8674489976     0.4861784595
| 15>  H       -0.1142175523     1.6959134732    -1.0384889585
| 16>  H       -0.9749570619     1.7833092623     0.5265199994
| 17>  H        0.1909741177    -3.9675982213     0.6659535107
| 18> *
| 19>
| 20>                          ****END OF INPUT****

CARTESIAN COORDINATES (ANGSTROEM)
---------------------------------
  C     -0.077542    1.425599    0.016018
  N     -0.007630   -0.022830    0.078983
  N      0.003039   -0.752582   -1.028788
  N      0.070158   -2.020685   -0.687071
  C      0.103167   -2.103284    0.656722
  O      0.171852   -3.257170    1.321509
  C      0.054732   -0.823858    1.193629
  C      0.060607   -0.340291    2.513116
  N      0.064615    0.080696    3.593040
  H      0.804304    1.867449    0.486178
  H     -0.114218    1.695913   -1.038489
  H     -0.974957    1.783309    0.526520
  H      0.190974   -3.967598    0.665954

 Total Charge           Charge          ....    0
 Multiplicity           Mult            ....    1
 Number of Electrons    NEL             ....   64
 Basis Dimension        Dim             ....  303

ORBITAL ENERGIES
----------------

  NO   OCC          E(Eh)            E(eV)
   0   2.0000     -20.627450      -561.3014
   1   2.0000     -15.701424      -427.2575
   2   2.0000     -15.681668      -426.7199
   3   2.0000     -15.618229      -424.9936
   4   2.0000     -15.594817      -424.3566
   5   2.0000     -11.363504      -309.2167
   6   2.0000     -11.322931      -308.1126
   7   2.0000     -11.307177      -307.6839
   8   2.0000     -11.299702      -307.4805
   9   2.0000      -1.487150       -40.4674
  10   2.0000      -1.444400       -39.3041
  11   2.0000      -1.255650       -34.1680
  12   2.0000      -1.233826       -33.5741
  13   2.0000      -1.120861       -30.5002
  14   2.0000      -1.025440       -27.9036
  15   2.0000      -0.911306       -24.7979
  16   2.0000      -0.883727       -24.0474
  17   2.0000      -0.791308       -21.5326
  18   2.0000      -0.766668       -20.8621
  19   2.0000      -0.713747       -19.4220
  20   2.0000      -0.673413       -18.3245
  21   2.0000      -0.636121       -17.3097
  22   2.0000      -0.632677       -17.2160
  23   2.0000      -0.607295       -16.5253
  24   2.0000      -0.580013       -15.7830
  25   2.0000      -0.579851       -15.7785
  26   2.0000      -0.546944       -14.8831
  27   2.0000      -0.524919       -14.2838
  28   2.0000      -0.505864       -13.7653
  29   2.0000      -0.464456       -12.6385
  30   2.0000      -0.425241       -11.5714
  31   2.0000      -0.360566        -9.8115
  32   0.0000       0.076042         2.0692
  33   0.0000       0.124602         3.3906
  34   0.0000       0.134030         3.6472
  35   0.0000       0.157711         4.2915
  36   0.0000       0.170328         4.6349

MULLIKEN ATOMIC CHARGES
-----------------------
   0 C :   -0.333385
   1 N :    0.145919
   2 N :   -0.180787
   3 N :   -0.158126
   4 C :    0.178818
   5 O :   -0.411064
   6 C :    0.080689
   7 C :   -0.170022
   8 N :   -0.035577
   9 H :    0.170804
  10 H :    0.186710
  11 H :    0.170815
  12 H :    0.355207
Sum of atomic charges:    0.0000000

LOEWDIN ATOMIC CHARGES
----------------------
   0 C :   -0.253794
   1 N :    0.196803
   2 N :   -0.021242
   3 N :    0.021205
   4 C :   -0.389153
   5 O :    0.107289
   6 C :   -0.213490
   7 C :   -0.160800
   8 N :    0.094834
   9 H :    0.133441
  10 H :    0.139826
  11 H :    0.133450
  12 H :    0.211632

  Mayer bond orders larger than 0.1
B(  0-C ,  1-N ) :   0.8388 B(  0-C ,  9-H ) :   0.9237 B(  0-C , 10-H ) :   0.9197
B(  0-C , 11-H ) :   0.9237 B(  1-N ,  2-N ) :   1.0572 B(  1-N ,  6-C ) :   1.1694
B(  2-N ,  3-N ) :   1.2190 B(  2-N ,  6-C ) :   0.1198 B(  3-N ,  4-C ) :   1.4167
B(  4-C ,  5-O ) :   1.1875 B(  4-C ,  6-C ) :   1.3701 B(  5-O , 12-H ) :   0.8076
B(  6-C ,  7-C ) :   0.9247 B(  7-C ,  8-N ) :   2.8309

MP2 TOTAL ENERGY:     -448.205478979 Eh
FINAL SINGLE POINT ENERGY      -448.205478979195

DIPOLE MOMENT
-------------
                                X             Y             Z
Electronic contribution:      0.23845      -4.17780       1.85739
Nuclear contribution   :     -0.27328       4.61639      -2.47729
                        -----------------------------------------
Total Dipole Moment    :     -0.03482       0.43859      -0.61990
                        -----------------------------------------
Magnitude (a.u.)       :      0.76016
Magnitude (Debye)      :      1.93218

                             ****ORCA TERMINATED NORMALLY****
TOTAL RUN TIME: 0 days 0 hours 15 minutes 57 seconds 442 msec
