                         Program Version 3.0.3 - RELEASE   -
|  1> ! RI-MP2 RIJK def2-TZVP def2-TZVP/C def2-TZVP/JK TIGHTSCF
|  2> % maxcore 2000
|  3> % mp2 density relaxed end
|  4> *xyz 0 1
|  5>  C       -0.0760758102     1.5236891863    -0.1346697556
|  6>  C       -0.0176536042     0.0316113869     0.0586094252
|  7>  O        1.2415332188    -0.6097149732    -0.1149739729
|  8>  C        0.6659921100    -0.6166751883     1.2023919146
|  9>  C        1.3512658332     0.0298156625     2.3445586979
| 10>  C        1.2668529087    -0.7221453753     3.4469602157
| 11>  C        0.5132708010    -2.0096470616     3.2261524681
| 12>  C        0.1647601328    -1.9551777323     1.7324486490
| 13>  O       -0.4015468423    -2.7959156641     1.0862779966
| 14>  H        0.7846333954     2.0209264847     0.3180272923
| 15>  H       -0.0843505576     1.7628695725    -1.2031638008
| 16>  H       -0.9918860688     1.9303503429     0.3067772381
| 17>  H       -0.8487537445    -0.5374178188    -0.3626770878
| 18>  H        1.8556995193     0.9842180672     2.2679632785
| 19>  H        1.6875291064    -0.4549474744     4.4092775212
| 20>  H        1.0983711393    -2.9081750576     3.4573433167
| 21>  H       -0.4078580873    -2.0824517873     3.8183584133
| 22> *
| 23>
| 24>                          ****END OF INPUT****

CARTESIAN COORDINATES (ANGSTROEM)
---------------------------------
  C     -0.076076    1.523689   -0.134670
  C     -0.017654    0.031611    0.058609
  O      1.241533   -0.609715   -0.114974
  C      0.665992   -0.616675    1.202392
  C      1.351266    0.029816    2.344559
  C      1.266853   -0.722145    3.446960
  C      0.513271   -2.009647    3.226152
  C      0.164760   -1.955178    1.732449
  O     -0.401547   -2.795916    1.086278
  H      0.784633    2.020926    0.318027
  H     -0.084351    1.762870   -1.203164
  H     -0.991886    1.930350    0.306777
  H     -0.848754   -0.537418   -0.362677
  H      1.855700    0.984218    2.267963
  H      1.687529   -0.454947    4.409278
  H      1.098371   -2.908175    3.457343
  H     -0.407858   -2.082452    3.818358

 Total Charge           Charge          ....    0
 Multiplicity           Mult            ....    1
 Number of Electrons    NEL             ....   66
 Basis Dimension        Dim             ....  327

ORBITAL ENERGIES
----------------

  NO   OCC          E(Eh)            E(eV)
   0   2.0000     -20.578997      -559.9830
   1   2.0000     -20.557103      -559.3872
   2   2.0000     -11.339316      -308.5585
   3   2.0000     -11.303351      -307.5798
   4   2.0000     -11.300171      -307.4933
   5   2.0000     -11.259110      -306.3760
   6   2.0000     -11.254280      -306.2445
   7   2.0000     -11.251177      -306.1601
   8   2.0000     -11.234779      -305.7139
   9   2.0000      -1.427758       -38.8513
  10   2.0000      -1.394661       -37.9507
  11   2.0000      -1.149183       -31.2709
  12   2.0000      -1.021367       -27.7928
  13   2.0000      -0.979486       -26.6532
  14   2.0000      -0.941905       -25.6305
  15   2.0000      -0.845024       -22.9943
  16   2.0000      -0.785256       -21.3679
  17   2.0000      -0.740743       -20.1566
  18   2.0000      -0.697265       -18.9735
  19   2.0000      -0.670876       -18.2555
  20   2.0000      -0.628504       -17.1025
  21   2.0000      -0.625154       -17.0113
  22   2.0000      -0.605127       -16.4664
  23   2.0000      -0.597081       -16.2474
  24   2.0000      -0.578969       -15.7546
  25   2.0000      -0.552045       -15.0219
  26   2.0000      -0.540584       -14.7100
  27   2.0000      -0.534948       -14.5567
  28   2.0000      -0.516509       -14.0549
  29   2.0000      -0.472034       -12.8447
  30   2.0000      -0.459945       -12.5157
  31   2.0000      -0.406571       -11.0634
  32   2.0000      -0.364613        -9.9216
  33   0.0000       0.110514         3.0072
  34   0.0000       0.131203         3.5702
  35   0.0000       0.141412         3.8480
  36   0.0000       0.149347         4.0639
  37   0.0000       0.164510         4.4765

MULLIKEN ATOMIC CHARGES
-----------------------
   0 C :   -0.375711
   1 C :    0.062365
   2 O :   -0.323279
   3 C :    0.182695
   4 C :   -0.187556
   5 C :   -0.184493
   6 C :   -0.147263
   7 C :    0.106345
   8 O :   -0.257775
   9 H :    0.133417
  10 H :    0.146308
  11 H :    0.133290
  12 H :    0.133798
  13 H :    0.146256
  14 H :    0.141709
  15 H :    0.147152
  16 H :    0.142742
Sum of atomic charges:    0.0000000

LOEWDIN ATOMIC CHARGES
----------------------
   0 C :   -0.288454
   1 C :   -0.257318
   2 O :    0.205324
   3 C :   -0.261741
   4 C :   -0.115706
   5 C :   -0.132145
   6 C :   -0.205901
   7 C :   -0.258386
   8 O :    0.174970
   9 H :    0.129021
  10 H :    0.132775
  11 H :    0.132891
  12 H :    0.146210
  13 H :    0.145176
  14 H :    0.140386
  15 H :    0.155962
  16 H :    0.156937

  Mayer bond orders larger than 0.1
B(  0-C ,  1-C ) :   0.8956 B(  0-C ,  9-H ) :   0.9419 B(  0-C , 10-H ) :   0.9335
B(  0-C , 11-H ) :   0.9232 B(  1-C ,  2-O ) :   0.8623 B(  1-C ,  3-C ) :   0.9296
B(  1-C , 12-H ) :   0.8984 B(  2-O ,  3-C ) :   0.8717 B(  3-C ,  4-C ) :   0.9060
B(  3-C ,  6-C ) :  -0.1168 B(  3-C ,  7-C ) :   0.8583 B(  4-C ,  5-C ) :   1.7496
B(  4-C , 13-H ) :   0.9137 B(  5-C ,  6-C ) :   0.9155 B(  5-C , 14-H ) :   0.9194
B(  6-C ,  7-C ) :   0.9543 B(  6-C , 15-H ) :   0.8999 B(  6-C , 16-H ) :   0.8924
B(  7-C ,  8-O ) :   2.0663

MP2 TOTAL ENERGY:     -421.119891543 Eh
FINAL SINGLE POINT ENERGY      -421.119891543187

DIPOLE MOMENT
-------------
                                X             Y             Z
Electronic contribution:      0.80960      -5.60535      -0.85380
Nuclear contribution   :     -0.91066       6.59521       1.82402
                        -----------------------------------------
Total Dipole Moment    :     -0.10106       0.98986       0.97022
                        -----------------------------------------
Magnitude (a.u.)       :      1.38974
Magnitude (Debye)      :      3.53243

                             ****ORCA TERMINATED NORMALLY****
TOTAL RUN TIME: 0 days 0 hours 15 minutes 35 seconds 296 msec
