                         Program Version 3.0.3 - RELEASE   -
|  1> ! RI-MP2 RIJK def2-TZVP def2-TZVP/C def2-TZVP/JK TIGHTSCF
|  2> % maxcore 2000
|  3> % mp2 density relaxed end
|  4> *xyz 0 1
|  5>  O        0.1320068592     1.3939139374    -0.0449737236
|  6>  C        0.1014091857    -0.0073626669     0.0692486058
|  7>  C       -1.3551827935    -0.5085048431     0.0507402764
|  8>  O       -2.0172717023     0.0238365614    -1.1039148748
|  9>  C       -1.4325001838    -1.9645726578     0.1145515532
| 10>  C       -1.4520701481    -3.1665532127     0.1255482161
| 11>  H       -0.4936196708     1.6097901644    -0.7492713379
| 12>  H        0.6537579337    -0.5047257740    -0.7462831229
| 13>  H        0.5816373512    -0.2806626312     1.0138800534
| 14>  H       -1.8797299760    -0.0620674740     0.9032400101
| 15>  H       -1.7825685995    -0.5341898481    -1.8547759814
| 16>  H       -1.4862573457    -4.2280042253     0.1522165156
| 17> *
| 18>
| 19>                          ****END OF INPUT****

CARTESIAN COORDINATES (ANGSTROEM)
---------------------------------
  O      0.132007    1.393914   -0.044974
  C      0.101409   -0.007363    0.069249
  C     -1.355183   -0.508505    0.050740
  O     -2.017272    0.023837   -1.103915
  C     -1.432500   -1.964573    0.114552
  C     -1.452070   -3.166553    0.125548
  H     -0.493620    1.609790   -0.749271
  H      0.653758   -0.504726   -0.746283
  H      0.581637   -0.280663    1.013880
  H     -1.879730   -0.062067    0.903240
  H     -1.782569   -0.534190   -1.854776
  H     -1.486257   -4.228004    0.152217

 Total Charge           Charge          ....    0
 Multiplicity           Mult            ....    1
 Number of Electrons    NEL             ....   46
 Basis Dimension        Dim             ....  222

ORBITAL ENERGIES
----------------

  NO   OCC          E(Eh)            E(eV)
   0   2.0000     -20.582878      -560.0886
   1   2.0000     -20.558324      -559.4204
   2   2.0000     -11.320148      -308.0369
   3   2.0000     -11.287650      -307.1526
   4   2.0000     -11.250413      -306.1393
   5   2.0000     -11.245670      -306.0102
   6   2.0000      -1.395144       -37.9638
   7   2.0000      -1.359790       -37.0018
   8   2.0000      -1.074847       -29.2481
   9   2.0000      -0.995452       -27.0876
  10   2.0000      -0.875124       -23.8133
  11   2.0000      -0.766809       -20.8659
  12   2.0000      -0.715240       -19.4627
  13   2.0000      -0.705444       -19.1961
  14   2.0000      -0.661120       -17.9900
  15   2.0000      -0.629568       -17.1314
  16   2.0000      -0.590382       -16.0651
  17   2.0000      -0.551332       -15.0025
  18   2.0000      -0.536883       -14.6093
  19   2.0000      -0.489721       -13.3260
  20   2.0000      -0.453788       -12.3482
  21   2.0000      -0.414541       -11.2802
  22   2.0000      -0.402774       -10.9600
  23   0.0000       0.125524         3.4157
  24   0.0000       0.153606         4.1798
  25   0.0000       0.161155         4.3852
  26   0.0000       0.165164         4.4943
  27   0.0000       0.177911         4.8412

MULLIKEN ATOMIC CHARGES
-----------------------
   0 O :   -0.470033
   1 C :    0.013110
   2 C :    0.014782
   3 O :   -0.481946
   4 C :   -0.110923
   5 C :   -0.146444
   6 H :    0.329912
   7 H :    0.088070
   8 H :    0.115578
   9 H :    0.121787
  10 H :    0.327825
  11 H :    0.198283
Sum of atomic charges:    0.0000000

LOEWDIN ATOMIC CHARGES
----------------------
   0 O :   -0.038537
   1 C :   -0.330303
   2 C :   -0.342828
   3 O :   -0.018835
   4 C :   -0.098193
   5 C :   -0.077813
   6 H :    0.178450
   7 H :    0.118981
   8 H :    0.134257
   9 H :    0.162883
  10 H :    0.181836
  11 H :    0.130102

  Mayer bond orders larger than 0.1
B(  0-O ,  1-C ) :   0.9619 B(  0-O ,  6-H ) :   0.8230 B(  1-C ,  2-C ) :   0.9625
B(  1-C ,  7-H ) :   0.9086 B(  1-C ,  8-H ) :   0.9181 B(  2-C ,  3-O ) :   0.8817
B(  2-C ,  4-C ) :   1.1002 B(  2-C ,  9-H ) :   0.8995 B(  3-O , 10-H ) :   0.8342
B(  4-C ,  5-C ) :   2.5879 B(  5-C , 11-H ) :   0.8995

MP2 TOTAL ENERGY:     -305.831588860 Eh
FINAL SINGLE POINT ENERGY      -305.831588860465

DIPOLE MOMENT
-------------
                                X             Y             Z
Electronic contribution:     -1.40261      -0.37801      -0.15243
Nuclear contribution   :      1.37942      -0.49935      -0.21002
                        -----------------------------------------
Total Dipole Moment    :     -0.02319      -0.87736      -0.36245
                        -----------------------------------------
Magnitude (a.u.)       :      0.94956
Magnitude (Debye)      :      2.41360

                             ****ORCA TERMINATED NORMALLY****
TOTAL RUN TIME: 0 days 0 hours 4 minutes 21 seconds 856 msec
