                         Program Version 3.0.3 - RELEASE   -
|  1> ! RI-MP2 RIJK def2-TZVP def2-TZVP/C def2-TZVP/JK TIGHTSCF
|  2> % maxcore 2000
|  3> % mp2 density relaxed end
|  4> *xyz 0 1
|  5>  C       -0.1747848019     1.5559563105     0.0623447933
|  6>  C       -0.0660273520     0.0287097918     0.0586237984
|  7>  C        0.7543119721    -0.5213704302     1.2304144810
|  8>  C        0.8630076515    -2.0493935285     1.2342292451
|  9>  C        1.6869008374    -2.5981529308     2.4046071485
| 10>  C        1.7435993613    -4.1147968987     2.4230100017
| 11>  C        2.2981981335    -4.8178625752     3.6830412876
| 12>  C        0.9188849716    -5.5035996335     3.7322623778
| 13>  O        0.4376615094    -4.7178433283     2.6234681001
| 14>  H        0.8146217521     2.0235660616     0.0041138387
| 15>  H       -0.7640124069     1.9181729215    -0.7860480840
| 16>  H       -0.6551590372     1.9163580141     0.9789726775
| 17>  H       -1.0715957344    -0.4113306226     0.0844526835
| 18>  H        0.3847260655    -0.3043653013    -0.8857485269
| 19>  H        1.7620692723    -0.0825075210     1.2048260170
| 20>  H        0.3046060128    -0.1866023782     2.1758263559
| 21>  H       -0.1392839399    -2.4927763420     1.2751265215
| 22>  H        1.3094320195    -2.3854925518     0.2877991116
| 23>  H        2.7156545956    -2.2131671766     2.3580905068
| 24>  H        1.2601061109    -2.2515613776     3.3551350976
| 25>  H        2.1897117841    -4.4846589756     1.4871338813
| 26>  H        3.1595375383    -5.4706817099     3.5347512418
| 27>  H        2.4993823535    -4.1397013348     4.5154150162
| 28>  H        0.9268113174    -6.5765060022     3.4990670153
| 29>  H        0.3219067936    -5.3453082206     4.6381224226
| 30> *
| 31>
| 32>                          ****END OF INPUT****

CARTESIAN COORDINATES (ANGSTROEM)
---------------------------------
  C     -0.174785    1.555956    0.062345
  C     -0.066027    0.028710    0.058624
  C      0.754312   -0.521370    1.230414
  C      0.863008   -2.049394    1.234229
  C      1.686901   -2.598153    2.404607
  C      1.743599   -4.114797    2.423010
  C      2.298198   -4.817863    3.683041
  C      0.918885   -5.503600    3.732262
  O      0.437662   -4.717843    2.623468
  H      0.814622    2.023566    0.004114
  H     -0.764012    1.918173   -0.786048
  H     -0.655159    1.916358    0.978973
  H     -1.071596   -0.411331    0.084453
  H      0.384726   -0.304365   -0.885749
  H      1.762069   -0.082508    1.204826
  H      0.304606   -0.186602    2.175826
  H     -0.139284   -2.492776    1.275127
  H      1.309432   -2.385493    0.287799
  H      2.715655   -2.213167    2.358091
  H      1.260106   -2.251561    3.355135
  H      2.189712   -4.484659    1.487134
  H      3.159538   -5.470682    3.534751
  H      2.499382   -4.139701    4.515415
  H      0.926811   -6.576506    3.499067
  H      0.321907   -5.345308    4.638122

 Total Charge           Charge          ....    0
 Multiplicity           Mult            ....    1
 Number of Electrons    NEL             ....   72
 Basis Dimension        Dim             ....  375

ORBITAL ENERGIES
----------------

  NO   OCC          E(Eh)            E(eV)
   0   2.0000     -20.539772      -558.9156
   1   2.0000     -11.277690      -306.8816
   2   2.0000     -11.274674      -306.7995
   3   2.0000     -11.226436      -305.4869
   4   2.0000     -11.217219      -305.2360
   5   2.0000     -11.213876      -305.1451
   6   2.0000     -11.212715      -305.1135
   7   2.0000     -11.211620      -305.0837
   8   2.0000     -11.208458      -304.9976
   9   2.0000      -1.370583       -37.2955
  10   2.0000      -1.081454       -29.4279
  11   2.0000      -1.035664       -28.1819
  12   2.0000      -1.002883       -27.2898
  13   2.0000      -0.951300       -25.8862
  14   2.0000      -0.879946       -23.9445
  15   2.0000      -0.817171       -22.2364
  16   2.0000      -0.783705       -21.3257
  17   2.0000      -0.754105       -20.5202
  18   2.0000      -0.677616       -18.4389
  19   2.0000      -0.654438       -17.8082
  20   2.0000      -0.643283       -17.5046
  21   2.0000      -0.610286       -16.6067
  22   2.0000      -0.580456       -15.7950
  23   2.0000      -0.578170       -15.7328
  24   2.0000      -0.558267       -15.1912
  25   2.0000      -0.538413       -14.6510
  26   2.0000      -0.534775       -14.5520
  27   2.0000      -0.518716       -14.1150
  28   2.0000      -0.495410       -13.4808
  29   2.0000      -0.482806       -13.1378
  30   2.0000      -0.474742       -12.9184
  31   2.0000      -0.462919       -12.5967
  32   2.0000      -0.458866       -12.4864
  33   2.0000      -0.451083       -12.2746
  34   2.0000      -0.429141       -11.6775
  35   2.0000      -0.404194       -10.9987
  36   0.0000       0.139268         3.7897
  37   0.0000       0.147624         4.0170
  38   0.0000       0.160228         4.3600
  39   0.0000       0.165221         4.4959
  40   0.0000       0.173204         4.7131

MULLIKEN ATOMIC CHARGES
-----------------------
   0 C :   -0.382980
   1 C :   -0.179062
   2 C :   -0.224965
   3 C :   -0.240115
   4 C :   -0.228786
   5 C :    0.138568
   6 C :   -0.287956
   7 C :   -0.008839
   8 O :   -0.340672
   9 H :    0.119785
  10 H :    0.132095
  11 H :    0.120956
  12 H :    0.106613
  13 H :    0.102839
  14 H :    0.100974
  15 H :    0.106104
  16 H :    0.133731
  17 H :    0.102085
  18 H :    0.109769
  19 H :    0.104508
  20 H :    0.076755
  21 H :    0.127700
  22 H :    0.120865
  23 H :    0.092259
  24 H :    0.097771
Sum of atomic charges:   -0.0000000

LOEWDIN ATOMIC CHARGES
----------------------
   0 C :   -0.323046
   1 C :   -0.297870
   2 C :   -0.274591
   3 C :   -0.265899
   4 C :   -0.256598
   5 C :   -0.283240
   6 C :   -0.231220
   7 C :   -0.278310
   8 O :    0.125502
   9 H :    0.119252
  10 H :    0.119691
  11 H :    0.119607
  12 H :    0.134821
  13 H :    0.133658
  14 H :    0.134801
  15 H :    0.136300
  16 H :    0.143724
  17 H :    0.136563
  18 H :    0.142315
  19 H :    0.140990
  20 H :    0.134230
  21 H :    0.128005
  22 H :    0.132165
  23 H :    0.114784
  24 H :    0.114367

  Mayer bond orders larger than 0.1
B(  0-C ,  1-C ) :   0.9220 B(  0-C ,  9-H ) :   0.9396 B(  0-C , 10-H ) :   0.9437
B(  0-C , 11-H ) :   0.9398 B(  1-C ,  2-C ) :   0.9367 B(  1-C , 12-H ) :   0.9341
B(  1-C , 13-H ) :   0.9340 B(  2-C ,  3-C ) :   0.9329 B(  2-C , 14-H ) :   0.9289
B(  2-C , 15-H ) :   0.9287 B(  3-C ,  4-C ) :   0.9399 B(  3-C , 16-H ) :   0.9298
B(  3-C , 17-H ) :   0.9300 B(  4-C ,  5-C ) :   0.9481 B(  4-C , 18-H ) :   0.9252
B(  4-C , 19-H ) :   0.9174 B(  5-C ,  6-C ) :   0.9068 B(  5-C ,  8-O ) :   0.9298
B(  5-C , 20-H ) :   0.9169 B(  6-C ,  7-C ) :   0.9804 B(  6-C , 21-H ) :   0.9306
B(  6-C , 22-H ) :   0.9281 B(  7-C ,  8-O ) :   0.9479 B(  7-C , 23-H ) :   0.9182
B(  7-C , 24-H ) :   0.9173

MP2 TOTAL ENERGY:     -388.801592357 Eh
FINAL SINGLE POINT ENERGY      -388.801592356745

DIPOLE MOMENT
-------------
                                X             Y             Z
Electronic contribution:      0.38721      -9.15934       3.31105
Nuclear contribution   :      0.20726       9.14070      -3.01485
                        -----------------------------------------
Total Dipole Moment    :      0.59447      -0.01864       0.29620
                        -----------------------------------------
Magnitude (a.u.)       :      0.66443
Magnitude (Debye)      :      1.68886

                             ****ORCA TERMINATED NORMALLY****
TOTAL RUN TIME: 0 days 0 hours 16 minutes 59 seconds 789 msec
