                         Program Version 3.0.3 - RELEASE   -
|  1> ! RI-MP2 RIJK def2-TZVP def2-TZVP/C def2-TZVP/JK TIGHTSCF
|  2> % maxcore 2000
|  3> % mp2 density relaxed end
|  4> *xyz 0 1
|  5>  O        0.1031956981     0.1151587199     0.1187898554
|  6>  C        0.0251359470     1.3121200911     0.0595367191
|  7>  C       -1.2100246604     2.2325685376     0.1087474377
|  8>  N       -0.5720911172     3.5582835159    -0.0536331273
|  9>  C        0.6102106100     3.3946200969     0.9340962478
| 10>  C        1.1584917129     2.3341926807    -0.1153139816
| 11>  C        2.1761416766     1.8625763179    -1.1903147026
| 12>  C        1.0469587024     2.2958724537    -2.2476870180
| 13>  C        0.5575060055     3.2614131863    -1.1134582850
| 14>  H       -1.9050511034     2.0152321373    -0.7076713729
| 15>  H       -1.7527009585     2.1687613322     1.0556674245
| 16>  H        1.2037731347     4.3075530544     0.9773662887
| 17>  H        0.3087576659     3.0746158922     1.9358014101
| 18>  H        3.0656708504     2.4887021353    -1.2787657528
| 19>  H        2.4530758957     0.8065548730    -1.1658555390
| 20>  H        1.3732877974     2.7556105488    -3.1826524365
| 21>  H        0.3813685512     1.4579770752    -2.4638894388
| 22>  H        1.0974474217     4.2065903114    -1.2042322990
| 23> *
| 24>
| 25>                          ****END OF INPUT****

CARTESIAN COORDINATES (ANGSTROEM)
---------------------------------
  O      0.103196    0.115159    0.118790
  C      0.025136    1.312120    0.059537
  C     -1.210025    2.232569    0.108747
  N     -0.572091    3.558284   -0.053633
  C      0.610211    3.394620    0.934096
  C      1.158492    2.334193   -0.115314
  C      2.176142    1.862576   -1.190315
  C      1.046959    2.295872   -2.247687
  C      0.557506    3.261413   -1.113458
  H     -1.905051    2.015232   -0.707671
  H     -1.752701    2.168761    1.055667
  H      1.203773    4.307553    0.977366
  H      0.308758    3.074616    1.935801
  H      3.065671    2.488702   -1.278766
  H      2.453076    0.806555   -1.165856
  H      1.373288    2.755611   -3.182652
  H      0.381369    1.457977   -2.463889
  H      1.097447    4.206590   -1.204232

 Total Charge           Charge          ....    0
 Multiplicity           Mult            ....    1
 Number of Electrons    NEL             ....   66
 Basis Dimension        Dim             ....  333

ORBITAL ENERGIES
----------------

  NO   OCC          E(Eh)            E(eV)
   0   2.0000     -20.551114      -559.2242
   1   2.0000     -15.584276      -424.0697
   2   2.0000     -11.330361      -308.3148
   3   2.0000     -11.289735      -307.2093
   4   2.0000     -11.270604      -306.6887
   5   2.0000     -11.264875      -306.5328
   6   2.0000     -11.256403      -306.3023
   7   2.0000     -11.255618      -306.2809
   8   2.0000     -11.248680      -306.0921
   9   2.0000      -1.396836       -38.0098
  10   2.0000      -1.287437       -35.0329
  11   2.0000      -1.122146       -30.5352
  12   2.0000      -0.987760       -26.8783
  13   2.0000      -0.955723       -26.0066
  14   2.0000      -0.891078       -24.2475
  15   2.0000      -0.860728       -23.4216
  16   2.0000      -0.795995       -21.6601
  17   2.0000      -0.711060       -19.3489
  18   2.0000      -0.670543       -18.2464
  19   2.0000      -0.661098       -17.9894
  20   2.0000      -0.638432       -17.3726
  21   2.0000      -0.627298       -17.0696
  22   2.0000      -0.608076       -16.5466
  23   2.0000      -0.562322       -15.3015
  24   2.0000      -0.540958       -14.7202
  25   2.0000      -0.531462       -14.4618
  26   2.0000      -0.520135       -14.1536
  27   2.0000      -0.515239       -14.0204
  28   2.0000      -0.491417       -13.3721
  29   2.0000      -0.466091       -12.6830
  30   2.0000      -0.442698       -12.0464
  31   2.0000      -0.387690       -10.5496
  32   2.0000      -0.365761        -9.9529
  33   0.0000       0.134566         3.6617
  34   0.0000       0.136853         3.7240
  35   0.0000       0.144375         3.9286
  36   0.0000       0.157414         4.2835
  37   0.0000       0.166010         4.5174

MULLIKEN ATOMIC CHARGES
-----------------------
   0 O :   -0.260909
   1 C :    0.021795
   2 C :   -0.133283
   3 N :   -0.179732
   4 C :   -0.186904
   5 C :    0.142177
   6 C :   -0.268760
   7 C :   -0.241254
   8 C :   -0.096664
   9 H :    0.138304
  10 H :    0.145221
  11 H :    0.130772
  12 H :    0.136708
  13 H :    0.131502
  14 H :    0.141518
  15 H :    0.131848
  16 H :    0.145188
  17 H :    0.102472
Sum of atomic charges:    0.0000000

LOEWDIN ATOMIC CHARGES
----------------------
   0 O :    0.161594
   1 C :   -0.296927
   2 C :   -0.254257
   3 N :    0.093961
   4 C :   -0.180255
   5 C :   -0.200586
   6 C :   -0.179823
   7 C :   -0.194682
   8 C :   -0.191900
   9 H :    0.143401
  10 H :    0.142476
  11 H :    0.136082
  12 H :    0.127782
  13 H :    0.136807
  14 H :    0.133822
  15 H :    0.125140
  16 H :    0.142227
  17 H :    0.155138

  Mayer bond orders larger than 0.1
B(  0-O ,  1-C ) :   2.0477 B(  1-C ,  2-C ) :   0.9252 B(  1-C ,  5-C ) :   0.7930
B(  2-C ,  3-N ) :   0.9408 B(  2-C ,  5-C ) :  -0.1423 B(  2-C ,  9-H ) :   0.9059
B(  2-C , 10-H ) :   0.9172 B(  3-N ,  4-C ) :   0.9059 B(  3-N ,  8-C ) :   0.8520
B(  4-C ,  5-C ) :   0.8690 B(  4-C , 11-H ) :   0.9136 B(  4-C , 12-H ) :   0.9167
B(  5-C ,  6-C ) :   0.8633 B(  5-C ,  8-C ) :   0.8705 B(  6-C ,  7-C ) :   0.9257
B(  6-C , 13-H ) :   0.9214 B(  6-C , 14-H ) :   0.9107 B(  7-C ,  8-C ) :   0.9047
B(  7-C , 15-H ) :   0.9217 B(  7-C , 16-H ) :   0.9140 B(  8-C , 17-H ) :   0.9332

MP2 TOTAL ENERGY:     -401.160011879 Eh
FINAL SINGLE POINT ENERGY      -401.160011879354

DIPOLE MOMENT
-------------
                                X             Y             Z
Electronic contribution:     -1.77040      -2.33578       2.16970
Nuclear contribution   :      2.24242       2.91902      -2.37840
                        -----------------------------------------
Total Dipole Moment    :      0.47202       0.58323      -0.20871
                        -----------------------------------------
Magnitude (a.u.)       :      0.77880
Magnitude (Debye)      :      1.97954

                             ****ORCA TERMINATED NORMALLY****
TOTAL RUN TIME: 0 days 0 hours 21 minutes 28 seconds 606 msec
