                         Program Version 3.0.3 - RELEASE   -
|  1> ! RI-MP2 RIJK def2-TZVP def2-TZVP/C def2-TZVP/JK TIGHTSCF
|  2> % maxcore 2000
|  3> % mp2 density relaxed end
|  4> *xyz 0 1
|  5>  O       -0.0268862602     1.4143144745    -0.0622034001
|  6>  C        0.0161108474     0.0253143028    -0.0829157452
|  7>  C        0.4335263263    -0.8188742225    -1.2959969897
|  8>  C       -0.3305817493    -1.9354031547    -0.5292516494
|  9>  C        0.5974320741    -2.1625701678     0.6861609359
| 10>  C        0.3893066389    -0.7517314413     1.2693424687
| 11>  C       -1.1279353428    -0.7693974827     1.6008491566
| 12>  C       -1.2858656700    -0.8116231786     0.0740467446
| 13>  H        0.8593024907     1.7438355314     0.1225709043
| 14>  H       -0.0992187765    -0.4793519408    -2.1889925788
| 15>  H        1.4919697074    -0.9827729634    -1.5271550096
| 16>  H       -0.7319944667    -2.8025624678    -1.0497610902
| 17>  H        0.2630362001    -2.9495887503     1.3690137391
| 18>  H        1.6267396796    -2.3794093032     0.3851065288
| 19>  H        1.1274889268    -0.3558028552     1.9682951156
| 20>  H       -1.5066437868    -1.5925269918     2.2149808764
| 21>  H       -1.4786704715     0.1868075710     1.9960140054
| 22>  H       -2.2035292576    -0.5820900097    -0.4655802724
| 23> *
| 24>
| 25>                          ****END OF INPUT****

CARTESIAN COORDINATES (ANGSTROEM)
---------------------------------
  O     -0.026886    1.414314   -0.062203
  C      0.016111    0.025314   -0.082916
  C      0.433526   -0.818874   -1.295997
  C     -0.330582   -1.935403   -0.529252
  C      0.597432   -2.162570    0.686161
  C      0.389307   -0.751731    1.269342
  C     -1.127935   -0.769397    1.600849
  C     -1.285866   -0.811623    0.074047
  H      0.859302    1.743836    0.122571
  H     -0.099219   -0.479352   -2.188993
  H      1.491970   -0.982773   -1.527155
  H     -0.731994   -2.802562   -1.049761
  H      0.263036   -2.949589    1.369014
  H      1.626740   -2.379409    0.385107
  H      1.127489   -0.355803    1.968295
  H     -1.506644   -1.592527    2.214981
  H     -1.478670    0.186808    1.996014
  H     -2.203529   -0.582090   -0.465580

 Total Charge           Charge          ....    0
 Multiplicity           Mult            ....    1
 Number of Electrons    NEL             ....   60
 Basis Dimension        Dim             ....  308

ORBITAL ENERGIES
----------------

  NO   OCC          E(Eh)            E(eV)
   0   2.0000     -20.560380      -559.4764
   1   2.0000     -11.282759      -307.0195
   2   2.0000     -11.232297      -305.6463
   3   2.0000     -11.230498      -305.5974
   4   2.0000     -11.224356      -305.4303
   5   2.0000     -11.219761      -305.3052
   6   2.0000     -11.217509      -305.2439
   7   2.0000     -11.216393      -305.2136
   8   2.0000      -1.371602       -37.3232
   9   2.0000      -1.204335       -32.7716
  10   2.0000      -1.013937       -27.5906
  11   2.0000      -0.965176       -26.2638
  12   2.0000      -0.887677       -24.1549
  13   2.0000      -0.830278       -22.5930
  14   2.0000      -0.761584       -20.7237
  15   2.0000      -0.722696       -19.6656
  16   2.0000      -0.695519       -18.9260
  17   2.0000      -0.643017       -17.4974
  18   2.0000      -0.630735       -17.1632
  19   2.0000      -0.612799       -16.6751
  20   2.0000      -0.590810       -16.0768
  21   2.0000      -0.536058       -14.5869
  22   2.0000      -0.520383       -14.1603
  23   2.0000      -0.502902       -13.6847
  24   2.0000      -0.478392       -13.0177
  25   2.0000      -0.468699       -12.7540
  26   2.0000      -0.439750       -11.9662
  27   2.0000      -0.427509       -11.6331
  28   2.0000      -0.395283       -10.7562
  29   2.0000      -0.391591       -10.6557
  30   0.0000       0.137927         3.7532
  31   0.0000       0.153135         4.1670
  32   0.0000       0.167850         4.5674
  33   0.0000       0.178496         4.8571
  34   0.0000       0.193916         5.2767

MULLIKEN ATOMIC CHARGES
-----------------------
   0 O :   -0.459053
   1 C :    0.139440
   2 C :   -0.252841
   3 C :   -0.091550
   4 C :   -0.260926
   5 C :   -0.110372
   6 C :   -0.240256
   7 C :   -0.113680
   8 H :    0.322855
   9 H :    0.117609
  10 H :    0.108531
  11 H :    0.130636
  12 H :    0.116895
  13 H :    0.114860
  14 H :    0.124087
  15 H :    0.111057
  16 H :    0.119236
  17 H :    0.123472
Sum of atomic charges:   -0.0000000

LOEWDIN ATOMIC CHARGES
----------------------
   0 O :    0.024347
   1 C :   -0.310720
   2 C :   -0.194985
   3 C :   -0.173094
   4 C :   -0.207361
   5 C :   -0.172149
   6 C :   -0.207098
   7 C :   -0.136628
   8 H :    0.182664
   9 H :    0.142116
  10 H :    0.122520
  11 H :    0.131190
  12 H :    0.134063
  13 H :    0.134124
  14 H :    0.128989
  15 H :    0.123333
  16 H :    0.142612
  17 H :    0.136079

  Mayer bond orders larger than 0.1
B(  0-O ,  1-C ) :   1.0341 B(  0-O ,  8-H ) :   0.8365 B(  1-C ,  2-C ) :   0.9600
B(  1-C ,  5-C ) :   0.8812 B(  1-C ,  7-C ) :   0.8824 B(  2-C ,  3-C ) :   0.8988
B(  2-C ,  9-H ) :   0.9198 B(  2-C , 10-H ) :   0.9167 B(  3-C ,  4-C ) :   0.9193
B(  3-C ,  7-C ) :   0.8858 B(  3-C , 11-H ) :   0.9167 B(  4-C ,  5-C ) :   0.9116
B(  4-C , 12-H ) :   0.9204 B(  4-C , 13-H ) :   0.9328 B(  5-C ,  6-C ) :   0.9185
B(  5-C , 14-H ) :   0.9131 B(  6-C ,  7-C ) :   0.9594 B(  6-C , 15-H ) :   0.9182
B(  6-C , 16-H ) :   0.9145 B(  7-C , 17-H ) :   0.9030

MP2 TOTAL ENERGY:     -347.175406555 Eh
FINAL SINGLE POINT ENERGY      -347.175406554994

DIPOLE MOMENT
-------------
                                X             Y             Z
Electronic contribution:     -0.32830       2.95886      -0.62527
Nuclear contribution   :      0.82121      -3.19430       0.72644
                        -----------------------------------------
Total Dipole Moment    :      0.49292      -0.23544       0.10117
                        -----------------------------------------
Magnitude (a.u.)       :      0.55555
Magnitude (Debye)      :      1.41209

                             ****ORCA TERMINATED NORMALLY****
TOTAL RUN TIME: 0 days 0 hours 14 minutes 42 seconds 608 msec
