                         Program Version 3.0.3 - RELEASE   -
|  1> ! RI-MP2 RIJK def2-TZVP def2-TZVP/C def2-TZVP/JK TIGHTSCF
|  2> % maxcore 2000
|  3> % mp2 density relaxed end
|  4> *xyz 0 1
|  5>  C        0.0495726639     1.5901753296    -0.0833012623
|  6>  C        0.0183437248     0.0589888273     0.0299243136
|  7>  C        0.5892829221    -0.5556398115    -1.2768511372
|  8>  C        1.2904609087    -1.9150928087    -1.1892127197
|  9>  O        2.6170319138    -1.8079464949    -0.6867241168
| 10>  C        2.7101380835    -1.6327637872     0.6973358335
| 11>  O        2.1380964263    -0.4497021080     1.1832969558
| 12>  C        0.7130337199    -0.4749675838     1.3049956713
| 13>  C        0.3494620918     0.2793051003     2.5806073096
| 14>  H        1.0822068764     1.9533049902    -0.0457654597
| 15>  H       -0.3826767113     1.9106508239    -1.0369017523
| 16>  H       -0.5147819736     2.0794269895     0.7151352216
| 17>  H       -1.0313653583    -0.2536127304     0.1222928971
| 18>  H       -0.2238717675    -0.6294103494    -2.0093441940
| 19>  H        1.3259292565     0.1338527163    -1.7046036681
| 20>  H        0.7119769388    -2.6433444069    -0.5975822425
| 21>  H        1.3982566903    -2.3284886949    -2.1967594923
| 22>  H        2.2578178092    -2.4988299459     1.2170937748
| 23>  H        3.7788180213    -1.5785237119     0.9189256937
| 24>  H        0.4019782495    -1.5233021624     1.4359720667
| 25>  H        0.7582514952     1.2927194859     2.5653081423
| 26>  H       -0.7365448729     0.3448304687     2.7015439758
| 27>  H        0.7643568015    -0.2376386459     3.4500185990
| 28> *
| 29>
| 30>                          ****END OF INPUT****

CARTESIAN COORDINATES (ANGSTROEM)
---------------------------------
  C      0.049573    1.590175   -0.083301
  C      0.018344    0.058989    0.029924
  C      0.589283   -0.555640   -1.276851
  C      1.290461   -1.915093   -1.189213
  O      2.617032   -1.807946   -0.686724
  C      2.710138   -1.632764    0.697336
  O      2.138096   -0.449702    1.183297
  C      0.713034   -0.474968    1.304996
  C      0.349462    0.279305    2.580607
  H      1.082207    1.953305   -0.045765
  H     -0.382677    1.910651   -1.036902
  H     -0.514782    2.079427    0.715135
  H     -1.031365   -0.253613    0.122293
  H     -0.223872   -0.629410   -2.009344
  H      1.325929    0.133853   -1.704604
  H      0.711977   -2.643344   -0.597582
  H      1.398257   -2.328489   -2.196759
  H      2.257818   -2.498830    1.217094
  H      3.778818   -1.578524    0.918926
  H      0.401978   -1.523302    1.435972
  H      0.758251    1.292719    2.565308
  H     -0.736545    0.344830    2.701544
  H      0.764357   -0.237639    3.450019

 Total Charge           Charge          ....    0
 Multiplicity           Mult            ....    1
 Number of Electrons    NEL             ....   72
 Basis Dimension        Dim             ....  363

ORBITAL ENERGIES
----------------

  NO   OCC          E(Eh)            E(eV)
   0   2.0000     -20.554499      -559.3164
   1   2.0000     -20.554280      -559.3104
   2   2.0000     -11.322362      -308.0971
   3   2.0000     -11.280995      -306.9715
   4   2.0000     -11.275849      -306.8315
   5   2.0000     -11.230211      -305.5896
   6   2.0000     -11.220529      -305.3261
   7   2.0000     -11.214632      -305.1656
   8   2.0000     -11.211079      -305.0690
   9   2.0000      -1.411346       -38.4047
  10   2.0000      -1.343884       -36.5689
  11   2.0000      -1.096349       -29.8332
  12   2.0000      -1.008351       -27.4386
  13   2.0000      -0.984183       -26.7810
  14   2.0000      -0.903534       -24.5864
  15   2.0000      -0.879367       -23.9288
  16   2.0000      -0.820196       -22.3187
  17   2.0000      -0.757206       -20.6046
  18   2.0000      -0.686480       -18.6801
  19   2.0000      -0.681550       -18.5459
  20   2.0000      -0.675623       -18.3846
  21   2.0000      -0.643165       -17.5014
  22   2.0000      -0.599204       -16.3052
  23   2.0000      -0.582478       -15.8500
  24   2.0000      -0.570855       -15.5338
  25   2.0000      -0.560835       -15.2611
  26   2.0000      -0.543597       -14.7920
  27   2.0000      -0.532084       -14.4787
  28   2.0000      -0.516899       -14.0655
  29   2.0000      -0.513497       -13.9730
  30   2.0000      -0.495915       -13.4945
  31   2.0000      -0.473715       -12.8904
  32   2.0000      -0.453284       -12.3345
  33   2.0000      -0.450040       -12.2462
  34   2.0000      -0.434402       -11.8207
  35   2.0000      -0.412740       -11.2312
  36   0.0000       0.133779         3.6403
  37   0.0000       0.153434         4.1752
  38   0.0000       0.157530         4.2866
  39   0.0000       0.175252         4.7688
  40   0.0000       0.194933         5.3044

MULLIKEN ATOMIC CHARGES
-----------------------
   0 C :   -0.466899
   1 C :   -0.024000
   2 C :   -0.241808
   3 C :   -0.054742
   4 O :   -0.300232
   5 C :    0.012175
   6 O :   -0.309074
   7 C :    0.099862
   8 C :   -0.402881
   9 H :    0.149893
  10 H :    0.136937
  11 H :    0.136389
  12 H :    0.088400
  13 H :    0.117539
  14 H :    0.116984
  15 H :    0.099314
  16 H :    0.132291
  17 H :    0.097589
  18 H :    0.125822
  19 H :    0.079206
  20 H :    0.144129
  21 H :    0.127680
  22 H :    0.135426
Sum of atomic charges:    0.0000000

LOEWDIN ATOMIC CHARGES
----------------------
   0 C :   -0.296018
   1 C :   -0.264502
   2 C :   -0.248645
   3 C :   -0.317089
   4 O :    0.156928
   5 C :   -0.416820
   6 O :    0.185985
   7 C :   -0.325823
   8 C :   -0.290823
   9 H :    0.129530
  10 H :    0.125137
  11 H :    0.120986
  12 H :    0.153177
  13 H :    0.141824
  14 H :    0.150042
  15 H :    0.119631
  16 H :    0.131700
  17 H :    0.104669
  18 H :    0.123348
  19 H :    0.136139
  20 H :    0.128696
  21 H :    0.126925
  22 H :    0.125003

  Mayer bond orders larger than 0.1
B(  0-C ,  1-C ) :   0.8822 B(  0-C ,  9-H ) :   0.9373 B(  0-C , 10-H ) :   0.9386
B(  0-C , 11-H ) :   0.9384 B(  1-C ,  2-C ) :   0.9151 B(  1-C ,  7-C ) :   0.9061
B(  1-C , 12-H ) :   0.9190 B(  2-C ,  3-C ) :   0.9249 B(  2-C , 13-H ) :   0.9222
B(  2-C , 14-H ) :   0.9143 B(  3-C ,  4-O ) :   0.9108 B(  3-C , 15-H ) :   0.9423
B(  3-C , 16-H ) :   0.9335 B(  4-O ,  5-C ) :   0.9917 B(  5-C ,  6-O ) :   0.9885
B(  5-C , 17-H ) :   0.9483 B(  5-C , 18-H ) :   0.9329 B(  6-O ,  7-C ) :   0.8824
B(  7-C ,  8-C ) :   0.9031 B(  7-C , 19-H ) :   0.9345 B(  8-C , 20-H ) :   0.9407
B(  8-C , 21-H ) :   0.9373 B(  8-C , 22-H ) :   0.9359

MP2 TOTAL ENERGY:     -424.731120762 Eh
FINAL SINGLE POINT ENERGY      -424.731120761578

DIPOLE MOMENT
-------------
                                X             Y             Z
Electronic contribution:      5.76549      -3.75299      -1.20243
Nuclear contribution   :     -6.54975       3.51048       1.32680
                        -----------------------------------------
Total Dipole Moment    :     -0.78427      -0.24250       0.12437
                        -----------------------------------------
Magnitude (a.u.)       :      0.83027
Magnitude (Debye)      :      2.11038

                             ****ORCA TERMINATED NORMALLY****
TOTAL RUN TIME: 0 days 0 hours 19 minutes 58 seconds 28 msec
