                         Program Version 3.0.3 - RELEASE   -
|  1> ! RI-MP2 RIJK def2-TZVP def2-TZVP/C def2-TZVP/JK TIGHTSCF
|  2> % maxcore 2000
|  3> % mp2 density relaxed end
|  4> *xyz 0 1
|  5>  C       -0.2575443220     1.5829965202    -0.0105233298
|  6>  C        0.0241052721     0.0910034031    -0.1281941939
|  7>  C        0.7328107651    -0.5160247732    -1.3493816780
|  8>  C        2.2477641824    -0.4172774880    -1.2398697821
|  9>  C        2.8688117538     0.5684176047    -0.2628703311
| 10>  O        2.2269077941     0.3147788092     0.9927126314
| 11>  C        1.1406809750    -0.5717323140     0.7519385031
| 12>  C        1.5229954450    -1.4642185429    -0.4533785219
| 13>  H       -0.9283366033     1.9143059136    -0.8112469202
| 14>  H       -0.7435996951     1.8112081814     0.9445100467
| 15>  H        0.6542150208     2.1813719356    -0.0647004802
| 16>  H       -0.9045372713    -0.4715026717     0.0297910786
| 17>  H        0.2682772721    -0.7345872382    -2.3049075259
| 18>  H        2.8126649468    -0.7107726827    -2.1172747086
| 19>  H        3.9467783460     0.3914536757    -0.1514231699
| 20>  H        2.7269556646     1.6163756965    -0.5567792853
| 21>  H        0.8466213192    -1.0176192629     1.7014743290
| 22>  H        1.6795500546    -2.5329909963    -0.4941151519
| 23> *
| 24>
| 25>                          ****END OF INPUT****

CARTESIAN COORDINATES (ANGSTROEM)
---------------------------------
  C     -0.257544    1.582997   -0.010523
  C      0.024105    0.091003   -0.128194
  C      0.732811   -0.516025   -1.349382
  C      2.247764   -0.417277   -1.239870
  C      2.868812    0.568418   -0.262870
  O      2.226908    0.314779    0.992713
  C      1.140681   -0.571732    0.751939
  C      1.522995   -1.464219   -0.453379
  H     -0.928337    1.914306   -0.811247
  H     -0.743600    1.811208    0.944510
  H      0.654215    2.181372   -0.064700
  H     -0.904537   -0.471503    0.029791
  H      0.268277   -0.734587   -2.304908
  H      2.812665   -0.710773   -2.117275
  H      3.946778    0.391454   -0.151423
  H      2.726956    1.616376   -0.556779
  H      0.846621   -1.017619    1.701474
  H      1.679550   -2.532991   -0.494115

 Total Charge           Charge          ....    0
 Multiplicity           Mult            ....    1
 Number of Electrons    NEL             ....   60
 Basis Dimension        Dim             ....  308

ORBITAL ENERGIES
----------------

  NO   OCC          E(Eh)            E(eV)
   0   2.0000     -20.546451      -559.0974
   1   2.0000     -11.279281      -306.9248
   2   2.0000     -11.271529      -306.7139
   3   2.0000     -11.237467      -305.7870
   4   2.0000     -11.236714      -305.7665
   5   2.0000     -11.230254      -305.5907
   6   2.0000     -11.229229      -305.5629
   7   2.0000     -11.207438      -304.9699
   8   2.0000      -1.375677       -37.4341
   9   2.0000      -1.182401       -32.1748
  10   2.0000      -1.032721       -28.1018
  11   2.0000      -0.970471       -26.4079
  12   2.0000      -0.864278       -23.5182
  13   2.0000      -0.856899       -23.3174
  14   2.0000      -0.782724       -21.2990
  15   2.0000      -0.720167       -19.5967
  16   2.0000      -0.707426       -19.2500
  17   2.0000      -0.650498       -17.7009
  18   2.0000      -0.620942       -16.8967
  19   2.0000      -0.582132       -15.8406
  20   2.0000      -0.571165       -15.5422
  21   2.0000      -0.564839       -15.3700
  22   2.0000      -0.547439       -14.8966
  23   2.0000      -0.516646       -14.0587
  24   2.0000      -0.498535       -13.5658
  25   2.0000      -0.489430       -13.3181
  26   2.0000      -0.447343       -12.1728
  27   2.0000      -0.417588       -11.3631
  28   2.0000      -0.388315       -10.5666
  29   2.0000      -0.377923       -10.2838
  30   0.0000       0.141975         3.8633
  31   0.0000       0.160692         4.3726
  32   0.0000       0.168978         4.5981
  33   0.0000       0.180939         4.9236
  34   0.0000       0.196463         5.3460

MULLIKEN ATOMIC CHARGES
-----------------------
   0 C :   -0.405917
   1 C :   -0.045222
   2 C :   -0.134157
   3 C :   -0.159946
   4 C :   -0.032820
   5 O :   -0.326532
   6 C :    0.087565
   7 C :   -0.195985
   8 H :    0.127327
   9 H :    0.127746
  10 H :    0.127248
  11 H :    0.095098
  12 H :    0.126485
  13 H :    0.131817
  14 H :    0.108597
  15 H :    0.097974
  16 H :    0.125164
  17 H :    0.145558
Sum of atomic charges:   -0.0000000

LOEWDIN ATOMIC CHARGES
----------------------
   0 C :   -0.295188
   1 C :   -0.223293
   2 C :   -0.143036
   3 C :   -0.190296
   4 C :   -0.272958
   5 O :    0.166877
   6 C :   -0.235102
   7 C :   -0.140591
   8 H :    0.124235
   9 H :    0.125951
  10 H :    0.124210
  11 H :    0.155538
  12 H :    0.135602
  13 H :    0.152758
  14 H :    0.125632
  15 H :    0.119397
  16 H :    0.135670
  17 H :    0.134594

  Mayer bond orders larger than 0.1
B(  0-C ,  1-C ) :   0.9064 B(  0-C ,  8-H ) :   0.9381 B(  0-C ,  9-H ) :   0.9342
B(  0-C , 10-H ) :   0.9360 B(  1-C ,  2-C ) :   0.9386 B(  1-C ,  6-C ) :   0.9121
B(  1-C , 11-H ) :   0.9217 B(  2-C ,  3-C ) :   0.8694 B(  2-C ,  7-C ) :   0.8426
B(  2-C , 12-H ) :   0.9243 B(  3-C ,  4-C ) :   0.9735 B(  3-C ,  7-C ) :   0.8636
B(  3-C , 13-H ) :   0.9259 B(  4-C ,  5-O ) :   0.9399 B(  4-C , 14-H ) :   0.9191
B(  4-C , 15-H ) :   0.9253 B(  5-O ,  6-C ) :   0.9609 B(  6-C ,  7-C ) :   0.9416
B(  6-C , 16-H ) :   0.9297 B(  7-C , 17-H ) :   0.9141

MP2 TOTAL ENERGY:     -347.170761667 Eh
FINAL SINGLE POINT ENERGY      -347.170761666549

DIPOLE MOMENT
-------------
                                X             Y             Z
Electronic contribution:      2.49482      -2.71826       1.27727
Nuclear contribution   :     -2.66175       2.40527      -1.84106
                        -----------------------------------------
Total Dipole Moment    :     -0.16693      -0.31299      -0.56379
                        -----------------------------------------
Magnitude (a.u.)       :      0.66610
Magnitude (Debye)      :      1.69309

                             ****ORCA TERMINATED NORMALLY****
TOTAL RUN TIME: 0 days 0 hours 13 minutes 59 seconds 646 msec
