                         Program Version 3.0.3 - RELEASE   -
|  1> ! RI-MP2 RIJK def2-TZVP def2-TZVP/C def2-TZVP/JK TIGHTSCF
|  2> % maxcore 2000
|  3> % mp2 density relaxed end
|  4> *xyz 0 1
|  5>  C        0.1119516604     1.0970813770     0.6167704064
|  6>  O       -0.1531418718     0.1834730420    -0.4349869281
|  7>  C       -1.3562329099    -0.4675198466    -0.2911275524
|  8>  C       -1.5071917254    -1.7895648859    -0.9569361910
|  9>  O       -0.4331831052    -2.2689896785    -1.6700740385
| 10>  C       -0.4337822007    -3.6820541252    -1.7900659998
| 11>  C       -1.4460514293    -1.7362886687     0.5859769047
| 12>  C       -0.2857508045    -2.2130075833     1.2695048142
| 13>  C        0.6724361900    -2.6251869501     1.8705155373
| 14>  H        1.0718701493     1.5661089940     0.3917489569
| 15>  H       -0.6631500546     1.8764256335     0.6732848448
| 16>  H        0.1750178899     0.5850018613     1.5845973093
| 17>  H       -2.2335593505     0.1829247566    -0.2623902987
| 18>  H       -2.4863412941    -2.0307914963    -1.3772726279
| 19>  H       -0.3675646716    -4.1665580400    -0.8083506526
| 20>  H       -1.3385794120    -4.0384334604    -2.3055161562
| 21>  H        0.4422341041    -3.9477426528    -2.3851034945
| 22>  H       -2.3890651894    -1.8896283627     1.1041900009
| 23>  H        1.5243977755    -2.9845189240     2.3917277152
| 24> *
| 25>
| 26>                          ****END OF INPUT****

CARTESIAN COORDINATES (ANGSTROEM)
---------------------------------
  C      0.111952    1.097081    0.616770
  O     -0.153142    0.183473   -0.434987
  C     -1.356233   -0.467520   -0.291128
  C     -1.507192   -1.789565   -0.956936
  O     -0.433183   -2.268990   -1.670074
  C     -0.433782   -3.682054   -1.790066
  C     -1.446051   -1.736289    0.585977
  C     -0.285751   -2.213008    1.269505
  C      0.672436   -2.625187    1.870516
  H      1.071870    1.566109    0.391749
  H     -0.663150    1.876426    0.673285
  H      0.175018    0.585002    1.584597
  H     -2.233559    0.182925   -0.262390
  H     -2.486341   -2.030791   -1.377273
  H     -0.367565   -4.166558   -0.808351
  H     -1.338579   -4.038433   -2.305516
  H      0.442234   -3.947743   -2.385103
  H     -2.389065   -1.889628    1.104190
  H      1.524398   -2.984519    2.391728

 Total Charge           Charge          ....    0
 Multiplicity           Mult            ....    1
 Number of Electrons    NEL             ....   68
 Basis Dimension        Dim             ....  339

ORBITAL ENERGIES
----------------

  NO   OCC          E(Eh)            E(eV)
   0   2.0000     -20.564113      -559.5780
   1   2.0000     -20.564108      -559.5778
   2   2.0000     -11.297277      -307.4145
   3   2.0000     -11.296527      -307.3941
   4   2.0000     -11.269887      -306.6692
   5   2.0000     -11.269884      -306.6691
   6   2.0000     -11.255049      -306.2655
   7   2.0000     -11.233453      -305.6778
   8   2.0000     -11.216817      -305.2251
   9   2.0000      -1.402212       -38.1561
  10   2.0000      -1.379286       -37.5323
  11   2.0000      -1.141138       -31.0520
  12   2.0000      -1.023307       -27.8456
  13   2.0000      -0.937433       -25.5088
  14   2.0000      -0.937017       -25.4975
  15   2.0000      -0.858063       -23.3491
  16   2.0000      -0.802794       -21.8451
  17   2.0000      -0.722635       -19.6639
  18   2.0000      -0.718606       -19.5543
  19   2.0000      -0.686366       -18.6770
  20   2.0000      -0.648426       -17.6446
  21   2.0000      -0.642473       -17.4826
  22   2.0000      -0.620671       -16.8893
  23   2.0000      -0.606185       -16.4951
  24   2.0000      -0.595595       -16.2070
  25   2.0000      -0.588213       -16.0061
  26   2.0000      -0.513780       -13.9807
  27   2.0000      -0.508245       -13.8301
  28   2.0000      -0.485152       -13.2017
  29   2.0000      -0.458576       -12.4785
  30   2.0000      -0.434525       -11.8240
  31   2.0000      -0.429521       -11.6878
  32   2.0000      -0.375284       -10.2120
  33   2.0000      -0.344529        -9.3751
  34   0.0000       0.138631         3.7723
  35   0.0000       0.158106         4.3023
  36   0.0000       0.159305         4.3349
  37   0.0000       0.172264         4.6875
  38   0.0000       0.174224         4.7409

MULLIKEN ATOMIC CHARGES
-----------------------
   0 C :   -0.220510
   1 O :   -0.279170
   2 C :    0.067024
   3 C :    0.067024
   4 O :   -0.279171
   5 C :   -0.220512
   6 C :   -0.302950
   7 C :   -0.005570
   8 C :   -0.139370
   9 H :    0.141539
  10 H :    0.111524
  11 H :    0.134413
  12 H :    0.106617
  13 H :    0.106611
  14 H :    0.134419
  15 H :    0.111524
  16 H :    0.141539
  17 H :    0.138997
  18 H :    0.186023
Sum of atomic charges:   -0.0000000

LOEWDIN ATOMIC CHARGES
----------------------
   0 C :   -0.334375
   1 O :    0.196932
   2 C :   -0.275206
   3 C :   -0.275208
   4 O :    0.196932
   5 C :   -0.334374
   6 C :   -0.186733
   7 C :   -0.101863
   8 C :   -0.100770
   9 H :    0.115216
  10 H :    0.102316
  11 H :    0.109980
  12 H :    0.136255
  13 H :    0.136255
  14 H :    0.109981
  15 H :    0.102315
  16 H :    0.115216
  17 H :    0.161454
  18 H :    0.125676

  Mayer bond orders larger than 0.1
B(  0-C ,  1-O ) :   0.8867 B(  0-C ,  9-H ) :   0.9396 B(  0-C , 10-H ) :   0.9345
B(  0-C , 11-H ) :   0.9339 B(  1-O ,  2-C ) :   1.0607 B(  2-C ,  3-C ) :   0.8645
B(  2-C ,  6-C ) :   0.8348 B(  2-C , 12-H ) :   0.9344 B(  3-C ,  4-O ) :   1.0607
B(  3-C ,  6-C ) :   0.8347 B(  3-C , 13-H ) :   0.9344 B(  4-O ,  5-C ) :   0.8867
B(  5-C , 14-H ) :   0.9339 B(  5-C , 15-H ) :   0.9345 B(  5-C , 16-H ) :   0.9396
B(  6-C ,  7-C ) :   1.2143 B(  6-C ,  8-C ) :  -0.1215 B(  6-C , 17-H ) :   0.9264
B(  7-C ,  8-C ) :   2.5476 B(  8-C , 18-H ) :   0.9064

MP2 TOTAL ENERGY:     -422.221796741 Eh
FINAL SINGLE POINT ENERGY      -422.221796741037

DIPOLE MOMENT
-------------
                                X             Y             Z
Electronic contribution:      0.33773       0.02773      -0.13197
Nuclear contribution   :     -0.91186      -0.12485       0.45534
                        -----------------------------------------
Total Dipole Moment    :     -0.57413      -0.09712       0.32337
                        -----------------------------------------
Magnitude (a.u.)       :      0.66605
Magnitude (Debye)      :      1.69297

                             ****ORCA TERMINATED NORMALLY****
TOTAL RUN TIME: 0 days 0 hours 18 minutes 1 seconds 190 msec
