                         Program Version 3.0.3 - RELEASE   -
|  1> ! RI-MP2 RIJK def2-TZVP def2-TZVP/C def2-TZVP/JK TIGHTSCF
|  2> % maxcore 2000
|  3> % mp2 density relaxed end
|  4> *xyz 0 1
|  5>  O       -0.1788046392     1.3638434263     0.0002541594
|  6>  C       -0.0113949120    -0.0518841723     0.0398964757
|  7>  C       -1.4153984287    -0.6334547995     0.0878051127
|  8>  O       -2.1748672649    -0.1799788773    -1.0339892161
|  9>  C       -1.4347013375    -2.1532560858     0.0191425666
| 10>  O       -0.9629792031    -2.7717363998     1.2336552615
| 11>  C       -2.2588835204    -3.3685469085     1.4901445924
| 12>  C       -2.8391656782    -2.7917629795     0.1854783895
| 13>  O       -3.9164995084    -1.9152441932     0.3895363986
| 14>  H        0.6682785158     1.7703688809    -0.2016398308
| 15>  H        0.5051205218    -0.4131048043    -0.8619154892
| 16>  H        0.5542075665    -0.3748388161     0.9242678301
| 17>  H       -1.8958296459    -0.3158184437     1.0237104289
| 18>  H       -1.9906861112     0.7653483482    -1.1086764103
| 19>  H       -0.8698949662    -2.4986526894    -0.8571906505
| 20>  H       -2.1947652110    -4.4599127439     1.5585292228
| 21>  H       -2.7330421778    -2.9639121665     2.3909682172
| 22>  H       -3.0699196999    -3.5457303759    -0.5780491611
| 23>  H       -3.8453337797    -1.2244165898    -0.2846508473
| 24> *
| 25>
| 26>                          ****END OF INPUT****

CARTESIAN COORDINATES (ANGSTROEM)
---------------------------------
  O     -0.178805    1.363843    0.000254
  C     -0.011395   -0.051884    0.039896
  C     -1.415398   -0.633455    0.087805
  O     -2.174867   -0.179979   -1.033989
  C     -1.434701   -2.153256    0.019143
  O     -0.962979   -2.771736    1.233655
  C     -2.258884   -3.368547    1.490145
  C     -2.839166   -2.791763    0.185478
  O     -3.916500   -1.915244    0.389536
  H      0.668279    1.770369   -0.201640
  H      0.505121   -0.413105   -0.861915
  H      0.554208   -0.374839    0.924268
  H     -1.895830   -0.315818    1.023710
  H     -1.990686    0.765348   -1.108676
  H     -0.869895   -2.498653   -0.857191
  H     -2.194765   -4.459913    1.558529
  H     -2.733042   -2.963912    2.390968
  H     -3.069920   -3.545730   -0.578049
  H     -3.845334   -1.224417   -0.284651

 Total Charge           Charge          ....    0
 Multiplicity           Mult            ....    1
 Number of Electrons    NEL             ....   72
 Basis Dimension        Dim             ....  339

ORBITAL ENERGIES
----------------

  NO   OCC          E(Eh)            E(eV)
   0   2.0000     -20.576679      -559.9199
   1   2.0000     -20.568252      -559.6906
   2   2.0000     -20.553781      -559.2968
   3   2.0000     -20.552202      -559.2539
   4   2.0000     -11.287968      -307.1612
   5   2.0000     -11.286317      -307.1163
   6   2.0000     -11.285656      -307.0983
   7   2.0000     -11.284843      -307.0762
   8   2.0000     -11.276864      -306.8591
   9   2.0000      -1.399367       -38.0787
  10   2.0000      -1.385849       -37.7109
  11   2.0000      -1.361851       -37.0578
  12   2.0000      -1.352279       -36.7974
  13   2.0000      -1.039829       -28.2952
  14   2.0000      -0.990026       -26.9400
  15   2.0000      -0.932367       -25.3710
  16   2.0000      -0.839761       -22.8511
  17   2.0000      -0.767246       -20.8778
  18   2.0000      -0.725773       -19.7493
  19   2.0000      -0.711667       -19.3654
  20   2.0000      -0.705228       -19.1902
  21   2.0000      -0.678683       -18.4679
  22   2.0000      -0.658080       -17.9073
  23   2.0000      -0.628858       -17.1121
  24   2.0000      -0.601393       -16.3647
  25   2.0000      -0.593472       -16.1492
  26   2.0000      -0.572832       -15.5875
  27   2.0000      -0.558742       -15.2041
  28   2.0000      -0.547921       -14.9097
  29   2.0000      -0.522505       -14.2181
  30   2.0000      -0.520256       -14.1569
  31   2.0000      -0.472857       -12.8671
  32   2.0000      -0.464498       -12.6396
  33   2.0000      -0.441419       -12.0116
  34   2.0000      -0.429861       -11.6971
  35   2.0000      -0.417744       -11.3674
  36   0.0000       0.124022         3.3748
  37   0.0000       0.155400         4.2286
  38   0.0000       0.161648         4.3987
  39   0.0000       0.172654         4.6981
  40   0.0000       0.180269         4.9054

MULLIKEN ATOMIC CHARGES
-----------------------
   0 O :   -0.491563
   1 C :   -0.105915
   2 C :    0.053997
   3 O :   -0.522212
   4 C :    0.106835
   5 O :   -0.347312
   6 C :   -0.031973
   7 C :    0.066456
   8 O :   -0.477681
   9 H :    0.327195
  10 H :    0.105355
  11 H :    0.125833
  12 H :    0.110855
  13 H :    0.342011
  14 H :    0.088870
  15 H :    0.101839
  16 H :    0.106250
  17 H :    0.099242
  18 H :    0.341919
Sum of atomic charges:    0.0000000

LOEWDIN ATOMIC CHARGES
----------------------
   0 O :   -0.056691
   1 C :   -0.327403
   2 C :   -0.341352
   3 O :   -0.025979
   4 C :   -0.256518
   5 O :    0.131058
   6 C :   -0.242388
   7 C :   -0.315298
   8 O :   -0.011934
   9 H :    0.176331
  10 H :    0.121017
  11 H :    0.128602
  12 H :    0.147434
  13 H :    0.183255
  14 H :    0.138476
  15 H :    0.117725
  16 H :    0.124233
  17 H :    0.128394
  18 H :    0.181036

  Mayer bond orders larger than 0.1
B(  0-O ,  1-C ) :   0.9814 B(  0-O ,  9-H ) :   0.8441 B(  1-C ,  2-C ) :   0.9281
B(  1-C , 10-H ) :   0.9217 B(  1-C , 11-H ) :   0.9327 B(  2-C ,  3-O ) :   0.8895
B(  2-C ,  4-C ) :   0.9051 B(  2-C , 12-H ) :   0.9158 B(  3-O , 13-H ) :   0.8187
B(  4-C ,  5-O ) :   0.9366 B(  4-C ,  7-C ) :   0.9465 B(  4-C , 14-H ) :   0.8953
B(  5-O ,  6-C ) :   0.9350 B(  6-C ,  7-C ) :   0.9492 B(  6-C , 15-H ) :   0.9177
B(  6-C , 16-H ) :   0.9046 B(  7-C ,  8-O ) :   1.0180 B(  7-C , 17-H ) :   0.9596
B(  8-O , 18-H ) :   0.8123

MP2 TOTAL ENERGY:     -496.515406511 Eh
FINAL SINGLE POINT ENERGY      -496.515406510524

DIPOLE MOMENT
-------------
                                X             Y             Z
Electronic contribution:     -1.01903       0.35997      -0.05265
Nuclear contribution   :      1.87004       0.00075      -0.45669
                        -----------------------------------------
Total Dipole Moment    :      0.85100       0.36072      -0.50934
                        -----------------------------------------
Magnitude (a.u.)       :      1.05535
Magnitude (Debye)      :      2.68248

                             ****ORCA TERMINATED NORMALLY****
TOTAL RUN TIME: 0 days 0 hours 14 minutes 19 seconds 257 msec
