                         Program Version 3.0.3 - RELEASE   -
|  1> ! RI-MP2 RIJK def2-TZVP def2-TZVP/C def2-TZVP/JK TIGHTSCF
|  2> % maxcore 2000
|  3> % mp2 density relaxed end
|  4> *xyz 0 1
|  5>  C       -0.1755389652     1.6116474180     0.0972357235
|  6>  C       -0.0001489809     0.0977372973     0.0287779068
|  7>  O        1.1213667423    -0.2912160829    -0.8254214619
|  8>  C        1.8557256382    -0.9404018680     0.2297858877
|  9>  C        0.7744959937    -0.5340464282     1.2307009765
| 10>  O        0.5981740653    -0.6115603533     2.4033730397
| 11>  C       -1.2251829904    -0.6046870513    -0.3149834098
| 12>  C       -2.2383900769    -1.1966653486    -0.5752731115
| 13>  H        0.7671245825     2.0896482123     0.3761608531
| 14>  H       -0.4903684445     1.9913756161    -0.8781427893
| 15>  H       -0.9389871521     1.8643081456     0.8376366487
| 16>  H        1.9539617482    -2.0235268279     0.0815354850
| 17>  H        2.8478318643    -0.5043247392     0.3984409086
| 18>  H       -3.1332715944    -1.7180843796    -0.8118669269
| 19> *
| 20>
| 21>                          ****END OF INPUT****

CARTESIAN COORDINATES (ANGSTROEM)
---------------------------------
  C     -0.175539    1.611647    0.097236
  C     -0.000149    0.097737    0.028778
  O      1.121367   -0.291216   -0.825421
  C      1.855726   -0.940402    0.229786
  C      0.774496   -0.534046    1.230701
  O      0.598174   -0.611560    2.403373
  C     -1.225183   -0.604687   -0.314983
  C     -2.238390   -1.196665   -0.575273
  H      0.767125    2.089648    0.376161
  H     -0.490368    1.991376   -0.878143
  H     -0.938987    1.864308    0.837637
  H      1.953962   -2.023527    0.081535
  H      2.847832   -0.504325    0.398441
  H     -3.133272   -1.718084   -0.811867

 Total Charge           Charge          ....    0
 Multiplicity           Mult            ....    1
 Number of Electrons    NEL             ....   58
 Basis Dimension        Dim             ....  284

ORBITAL ENERGIES
----------------

  NO   OCC          E(Eh)            E(eV)
   0   2.0000     -20.582220      -560.0707
   1   2.0000     -20.580627      -560.0273
   2   2.0000     -11.357790      -309.0612
   3   2.0000     -11.337889      -308.5196
   4   2.0000     -11.307661      -307.6971
   5   2.0000     -11.249637      -306.1182
   6   2.0000     -11.245100      -305.9947
   7   2.0000     -11.243700      -305.9566
   8   2.0000      -1.434559       -39.0363
   9   2.0000      -1.402298       -38.1585
  10   2.0000      -1.090064       -29.6621
  11   2.0000      -1.016163       -27.6512
  12   2.0000      -0.989330       -26.9211
  13   2.0000      -0.909985       -24.7620
  14   2.0000      -0.798149       -21.7188
  15   2.0000      -0.718921       -19.5628
  16   2.0000      -0.699965       -19.0470
  17   2.0000      -0.688256       -18.7284
  18   2.0000      -0.684416       -18.6239
  19   2.0000      -0.625700       -17.0262
  20   2.0000      -0.585025       -15.9193
  21   2.0000      -0.576194       -15.6790
  22   2.0000      -0.558710       -15.2033
  23   2.0000      -0.551153       -14.9976
  24   2.0000      -0.526654       -14.3310
  25   2.0000      -0.460279       -12.5248
  26   2.0000      -0.447533       -12.1780
  27   2.0000      -0.411715       -11.2033
  28   2.0000      -0.389423       -10.5967
  29   0.0000       0.112834         3.0704
  30   0.0000       0.135701         3.6926
  31   0.0000       0.143843         3.9142
  32   0.0000       0.156383         4.2554
  33   0.0000       0.162504         4.4220

MULLIKEN ATOMIC CHARGES
-----------------------
   0 C :   -0.389185
   1 C :    0.138423
   2 O :   -0.324167
   3 C :   -0.046739
   4 C :    0.121490
   5 O :   -0.224113
   6 C :   -0.079883
   7 C :   -0.095400
   8 H :    0.138139
   9 H :    0.150914
  10 H :    0.149546
  11 H :    0.131346
  12 H :    0.130042
  13 H :    0.199586
Sum of atomic charges:   -0.0000000

LOEWDIN ATOMIC CHARGES
----------------------
   0 C :   -0.241011
   1 C :   -0.304885
   2 O :    0.172276
   3 C :   -0.242505
   4 C :   -0.266285
   5 O :    0.197186
   6 C :   -0.061117
   7 C :   -0.062333
   8 H :    0.132308
   9 H :    0.138190
  10 H :    0.140147
  11 H :    0.135210
  12 H :    0.132180
  13 H :    0.130640

  Mayer bond orders larger than 0.1
B(  0-C ,  1-C ) :   0.9093 B(  0-C ,  8-H ) :   0.9253 B(  0-C ,  9-H ) :   0.9308
B(  0-C , 10-H ) :   0.9257 B(  1-C ,  2-O ) :   0.9112 B(  1-C ,  4-C ) :   0.8090
B(  1-C ,  6-C ) :   1.2238 B(  1-C ,  7-C ) :  -0.1167 B(  2-O ,  3-C ) :   0.9550
B(  3-C ,  4-C ) :   0.9567 B(  3-C , 11-H ) :   0.8955 B(  3-C , 12-H ) :   0.9003
B(  4-C ,  5-O ) :   2.0763 B(  6-C ,  7-C ) :   2.5677 B(  7-C , 13-H ) :   0.8845

MP2 TOTAL ENERGY:     -381.849889044 Eh
FINAL SINGLE POINT ENERGY      -381.849889043791

DIPOLE MOMENT
-------------
                                X             Y             Z
Electronic contribution:     -0.10788      -3.11994       1.45582
Nuclear contribution   :      0.12642       3.20206      -1.70045
                        -----------------------------------------
Total Dipole Moment    :      0.01854       0.08212      -0.24463
                        -----------------------------------------
Magnitude (a.u.)       :      0.25871
Magnitude (Debye)      :      0.65758

                             ****ORCA TERMINATED NORMALLY****
TOTAL RUN TIME: 0 days 0 hours 11 minutes 19 seconds 696 msec
