                         Program Version 3.0.3 - RELEASE   -
|  1> ! RI-MP2 RIJK def2-TZVP def2-TZVP/C def2-TZVP/JK TIGHTSCF
|  2> % maxcore 2000
|  3> % mp2 density relaxed end
|  4> *xyz 0 1
|  5>  O       -0.4926580449     1.0536181764     0.1947428024
|  6>  C        0.0231511462    -0.2686068236    -0.0096045743
|  7>  C        0.7859684573    -0.3747816260    -1.2492434827
|  8>  C        1.3869504846    -0.3978120738    -2.2884298156
|  9>  C        0.8025938817    -0.7180226250     1.2134706995
| 10>  N        1.8949576329    -1.3776956685     1.1992063270
| 11>  C        2.2243686121    -1.6384664183     2.6136081588
| 12>  C        1.2806601184    -0.7228260779     3.4428244611
| 13>  N        0.2344563420    -0.4420419597     2.4507531787
| 14>  H        0.2211456823     1.6689336543    -0.0096517598
| 15>  H       -0.8715808829    -0.9017450993    -0.0759131647
| 16>  H        1.9299415551    -0.4400148623    -3.2002704624
| 17>  H        2.0406977861    -2.6985773932     2.8316104115
| 18>  H        3.2835096676    -1.4467215238     2.8058652459
| 19>  H        0.8724528545    -1.2145610655     4.3296314983
| 20>  H        1.7883730405     0.1978838346     3.7636792127
| 21>  H       -0.2885072236     0.4198178716     2.5145845537
| 22> *
| 23>
| 24>                          ****END OF INPUT****

CARTESIAN COORDINATES (ANGSTROEM)
---------------------------------
  O     -0.492658    1.053618    0.194743
  C      0.023151   -0.268607   -0.009605
  C      0.785968   -0.374782   -1.249243
  C      1.386950   -0.397812   -2.288430
  C      0.802594   -0.718023    1.213471
  N      1.894958   -1.377696    1.199206
  C      2.224369   -1.638466    2.613608
  C      1.280660   -0.722826    3.442824
  N      0.234456   -0.442042    2.450753
  H      0.221146    1.668934   -0.009652
  H     -0.871581   -0.901745   -0.075913
  H      1.929942   -0.440015   -3.200270
  H      2.040698   -2.698577    2.831610
  H      3.283510   -1.446722    2.805865
  H      0.872453   -1.214561    4.329631
  H      1.788373    0.197884    3.763679
  H     -0.288507    0.419818    2.514585

 Total Charge           Charge          ....    0
 Multiplicity           Mult            ....    1
 Number of Electrons    NEL             ....   66
 Basis Dimension        Dim             ....  327

ORBITAL ENERGIES
----------------

  NO   OCC          E(Eh)            E(eV)
   0   2.0000     -20.583842      -560.1148
   1   2.0000     -15.570508      -423.6951
   2   2.0000     -15.536400      -422.7669
   3   2.0000     -11.330387      -308.3155
   4   2.0000     -11.308772      -307.7273
   5   2.0000     -11.264457      -306.5214
   6   2.0000     -11.251999      -306.1825
   7   2.0000     -11.240150      -305.8600
   8   2.0000     -11.234140      -305.6965
   9   2.0000      -1.390744       -37.8441
  10   2.0000      -1.301200       -35.4074
  11   2.0000      -1.150411       -31.3043
  12   2.0000      -1.068098       -29.0644
  13   2.0000      -1.014663       -27.6104
  14   2.0000      -0.947411       -25.7804
  15   2.0000      -0.842268       -22.9193
  16   2.0000      -0.777889       -21.1674
  17   2.0000      -0.749882       -20.4053
  18   2.0000      -0.730647       -19.8819
  19   2.0000      -0.697678       -18.9848
  20   2.0000      -0.665633       -18.1128
  21   2.0000      -0.637366       -17.3436
  22   2.0000      -0.597548       -16.2601
  23   2.0000      -0.578215       -15.7340
  24   2.0000      -0.551285       -15.0012
  25   2.0000      -0.548937       -14.9373
  26   2.0000      -0.532220       -14.4824
  27   2.0000      -0.489866       -13.3299
  28   2.0000      -0.479438       -13.0462
  29   2.0000      -0.422570       -11.4987
  30   2.0000      -0.401776       -10.9329
  31   2.0000      -0.397291       -10.8108
  32   2.0000      -0.348087        -9.4719
  33   0.0000       0.119554         3.2532
  34   0.0000       0.146999         4.0000
  35   0.0000       0.162988         4.4351
  36   0.0000       0.165116         4.4930
  37   0.0000       0.173897         4.7320

MULLIKEN ATOMIC CHARGES
-----------------------
   0 O :   -0.474087
   1 C :    0.107294
   2 C :   -0.068345
   3 C :   -0.153345
   4 C :    0.037400
   5 N :   -0.236404
   6 C :   -0.099191
   7 C :   -0.142349
   8 N :   -0.334850
   9 H :    0.325168
  10 H :    0.131331
  11 H :    0.195902
  12 H :    0.109643
  13 H :    0.123926
  14 H :    0.125956
  15 H :    0.106485
  16 H :    0.245467
Sum of atomic charges:    0.0000000

LOEWDIN ATOMIC CHARGES
----------------------
   0 O :   -0.012016
   1 C :   -0.287475
   2 C :   -0.083694
   3 C :   -0.071648
   4 C :   -0.337045
   5 N :    0.092492
   6 C :   -0.271636
   7 C :   -0.271811
   8 N :    0.069171
   9 H :    0.183042
  10 H :    0.174222
  11 H :    0.129044
  12 H :    0.130837
  13 H :    0.128404
  14 H :    0.126545
  15 H :    0.121278
  16 H :    0.180290

  Mayer bond orders larger than 0.1
B(  0-O ,  1-C ) :   0.8453 B(  0-O ,  9-H ) :   0.8381 B(  1-C ,  2-C ) :   1.1987
B(  1-C ,  4-C ) :   0.9191 B(  1-C , 10-H ) :   0.8695 B(  2-C ,  3-C ) :   2.5841
B(  3-C , 11-H ) :   0.8900 B(  4-C ,  5-N ) :   1.9105 B(  4-C ,  8-N ) :   1.1168
B(  5-N ,  6-C ) :   0.9075 B(  6-C ,  7-C ) :   0.9406 B(  6-C , 12-H ) :   0.9182
B(  6-C , 13-H ) :   0.9317 B(  7-C ,  8-N ) :   0.9249 B(  7-C , 14-H ) :   0.9251
B(  7-C , 15-H ) :   0.9293 B(  8-N , 16-H ) :   0.8585

MP2 TOTAL ENERGY:     -417.262947831 Eh
FINAL SINGLE POINT ENERGY      -417.262947830766

DIPOLE MOMENT
-------------
                                X             Y             Z
Electronic contribution:     -1.66064       0.86726      -4.83183
Nuclear contribution   :      1.80641      -0.34038       5.38577
                        -----------------------------------------
Total Dipole Moment    :      0.14578       0.52688       0.55394
                        -----------------------------------------
Magnitude (a.u.)       :      0.77827
Magnitude (Debye)      :      1.97821

                             ****ORCA TERMINATED NORMALLY****
TOTAL RUN TIME: 0 days 0 hours 16 minutes 55 seconds 91 msec
