                         Program Version 3.0.3 - RELEASE   -
|  1> ! RI-MP2 RIJK def2-TZVP def2-TZVP/C def2-TZVP/JK TIGHTSCF
|  2> % maxcore 2000
|  3> % mp2 density relaxed end
|  4> *xyz 0 1
|  5>  C        0.0874545189     1.5362908572     0.1927281723
|  6>  C       -0.0880116473     0.0299807577    -0.0376090995
|  7>  C        0.6648858912    -0.4894005236    -1.2407831751
|  8>  C        2.2285488245    -0.3769288184    -1.4335926870
|  9>  C        1.9314088696    -1.4441661093    -2.5052840427
| 10>  C        0.8648632544    -2.0234577572    -1.5553198718
| 11>  O        1.1179613945    -0.7013229287    -3.4651718799
| 12>  C        0.2401354705    -0.0469299085    -2.6275030494
| 13>  N       -0.6969076031     0.7242979285    -2.9659573200
| 14>  H        1.1406383673     1.7940975223     0.3500540798
| 15>  H       -0.2807844457     2.1003815529    -0.6670514755
| 16>  H       -0.4678610345     1.8571510273     1.0790364106
| 17>  H        0.2439029984    -0.5242019762     0.8492531753
| 18>  H       -1.1522320032    -0.1974976456    -0.1717813132
| 19>  H        2.6447499717     0.5730623648    -1.7750606748
| 20>  H        2.7791605082    -0.7638509519    -0.5738001174
| 21>  H        2.6798901037    -2.0231631267    -3.0408480565
| 22>  H        1.2833469407    -2.5659605300    -0.7053048883
| 23>  H        0.0355519316    -2.5728236352    -2.0064213994
| 24>  H       -0.7404214613     0.8175014907    -3.9826250275
| 25> *
| 26>
| 27>                          ****END OF INPUT****

CARTESIAN COORDINATES (ANGSTROEM)
---------------------------------
  C      0.087455    1.536291    0.192728
  C     -0.088012    0.029981   -0.037609
  C      0.664886   -0.489401   -1.240783
  C      2.228549   -0.376929   -1.433593
  C      1.931409   -1.444166   -2.505284
  C      0.864863   -2.023458   -1.555320
  O      1.117961   -0.701323   -3.465172
  C      0.240135   -0.046930   -2.627503
  N     -0.696908    0.724298   -2.965957
  H      1.140638    1.794098    0.350054
  H     -0.280784    2.100382   -0.667051
  H     -0.467861    1.857151    1.079036
  H      0.243903   -0.524202    0.849253
  H     -1.152232   -0.197498   -0.171781
  H      2.644750    0.573062   -1.775061
  H      2.779161   -0.763851   -0.573800
  H      2.679890   -2.023163   -3.040848
  H      1.283347   -2.565961   -0.705305
  H      0.035552   -2.572824   -2.006421
  H     -0.740421    0.817501   -3.982625

 Total Charge           Charge          ....    0
 Multiplicity           Mult            ....    1
 Number of Electrons    NEL             ....   68
 Basis Dimension        Dim             ....  345

ORBITAL ENERGIES
----------------

  NO   OCC          E(Eh)            E(eV)
   0   2.0000     -20.586196      -560.1789
   1   2.0000     -15.529577      -422.5813
   2   2.0000     -11.330056      -308.3065
   3   2.0000     -11.305736      -307.6447
   4   2.0000     -11.261725      -306.4471
   5   2.0000     -11.245320      -306.0007
   6   2.0000     -11.245194      -305.9973
   7   2.0000     -11.226275      -305.4825
   8   2.0000     -11.208794      -305.0068
   9   2.0000      -1.430376       -38.9225
  10   2.0000      -1.191177       -32.4136
  11   2.0000      -1.153638       -31.3921
  12   2.0000      -1.033910       -28.1341
  13   2.0000      -0.933184       -25.3932
  14   2.0000      -0.925169       -25.1751
  15   2.0000      -0.849580       -23.1182
  16   2.0000      -0.807779       -21.9808
  17   2.0000      -0.717017       -19.5110
  18   2.0000      -0.703125       -19.1330
  19   2.0000      -0.664466       -18.0810
  20   2.0000      -0.637785       -17.3550
  21   2.0000      -0.627002       -17.0616
  22   2.0000      -0.607466       -16.5300
  23   2.0000      -0.570717       -15.5300
  24   2.0000      -0.545420       -14.8416
  25   2.0000      -0.537121       -14.6158
  26   2.0000      -0.529769       -14.4157
  27   2.0000      -0.509524       -13.8649
  28   2.0000      -0.489443       -13.3184
  29   2.0000      -0.481783       -13.1100
  30   2.0000      -0.452852       -12.3227
  31   2.0000      -0.450009       -12.2454
  32   2.0000      -0.417825       -11.3696
  33   2.0000      -0.390006       -10.6126
  34   0.0000       0.134038         3.6474
  35   0.0000       0.155195         4.2231
  36   0.0000       0.162614         4.4249
  37   0.0000       0.173032         4.7084
  38   0.0000       0.181355         4.9349

MULLIKEN ATOMIC CHARGES
-----------------------
   0 C :   -0.422812
   1 C :   -0.164476
   2 C :    0.058729
   3 C :   -0.269091
   4 C :    0.052892
   5 C :   -0.231840
   6 O :   -0.273495
   7 C :    0.097991
   8 N :   -0.387969
   9 H :    0.118427
  10 H :    0.164360
  11 H :    0.132395
  12 H :    0.107262
  13 H :    0.121408
  14 H :    0.136752
  15 H :    0.131817
  16 H :    0.140607
  17 H :    0.130646
  18 H :    0.132844
  19 H :    0.223554
Sum of atomic charges:   -0.0000000

LOEWDIN ATOMIC CHARGES
----------------------
   0 C :   -0.308270
   1 C :   -0.247952
   2 C :   -0.206134
   3 C :   -0.168448
   4 C :   -0.236525
   5 C :   -0.165602
   6 O :    0.233675
   7 C :   -0.364468
   8 N :   -0.053221
   9 H :    0.119159
  10 H :    0.129909
  11 H :    0.121240
  12 H :    0.139993
  13 H :    0.150637
  14 H :    0.135585
  15 H :    0.142252
  16 H :    0.131009
  17 H :    0.141642
  18 H :    0.135561
  19 H :    0.169960

  Mayer bond orders larger than 0.1
B(  0-C ,  1-C ) :   0.9234 B(  0-C ,  9-H ) :   0.9363 B(  0-C , 10-H ) :   0.9327
B(  0-C , 11-H ) :   0.9389 B(  1-C ,  2-C ) :   0.8991 B(  1-C , 12-H ) :   0.9292
B(  1-C , 13-H ) :   0.9241 B(  2-C ,  3-C ) :   0.8821 B(  2-C ,  5-C ) :   0.8709
B(  2-C ,  7-C ) :   0.9339 B(  3-C ,  4-C ) :   0.9303 B(  3-C , 14-H ) :   0.9160
B(  3-C , 15-H ) :   0.9327 B(  4-C ,  5-C ) :   0.9369 B(  4-C ,  6-O ) :   0.8552
B(  4-C , 16-H ) :   0.9228 B(  5-C , 17-H ) :   0.9324 B(  5-C , 18-H ) :   0.9137
B(  6-O ,  7-C ) :   1.0909 B(  7-C ,  8-N ) :   2.0287 B(  8-N , 19-H ) :   0.8497

MP2 TOTAL ENERGY:     -402.461657079 Eh
FINAL SINGLE POINT ENERGY      -402.461657078929

DIPOLE MOMENT
-------------
                                X             Y             Z
Electronic contribution:      0.30421      -2.24258      -7.49330
Nuclear contribution   :      0.43952       1.58825       7.97971
                        -----------------------------------------
Total Dipole Moment    :      0.74372      -0.65433       0.48641
                        -----------------------------------------
Magnitude (a.u.)       :      1.10357
Magnitude (Debye)      :      2.80505

                             ****ORCA TERMINATED NORMALLY****
TOTAL RUN TIME: 0 days 0 hours 20 minutes 0 seconds 14 msec
