                         Program Version 3.0.3 - RELEASE   -
|  1> ! RI-MP2 RIJK def2-TZVP def2-TZVP/C def2-TZVP/JK TIGHTSCF
|  2> % maxcore 2000
|  3> % mp2 density relaxed end
|  4> *xyz 0 1
|  5>  C       -0.1223601357     1.4843104165    -0.2118598028
|  6>  C        0.1337407824    -0.0037521045    -0.1088628079
|  7>  C        1.4098852429    -0.6986027073    -0.4531767176
|  8>  C        2.6363966488     0.0678649830     0.0633584545
|  9>  N        2.1313722334    -0.0410720779     1.4481480213
| 10>  C        2.1319848684     1.0657865535     2.3831881709
| 11>  C        0.9152946156    -0.6966422071     1.0176812096
| 12>  C        0.2846301655    -1.7660301483     1.8038584295
| 13>  O        0.5500229149    -2.0183507308     2.9550651281
| 14>  H        0.7711419407     2.0780127513    -0.0142316905
| 15>  H       -0.4681326529     1.7349042753    -1.2210621016
| 16>  H       -0.8960045060     1.7998590388     0.4951208988
| 17>  H       -0.7287900916    -0.6058706223    -0.3951374137
| 18>  H        1.4534792725    -1.5520620508    -1.1174464083
| 19>  H        3.5839797974    -0.4633021871    -0.0770230127
| 20>  H        2.7466579255     1.0896553448    -0.3244378054
| 21>  H        1.6321597921     1.9810305034     2.0253480001
| 22>  H        1.6369279148     0.7375837380     3.3010837144
| 23>  H        3.1664593058     1.3224206407     2.6358066634
| 24>  H       -0.5020832247    -2.3298471293     1.2492834901
| 25> *
| 26>
| 27>                          ****END OF INPUT****

CARTESIAN COORDINATES (ANGSTROEM)
---------------------------------
  C     -0.122360    1.484310   -0.211860
  C      0.133741   -0.003752   -0.108863
  C      1.409885   -0.698603   -0.453177
  C      2.636397    0.067865    0.063358
  N      2.131372   -0.041072    1.448148
  C      2.131985    1.065787    2.383188
  C      0.915295   -0.696642    1.017681
  C      0.284630   -1.766030    1.803858
  O      0.550023   -2.018351    2.955065
  H      0.771142    2.078013   -0.014232
  H     -0.468133    1.734904   -1.221062
  H     -0.896005    1.799859    0.495121
  H     -0.728790   -0.605871   -0.395137
  H      1.453479   -1.552062   -1.117446
  H      3.583980   -0.463302   -0.077023
  H      2.746658    1.089655   -0.324438
  H      1.632160    1.981031    2.025348
  H      1.636928    0.737584    3.301084
  H      3.166459    1.322421    2.635807
  H     -0.502083   -2.329847    1.249283

 Total Charge           Charge          ....    0
 Multiplicity           Mult            ....    1
 Number of Electrons    NEL             ....   68
 Basis Dimension        Dim             ....  345

ORBITAL ENERGIES
----------------

  NO   OCC          E(Eh)            E(eV)
   0   2.0000     -20.544858      -559.0540
   1   2.0000     -15.554002      -423.2459
   2   2.0000     -11.326310      -308.2046
   3   2.0000     -11.276355      -306.8452
   4   2.0000     -11.267046      -306.5919
   5   2.0000     -11.260279      -306.4078
   6   2.0000     -11.256877      -306.3152
   7   2.0000     -11.242003      -305.9105
   8   2.0000     -11.231773      -305.6321
   9   2.0000      -1.384230       -37.6668
  10   2.0000      -1.281290       -34.8657
  11   2.0000      -1.115621       -30.3576
  12   2.0000      -0.999857       -27.2075
  13   2.0000      -0.973301       -26.4849
  14   2.0000      -0.908770       -24.7289
  15   2.0000      -0.851915       -23.1818
  16   2.0000      -0.779668       -21.2158
  17   2.0000      -0.730425       -19.8759
  18   2.0000      -0.707122       -19.2418
  19   2.0000      -0.653621       -17.7859
  20   2.0000      -0.643388       -17.5075
  21   2.0000      -0.617186       -16.7945
  22   2.0000      -0.594892       -16.1878
  23   2.0000      -0.590851       -16.0779
  24   2.0000      -0.571154       -15.5419
  25   2.0000      -0.559956       -15.2372
  26   2.0000      -0.537048       -14.6138
  27   2.0000      -0.526687       -14.3319
  28   2.0000      -0.514420       -13.9981
  29   2.0000      -0.488970       -13.3055
  30   2.0000      -0.459695       -12.5089
  31   2.0000      -0.421340       -11.4653
  32   2.0000      -0.393553       -10.7091
  33   2.0000      -0.342574        -9.3219
  34   0.0000       0.126245         3.4353
  35   0.0000       0.132356         3.6016
  36   0.0000       0.148522         4.0415
  37   0.0000       0.169325         4.6076
  38   0.0000       0.175167         4.7665

MULLIKEN ATOMIC CHARGES
-----------------------
   0 C :   -0.389606
   1 C :   -0.140557
   2 C :   -0.139481
   3 C :   -0.175037
   4 N :   -0.150345
   5 C :   -0.316697
   6 C :    0.176927
   7 C :    0.018300
   8 O :   -0.274659
   9 H :    0.131409
  10 H :    0.141148
  11 H :    0.142557
  12 H :    0.127290
  13 H :    0.147232
  14 H :    0.123613
  15 H :    0.117234
  16 H :    0.095651
  17 H :    0.159818
  18 H :    0.137291
  19 H :    0.067913
Sum of atomic charges:   -0.0000000

LOEWDIN ATOMIC CHARGES
----------------------
   0 C :   -0.286516
   1 C :   -0.192242
   2 C :   -0.131903
   3 C :   -0.216576
   4 N :    0.132176
   5 C :   -0.326849
   6 C :   -0.226200
   7 C :   -0.281891
   8 O :    0.128364
   9 H :    0.123162
  10 H :    0.129617
  11 H :    0.129475
  12 H :    0.161881
  13 H :    0.141066
  14 H :    0.129930
  15 H :    0.122772
  16 H :    0.100435
  17 H :    0.128283
  18 H :    0.119161
  19 H :    0.115857

  Mayer bond orders larger than 0.1
B(  0-C ,  1-C ) :   0.8913 B(  0-C ,  9-H ) :   0.9402 B(  0-C , 10-H ) :   0.9344
B(  0-C , 11-H ) :   0.9371 B(  1-C ,  2-C ) :   0.8773 B(  1-C ,  6-C ) :   0.8106
B(  1-C , 12-H ) :   0.9252 B(  2-C ,  3-C ) :   0.9317 B(  2-C ,  6-C ) :   0.7769
B(  2-C , 13-H ) :   0.9078 B(  3-C ,  4-N ) :   0.9539 B(  3-C , 14-H ) :   0.9151
B(  3-C , 15-H ) :   0.9203 B(  4-N ,  5-C ) :   0.8884 B(  4-N ,  6-C ) :   0.9982
B(  5-C , 16-H ) :   0.9222 B(  5-C , 17-H ) :   0.9345 B(  5-C , 18-H ) :   0.9381
B(  6-C ,  7-C ) :   0.8696 B(  7-C ,  8-O ) :   2.0195 B(  7-C , 19-H ) :   0.9680

MP2 TOTAL ENERGY:     -402.412261447 Eh
FINAL SINGLE POINT ENERGY      -402.412261446843

DIPOLE MOMENT
-------------
                                X             Y             Z
Electronic contribution:     -0.25213      -7.44961       3.12311
Nuclear contribution   :      0.09191       8.17978      -4.38289
                        -----------------------------------------
Total Dipole Moment    :     -0.16022       0.73017      -1.25978
                        -----------------------------------------
Magnitude (a.u.)       :      1.46488
Magnitude (Debye)      :      3.72342

                             ****ORCA TERMINATED NORMALLY****
TOTAL RUN TIME: 0 days 0 hours 19 minutes 26 seconds 880 msec
