                         Program Version 3.0.3 - RELEASE   -
|  1> ! RI-MP2 RIJK def2-TZVP def2-TZVP/C def2-TZVP/JK TIGHTSCF
|  2> % maxcore 2000
|  3> % mp2 density relaxed end
|  4> *xyz 0 1
|  5>  O       -0.0691765585     1.3555120901    -0.0217650738
|  6>  C        0.0212385590    -0.0520423519     0.0319907302
|  7>  C        0.3685557735    -0.7653676702    -1.3109790190
|  8>  C       -0.9974197415    -1.5188885620    -1.2576618010
|  9>  C       -1.3534544312    -0.7932170177     0.0728653410
| 10>  C       -1.1922553458    -1.5384264099     1.4127765711
| 11>  C        0.2633482003    -2.0891355112     1.3466357853
| 12>  C        0.6307032811    -0.5797390988     1.3479418303
| 13>  C       -0.5919921080    -0.4014788500     2.3033673448
| 14>  H        0.8264490506     1.7112377181    -0.0139413699
| 15>  H        0.4361806199    -0.0501867221    -2.1336570307
| 16>  H        1.2667640080    -1.3893608984    -1.3103774649
| 17>  H       -1.6668908373    -1.2754056641    -2.0851880431
| 18>  H       -0.9289833158    -2.6074148257    -1.1871492164
| 19>  H       -2.2386315087    -0.1556752419     0.0407185513
| 20>  H       -2.0207061557    -2.1621366894     1.7513091706
| 21>  H        0.5568411278    -2.5769893876     2.2790026264
| 22>  H        0.5642158614    -2.7133702332     0.5023791214
| 23>  H        1.6342638406    -0.2326886971     1.6062556791
| 24>  H       -1.0888052755     0.5711943694     2.3044294703
| 25>  H       -0.3826584642    -0.7319909563     3.3232706070
| 26> *
| 27>
| 28>                          ****END OF INPUT****

CARTESIAN COORDINATES (ANGSTROEM)
---------------------------------
  O     -0.069177    1.355512   -0.021765
  C      0.021239   -0.052042    0.031991
  C      0.368556   -0.765368   -1.310979
  C     -0.997420   -1.518889   -1.257662
  C     -1.353454   -0.793217    0.072865
  C     -1.192255   -1.538426    1.412777
  C      0.263348   -2.089136    1.346636
  C      0.630703   -0.579739    1.347942
  C     -0.591992   -0.401479    2.303367
  H      0.826449    1.711238   -0.013941
  H      0.436181   -0.050187   -2.133657
  H      1.266764   -1.389361   -1.310377
  H     -1.666891   -1.275406   -2.085188
  H     -0.928983   -2.607415   -1.187149
  H     -2.238632   -0.155675    0.040719
  H     -2.020706   -2.162137    1.751309
  H      0.556841   -2.576989    2.279003
  H      0.564216   -2.713370    0.502379
  H      1.634264   -0.232689    1.606256
  H     -1.088805    0.571194    2.304429
  H     -0.382658   -0.731991    3.323271

 Total Charge           Charge          ....    0
 Multiplicity           Mult            ....    1
 Number of Electrons    NEL             ....   68
 Basis Dimension        Dim             ....  351

ORBITAL ENERGIES
----------------

  NO   OCC          E(Eh)            E(eV)
   0   2.0000     -20.552092      -559.2509
   1   2.0000     -11.274432      -306.7929
   2   2.0000     -11.229634      -305.5739
   3   2.0000     -11.229419      -305.5680
   4   2.0000     -11.221513      -305.3529
   5   2.0000     -11.218889      -305.2815
   6   2.0000     -11.216855      -305.2262
   7   2.0000     -11.216336      -305.2120
   8   2.0000     -11.215451      -305.1879
   9   2.0000      -1.361348       -37.0442
  10   2.0000      -1.186668       -32.2909
  11   2.0000      -1.073422       -29.2093
  12   2.0000      -0.938844       -25.5473
  13   2.0000      -0.906401       -24.6644
  14   2.0000      -0.879283       -23.9265
  15   2.0000      -0.838940       -22.8287
  16   2.0000      -0.751753       -20.4562
  17   2.0000      -0.712331       -19.3835
  18   2.0000      -0.685860       -18.6632
  19   2.0000      -0.661638       -18.0041
  20   2.0000      -0.651119       -17.7178
  21   2.0000      -0.606527       -16.5044
  22   2.0000      -0.573807       -15.6141
  23   2.0000      -0.560399       -15.2492
  24   2.0000      -0.534558       -14.5461
  25   2.0000      -0.525162       -14.2904
  26   2.0000      -0.489196       -13.3117
  27   2.0000      -0.482460       -13.1284
  28   2.0000      -0.466574       -12.6961
  29   2.0000      -0.454533       -12.3685
  30   2.0000      -0.439846       -11.9688
  31   2.0000      -0.424937       -11.5631
  32   2.0000      -0.401410       -10.9229
  33   2.0000      -0.396756       -10.7963
  34   0.0000       0.138908         3.7799
  35   0.0000       0.150824         4.1041
  36   0.0000       0.161701         4.4001
  37   0.0000       0.167879         4.5682
  38   0.0000       0.184806         5.0288

MULLIKEN ATOMIC CHARGES
-----------------------
   0 O :   -0.455653
   1 C :    0.180583
   2 C :   -0.255024
   3 C :   -0.261157
   4 C :   -0.092970
   5 C :   -0.071893
   6 C :   -0.297648
   7 C :   -0.085005
   8 C :   -0.274759
   9 H :    0.314502
  10 H :    0.108519
  11 H :    0.114711
  12 H :    0.116722
  13 H :    0.120961
  14 H :    0.105952
  15 H :    0.121347
  16 H :    0.118003
  17 H :    0.121106
  18 H :    0.125254
  19 H :    0.125800
  20 H :    0.120651
Sum of atomic charges:    0.0000000

LOEWDIN ATOMIC CHARGES
----------------------
   0 O :    0.011811
   1 C :   -0.314890
   2 C :   -0.207296
   3 C :   -0.218611
   4 C :   -0.155505
   5 C :   -0.185321
   6 C :   -0.194536
   7 C :   -0.184117
   8 C :   -0.188916
   9 H :    0.177077
  10 H :    0.133422
  11 H :    0.127290
  12 H :    0.130031
  13 H :    0.128238
  14 H :    0.147346
  15 H :    0.131606
  16 H :    0.137752
  17 H :    0.126562
  18 H :    0.131140
  19 H :    0.131834
  20 H :    0.135080

  Mayer bond orders larger than 0.1
B(  0-O ,  1-C ) :   1.0638 B(  0-O ,  9-H ) :   0.8416 B(  1-C ,  2-C ) :   0.9451
B(  1-C ,  4-C ) :   0.9159 B(  1-C ,  7-C ) :   0.9297 B(  2-C ,  3-C ) :   0.9763
B(  2-C , 10-H ) :   0.9055 B(  2-C , 11-H ) :   0.9086 B(  3-C ,  4-C ) :   0.9576
B(  3-C , 12-H ) :   0.9163 B(  3-C , 13-H ) :   0.9288 B(  4-C ,  5-C ) :   0.9004
B(  4-C , 14-H ) :   0.8885 B(  5-C ,  6-C ) :   0.9187 B(  5-C ,  8-C ) :   0.9076
B(  5-C , 15-H ) :   0.9148 B(  6-C ,  7-C ) :   0.9035 B(  6-C , 16-H ) :   0.9172
B(  6-C , 17-H ) :   0.9260 B(  7-C ,  8-C ) :   0.9047 B(  7-C , 18-H ) :   0.8972
B(  8-C , 19-H ) :   0.9181 B(  8-C , 20-H ) :   0.9249

MP2 TOTAL ENERGY:     -386.400117352 Eh
FINAL SINGLE POINT ENERGY      -386.400117352043

DIPOLE MOMENT
-------------
                                X             Y             Z
Electronic contribution:     -0.16910       3.09163       0.05222
Nuclear contribution   :      0.63269      -3.34365       0.02648
                        -----------------------------------------
Total Dipole Moment    :      0.46359      -0.25202       0.07870
                        -----------------------------------------
Magnitude (a.u.)       :      0.53351
Magnitude (Debye)      :      1.35606

                             ****ORCA TERMINATED NORMALLY****
TOTAL RUN TIME: 0 days 0 hours 20 minutes 49 seconds 324 msec
