                         Program Version 3.0.3 - RELEASE   -
|  1> ! RI-MP2 RIJK def2-TZVP def2-TZVP/C def2-TZVP/JK TIGHTSCF
|  2> % maxcore 2000
|  3> % mp2 density relaxed end
|  4> *xyz 0 1
|  5>  C        0.0474208630     1.5133644952     0.1119365539
|  6>  C       -0.0113727273     0.0217952666    -0.0034716634
|  7>  C       -0.0312352477    -0.7329040924    -1.1148528481
|  8>  C       -0.0251752772    -0.2919241639    -2.5462078465
|  9>  C       -0.0137181021    -2.1904953197    -0.7733839684
| 10>  C        1.2300252149    -2.6700317701    -0.0433737646
| 11>  C        0.0017003227    -2.2806492876     0.7415092889
| 12>  C       -0.7589082196    -3.3378995597     1.5058383798
| 13>  C       -0.0458252457    -0.8369211298     1.2494161358
| 14>  H        0.9551226561     1.8375617772     0.6380268968
| 15>  H        0.0333890295     2.0104415551    -0.8611158130
| 16>  H       -0.8000701558     1.8966771110     0.6959974877
| 17>  H       -0.0436584618     0.7953898644    -2.6518393483
| 18>  H        0.8633235502    -0.6676045428    -3.0699584888
| 19>  H       -0.8937798451    -0.6945909663    -3.0833954893
| 20>  H       -0.5627569073    -2.8972462399    -1.3892959846
| 21>  H        1.4631274378    -3.7298393049    -0.0892632742
| 22>  H        2.0967048359    -2.0155457754    -0.0402282060
| 23>  H       -0.7208889988    -4.3052058364     0.9943522358
| 24>  H       -0.3426944793    -3.4807576467     2.5106375297
| 25>  H       -1.8140153460    -3.0631319949     1.6219103590
| 26>  H        0.7859426303    -0.6059575238     1.9296542219
| 27>  H       -0.9655864870    -0.6518392053     1.8255211962
| 28> *
| 29>
| 30>                          ****END OF INPUT****

CARTESIAN COORDINATES (ANGSTROEM)
---------------------------------
  C      0.047421    1.513364    0.111937
  C     -0.011373    0.021795   -0.003472
  C     -0.031235   -0.732904   -1.114853
  C     -0.025175   -0.291924   -2.546208
  C     -0.013718   -2.190495   -0.773384
  C      1.230025   -2.670032   -0.043374
  C      0.001700   -2.280649    0.741509
  C     -0.758908   -3.337900    1.505838
  C     -0.045825   -0.836921    1.249416
  H      0.955123    1.837562    0.638027
  H      0.033389    2.010442   -0.861116
  H     -0.800070    1.896677    0.695997
  H     -0.043658    0.795390   -2.651839
  H      0.863324   -0.667605   -3.069958
  H     -0.893780   -0.694591   -3.083395
  H     -0.562757   -2.897246   -1.389296
  H      1.463127   -3.729839   -0.089263
  H      2.096705   -2.015546   -0.040228
  H     -0.720889   -4.305206    0.994352
  H     -0.342694   -3.480758    2.510638
  H     -1.814015   -3.063132    1.621910
  H      0.785943   -0.605958    1.929654
  H     -0.965586   -0.651839    1.825521

 Total Charge           Charge          ....    0
 Multiplicity           Mult            ....    1
 Number of Electrons    NEL             ....   68
 Basis Dimension        Dim             ....  363

ORBITAL ENERGIES
----------------

  NO   OCC          E(Eh)            E(eV)
   0   2.0000     -11.228293      -305.5374
   1   2.0000     -11.219874      -305.3083
   2   2.0000     -11.219186      -305.2896
   3   2.0000     -11.217595      -305.2463
   4   2.0000     -11.216550      -305.2178
   5   2.0000     -11.216283      -305.2106
   6   2.0000     -11.216072      -305.2048
   7   2.0000     -11.215378      -305.1860
   8   2.0000     -11.213594      -305.1374
   9   2.0000      -1.179703       -32.1014
  10   2.0000      -1.064432       -28.9647
  11   2.0000      -1.002568       -27.2813
  12   2.0000      -0.957582       -26.0571
  13   2.0000      -0.937080       -25.4992
  14   2.0000      -0.876464       -23.8498
  15   2.0000      -0.803627       -21.8678
  16   2.0000      -0.737327       -20.0637
  17   2.0000      -0.686098       -18.6697
  18   2.0000      -0.644431       -17.5359
  19   2.0000      -0.605095       -16.4655
  20   2.0000      -0.592357       -16.1189
  21   2.0000      -0.574316       -15.6279
  22   2.0000      -0.566148       -15.4057
  23   2.0000      -0.562763       -15.3136
  24   2.0000      -0.552655       -15.0385
  25   2.0000      -0.537896       -14.6369
  26   2.0000      -0.531548       -14.4642
  27   2.0000      -0.520442       -14.1620
  28   2.0000      -0.492137       -13.3917
  29   2.0000      -0.477287       -12.9876
  30   2.0000      -0.451479       -12.2854
  31   2.0000      -0.421754       -11.4765
  32   2.0000      -0.381843       -10.3905
  33   2.0000      -0.307112        -8.3569
  34   0.0000       0.135186         3.6786
  35   0.0000       0.152884         4.1602
  36   0.0000       0.160871         4.3775
  37   0.0000       0.165149         4.4939
  38   0.0000       0.186627         5.0784

MULLIKEN ATOMIC CHARGES
-----------------------
   0 C :   -0.427319
   1 C :   -0.048099
   2 C :   -0.007620
   3 C :   -0.445158
   4 C :   -0.067745
   5 C :   -0.322857
   6 C :    0.122507
   7 C :   -0.414216
   8 C :   -0.188992
   9 H :    0.137814
  10 H :    0.125245
  11 H :    0.135659
  12 H :    0.126926
  13 H :    0.141946
  14 H :    0.139075
  15 H :    0.122545
  16 H :    0.124376
  17 H :    0.128804
  18 H :    0.125981
  19 H :    0.132543
  20 H :    0.128821
  21 H :    0.119496
  22 H :    0.110267
Sum of atomic charges:    0.0000000

LOEWDIN ATOMIC CHARGES
----------------------
   0 C :   -0.277211
   1 C :   -0.162154
   2 C :   -0.151804
   3 C :   -0.271023
   4 C :   -0.142860
   5 C :   -0.180230
   6 C :   -0.230890
   7 C :   -0.270898
   8 C :   -0.168562
   9 H :    0.129887
  10 H :    0.125593
  11 H :    0.130131
  12 H :    0.125103
  13 H :    0.132070
  14 H :    0.131066
  15 H :    0.144825
  16 H :    0.133243
  17 H :    0.135988
  18 H :    0.127509
  19 H :    0.126852
  20 H :    0.125849
  21 H :    0.143570
  22 H :    0.143946

  Mayer bond orders larger than 0.1
B(  0-C ,  1-C ) :   0.8805 B(  0-C ,  9-H ) :   0.9347 B(  0-C , 10-H ) :   0.9507
B(  0-C , 11-H ) :   0.9341 B(  1-C ,  2-C ) :   1.7436 B(  1-C ,  8-C ) :   0.9980
B(  2-C ,  3-C ) :   0.8677 B(  2-C ,  4-C ) :   0.9161 B(  3-C , 12-H ) :   0.9559
B(  3-C , 13-H ) :   0.9310 B(  3-C , 14-H ) :   0.9380 B(  4-C ,  5-C ) :   0.8647
B(  4-C ,  6-C ) :   0.8419 B(  4-C , 15-H ) :   0.9212 B(  5-C ,  6-C ) :   0.8905
B(  5-C , 16-H ) :   0.9252 B(  5-C , 17-H ) :   0.9183 B(  6-C ,  7-C ) :   0.8991
B(  6-C ,  8-C ) :   0.9331 B(  7-C , 18-H ) :   0.9349 B(  7-C , 19-H ) :   0.9420
B(  7-C , 20-H ) :   0.9381 B(  8-C , 21-H ) :   0.9038 B(  8-C , 22-H ) :   0.9016

MP2 TOTAL ENERGY:     -350.519603119 Eh
FINAL SINGLE POINT ENERGY      -350.519603119399

DIPOLE MOMENT
-------------
                                X             Y             Z
Electronic contribution:      0.43002      -1.00466      -0.31617
Nuclear contribution   :     -0.46225       1.02665       0.32228
                        -----------------------------------------
Total Dipole Moment    :     -0.03223       0.02199       0.00611
                        -----------------------------------------
Magnitude (a.u.)       :      0.03949
Magnitude (Debye)      :      0.10038

                             ****ORCA TERMINATED NORMALLY****
TOTAL RUN TIME: 0 days 0 hours 20 minutes 40 seconds 937 msec
