                         Program Version 3.0.3 - RELEASE   -
|  1> ! RI-MP2 RIJK def2-TZVP def2-TZVP/C def2-TZVP/JK TIGHTSCF
|  2> % maxcore 2000
|  3> % mp2 density relaxed end
|  4> *xyz 0 1
|  5>  C        0.1086229651     1.3683138718    -0.5572172188
|  6>  C        1.4176078946     1.6211828318     0.2425592972
|  7>  C        1.3227068864     0.1774719337     0.8121345397
|  8>  C       -0.1483818777     0.1010732452     0.3038437749
|  9>  C        2.2438291150    -0.8151282918     0.0984416795
| 10>  O        2.0256246006    -2.1345786663     0.5815252241
| 11>  C        2.2278786540    -2.1984088050     1.9688897378
| 12>  O        1.3619802980    -1.3614336904     2.6872894456
| 13>  C        1.5406046212     0.0001597070     2.3114332207
| 14>  H       -0.6488865531     2.1540114471    -0.5206555770
| 15>  H        0.3012621537     1.1325704437    -1.6070750158
| 16>  H        2.3180798887     1.8655610941    -0.3294541201
| 17>  H        1.2944774203     2.3791746473     1.0228961259
| 18>  H       -0.8691569008     0.2774902264     1.1072871775
| 19>  H       -0.4330725770    -0.8164060182    -0.2156407539
| 20>  H        2.0575018948    -0.8420990743    -0.9792779007
| 21>  H        3.2978386308    -0.5246992412     0.2565560414
| 22>  H        2.0153268530    -3.2235863821     2.2781781277
| 23>  H        3.2790411490    -1.9359686813     2.2027412471
| 24>  H        2.5560105117     0.3380939286     2.5875307516
| 25>  H        0.8193920319     0.5812213336     2.8938147855
| 26> *
| 27>
| 28>                          ****END OF INPUT****

CARTESIAN COORDINATES (ANGSTROEM)
---------------------------------
  C      0.108623    1.368314   -0.557217
  C      1.417608    1.621183    0.242559
  C      1.322707    0.177472    0.812135
  C     -0.148382    0.101073    0.303844
  C      2.243829   -0.815128    0.098442
  O      2.025625   -2.134579    0.581525
  C      2.227879   -2.198409    1.968890
  O      1.361980   -1.361434    2.687289
  C      1.540605    0.000160    2.311433
  H     -0.648887    2.154011   -0.520656
  H      0.301262    1.132570   -1.607075
  H      2.318080    1.865561   -0.329454
  H      1.294477    2.379175    1.022896
  H     -0.869157    0.277490    1.107287
  H     -0.433073   -0.816406   -0.215641
  H      2.057502   -0.842099   -0.979278
  H      3.297839   -0.524699    0.256556
  H      2.015327   -3.223586    2.278178
  H      3.279041   -1.935969    2.202741
  H      2.556011    0.338094    2.587531
  H      0.819392    0.581221    2.893815

 Total Charge           Charge          ....    0
 Multiplicity           Mult            ....    1
 Number of Electrons    NEL             ....   70
 Basis Dimension        Dim             ....  351

ORBITAL ENERGIES
----------------

  NO   OCC          E(Eh)            E(eV)
   0   2.0000     -20.560274      -559.4735
   1   2.0000     -20.559910      -559.4636
   2   2.0000     -11.324707      -308.1609
   3   2.0000     -11.278554      -306.9050
   4   2.0000     -11.277006      -306.8629
   5   2.0000     -11.234814      -305.7148
   6   2.0000     -11.228002      -305.5295
   7   2.0000     -11.224091      -305.4230
   8   2.0000     -11.218580      -305.2731
   9   2.0000      -1.421508       -38.6812
  10   2.0000      -1.344009       -36.5723
  11   2.0000      -1.144037       -31.1308
  12   2.0000      -1.012412       -27.5491
  13   2.0000      -0.919083       -25.0095
  14   2.0000      -0.908868       -24.7315
  15   2.0000      -0.894772       -24.3480
  16   2.0000      -0.816835       -22.2272
  17   2.0000      -0.740586       -20.1524
  18   2.0000      -0.698507       -19.0074
  19   2.0000      -0.672009       -18.2863
  20   2.0000      -0.665257       -18.1026
  21   2.0000      -0.654656       -17.8141
  22   2.0000      -0.613443       -16.6926
  23   2.0000      -0.592673       -16.1275
  24   2.0000      -0.587177       -15.9779
  25   2.0000      -0.564227       -15.3534
  26   2.0000      -0.543446       -14.7879
  27   2.0000      -0.528766       -14.3885
  28   2.0000      -0.482925       -13.1410
  29   2.0000      -0.479730       -13.0541
  30   2.0000      -0.478841       -13.0299
  31   2.0000      -0.450315       -12.2537
  32   2.0000      -0.436038       -11.8652
  33   2.0000      -0.417226       -11.3533
  34   2.0000      -0.412071       -11.2130
  35   0.0000       0.133331         3.6281
  36   0.0000       0.156327         4.2539
  37   0.0000       0.164148         4.4667
  38   0.0000       0.168115         4.5746
  39   0.0000       0.187415         5.0998

MULLIKEN ATOMIC CHARGES
-----------------------
   0 C :   -0.235013
   1 C :   -0.266203
   2 C :    0.130180
   3 C :   -0.275865
   4 C :   -0.100410
   5 O :   -0.310431
   6 C :    0.062455
   7 O :   -0.309165
   8 C :   -0.072508
   9 H :    0.115460
  10 H :    0.119774
  11 H :    0.116894
  12 H :    0.115204
  13 H :    0.113395
  14 H :    0.130830
  15 H :    0.127027
  16 H :    0.103165
  17 H :    0.132704
  18 H :    0.079204
  19 H :    0.103830
  20 H :    0.119474
Sum of atomic charges:   -0.0000000

LOEWDIN ATOMIC CHARGES
----------------------
   0 C :   -0.239270
   1 C :   -0.197056
   2 C :   -0.276107
   3 C :   -0.195995
   4 C :   -0.274016
   5 O :    0.160924
   6 C :   -0.399588
   7 O :    0.160307
   8 C :   -0.278629
   9 H :    0.123756
  10 H :    0.131487
  11 H :    0.128301
  12 H :    0.136811
  13 H :    0.136458
  14 H :    0.131831
  15 H :    0.136973
  16 H :    0.125670
  17 H :    0.123897
  18 H :    0.105224
  19 H :    0.125686
  20 H :    0.133338

  Mayer bond orders larger than 0.1
B(  0-C ,  1-C ) :   0.9553 B(  0-C ,  3-C ) :   0.9500 B(  0-C ,  9-H ) :   0.9261
B(  0-C , 10-H ) :   0.9270 B(  1-C ,  2-C ) :   0.8815 B(  1-C , 11-H ) :   0.9243
B(  1-C , 12-H ) :   0.9145 B(  2-C ,  3-C ) :   0.8767 B(  2-C ,  4-C ) :   0.9208
B(  2-C ,  8-C ) :   0.9008 B(  3-C , 13-H ) :   0.9181 B(  3-C , 14-H ) :   0.9305
B(  4-C ,  5-O ) :   0.9131 B(  4-C , 15-H ) :   0.9217 B(  4-C , 16-H ) :   0.9394
B(  5-O ,  6-C ) :   0.9821 B(  6-C ,  7-O ) :   0.9824 B(  6-C , 17-H ) :   0.9282
B(  6-C , 18-H ) :   0.9313 B(  7-O ,  8-C ) :   0.9173 B(  8-C , 19-H ) :   0.9496
B(  8-C , 20-H ) :   0.9189

MP2 TOTAL ENERGY:     -423.513763761 Eh
FINAL SINGLE POINT ENERGY      -423.513763760592

DIPOLE MOMENT
-------------
                                X             Y             Z
Electronic contribution:      0.68707      -5.11755       2.50267
Nuclear contribution   :     -0.35917       5.78150      -2.64958
                        -----------------------------------------
Total Dipole Moment    :      0.32790       0.66396      -0.14692
                        -----------------------------------------
Magnitude (a.u.)       :      0.75495
Magnitude (Debye)      :      1.91892

                             ****ORCA TERMINATED NORMALLY****
TOTAL RUN TIME: 0 days 0 hours 18 minutes 47 seconds 838 msec
