                         Program Version 3.0.3 - RELEASE   -
|  1> ! RI-MP2 RIJK def2-TZVP def2-TZVP/C def2-TZVP/JK TIGHTSCF
|  2> % maxcore 2000
|  3> % mp2 density relaxed end
|  4> *xyz 0 1
|  5>  C        0.0733838225     1.5475753355    -0.0590100303
|  6>  C        0.0295146097     0.0920330714    -0.0378633253
|  7>  C       -0.0061977771    -1.1119905113    -0.0223524732
|  8>  C       -0.0540149558    -2.5712969617     0.0054280835
|  9>  C        0.6338232825    -3.2063176995     1.2550011381
| 10>  C       -0.1916160076    -4.4738920640     1.5676260370
| 11>  C       -1.5334142611    -4.1951096175     0.9184925685
| 12>  C       -2.7314256677    -5.0468903450     1.1966479398
| 13>  C       -1.4538746445    -3.1621832502     0.0792606592
| 14>  H        0.7888740525     1.9359545924     0.6746415351
| 15>  H        0.3734072235     1.9251230044    -1.0430795763
| 16>  H       -0.9056795487     1.9803189094     0.1757500929
| 17>  H        0.4373246330    -2.9418192126    -0.9089520120
| 18>  H        1.6950465437    -3.4050719054     1.0880075755
| 19>  H        0.5561550320    -2.5001532847     2.0860397637
| 20>  H        0.2605066792    -5.3771073408     1.1316408514
| 21>  H       -0.2747462783    -4.6656135517     2.6442463210
| 22>  H       -2.9890058533    -5.0305766966     2.2634497808
| 23>  H       -3.6054592112    -4.7153832403     0.6296229889
| 24>  H       -2.5383601480    -6.0970135553     0.9413212656
| 25>  H       -2.2652331951    -2.7819294163    -0.5311540738
| 26> *
| 27>
| 28>                          ****END OF INPUT****

CARTESIAN COORDINATES (ANGSTROEM)
---------------------------------
  C      0.073384    1.547575   -0.059010
  C      0.029515    0.092033   -0.037863
  C     -0.006198   -1.111991   -0.022352
  C     -0.054015   -2.571297    0.005428
  C      0.633823   -3.206318    1.255001
  C     -0.191616   -4.473892    1.567626
  C     -1.533414   -4.195110    0.918493
  C     -2.731426   -5.046890    1.196648
  C     -1.453875   -3.162183    0.079261
  H      0.788874    1.935955    0.674642
  H      0.373407    1.925123   -1.043080
  H     -0.905680    1.980319    0.175750
  H      0.437325   -2.941819   -0.908952
  H      1.695047   -3.405072    1.088008
  H      0.556155   -2.500153    2.086040
  H      0.260507   -5.377107    1.131641
  H     -0.274746   -4.665614    2.644246
  H     -2.989006   -5.030577    2.263450
  H     -3.605459   -4.715383    0.629623
  H     -2.538360   -6.097014    0.941321
  H     -2.265233   -2.781929   -0.531154

 Total Charge           Charge          ....    0
 Multiplicity           Mult            ....    1
 Number of Electrons    NEL             ....   66
 Basis Dimension        Dim             ....  351

ORBITAL ENERGIES
----------------

  NO   OCC          E(Eh)            E(eV)
   0   2.0000     -11.248080      -306.0758
   1   2.0000     -11.240461      -305.8685
   2   2.0000     -11.229368      -305.5666
   3   2.0000     -11.223691      -305.4122
   4   2.0000     -11.222681      -305.3847
   5   2.0000     -11.221917      -305.3639
   6   2.0000     -11.215622      -305.1926
   7   2.0000     -11.213701      -305.1403
   8   2.0000     -11.208419      -304.9966
   9   2.0000      -1.143272       -31.1100
  10   2.0000      -1.054632       -28.6980
  11   2.0000      -1.015729       -27.6394
  12   2.0000      -0.974563       -26.5192
  13   2.0000      -0.935814       -25.4648
  14   2.0000      -0.899477       -24.4760
  15   2.0000      -0.802626       -21.8406
  16   2.0000      -0.709078       -19.2950
  17   2.0000      -0.672441       -18.2980
  18   2.0000      -0.647192       -17.6110
  19   2.0000      -0.620715       -16.8905
  20   2.0000      -0.583932       -15.8896
  21   2.0000      -0.581828       -15.8324
  22   2.0000      -0.579026       -15.7561
  23   2.0000      -0.575049       -15.6479
  24   2.0000      -0.554426       -15.0867
  25   2.0000      -0.523871       -14.2553
  26   2.0000      -0.504332       -13.7236
  27   2.0000      -0.496032       -13.4977
  28   2.0000      -0.485717       -13.2170
  29   2.0000      -0.470624       -12.8063
  30   2.0000      -0.361229        -9.8296
  31   2.0000      -0.358561        -9.7569
  32   2.0000      -0.334386        -9.0991
  33   0.0000       0.133593         3.6353
  34   0.0000       0.143442         3.9033
  35   0.0000       0.159392         4.3373
  36   0.0000       0.162933         4.4336
  37   0.0000       0.178714         4.8631

MULLIKEN ATOMIC CHARGES
-----------------------
   0 C :   -0.489889
   1 C :    0.047990
   2 C :   -0.055519
   3 C :   -0.063672
   4 C :   -0.253852
   5 C :   -0.178664
   6 C :    0.041158
   7 C :   -0.426574
   8 C :   -0.234955
   9 H :    0.160140
  10 H :    0.160373
  11 H :    0.160895
  12 H :    0.116164
  13 H :    0.123994
  14 H :    0.123015
  15 H :    0.112144
  16 H :    0.120995
  17 H :    0.138687
  18 H :    0.137286
  19 H :    0.135974
  20 H :    0.124312
Sum of atomic charges:   -0.0000000

LOEWDIN ATOMIC CHARGES
----------------------
   0 C :   -0.298197
   1 C :   -0.106958
   2 C :   -0.064905
   3 C :   -0.219499
   4 C :   -0.197959
   5 C :   -0.214928
   6 C :   -0.190157
   7 C :   -0.274472
   8 C :   -0.109452
   9 H :    0.139577
  10 H :    0.139393
  11 H :    0.139610
  12 H :    0.170236
  13 H :    0.132417
  14 H :    0.144037
  15 H :    0.140672
  16 H :    0.137356
  17 H :    0.130872
  18 H :    0.130186
  19 H :    0.130986
  20 H :    0.141185

  Mayer bond orders larger than 0.1
B(  0-C ,  1-C ) :   0.8421 B(  0-C ,  9-H ) :   0.9489 B(  0-C , 10-H ) :   0.9518
B(  0-C , 11-H ) :   0.9488 B(  1-C ,  2-C ) :   2.6477 B(  1-C ,  3-C ) :  -0.1151
B(  2-C ,  3-C ) :   1.0974 B(  3-C ,  4-C ) :   0.9333 B(  3-C ,  8-C ) :   0.8988
B(  3-C , 12-H ) :   0.9089 B(  4-C ,  5-C ) :   0.9493 B(  4-C , 13-H ) :   0.9305
B(  4-C , 14-H ) :   0.9332 B(  5-C ,  6-C ) :   0.9279 B(  5-C , 15-H ) :   0.9035
B(  5-C , 16-H ) :   0.9258 B(  6-C ,  7-C ) :   0.8903 B(  6-C ,  8-C ) :   1.7551
B(  7-C , 17-H ) :   0.9367 B(  7-C , 18-H ) :   0.9479 B(  7-C , 19-H ) :   0.9259
B(  8-C , 20-H ) :   0.9268

MP2 TOTAL ENERGY:     -349.289121080 Eh
FINAL SINGLE POINT ENERGY      -349.289121080059

DIPOLE MOMENT
-------------
                                X             Y             Z
Electronic contribution:      1.22757       1.73981      -2.11754
Nuclear contribution   :     -1.25614      -1.83027       2.20550
                        -----------------------------------------
Total Dipole Moment    :     -0.02857      -0.09046       0.08796
                        -----------------------------------------
Magnitude (a.u.)       :      0.12937
Magnitude (Debye)      :      0.32883

                             ****ORCA TERMINATED NORMALLY****
TOTAL RUN TIME: 0 days 0 hours 20 minutes 0 seconds 170 msec
