                         Program Version 3.0.3 - RELEASE   -
|  1> ! RI-MP2 RIJK def2-TZVP def2-TZVP/C def2-TZVP/JK TIGHTSCF
|  2> % maxcore 2000
|  3> % mp2 density relaxed end
|  4> *xyz 0 1
|  5>  C        0.1318351100     1.4785180641    -0.1538378204
|  6>  C        0.0682945912    -0.0140930056    -0.1036365675
|  7>  C       -0.0223798986    -0.9573316202    -1.1148064316
|  8>  C       -0.0204167596    -0.6644417385    -2.5938931026
|  9>  C        1.3697704381    -0.2175607572    -3.0049856086
| 10>  O        1.6585799279     0.9024806748    -3.3465701934
| 11>  C       -0.0757230519    -2.2426316469    -0.4974513835
| 12>  C       -0.0284953591    -2.0535203793     0.8611404321
| 13>  N        0.0569251305    -0.7013991100     1.0854545889
| 14>  H        0.8905542229     1.8728994428     0.5324124873
| 15>  H        0.3961757441     1.8145635149    -1.1585895216
| 16>  H       -0.8255384968     1.9439255425     0.1150447675
| 17>  H       -0.2765216265    -1.5763570431    -3.1459857157
| 18>  H       -0.7325007000     0.1187097212    -2.8706569904
| 19>  H        2.1469178897    -1.0106956157    -2.9186326361
| 20>  H       -0.1480765037    -3.1927118383    -1.0054738066
| 21>  H       -0.0491307662    -2.7542600494     1.6798633352
| 22>  H        0.1063263380    -0.2689921861     1.9918878070
| 23> *
| 24>
| 25>                          ****END OF INPUT****

CARTESIAN COORDINATES (ANGSTROEM)
---------------------------------
  C      0.131835    1.478518   -0.153838
  C      0.068295   -0.014093   -0.103637
  C     -0.022380   -0.957332   -1.114806
  C     -0.020417   -0.664442   -2.593893
  C      1.369770   -0.217561   -3.004986
  O      1.658580    0.902481   -3.346570
  C     -0.075723   -2.242632   -0.497451
  C     -0.028495   -2.053520    0.861140
  N      0.056925   -0.701399    1.085455
  H      0.890554    1.872899    0.532412
  H      0.396176    1.814564   -1.158590
  H     -0.825538    1.943926    0.115045
  H     -0.276522   -1.576357   -3.145986
  H     -0.732501    0.118710   -2.870657
  H      2.146918   -1.010696   -2.918633
  H     -0.148077   -3.192712   -1.005474
  H     -0.049131   -2.754260    1.679863
  H      0.106326   -0.268992    1.991888

 Total Charge           Charge          ....    0
 Multiplicity           Mult            ....    1
 Number of Electrons    NEL             ....   66
 Basis Dimension        Dim             ....  333

ORBITAL ENERGIES
----------------

  NO   OCC          E(Eh)            E(eV)
   0   2.0000     -20.548644      -559.1570
   1   2.0000     -15.606556      -424.6760
   2   2.0000     -11.325276      -308.1764
   3   2.0000     -11.263193      -306.4871
   4   2.0000     -11.255066      -306.2659
   5   2.0000     -11.239627      -305.8458
   6   2.0000     -11.230987      -305.6107
   7   2.0000     -11.221789      -305.3604
   8   2.0000     -11.214065      -305.1502
   9   2.0000      -1.387792       -37.7637
  10   2.0000      -1.296761       -35.2867
  11   2.0000      -1.083096       -29.4725
  12   2.0000      -1.033444       -28.1215
  13   2.0000      -0.990741       -26.9594
  14   2.0000      -0.912972       -24.8432
  15   2.0000      -0.804621       -21.8949
  16   2.0000      -0.793028       -21.5794
  17   2.0000      -0.742360       -20.2006
  18   2.0000      -0.705303       -19.1923
  19   2.0000      -0.665223       -18.1016
  20   2.0000      -0.627645       -17.0791
  21   2.0000      -0.603100       -16.4112
  22   2.0000      -0.591944       -16.1076
  23   2.0000      -0.587174       -15.9778
  24   2.0000      -0.571663       -15.5557
  25   2.0000      -0.552734       -15.0407
  26   2.0000      -0.540879       -14.7181
  27   2.0000      -0.539647       -14.6845
  28   2.0000      -0.504492       -13.7279
  29   2.0000      -0.493998       -13.4424
  30   2.0000      -0.420169       -11.4334
  31   2.0000      -0.348691        -9.4884
  32   2.0000      -0.292920        -7.9708
  33   0.0000       0.126714         3.4481
  34   0.0000       0.141860         3.8602
  35   0.0000       0.150796         4.1034
  36   0.0000       0.156801         4.2668
  37   0.0000       0.162675         4.4266

MULLIKEN ATOMIC CHARGES
-----------------------
   0 C :   -0.446258
   1 C :    0.054071
   2 C :    0.024737
   3 C :   -0.201256
   4 C :    0.119085
   5 O :   -0.281878
   6 C :   -0.260172
   7 C :   -0.062462
   8 N :   -0.260819
   9 H :    0.137222
  10 H :    0.171405
  11 H :    0.147182
  12 H :    0.135532
  13 H :    0.132059
  14 H :    0.081347
  15 H :    0.122989
  16 H :    0.146221
  17 H :    0.240996
Sum of atomic charges:   -0.0000000

LOEWDIN ATOMIC CHARGES
----------------------
   0 C :   -0.277843
   1 C :   -0.225829
   2 C :   -0.172551
   3 C :   -0.224923
   4 C :   -0.288166
   5 O :    0.119830
   6 C :   -0.180595
   7 C :   -0.236040
   8 N :    0.201600
   9 H :    0.130880
  10 H :    0.142165
  11 H :    0.130435
  12 H :    0.155070
  13 H :    0.150214
  14 H :    0.111468
  15 H :    0.139693
  16 H :    0.132122
  17 H :    0.192472

  Mayer bond orders larger than 0.1
B(  0-C ,  1-C ) :   0.8346 B(  0-C ,  9-H ) :   0.9375 B(  0-C , 10-H ) :   0.9432
B(  0-C , 11-H ) :   0.9361 B(  1-C ,  2-C ) :   1.4566 B(  1-C ,  8-N ) :   1.1660
B(  2-C ,  3-C ) :   0.8648 B(  2-C ,  6-C ) :   1.2551 B(  3-C ,  4-C ) :   0.8860
B(  3-C , 12-H ) :   0.9235 B(  3-C , 13-H ) :   0.9148 B(  4-C ,  5-O ) :   1.9648
B(  4-C , 14-H ) :   0.9297 B(  6-C ,  7-C ) :   1.4921 B(  6-C , 15-H ) :   0.9363
B(  7-C ,  8-N ) :   1.1156 B(  7-C , 16-H ) :   0.9184 B(  8-N , 17-H ) :   0.8753

MP2 TOTAL ENERGY:     -401.302714282 Eh
FINAL SINGLE POINT ENERGY      -401.302714282408

DIPOLE MOMENT
-------------
                                X             Y             Z
Electronic contribution:      1.32557      -1.30989      -1.04250
Nuclear contribution   :     -1.71768       0.89546       2.15422
                        -----------------------------------------
Total Dipole Moment    :     -0.39211      -0.41443       1.11171
                        -----------------------------------------
Magnitude (a.u.)       :      1.24956
Magnitude (Debye)      :      3.17614

                             ****ORCA TERMINATED NORMALLY****
TOTAL RUN TIME: 0 days 0 hours 17 minutes 22 seconds 1 msec
