                         Program Version 3.0.3 - RELEASE   -
|  1> ! RI-MP2 RIJK def2-TZVP def2-TZVP/C def2-TZVP/JK TIGHTSCF
|  2> % maxcore 2000
|  3> % mp2 density relaxed end
|  4> *xyz 0 1
|  5>  C       -0.0322231472     1.5488813507     0.0693020896
|  6>  C        0.0042428097     0.0195545505     0.0051012211
|  7>  C        1.1131562162    -0.6236019073    -0.9394496480
|  8>  C        1.7393555342    -1.2668351200     0.3003871754
|  9>  O        2.0752577677    -0.2064884082     1.2089921324
| 10>  C        0.7321418160    -0.6829218925     1.1929678596
| 11>  C       -1.3104341459    -0.5555470839    -0.2270245863
| 12>  C       -2.4005053177    -1.0352489708    -0.3961315431
| 13>  H        0.9622506285     1.9266644083     0.3175842570
| 14>  H       -0.3409792295     1.9669495731    -0.8932979302
| 15>  H       -0.7417776921     1.8894789433     0.8292178867
| 16>  H        0.6851943663    -1.3417973967    -1.6398827017
| 17>  H        1.7523687999     0.0865199945    -1.4694934725
| 18>  H        2.3078910232    -2.1852544385     0.3824414014
| 19>  H        0.2983929879    -1.0276024060     2.1244704866
| 20>  H       -3.3637609674    -1.4538883767    -0.5521079179
| 21> *
| 22>
| 23>                          ****END OF INPUT****

CARTESIAN COORDINATES (ANGSTROEM)
---------------------------------
  C     -0.032223    1.548881    0.069302
  C      0.004243    0.019555    0.005101
  C      1.113156   -0.623602   -0.939450
  C      1.739356   -1.266835    0.300387
  O      2.075258   -0.206488    1.208992
  C      0.732142   -0.682922    1.192968
  C     -1.310434   -0.555547   -0.227025
  C     -2.400505   -1.035249   -0.396132
  H      0.962251    1.926664    0.317584
  H     -0.340979    1.966950   -0.893298
  H     -0.741778    1.889479    0.829218
  H      0.685194   -1.341797   -1.639883
  H      1.752369    0.086520   -1.469493
  H      2.307891   -2.185254    0.382441
  H      0.298393   -1.027602    2.124470
  H     -3.363761   -1.453888   -0.552108

 Total Charge           Charge          ....    0
 Multiplicity           Mult            ....    1
 Number of Electrons    NEL             ....   58
 Basis Dimension        Dim             ....  296

ORBITAL ENERGIES
----------------

  NO   OCC          E(Eh)            E(eV)
   0   2.0000     -20.573936      -559.8453
   1   2.0000     -11.293734      -307.3181
   2   2.0000     -11.292157      -307.2752
   3   2.0000     -11.274349      -306.7906
   4   2.0000     -11.243269      -305.9449
   5   2.0000     -11.237537      -305.7889
   6   2.0000     -11.227353      -305.5118
   7   2.0000     -11.221513      -305.3529
   8   2.0000      -1.426188       -38.8086
   9   2.0000      -1.127030       -30.6680
  10   2.0000      -1.021965       -27.8091
  11   2.0000      -0.981665       -26.7125
  12   2.0000      -0.902750       -24.5651
  13   2.0000      -0.855013       -23.2661
  14   2.0000      -0.790708       -21.5163
  15   2.0000      -0.735619       -20.0172
  16   2.0000      -0.703254       -19.1365
  17   2.0000      -0.647642       -17.6232
  18   2.0000      -0.619562       -16.8592
  19   2.0000      -0.592294       -16.1171
  20   2.0000      -0.575410       -15.6577
  21   2.0000      -0.549765       -14.9599
  22   2.0000      -0.524552       -14.2738
  23   2.0000      -0.502901       -13.6846
  24   2.0000      -0.487122       -13.2553
  25   2.0000      -0.461017       -12.5449
  26   2.0000      -0.414642       -11.2830
  27   2.0000      -0.386878       -10.5275
  28   2.0000      -0.381880       -10.3915
  29   0.0000       0.143566         3.9066
  30   0.0000       0.158220         4.3054
  31   0.0000       0.161243         4.3876
  32   0.0000       0.167296         4.5524
  33   0.0000       0.178552         4.8586

MULLIKEN ATOMIC CHARGES
-----------------------
   0 C :   -0.430967
   1 C :    0.131629
   2 C :   -0.213832
   3 C :   -0.068064
   4 O :   -0.322062
   5 C :    0.007827
   6 C :   -0.115422
   7 C :   -0.157629
   8 H :    0.155949
   9 H :    0.136754
  10 H :    0.135141
  11 H :    0.142236
  12 H :    0.119374
  13 H :    0.139538
  14 H :    0.147689
  15 H :    0.191838
Sum of atomic charges:    0.0000000

LOEWDIN ATOMIC CHARGES
----------------------
   0 C :   -0.251667
   1 C :   -0.241700
   2 C :   -0.156893
   3 C :   -0.236491
   4 O :    0.179682
   5 C :   -0.198963
   6 C :   -0.068883
   7 C :   -0.092292
   8 H :    0.132767
   9 H :    0.130138
  10 H :    0.130604
  11 H :    0.144195
  12 H :    0.136201
  13 H :    0.130485
  14 H :    0.135514
  15 H :    0.127302

  Mayer bond orders larger than 0.1
B(  0-C ,  1-C ) :   0.9040 B(  0-C ,  8-H ) :   0.9338 B(  0-C ,  9-H ) :   0.9324
B(  0-C , 10-H ) :   0.9337 B(  1-C ,  2-C ) :   0.8749 B(  1-C ,  5-C ) :   0.8209
B(  1-C ,  6-C ) :   1.1799 B(  1-C ,  7-C ) :  -0.1139 B(  2-C ,  3-C ) :   0.9340
B(  2-C , 11-H ) :   0.9109 B(  2-C , 12-H ) :   0.8954 B(  3-C ,  4-O ) :   0.9349
B(  3-C ,  5-C ) :   0.9354 B(  3-C , 13-H ) :   0.9292 B(  4-O ,  5-C ) :   0.8953
B(  5-C , 14-H ) :   0.9137 B(  6-C ,  7-C ) :   2.5703 B(  7-C , 15-H ) :   0.8874

MP2 TOTAL ENERGY:     -345.915892676 Eh
FINAL SINGLE POINT ENERGY      -345.915892675567

DIPOLE MOMENT
-------------
                                X             Y             Z
Electronic contribution:      0.50148      -2.62830       1.82637
Nuclear contribution   :     -0.79553       2.27418      -2.11374
                        -----------------------------------------
Total Dipole Moment    :     -0.29405      -0.35411      -0.28737
                        -----------------------------------------
Magnitude (a.u.)       :      0.54263
Magnitude (Debye)      :      1.37925

                             ****ORCA TERMINATED NORMALLY****
TOTAL RUN TIME: 0 days 0 hours 12 minutes 36 seconds 293 msec
