                         Program Version 3.0.3 - RELEASE   -
|  1> ! RI-MP2 RIJK def2-TZVP def2-TZVP/C def2-TZVP/JK TIGHTSCF
|  2> % maxcore 2000
|  3> % mp2 density relaxed end
|  4> *xyz 0 1
|  5>  C       -0.0295071278     1.3907587305     0.0058906751
|  6>  O        0.0265058930    -0.0369061278     0.0211380009
|  7>  C        0.6583979788    -0.6046631588     1.0641929030
|  8>  C        0.7207174844    -2.0121055147     1.1131325661
|  9>  N        1.3346542460    -2.6181577076     2.1013154688
| 10>  C        1.8801831553    -1.7978252104     3.0316628880
| 11>  N        2.5881547797    -2.3941906104     4.0418672983
| 12>  N        1.8148846872    -0.4648659699     3.0341540184
| 13>  N        1.1906076279     0.1341456224     2.0175947799
| 14>  H        0.9754797779     1.8226303006    -0.0077827734
| 15>  H       -0.5687825254     1.6505437112    -0.9056598141
| 16>  H       -0.5576374435     1.7720679943     0.8847719976
| 17>  H        0.2555864055    -2.6152462401     0.3369817896
| 18>  H        2.3752395201    -3.3627405801     4.2154014993
| 19>  H        2.7636916510    -1.8180193892     4.8492942926
| 20> *
| 21>
| 22>                          ****END OF INPUT****

CARTESIAN COORDINATES (ANGSTROEM)
---------------------------------
  C     -0.029507    1.390759    0.005891
  O      0.026506   -0.036906    0.021138
  C      0.658398   -0.604663    1.064193
  C      0.720717   -2.012106    1.113133
  N      1.334654   -2.618158    2.101315
  C      1.880183   -1.797825    3.031663
  N      2.588155   -2.394191    4.041867
  N      1.814885   -0.464866    3.034154
  N      1.190608    0.134146    2.017595
  H      0.975480    1.822630   -0.007783
  H     -0.568783    1.650544   -0.905660
  H     -0.557637    1.772068    0.884772
  H      0.255586   -2.615246    0.336982
  H      2.375240   -3.362741    4.215401
  H      2.763692   -1.818019    4.849294

 Total Charge           Charge          ....    0
 Multiplicity           Mult            ....    1
 Number of Electrons    NEL             ....   66
 Basis Dimension        Dim             ....  315

ORBITAL ENERGIES
----------------

  NO   OCC          E(Eh)            E(eV)
   0   2.0000     -20.596492      -560.4591
   1   2.0000     -15.617152      -424.9643
   2   2.0000     -15.595202      -424.3670
   3   2.0000     -15.594877      -424.3582
   4   2.0000     -15.574462      -423.8027
   5   2.0000     -11.348456      -308.8072
   6   2.0000     -11.334743      -308.4340
   7   2.0000     -11.311880      -307.8119
   8   2.0000     -11.284102      -307.0560
   9   2.0000      -1.436962       -39.1017
  10   2.0000      -1.366928       -37.1960
  11   2.0000      -1.262475       -34.3537
  12   2.0000      -1.215880       -33.0858
  13   2.0000      -1.087513       -29.5927
  14   2.0000      -0.984817       -26.7982
  15   2.0000      -0.927101       -25.2277
  16   2.0000      -0.870977       -23.7005
  17   2.0000      -0.771710       -20.9993
  18   2.0000      -0.738834       -20.1047
  19   2.0000      -0.717573       -19.5261
  20   2.0000      -0.672945       -18.3118
  21   2.0000      -0.671010       -18.2591
  22   2.0000      -0.623684       -16.9713
  23   2.0000      -0.609901       -16.5962
  24   2.0000      -0.607308       -16.5257
  25   2.0000      -0.539176       -14.6717
  26   2.0000      -0.523442       -14.2436
  27   2.0000      -0.514938       -14.0122
  28   2.0000      -0.504699       -13.7336
  29   2.0000      -0.468969       -12.7613
  30   2.0000      -0.452382       -12.3100
  31   2.0000      -0.397007       -10.8031
  32   2.0000      -0.324404        -8.8275
  33   0.0000       0.066880         1.8199
  34   0.0000       0.140232         3.8159
  35   0.0000       0.151500         4.1225
  36   0.0000       0.155724         4.2375
  37   0.0000       0.173454         4.7199

MULLIKEN ATOMIC CHARGES
-----------------------
   0 C :   -0.203625
   1 O :   -0.276760
   2 C :    0.254972
   3 C :   -0.049480
   4 N :   -0.249557
   5 C :    0.284484
   6 N :   -0.492368
   7 N :   -0.186962
   8 N :   -0.178430
   9 H :    0.138754
  10 H :    0.145632
  11 H :    0.137648
  12 H :    0.146811
  13 H :    0.263403
  14 H :    0.265477
Sum of atomic charges:   -0.0000000

LOEWDIN ATOMIC CHARGES
----------------------
   0 C :   -0.315879
   1 O :    0.231538
   2 C :   -0.375144
   3 C :   -0.175224
   4 N :    0.154119
   5 C :   -0.433894
   6 N :   -0.040522
   7 N :    0.049885
   8 N :    0.067103
   9 H :    0.113435
  10 H :    0.114608
  11 H :    0.113140
  12 H :    0.147902
  13 H :    0.173695
  14 H :    0.175238

  Mayer bond orders larger than 0.1
B(  0-C ,  1-O ) :   0.8397 B(  0-C ,  9-H ) :   0.9348 B(  0-C , 10-H ) :   0.9328
B(  0-C , 11-H ) :   0.9344 B(  1-O ,  2-C ) :   1.1082 B(  2-C ,  3-C ) :   1.2045
B(  2-C ,  8-N ) :   1.4404 B(  3-C ,  4-N ) :   1.5115 B(  3-C , 12-H ) :   0.9256
B(  4-N ,  5-C ) :   1.2743 B(  5-C ,  6-N ) :   1.1272 B(  5-C ,  7-N ) :   1.4914
B(  6-N , 13-H ) :   0.8652 B(  6-N , 14-H ) :   0.8641 B(  7-N ,  8-N ) :   1.0916

MP2 TOTAL ENERGY:     -449.398753034 Eh
FINAL SINGLE POINT ENERGY      -449.398753033562

DIPOLE MOMENT
-------------
                                X             Y             Z
Electronic contribution:      1.04544      -2.98169       1.42629
Nuclear contribution   :     -1.40105       2.71283      -1.44260
                        -----------------------------------------
Total Dipole Moment    :     -0.35560      -0.26887      -0.01632
                        -----------------------------------------
Magnitude (a.u.)       :      0.44610
Magnitude (Debye)      :      1.13390

                             ****ORCA TERMINATED NORMALLY****
TOTAL RUN TIME: 0 days 0 hours 15 minutes 31 seconds 661 msec
