                         Program Version 3.0.3 - RELEASE   -
|  1> ! RI-MP2 RIJK def2-TZVP def2-TZVP/C def2-TZVP/JK TIGHTSCF
|  2> % maxcore 2000
|  3> % mp2 density relaxed end
|  4> *xyz 0 1
|  5>  O       -0.0099345149     0.0548878430    -0.4008215195
|  6>  C       -0.0096303732     1.2041710769    -0.0342834068
|  7>  C        1.2352787129     2.0250430058     0.0250276125
|  8>  C        1.2586103175     3.5155589208    -0.1514834895
|  9>  N        0.0067275630     4.1005878555     0.3460933015
| 10>  C        0.3680759077     3.6994739116     1.7442589380
| 11>  C        1.5960093500     2.9311192916     1.2227375792
| 12>  C        2.8324597673     2.7862648324     1.9094479104
| 13>  N        3.8375028569     2.6858312159     2.4759772667
| 14>  H       -0.9419507878     1.7221093406     0.2601551623
| 15>  H        2.1074552270     1.5111009396    -0.3664222469
| 16>  H        1.8973414090     4.0061382647    -0.8759029226
| 17>  H       -0.0050114584     5.1083347613     0.2422320164
| 18>  H        0.6802092929     4.5450324438     2.3619571099
| 19>  H       -0.4024134599     3.1285486065     2.2693374785
| 20> *
| 21>
| 22>                          ****END OF INPUT****

CARTESIAN COORDINATES (ANGSTROEM)
---------------------------------
  O     -0.009935    0.054888   -0.400822
  C     -0.009630    1.204171   -0.034283
  C      1.235279    2.025043    0.025028
  C      1.258610    3.515559   -0.151483
  N      0.006728    4.100588    0.346093
  C      0.368076    3.699474    1.744259
  C      1.596009    2.931119    1.222738
  C      2.832460    2.786265    1.909448
  N      3.837503    2.685831    2.475977
  H     -0.941951    1.722109    0.260155
  H      2.107455    1.511101   -0.366422
  H      1.897341    4.006138   -0.875903
  H     -0.005011    5.108335    0.242232
  H      0.680209    4.545032    2.361957
  H     -0.402413    3.128549    2.269337

 Total Charge           Charge          ....    0
 Multiplicity           Mult            ....    1
 Number of Electrons    NEL             ....   64
 Basis Dimension        Dim             ....  315

ORBITAL ENERGIES
----------------

  NO   OCC          E(Eh)            E(eV)
   0   2.0000     -20.568409      -559.6949
   1   2.0000     -15.593573      -424.3227
   2   2.0000     -15.584419      -424.0736
   3   2.0000     -11.345561      -308.7284
   4   2.0000     -11.325899      -308.1934
   5   2.0000     -11.313630      -307.8595
   6   2.0000     -11.307503      -307.6928
   7   2.0000     -11.289035      -307.1903
   8   2.0000     -11.286445      -307.1198
   9   2.0000      -1.406594       -38.2754
  10   2.0000      -1.316212       -35.8159
  11   2.0000      -1.229116       -33.4460
  12   2.0000      -1.129742       -30.7418
  13   2.0000      -1.001277       -27.2461
  14   2.0000      -0.934014       -25.4158
  15   2.0000      -0.866262       -23.5722
  16   2.0000      -0.802850       -21.8467
  17   2.0000      -0.772026       -21.0079
  18   2.0000      -0.701992       -19.1022
  19   2.0000      -0.677945       -18.4478
  20   2.0000      -0.648275       -17.6405
  21   2.0000      -0.621593       -16.9144
  22   2.0000      -0.594538       -16.1782
  23   2.0000      -0.583511       -15.8782
  24   2.0000      -0.568138       -15.4598
  25   2.0000      -0.555302       -15.1105
  26   2.0000      -0.523671       -14.2498
  27   2.0000      -0.516683       -14.0597
  28   2.0000      -0.462659       -12.5896
  29   2.0000      -0.455681       -12.3997
  30   2.0000      -0.433305       -11.7908
  31   2.0000      -0.386817       -10.5258
  32   0.0000       0.104372         2.8401
  33   0.0000       0.109771         2.9870
  34   0.0000       0.127440         3.4678
  35   0.0000       0.137963         3.7542
  36   0.0000       0.165874         4.5137

MULLIKEN ATOMIC CHARGES
-----------------------
   0 O :   -0.254369
   1 C :    0.074340
   2 C :   -0.121260
   3 C :    0.015815
   4 N :   -0.359768
   5 C :   -0.150045
   6 C :    0.121194
   7 C :   -0.251247
   8 N :   -0.043533
   9 H :    0.121064
  10 H :    0.165124
  11 H :    0.164360
  12 H :    0.223112
  13 H :    0.156665
  14 H :    0.138547
Sum of atomic charges:   -0.0000000

LOEWDIN ATOMIC CHARGES
----------------------
   0 O :    0.141246
   1 C :   -0.269072
   2 C :   -0.140162
   3 C :   -0.159569
   4 N :    0.000957
   5 C :   -0.192422
   6 C :   -0.179163
   7 C :   -0.163404
   8 N :    0.076476
   9 H :    0.125491
  10 H :    0.175747
  11 H :    0.144652
  12 H :    0.170534
  13 H :    0.139282
  14 H :    0.129407

  Mayer bond orders larger than 0.1
B(  0-O ,  1-C ) :   1.9691 B(  1-C ,  2-C ) :   0.9078 B(  1-C ,  9-H ) :   0.9362
B(  2-C ,  3-C ) :   0.8689 B(  2-C ,  6-C ) :   0.7664 B(  2-C , 10-H ) :   0.9195
B(  3-C ,  4-N ) :   0.9777 B(  3-C ,  6-C ) :   0.7899 B(  3-C , 11-H ) :   0.8963
B(  4-N ,  5-C ) :   0.9019 B(  4-N , 12-H ) :   0.8726 B(  5-C ,  6-C ) :   0.9152
B(  5-C , 13-H ) :   0.9175 B(  5-C , 14-H ) :   0.9237 B(  6-C ,  7-C ) :   0.9139
B(  7-C ,  8-N ) :   2.8609

MP2 TOTAL ENERGY:     -416.062383197 Eh
FINAL SINGLE POINT ENERGY      -416.062383196990

DIPOLE MOMENT
-------------
                                X             Y             Z
Electronic contribution:      2.78968      -2.83545       0.34787
Nuclear contribution   :     -3.54033       4.45684      -0.67723
                        -----------------------------------------
Total Dipole Moment    :     -0.75065       1.62139      -0.32936
                        -----------------------------------------
Magnitude (a.u.)       :      1.81683
Magnitude (Debye)      :      4.61802

                             ****ORCA TERMINATED NORMALLY****
TOTAL RUN TIME: 0 days 0 hours 14 minutes 50 seconds 295 msec
