                         Program Version 3.0.3 - RELEASE   -
|  1> ! RI-MP2 RIJK def2-TZVP def2-TZVP/C def2-TZVP/JK TIGHTSCF
|  2> % maxcore 2000
|  3> % mp2 density relaxed end
|  4> *xyz 0 1
|  5>  C       -0.0678961198     1.5000319406     0.0470229505
|  6>  C       -0.0238080430     0.0103281642    -0.0021263273
|  7>  C       -0.0485328999    -0.8089629632    -1.0714516263
|  8>  C        0.0637201358    -2.2421275152    -0.6022645825
|  9>  C        1.4676299309    -2.4249510814     0.0441984419
| 10>  N        1.4458338965    -1.5027068744     1.2279047910
| 11>  C        0.0835138411    -0.8774358118     1.2196625603
| 12>  C       -0.7656139247    -2.0604546213     0.7025324199
| 13>  O       -1.7036341643    -2.6523257293     1.1455287714
| 14>  H        0.8475976440     1.9033833968     0.4968963316
| 15>  H       -0.1758068995     1.9292298285    -0.9531987640
| 16>  H       -0.9047280268     1.8529324363     0.6623685192
| 17>  H       -0.1140552700    -0.5099840179    -2.1106885618
| 18>  H       -0.2506657773    -3.0275161106    -1.2855884502
| 19>  H        1.6248261171    -3.4650357767     0.3513177258
| 20>  H        2.2710349838    -2.1432808628    -0.6433655998
| 21>  H        1.5346790907    -2.0523947053     2.0777727915
| 22>  H       -0.1721791245    -0.4426044866     2.1841978488
| 23> *
| 24>
| 25>                          ****END OF INPUT****

CARTESIAN COORDINATES (ANGSTROEM)
---------------------------------
  C     -0.067896    1.500032    0.047023
  C     -0.023808    0.010328   -0.002126
  C     -0.048533   -0.808963   -1.071452
  C      0.063720   -2.242128   -0.602265
  C      1.467630   -2.424951    0.044198
  N      1.445834   -1.502707    1.227905
  C      0.083514   -0.877436    1.219663
  C     -0.765614   -2.060455    0.702532
  O     -1.703634   -2.652326    1.145529
  H      0.847598    1.903383    0.496896
  H     -0.175807    1.929230   -0.953199
  H     -0.904728    1.852932    0.662369
  H     -0.114055   -0.509984   -2.110689
  H     -0.250666   -3.027516   -1.285588
  H      1.624826   -3.465036    0.351318
  H      2.271035   -2.143281   -0.643366
  H      1.534679   -2.052395    2.077773
  H     -0.172179   -0.442604    2.184198

 Total Charge           Charge          ....    0
 Multiplicity           Mult            ....    1
 Number of Electrons    NEL             ....   66
 Basis Dimension        Dim             ....  333

ORBITAL ENERGIES
----------------

  NO   OCC          E(Eh)            E(eV)
   0   2.0000     -20.552836      -559.2711
   1   2.0000     -15.561738      -423.4564
   2   2.0000     -11.333509      -308.4005
   3   2.0000     -11.274236      -306.7876
   4   2.0000     -11.266465      -306.5761
   5   2.0000     -11.249968      -306.1272
   6   2.0000     -11.249453      -306.1132
   7   2.0000     -11.238860      -305.8249
   8   2.0000     -11.234216      -305.6986
   9   2.0000      -1.399365       -38.0787
  10   2.0000      -1.250625       -34.0312
  11   2.0000      -1.113427       -30.2979
  12   2.0000      -1.034156       -28.1408
  13   2.0000      -0.972591       -26.4656
  14   2.0000      -0.908283       -24.7156
  15   2.0000      -0.839561       -22.8456
  16   2.0000      -0.755574       -20.5602
  17   2.0000      -0.724954       -19.7270
  18   2.0000      -0.698373       -19.0037
  19   2.0000      -0.654392       -17.8069
  20   2.0000      -0.640581       -17.4311
  21   2.0000      -0.600935       -16.3523
  22   2.0000      -0.592270       -16.1165
  23   2.0000      -0.579295       -15.7634
  24   2.0000      -0.566234       -15.4080
  25   2.0000      -0.557414       -15.1680
  26   2.0000      -0.534540       -14.5456
  27   2.0000      -0.517536       -14.0829
  28   2.0000      -0.502708       -13.6794
  29   2.0000      -0.481092       -13.0912
  30   2.0000      -0.439842       -11.9687
  31   2.0000      -0.361435        -9.8351
  32   2.0000      -0.351870        -9.5749
  33   0.0000       0.131703         3.5838
  34   0.0000       0.136897         3.7252
  35   0.0000       0.145672         3.9639
  36   0.0000       0.161803         4.4029
  37   0.0000       0.169586         4.6147

MULLIKEN ATOMIC CHARGES
-----------------------
   0 C :   -0.458536
   1 C :   -0.020864
   2 C :   -0.228293
   3 C :    0.025586
   4 C :   -0.180931
   5 N :   -0.343975
   6 C :    0.059024
   7 C :    0.071320
   8 O :   -0.240348
   9 H :    0.153673
  10 H :    0.139616
  11 H :    0.145784
  12 H :    0.133480
  13 H :    0.144849
  14 H :    0.130818
  15 H :    0.111761
  16 H :    0.211881
  17 H :    0.145153
Sum of atomic charges:   -0.0000000

LOEWDIN ATOMIC CHARGES
----------------------
   0 C :   -0.270697
   1 C :   -0.153714
   2 C :   -0.099386
   3 C :   -0.192437
   4 C :   -0.243095
   5 N :    0.001622
   6 C :   -0.211392
   7 C :   -0.261502
   8 O :    0.167084
   9 H :    0.137167
  10 H :    0.132255
  11 H :    0.134265
  12 H :    0.139753
  13 H :    0.149433
  14 H :    0.127472
  15 H :    0.127785
  16 H :    0.168335
  17 H :    0.147052

  Mayer bond orders larger than 0.1
B(  0-C ,  1-C ) :   0.8741 B(  0-C ,  9-H ) :   0.9316 B(  0-C , 10-H ) :   0.9508
B(  0-C , 11-H ) :   0.9305 B(  1-C ,  2-C ) :   1.7104 B(  1-C ,  6-C ) :   0.8819
B(  2-C ,  3-C ) :   0.9094 B(  2-C , 12-H ) :   0.9200 B(  3-C ,  4-C ) :   0.8701
B(  3-C ,  6-C ) :  -0.1521 B(  3-C ,  7-C ) :   0.8526 B(  3-C , 13-H ) :   0.9000
B(  4-C ,  5-N ) :   0.9623 B(  4-C , 14-H ) :   0.9290 B(  4-C , 15-H ) :   0.9153
B(  5-N ,  6-C ) :   0.9613 B(  5-N , 16-H ) :   0.8749 B(  6-C ,  7-C ) :   0.9079
B(  6-C , 17-H ) :   0.8851 B(  7-C ,  8-O ) :   2.1015

MP2 TOTAL ENERGY:     -401.265727796 Eh
FINAL SINGLE POINT ENERGY      -401.265727795621

DIPOLE MOMENT
-------------
                                X             Y             Z
Electronic contribution:     -3.39482      -4.52917       1.69302
Nuclear contribution   :      3.92859       4.83949      -2.01904
                        -----------------------------------------
Total Dipole Moment    :      0.53377       0.31031      -0.32602
                        -----------------------------------------
Magnitude (a.u.)       :      0.69821
Magnitude (Debye)      :      1.77471

                             ****ORCA TERMINATED NORMALLY****
TOTAL RUN TIME: 0 days 0 hours 19 minutes 23 seconds 37 msec
