                         Program Version 3.0.3 - RELEASE   -
|  1> ! RI-MP2 RIJK def2-TZVP def2-TZVP/C def2-TZVP/JK TIGHTSCF
|  2> % maxcore 2000
|  3> % mp2 density relaxed end
|  4> *xyz 0 1
|  5>  C       -0.0366803381     1.5270853210     0.0340702116
|  6>  C        0.0317552527     0.0280734786     0.0134693969
|  7>  C       -0.8382490621    -0.8701631187     0.8432294751
|  8>  C        0.6553240161    -0.9583381670     1.0126249583
|  9>  C        1.2500387119    -1.7905569252    -0.1114679314
| 10>  O        0.8043107163    -3.1173352856    -0.1221759646
| 11>  C        0.6212797576    -0.7743457046    -1.1651778618
| 12>  C       -0.2865489449    -1.3288979260    -2.1558729278
| 13>  N       -0.9956419903    -1.8031778053    -2.9370326928
| 14>  H        0.9183493624     1.9781925780    -0.2588553879
| 15>  H       -0.8057517346     1.8964292603    -0.6542127793
| 16>  H       -0.2869509458     1.8913403144     1.0353374290
| 17>  H       -1.3585040565    -0.3699020616     1.6535734567
| 18>  H       -1.3854971409    -1.6959689401     0.3998959860
| 19>  H        1.1461277825    -0.7542647784     1.9559560959
| 20>  H        2.3446265424    -1.7275659125    -0.1514762712
| 21>  H        1.0995965573    -3.5427520548    -0.9347827378
| 22>  H        1.4115210339    -0.2177756025    -1.6771564849
| 23> *
| 24>
| 25>                          ****END OF INPUT****

CARTESIAN COORDINATES (ANGSTROEM)
---------------------------------
  C     -0.036680    1.527085    0.034070
  C      0.031755    0.028073    0.013469
  C     -0.838249   -0.870163    0.843229
  C      0.655324   -0.958338    1.012625
  C      1.250039   -1.790557   -0.111468
  O      0.804311   -3.117335   -0.122176
  C      0.621280   -0.774346   -1.165178
  C     -0.286549   -1.328898   -2.155873
  N     -0.995642   -1.803178   -2.937033
  H      0.918349    1.978193   -0.258855
  H     -0.805752    1.896429   -0.654213
  H     -0.286951    1.891340    1.035337
  H     -1.358504   -0.369902    1.653573
  H     -1.385497   -1.695969    0.399896
  H      1.146128   -0.754265    1.955956
  H      2.344627   -1.727566   -0.151476
  H      1.099597   -3.542752   -0.934783
  H      1.411521   -0.217776   -1.677156

 Total Charge           Charge          ....    0
 Multiplicity           Mult            ....    1
 Number of Electrons    NEL             ....   66
 Basis Dimension        Dim             ....  333

ORBITAL ENERGIES
----------------

  NO   OCC          E(Eh)            E(eV)
   0   2.0000     -20.573999      -559.8470
   1   2.0000     -15.567487      -423.6129
   2   2.0000     -11.314518      -307.8837
   3   2.0000     -11.284321      -307.0620
   4   2.0000     -11.269956      -306.6711
   5   2.0000     -11.267499      -306.6042
   6   2.0000     -11.247806      -306.0684
   7   2.0000     -11.239953      -305.8547
   8   2.0000     -11.236973      -305.7736
   9   2.0000      -1.386579       -37.7307
  10   2.0000      -1.225350       -33.3435
  11   2.0000      -1.203480       -32.7483
  12   2.0000      -1.026624       -27.9359
  13   2.0000      -0.998979       -27.1836
  14   2.0000      -0.919875       -25.0311
  15   2.0000      -0.810690       -22.0600
  16   2.0000      -0.768584       -20.9142
  17   2.0000      -0.731970       -19.9179
  18   2.0000      -0.689295       -18.7567
  19   2.0000      -0.674703       -18.3596
  20   2.0000      -0.635291       -17.2871
  21   2.0000      -0.602537       -16.3959
  22   2.0000      -0.583585       -15.8802
  23   2.0000      -0.580690       -15.8014
  24   2.0000      -0.557890       -15.1810
  25   2.0000      -0.549046       -14.9403
  26   2.0000      -0.531141       -14.4531
  27   2.0000      -0.504058       -13.7161
  28   2.0000      -0.482872       -13.1396
  29   2.0000      -0.456782       -12.4297
  30   2.0000      -0.433516       -11.7966
  31   2.0000      -0.421182       -11.4609
  32   2.0000      -0.400011       -10.8848
  33   0.0000       0.118463         3.2236
  34   0.0000       0.137007         3.7282
  35   0.0000       0.151797         4.1306
  36   0.0000       0.161155         4.3852
  37   0.0000       0.179533         4.8853

MULLIKEN ATOMIC CHARGES
-----------------------
   0 C :   -0.410768
   1 C :    0.055053
   2 C :   -0.281424
   3 C :   -0.099515
   4 C :    0.025335
   5 O :   -0.433849
   6 C :    0.014493
   7 C :   -0.252379
   8 N :   -0.043103
   9 H :    0.131457
  10 H :    0.149927
  11 H :    0.135460
  12 H :    0.137570
  13 H :    0.163729
  14 H :    0.142090
  15 H :    0.101041
  16 H :    0.325609
  17 H :    0.139273
Sum of atomic charges:    0.0000000

LOEWDIN ATOMIC CHARGES
----------------------
   0 C :   -0.268038
   1 C :   -0.196718
   2 C :   -0.167861
   3 C :   -0.141855
   4 C :   -0.275503
   5 O :    0.012166
   6 C :   -0.163075
   7 C :   -0.177907
   8 N :    0.061081
   9 H :    0.128094
  10 H :    0.134611
  11 H :    0.133589
  12 H :    0.145122
  13 H :    0.144240
  14 H :    0.139328
  15 H :    0.135795
  16 H :    0.183353
  17 H :    0.173578

  Mayer bond orders larger than 0.1
B(  0-C ,  1-C ) :   0.8984 B(  0-C ,  9-H ) :   0.9385 B(  0-C , 10-H ) :   0.9363
B(  0-C , 11-H ) :   0.9321 B(  1-C ,  2-C ) :   0.9130 B(  1-C ,  3-C ) :   0.7878
B(  1-C ,  6-C ) :   0.8787 B(  2-C ,  3-C ) :   0.8729 B(  2-C , 12-H ) :   0.9320
B(  2-C , 13-H ) :   0.9020 B(  3-C ,  4-C ) :   0.9207 B(  3-C , 14-H ) :   0.9207
B(  4-C ,  5-O ) :   1.1489 B(  4-C ,  6-C ) :   0.8911 B(  4-C , 15-H ) :   0.9645
B(  5-O , 16-H ) :   0.8348 B(  6-C ,  7-C ) :   0.9400 B(  6-C , 17-H ) :   0.9059
B(  7-C ,  8-N ) :   2.8634

MP2 TOTAL ENERGY:     -401.249017421 Eh
FINAL SINGLE POINT ENERGY      -401.249017421169

DIPOLE MOMENT
-------------
                                X             Y             Z
Electronic contribution:     -0.45882      -5.46975      -4.59722
Nuclear contribution   :      1.60665       6.33824       5.39479
                        -----------------------------------------
Total Dipole Moment    :      1.14783       0.86849       0.79757
                        -----------------------------------------
Magnitude (a.u.)       :      1.64558
Magnitude (Debye)      :      4.18272

                             ****ORCA TERMINATED NORMALLY****
TOTAL RUN TIME: 0 days 0 hours 18 minutes 17 seconds 371 msec
