                         Program Version 3.0.3 - RELEASE   -
|  1> ! RI-MP2 RIJK def2-TZVP def2-TZVP/C def2-TZVP/JK TIGHTSCF
|  2> % maxcore 2000
|  3> % mp2 density relaxed end
|  4> *xyz 0 1
|  5>  C       -0.1283530809     1.5441021189    -0.0240244868
|  6>  C        0.1001110783     0.0220696412    -0.0492734911
|  7>  C        0.7389101376    -0.5070251741     1.1954983074
|  8>  N        2.0453990661    -0.7680161989     1.2873555881
|  9>  N        2.1973031698    -1.1988152275     2.5279210269
| 10>  N        1.0946163677    -1.2451622131     3.2822175994
| 11>  C        0.1511812013    -0.8089367270     2.4494713375
| 12>  N       -1.1953699668    -0.7662683220     2.8040617176
| 13>  H        0.8212744027     2.0763152059     0.0835959745
| 14>  H       -0.6084032695     1.8818035292    -0.9477471767
| 15>  H       -0.7698716242     1.8434144185     0.8126080203
| 16>  H       -0.8586343957    -0.4887999482    -0.2027452210
| 17>  H        0.7372040108    -0.2367210402    -0.9002267169
| 18>  H        3.0881871560    -1.5046815901     2.8796575623
| 19>  H       -1.3247234896    -0.8783525809     3.8013417904
| 20>  H       -1.6722000634     0.0634697184     2.4780712381
| 21> *
| 22>
| 23>                          ****END OF INPUT****

CARTESIAN COORDINATES (ANGSTROEM)
---------------------------------
  C     -0.128353    1.544102   -0.024024
  C      0.100111    0.022070   -0.049273
  C      0.738910   -0.507025    1.195498
  N      2.045399   -0.768016    1.287356
  N      2.197303   -1.198815    2.527921
  N      1.094616   -1.245162    3.282218
  C      0.151181   -0.808937    2.449471
  N     -1.195370   -0.766268    2.804062
  H      0.821274    2.076315    0.083596
  H     -0.608403    1.881804   -0.947747
  H     -0.769872    1.843414    0.812608
  H     -0.858634   -0.488800   -0.202745
  H      0.737204   -0.236721   -0.900227
  H      3.088187   -1.504682    2.879658
  H     -1.324723   -0.878353    3.801342
  H     -1.672200    0.063470    2.478071

 Total Charge           Charge          ....    0
 Multiplicity           Mult            ....    1
 Number of Electrons    NEL             ....   60
 Basis Dimension        Dim             ....  296

ORBITAL ENERGIES
----------------

  NO   OCC          E(Eh)            E(eV)
   0   2.0000     -15.660063      -426.1320
   1   2.0000     -15.608470      -424.7281
   2   2.0000     -15.593677      -424.3255
   3   2.0000     -15.570185      -423.6863
   4   2.0000     -11.293664      -307.3162
   5   2.0000     -11.255596      -306.2803
   6   2.0000     -11.236165      -305.7516
   7   2.0000     -11.224174      -305.4253
   8   2.0000      -1.433165       -38.9984
   9   2.0000      -1.231465       -33.5099
  10   2.0000      -1.172381       -31.9021
  11   2.0000      -1.087169       -29.5834
  12   2.0000      -1.025181       -27.8966
  13   2.0000      -0.887749       -24.1569
  14   2.0000      -0.830322       -22.5942
  15   2.0000      -0.790263       -21.5042
  16   2.0000      -0.738633       -20.0992
  17   2.0000      -0.662988       -18.0408
  18   2.0000      -0.654362       -17.8061
  19   2.0000      -0.635101       -17.2820
  20   2.0000      -0.614742       -16.7280
  21   2.0000      -0.602705       -16.4004
  22   2.0000      -0.536897       -14.6097
  23   2.0000      -0.522528       -14.2187
  24   2.0000      -0.505516       -13.7558
  25   2.0000      -0.493070       -13.4171
  26   2.0000      -0.477463       -12.9924
  27   2.0000      -0.462760       -12.5923
  28   2.0000      -0.381072       -10.3695
  29   2.0000      -0.324133        -8.8201
  30   0.0000       0.122684         3.3384
  31   0.0000       0.143526         3.9055
  32   0.0000       0.147139         4.0038
  33   0.0000       0.166186         4.5222
  34   0.0000       0.181290         4.9332

MULLIKEN ATOMIC CHARGES
-----------------------
   0 C :   -0.379651
   1 C :   -0.283431
   2 C :    0.043368
   3 N :   -0.204284
   4 N :   -0.009279
   5 N :   -0.203149
   6 C :    0.139008
   7 N :   -0.529524
   8 H :    0.139588
   9 H :    0.133897
  10 H :    0.106785
  11 H :    0.137042
  12 H :    0.138051
  13 H :    0.264968
  14 H :    0.254060
  15 H :    0.252549
Sum of atomic charges:    0.0000000

LOEWDIN ATOMIC CHARGES
----------------------
   0 C :   -0.309486
   1 C :   -0.259176
   2 C :   -0.275345
   3 N :    0.039124
   4 N :    0.052847
   5 N :    0.020958
   6 C :   -0.370085
   7 N :   -0.083334
   8 H :    0.125252
   9 H :    0.121334
  10 H :    0.115169
  11 H :    0.146937
  12 H :    0.150185
  13 H :    0.184320
  14 H :    0.173073
  15 H :    0.168227

  Mayer bond orders larger than 0.1
B(  0-C ,  1-C ) :   0.9142 B(  0-C ,  8-H ) :   0.9385 B(  0-C ,  9-H ) :   0.9378
B(  0-C , 10-H ) :   0.9363 B(  1-C ,  2-C ) :   0.8799 B(  1-C , 11-H ) :   0.9441
B(  1-C , 12-H ) :   0.9388 B(  2-C ,  3-N ) :   1.5087 B(  2-C ,  6-C ) :   1.3403
B(  3-N ,  4-N ) :   1.1428 B(  4-N ,  5-N ) :   1.1091 B(  4-N , 13-H ) :   0.8767
B(  5-N ,  6-C ) :   1.5380 B(  6-C ,  7-N ) :   1.0157 B(  7-N , 14-H ) :   0.8744
B(  7-N , 15-H ) :   0.8739

MP2 TOTAL ENERGY:     -375.485331738 Eh
FINAL SINGLE POINT ENERGY      -375.485331738420

DIPOLE MOMENT
-------------
                                X             Y             Z
Electronic contribution:      4.80671      -5.45891       5.32301
Nuclear contribution   :     -5.07771       5.91647      -5.16718
                        -----------------------------------------
Total Dipole Moment    :     -0.27100       0.45756       0.15583
                        -----------------------------------------
Magnitude (a.u.)       :      0.55416
Magnitude (Debye)      :      1.40856

                             ****ORCA TERMINATED NORMALLY****
TOTAL RUN TIME: 0 days 0 hours 11 minutes 14 seconds 865 msec
