                         Program Version 3.0.3 - RELEASE   -
|  1> ! RI-MP2 RIJK def2-TZVP def2-TZVP/C def2-TZVP/JK TIGHTSCF
|  2> % maxcore 2000
|  3> % mp2 density relaxed end
|  4> *xyz 0 1
|  5>  N       -0.1017321201     1.3069093288     0.0243126550
|  6>  C       -0.0456789986    -0.0605386357     0.0347094546
|  7>  N       -1.0992657238    -0.8597722370    -0.1092884516
|  8>  N       -0.5213338068    -2.0587355861     0.0429127754
|  9>  C       -1.2494279761    -3.3060686797    -0.0455335696
| 10>  C       -1.7002131343    -3.6046020055    -1.4103649720
| 11>  N       -2.0655186455    -3.8608962532    -2.4746559335
| 12>  N        0.7823528661    -2.0138657200     0.2583429348
| 13>  N        1.1098264439    -0.7492096542     0.2607117575
| 14>  H        0.7828192193     1.7513786205    -0.1699065954
| 15>  H       -0.8793655178     1.6997645590    -0.4835593855
| 16>  H       -0.5718695687    -4.0891478681     0.3021135845
| 17>  H       -2.1158061277    -3.2637792586     0.6209030758
| 18> *
| 19>
| 20>                          ****END OF INPUT****

CARTESIAN COORDINATES (ANGSTROEM)
---------------------------------
  N     -0.101732    1.306909    0.024313
  C     -0.045679   -0.060539    0.034709
  N     -1.099266   -0.859772   -0.109288
  N     -0.521334   -2.058736    0.042913
  C     -1.249428   -3.306069   -0.045534
  C     -1.700213   -3.604602   -1.410365
  N     -2.065519   -3.860896   -2.474656
  N      0.782353   -2.013866    0.258343
  N      1.109826   -0.749210    0.260712
  H      0.782819    1.751379   -0.169907
  H     -0.879366    1.699765   -0.483559
  H     -0.571870   -4.089148    0.302114
  H     -2.115806   -3.263779    0.620903

 Total Charge           Charge          ....    0
 Multiplicity           Mult            ....    1
 Number of Electrons    NEL             ....   64
 Basis Dimension        Dim             ....  303

ORBITAL ENERGIES
----------------

  NO   OCC          E(Eh)            E(eV)
   0   2.0000     -15.717389      -427.6919
   1   2.0000     -15.689771      -426.9404
   2   2.0000     -15.620198      -425.0472
   3   2.0000     -15.614132      -424.8821
   4   2.0000     -15.595889      -424.3857
   5   2.0000     -15.593715      -424.3265
   6   2.0000     -11.358986      -309.0937
   7   2.0000     -11.352978      -308.9302
   8   2.0000     -11.296114      -307.3829
   9   2.0000      -1.515342       -41.2345
  10   2.0000      -1.285899       -34.9911
  11   2.0000      -1.270887       -34.5826
  12   2.0000      -1.239926       -33.7401
  13   2.0000      -1.172017       -31.8922
  14   2.0000      -1.059740       -28.8370
  15   2.0000      -0.897410       -24.4198
  16   2.0000      -0.873400       -23.7664
  17   2.0000      -0.782451       -21.2916
  18   2.0000      -0.749574       -20.3969
  19   2.0000      -0.711806       -19.3692
  20   2.0000      -0.693624       -18.8745
  21   2.0000      -0.661743       -18.0069
  22   2.0000      -0.646183       -17.5835
  23   2.0000      -0.591055       -16.0834
  24   2.0000      -0.577907       -15.7257
  25   2.0000      -0.527004       -14.3405
  26   2.0000      -0.509365       -13.8605
  27   2.0000      -0.494891       -13.4667
  28   2.0000      -0.485664       -13.2156
  29   2.0000      -0.478536       -13.0216
  30   2.0000      -0.453327       -12.3356
  31   2.0000      -0.366980        -9.9860
  32   0.0000       0.098703         2.6858
  33   0.0000       0.122900         3.3443
  34   0.0000       0.129960         3.5364
  35   0.0000       0.151671         4.1272
  36   0.0000       0.153465         4.1760

MULLIKEN ATOMIC CHARGES
-----------------------
   0 N :   -0.517931
   1 C :    0.250055
   2 N :   -0.276871
   3 N :    0.218169
   4 C :   -0.047476
   5 C :   -0.164312
   6 N :   -0.045215
   7 N :   -0.160960
   8 N :   -0.186025
   9 H :    0.273668
  10 H :    0.269675
  11 H :    0.200056
  12 H :    0.187168
Sum of atomic charges:   -0.0000000

LOEWDIN ATOMIC CHARGES
----------------------
   0 N :   -0.051341
   1 C :   -0.476738
   2 N :    0.051005
   3 N :    0.113238
   4 C :   -0.225363
   5 C :   -0.178612
   6 N :    0.088063
   7 N :   -0.035130
   8 N :    0.008095
   9 H :    0.181839
  10 H :    0.178722
  11 H :    0.175728
  12 H :    0.170495

  Mayer bond orders larger than 0.1
B(  0-N ,  1-C ) :   1.1168 B(  0-N ,  9-H ) :   0.8632 B(  0-N , 10-H ) :   0.8666
B(  1-C ,  2-N ) :   1.4377 B(  1-C ,  8-N ) :   1.3662 B(  2-N ,  3-N ) :   1.0598
B(  2-N ,  7-N ) :   0.1112 B(  3-N ,  4-C ) :   0.8774 B(  3-N ,  7-N ) :   1.0928
B(  4-C ,  5-C ) :   0.9111 B(  4-C , 11-H ) :   0.8996 B(  4-C , 12-H ) :   0.9070
B(  5-C ,  6-N ) :   2.8276 B(  7-N ,  8-N ) :   1.2449

MP2 TOTAL ENERGY:     -444.369422459 Eh
FINAL SINGLE POINT ENERGY      -444.369422459401

DIPOLE MOMENT
-------------
                                X             Y             Z
Electronic contribution:      0.23769      -1.98341      -0.93556
Nuclear contribution   :     -0.62953       2.48698       1.60783
                        -----------------------------------------
Total Dipole Moment    :     -0.39184       0.50357       0.67228
                        -----------------------------------------
Magnitude (a.u.)       :      0.92686
Magnitude (Debye)      :      2.35590

                             ****ORCA TERMINATED NORMALLY****
TOTAL RUN TIME: 0 days 0 hours 13 minutes 8 seconds 408 msec
