                         Program Version 3.0.3 - RELEASE   -
|  1> ! RI-MP2 RIJK def2-TZVP def2-TZVP/C def2-TZVP/JK TIGHTSCF
|  2> % maxcore 2000
|  3> % mp2 density relaxed end
|  4> *xyz 0 1
|  5>  C        0.1217006349     1.4715633696     0.0068395656
|  6>  C        0.0230072044    -0.0355880278     0.0368741953
|  7>  O        1.0439273592    -0.7365657614     0.0733212294
|  8>  C       -1.2717304701    -0.6705092340     0.0252107001
|  9>  C       -1.3658919822    -2.0688091503     0.0555788581
| 10>  O       -0.3923762444    -2.9580140622     0.0953652183
| 11>  N       -2.6702767434    -2.3761866301     0.0368621698
| 12>  N       -3.4737329842    -1.2583389492    -0.0051972778
| 13>  C       -2.6304234811    -0.2458419280    -0.0118957764
| 14>  H        1.1702211689     1.7705380852    -0.0001679148
| 15>  H       -0.3820087380     1.8700907263    -0.8803332494
| 16>  H       -0.3768947903     1.9017076254     0.8823517824
| 17>  H        0.4270399822    -2.3925486012     0.0982150342
| 18>  H       -3.0875206237    -3.2916806548     0.0495852045
| 19>  H       -3.0160080222     0.7632715725    -0.0429084093
| 20> *
| 21>
| 22>                          ****END OF INPUT****

CARTESIAN COORDINATES (ANGSTROEM)
---------------------------------
  C      0.121701    1.471563    0.006840
  C      0.023007   -0.035588    0.036874
  O      1.043927   -0.736566    0.073321
  C     -1.271730   -0.670509    0.025211
  C     -1.365892   -2.068809    0.055579
  O     -0.392376   -2.958014    0.095365
  N     -2.670277   -2.376187    0.036862
  N     -3.473733   -1.258339   -0.005197
  C     -2.630423   -0.245842   -0.011896
  H      1.170221    1.770538   -0.000168
  H     -0.382009    1.870091   -0.880333
  H     -0.376895    1.901708    0.882352
  H      0.427040   -2.392549    0.098215
  H     -3.087521   -3.291681    0.049585
  H     -3.016008    0.763272   -0.042908

 Total Charge           Charge          ....    0
 Multiplicity           Mult            ....    1
 Number of Electrons    NEL             ....   66
 Basis Dimension        Dim             ....  315

ORBITAL ENERGIES
----------------

  NO   OCC          E(Eh)            E(eV)
   0   2.0000     -20.612343      -560.8904
   1   2.0000     -20.550103      -559.1967
   2   2.0000     -15.647969      -425.8029
   3   2.0000     -15.599237      -424.4768
   4   2.0000     -11.369532      -309.3807
   5   2.0000     -11.351717      -308.8959
   6   2.0000     -11.284225      -307.0594
   7   2.0000     -11.244528      -305.9792
   8   2.0000     -11.231380      -305.6214
   9   2.0000      -1.455766       -39.6134
  10   2.0000      -1.388030       -37.7702
  11   2.0000      -1.373258       -37.3683
  12   2.0000      -1.122990       -30.5581
  13   2.0000      -1.080773       -29.4093
  14   2.0000      -1.014476       -27.6053
  15   2.0000      -0.882480       -24.0135
  16   2.0000      -0.838966       -22.8294
  17   2.0000      -0.802262       -21.8307
  18   2.0000      -0.740793       -20.1580
  19   2.0000      -0.692904       -18.8549
  20   2.0000      -0.665780       -18.1168
  21   2.0000      -0.662564       -18.0293
  22   2.0000      -0.629991       -17.1429
  23   2.0000      -0.621727       -16.9180
  24   2.0000      -0.608619       -16.5614
  25   2.0000      -0.576113       -15.6768
  26   2.0000      -0.562373       -15.3029
  27   2.0000      -0.558504       -15.1977
  28   2.0000      -0.520336       -14.1591
  29   2.0000      -0.474046       -12.8994
  30   2.0000      -0.437728       -11.9112
  31   2.0000      -0.394619       -10.7381
  32   2.0000      -0.343913        -9.3584
  33   0.0000       0.105161         2.8616
  34   0.0000       0.128571         3.4986
  35   0.0000       0.142628         3.8811
  36   0.0000       0.157096         4.2748
  37   0.0000       0.178368         4.8537

MULLIKEN ATOMIC CHARGES
-----------------------
   0 C :   -0.423192
   1 C :    0.306632
   2 O :   -0.409383
   3 C :   -0.114272
   4 C :    0.225402
   5 O :   -0.399120
   6 N :   -0.127891
   7 N :   -0.194580
   8 C :   -0.108106
   9 H :    0.160005
  10 H :    0.152380
  11 H :    0.153166
  12 H :    0.372675
  13 H :    0.264572
  14 H :    0.141713
Sum of atomic charges:    0.0000000

LOEWDIN ATOMIC CHARGES
----------------------
   0 C :   -0.263306
   1 C :   -0.318824
   2 O :    0.088308
   3 C :   -0.190921
   4 C :   -0.339016
   5 O :    0.112573
   6 N :    0.156730
   7 N :    0.033062
   8 C :   -0.239722
   9 H :    0.136250
  10 H :    0.140030
  11 H :    0.140713
  12 H :    0.211326
  13 H :    0.193998
  14 H :    0.138797

  Mayer bond orders larger than 0.1
B(  0-C ,  1-C ) :   0.9540 B(  0-C ,  9-H ) :   0.9388 B(  0-C , 10-H ) :   0.9183
B(  0-C , 11-H ) :   0.9165 B(  1-C ,  2-O ) :   1.7169 B(  1-C ,  3-C ) :   0.9961
B(  2-O , 12-H ) :   0.1251 B(  3-C ,  4-C ) :   1.2458 B(  3-C ,  8-C ) :   1.1571
B(  4-C ,  5-O ) :   1.2210 B(  4-C ,  6-N ) :   1.2802 B(  5-O , 12-H ) :   0.7218
B(  6-N ,  7-N ) :   0.9702 B(  6-N , 13-H ) :   0.8656 B(  7-N ,  8-C ) :   1.6303
B(  8-C , 14-H ) :   0.9399

MP2 TOTAL ENERGY:     -453.260084068 Eh
FINAL SINGLE POINT ENERGY      -453.260084068395

DIPOLE MOMENT
-------------
                                X             Y             Z
Electronic contribution:     -1.64866      -5.98581       0.09548
Nuclear contribution   :      1.44144       6.26267      -0.10410
                        -----------------------------------------
Total Dipole Moment    :     -0.20722       0.27686      -0.00862
                        -----------------------------------------
Magnitude (a.u.)       :      0.34593
Magnitude (Debye)      :      0.87928

                             ****ORCA TERMINATED NORMALLY****
TOTAL RUN TIME: 0 days 0 hours 14 minutes 11 seconds 781 msec
