                         Program Version 3.0.3 - RELEASE   -
|  1> ! RI-MP2 RIJK def2-TZVP def2-TZVP/C def2-TZVP/JK TIGHTSCF
|  2> % maxcore 2000
|  3> % mp2 density relaxed end
|  4> *xyz 0 1
|  5>  C       -0.0672634907     1.5472231478    -0.1158812282
|  6>  C        0.0777610014     0.0475603866     0.0424115446
|  7>  C        1.3267340106    -0.7575831034    -0.1877250669
|  8>  C        2.5728642972    -0.0356827385     0.3382424588
|  9>  C        1.9547665359    -0.0547007425     1.7821217470
| 10>  N        2.6648150246    -1.0233549873     2.6195436399
| 11>  C        1.8045434720     1.2440407541     2.4630229929
| 12>  N        1.7169006952     2.2445483273     3.0380908443
| 13>  C        0.6819429331    -0.6997172940     1.2030298956
| 14>  H        0.8187621872     2.1014122500     0.1987170949
| 15>  H       -0.2611194668     1.7961469359    -1.1648224273
| 16>  H       -0.9076755282     1.9202425172     0.4781764407
| 17>  H       -0.7979263485    -0.4918206957    -0.3169615446
| 18>  H        1.3558003564    -1.5921969734    -0.8767183599
| 19>  H        3.4705981402    -0.6544265947     0.3222065658
| 20>  H        2.7941478205     0.9445341009    -0.0905461505
| 21>  H        3.5731061301    -0.6472923459     2.8817319401
| 22>  H        2.1538032959    -1.1625339152     3.4883376696
| 23>  H        0.1419182739    -1.4679370794     1.7441054531
| 24> *
| 25>
| 26>                          ****END OF INPUT****

CARTESIAN COORDINATES (ANGSTROEM)
---------------------------------
  C     -0.067263    1.547223   -0.115881
  C      0.077761    0.047560    0.042412
  C      1.326734   -0.757583   -0.187725
  C      2.572864   -0.035683    0.338242
  C      1.954767   -0.054701    1.782122
  N      2.664815   -1.023355    2.619544
  C      1.804543    1.244041    2.463023
  N      1.716901    2.244548    3.038091
  C      0.681943   -0.699717    1.203030
  H      0.818762    2.101412    0.198717
  H     -0.261119    1.796147   -1.164822
  H     -0.907676    1.920243    0.478176
  H     -0.797926   -0.491821   -0.316962
  H      1.355800   -1.592197   -0.876718
  H      3.470598   -0.654427    0.322207
  H      2.794148    0.944534   -0.090546
  H      3.573106   -0.647292    2.881732
  H      2.153803   -1.162534    3.488338
  H      0.141918   -1.467937    1.744105

 Total Charge           Charge          ....    0
 Multiplicity           Mult            ....    1
 Number of Electrons    NEL             ....   66
 Basis Dimension        Dim             ....  339

ORBITAL ENERGIES
----------------

  NO   OCC          E(Eh)            E(eV)
   0   2.0000     -15.569666      -423.6721
   1   2.0000     -15.567597      -423.6158
   2   2.0000     -11.317374      -307.9614
   3   2.0000     -11.266850      -306.5866
   4   2.0000     -11.251527      -306.1696
   5   2.0000     -11.249569      -306.1163
   6   2.0000     -11.249049      -306.1022
   7   2.0000     -11.247078      -306.0485
   8   2.0000     -11.221265      -305.3461
   9   2.0000      -1.252388       -34.0792
  10   2.0000      -1.206477       -32.8299
  11   2.0000      -1.172174       -31.8965
  12   2.0000      -1.017031       -27.6748
  13   2.0000      -0.955637       -26.0042
  14   2.0000      -0.923467       -25.1288
  15   2.0000      -0.804115       -21.8811
  16   2.0000      -0.762751       -20.7555
  17   2.0000      -0.709389       -19.3035
  18   2.0000      -0.700457       -19.0604
  19   2.0000      -0.674109       -18.3434
  20   2.0000      -0.604202       -16.4412
  21   2.0000      -0.584672       -15.9097
  22   2.0000      -0.577349       -15.7105
  23   2.0000      -0.565851       -15.3976
  24   2.0000      -0.550349       -14.9758
  25   2.0000      -0.543206       -14.7814
  26   2.0000      -0.515623       -14.0308
  27   2.0000      -0.494483       -13.4556
  28   2.0000      -0.463918       -12.6239
  29   2.0000      -0.442558       -12.0426
  30   2.0000      -0.428663       -11.6645
  31   2.0000      -0.417704       -11.3663
  32   2.0000      -0.396265       -10.7829
  33   0.0000       0.123928         3.3723
  34   0.0000       0.140963         3.8358
  35   0.0000       0.150559         4.0969
  36   0.0000       0.159673         4.3449
  37   0.0000       0.186103         5.0641

MULLIKEN ATOMIC CHARGES
-----------------------
   0 C :   -0.381534
   1 C :   -0.130452
   2 C :   -0.098838
   3 C :   -0.270043
   4 C :    0.332079
   5 N :   -0.557111
   6 C :   -0.283695
   7 N :   -0.055770
   8 C :   -0.113467
   9 H :    0.138704
  10 H :    0.136035
  11 H :    0.139088
  12 H :    0.118662
  13 H :    0.138928
  14 H :    0.130760
  15 H :    0.144268
  16 H :    0.238658
  17 H :    0.237316
  18 H :    0.136412
Sum of atomic charges:    0.0000000

LOEWDIN ATOMIC CHARGES
----------------------
   0 C :   -0.285241
   1 C :   -0.209970
   2 C :   -0.152743
   3 C :   -0.155408
   4 C :   -0.309200
   5 N :   -0.094111
   6 C :   -0.168888
   7 N :    0.057544
   8 C :   -0.118418
   9 H :    0.129213
  10 H :    0.127678
  11 H :    0.131014
  12 H :    0.162829
  13 H :    0.137431
  14 H :    0.144910
  15 H :    0.135054
  16 H :    0.163316
  17 H :    0.163672
  18 H :    0.141319

  Mayer bond orders larger than 0.1
B(  0-C ,  1-C ) :   0.9099 B(  0-C ,  9-H ) :   0.9347 B(  0-C , 10-H ) :   0.9325
B(  0-C , 11-H ) :   0.9341 B(  1-C ,  2-C ) :   0.8859 B(  1-C ,  8-C ) :   0.8721
B(  1-C , 12-H ) :   0.9295 B(  2-C ,  3-C ) :   0.9452 B(  2-C ,  8-C ) :   0.8441
B(  2-C , 13-H ) :   0.9197 B(  3-C ,  4-C ) :   0.8986 B(  3-C , 14-H ) :   0.9174
B(  3-C , 15-H ) :   0.9222 B(  4-C ,  5-N ) :   0.8755 B(  4-C ,  6-C ) :   0.9693
B(  4-C ,  8-C ) :   0.8781 B(  5-N , 16-H ) :   0.8891 B(  5-N , 17-H ) :   0.8884
B(  6-C ,  7-N ) :   2.8662 B(  8-C , 18-H ) :   0.9088

MP2 TOTAL ENERGY:     -381.375890130 Eh
FINAL SINGLE POINT ENERGY      -381.375890130185

DIPOLE MOMENT
-------------
                                X             Y             Z
Electronic contribution:      1.79581       0.90953       4.83636
Nuclear contribution   :     -1.78440      -1.85847      -5.42790
                        -----------------------------------------
Total Dipole Moment    :      0.01141      -0.94894      -0.59154
                        -----------------------------------------
Magnitude (a.u.)       :      1.11827
Magnitude (Debye)      :      2.84242

                             ****ORCA TERMINATED NORMALLY****
TOTAL RUN TIME: 0 days 0 hours 19 minutes 11 seconds 132 msec
