                         Program Version 3.0.3 - RELEASE   -
|  1> ! RI-MP2 RIJK def2-TZVP def2-TZVP/C def2-TZVP/JK TIGHTSCF
|  2> % maxcore 2000
|  3> % mp2 density relaxed end
|  4> *xyz 0 1
|  5>  C       -0.1909773850    -1.1967331483     0.0205945610
|  6>  C       -0.0927846536     0.0013248164     0.0545988601
|  7>  C        0.0274281007     1.4323630120     0.0481504767
|  8>  N        0.6463650770     2.0848648690     1.2329761805
|  9>  C        1.3505496483     2.1264199505    -0.0458039770
| 10>  C        2.6947450958     1.4100102762    -0.1571599188
| 11>  C        3.4205092019     2.2396166415    -1.2272325831
| 12>  O        2.8926832274     3.5579916144    -1.0999934528
| 13>  C        1.5042248759     3.4125357531    -0.8699458514
| 14>  H       -0.2814632718    -2.2546947805     0.0070631039
| 15>  H       -0.8106631456     1.9506965463    -0.4165665876
| 16>  H        0.1709554521     2.9674530555     1.4123209569
| 17>  H        3.2113783367     1.4677264626     0.8045011874
| 18>  H        2.5864420462     0.3567691776    -0.4257920027
| 19>  H        4.5017795464     2.2991864984    -1.0863492193
| 20>  H        3.2214428074     1.8427733372    -2.2361158099
| 21>  H        0.9559902331     3.3283980821    -1.8235312759
| 22>  H        1.1469378370     4.3050057060    -0.3448979680
| 23> *
| 24>
| 25>                          ****END OF INPUT****

CARTESIAN COORDINATES (ANGSTROEM)
---------------------------------
  C     -0.190977   -1.196733    0.020595
  C     -0.092785    0.001325    0.054599
  C      0.027428    1.432363    0.048150
  N      0.646365    2.084865    1.232976
  C      1.350550    2.126420   -0.045804
  C      2.694745    1.410010   -0.157160
  C      3.420509    2.239617   -1.227233
  O      2.892683    3.557992   -1.099993
  C      1.504225    3.412536   -0.869946
  H     -0.281463   -2.254695    0.007063
  H     -0.810663    1.950697   -0.416567
  H      0.170955    2.967453    1.412321
  H      3.211378    1.467726    0.804501
  H      2.586442    0.356769   -0.425792
  H      4.501780    2.299186   -1.086349
  H      3.221443    1.842773   -2.236116
  H      0.955990    3.328398   -1.823531
  H      1.146938    4.305006   -0.344898

 Total Charge           Charge          ....    0
 Multiplicity           Mult            ....    1
 Number of Electrons    NEL             ....   66
 Basis Dimension        Dim             ....  333

ORBITAL ENERGIES
----------------

  NO   OCC          E(Eh)            E(eV)
   0   2.0000     -20.561056      -559.4948
   1   2.0000     -15.573660      -423.7808
   2   2.0000     -11.291352      -307.2533
   3   2.0000     -11.288322      -307.1708
   4   2.0000     -11.282642      -307.0163
   5   2.0000     -11.279223      -306.9233
   6   2.0000     -11.239256      -305.8357
   7   2.0000     -11.229421      -305.5681
   8   2.0000     -11.228359      -305.5392
   9   2.0000      -1.388746       -37.7897
  10   2.0000      -1.281488       -34.8711
  11   2.0000      -1.042836       -28.3770
  12   2.0000      -1.035601       -28.1801
  13   2.0000      -0.985731       -26.8231
  14   2.0000      -0.917267       -24.9601
  15   2.0000      -0.839140       -22.8342
  16   2.0000      -0.791363       -21.5341
  17   2.0000      -0.723359       -19.6836
  18   2.0000      -0.712198       -19.3799
  19   2.0000      -0.685062       -18.6415
  20   2.0000      -0.666654       -18.1406
  21   2.0000      -0.627478       -17.0745
  22   2.0000      -0.608981       -16.5712
  23   2.0000      -0.573289       -15.6000
  24   2.0000      -0.551396       -15.0042
  25   2.0000      -0.522907       -14.2290
  26   2.0000      -0.498884       -13.5753
  27   2.0000      -0.488449       -13.2914
  28   2.0000      -0.469896       -12.7865
  29   2.0000      -0.442189       -12.0326
  30   2.0000      -0.410778       -11.1778
  31   2.0000      -0.395073       -10.7505
  32   2.0000      -0.370025       -10.0689
  33   0.0000       0.127540         3.4705
  34   0.0000       0.145905         3.9703
  35   0.0000       0.154472         4.2034
  36   0.0000       0.164765         4.4835
  37   0.0000       0.182464         4.9651

MULLIKEN ATOMIC CHARGES
-----------------------
   0 C :   -0.105504
   1 C :    0.049196
   2 C :   -0.365495
   3 N :   -0.348424
   4 C :    0.145590
   5 C :   -0.234964
   6 C :   -0.044526
   7 O :   -0.314024
   8 C :   -0.034620
   9 H :    0.192697
  10 H :    0.142999
  11 H :    0.218312
  12 H :    0.128064
  13 H :    0.142249
  14 H :    0.123923
  15 H :    0.089226
  16 H :    0.103469
  17 H :    0.111831
Sum of atomic charges:   -0.0000000

LOEWDIN ATOMIC CHARGES
----------------------
   0 C :   -0.085391
   1 C :   -0.090138
   2 C :   -0.226062
   3 N :    0.046816
   4 C :   -0.266265
   5 C :   -0.209814
   6 C :   -0.296436
   7 O :    0.150904
   8 C :   -0.274817
   9 H :    0.127953
  10 H :    0.156463
  11 H :    0.168187
  12 H :    0.148219
  13 H :    0.146966
  14 H :    0.127841
  15 H :    0.119971
  16 H :    0.126086
  17 H :    0.129516

  Mayer bond orders larger than 0.1
B(  0-C ,  1-C ) :   2.5840 B(  0-C ,  2-C ) :  -0.1496 B(  0-C ,  9-H ) :   0.8940
B(  1-C ,  2-C ) :   1.1406 B(  2-C ,  3-N ) :   1.0250 B(  2-C ,  4-C ) :   0.8545
B(  2-C , 10-H ) :   0.9508 B(  3-N ,  4-C ) :   0.8800 B(  3-N , 11-H ) :   0.8626
B(  4-C ,  5-C ) :   0.9150 B(  4-C ,  8-C ) :   0.9272 B(  5-C ,  6-C ) :   0.9621
B(  5-C , 12-H ) :   0.9218 B(  5-C , 13-H ) :   0.9193 B(  6-C ,  7-O ) :   0.9228
B(  6-C , 14-H ) :   0.9250 B(  6-C , 15-H ) :   0.9276 B(  7-O ,  8-C ) :   0.9651
B(  8-C , 16-H ) :   0.9400 B(  8-C , 17-H ) :   0.9014

MP2 TOTAL ENERGY:     -401.187887009 Eh
FINAL SINGLE POINT ENERGY      -401.187887008902

DIPOLE MOMENT
-------------
                                X             Y             Z
Electronic contribution:     -2.14216      -0.56349       1.35712
Nuclear contribution   :      1.82597       0.49578      -1.76067
                        -----------------------------------------
Total Dipole Moment    :     -0.31619      -0.06772      -0.40356
                        -----------------------------------------
Magnitude (a.u.)       :      0.51712
Magnitude (Debye)      :      1.31443

                             ****ORCA TERMINATED NORMALLY****
TOTAL RUN TIME: 0 days 0 hours 18 minutes 51 seconds 6 msec
