                         Program Version 3.0.3 - RELEASE   -
|  1> ! RI-MP2 RIJK def2-TZVP def2-TZVP/C def2-TZVP/JK TIGHTSCF
|  2> % maxcore 2000
|  3> % mp2 density relaxed end
|  4> *xyz 0 1
|  5>  C       -0.5853779889     1.3102384522     0.0268314648
|  6>  C        0.0645626811    -0.0701968981     0.0628923324
|  7>  C        0.8566653239    -0.5070981901    -1.1893061280
|  8>  C        1.8006876534    -1.6211064480    -0.6569902409
|  9>  C        2.2164628000    -1.1394554774     0.7402336062
| 10>  C        1.0672238370    -0.2464306998     1.2158595546
| 11>  O        0.9623859009     0.2571779970     2.3032219598
| 12>  C       -0.0457759513    -1.0076229915    -2.2897550020
| 13>  O       -0.1006038886    -0.5675025764    -3.4077576962
| 14>  H        0.1523088515     2.0815893372    -0.2169541303
| 15>  H       -1.3830457890     1.3582411417    -0.7196131884
| 16>  H       -1.0051723021     1.5468178427     1.0076472410
| 17>  H       -0.7132204151    -0.8307217363     0.2512230584
| 18>  H        1.4386457721     0.3337587874    -1.5817815230
| 19>  H        1.2458152771    -2.5649540555    -0.5837860948
| 20>  H        2.6449698934    -1.7931155504    -1.3275143224
| 21>  H        2.4170626530    -1.9361671482     1.4607001324
| 22>  H        3.1177747127    -0.5154276300     0.6978693969
| 23>  H       -0.6955431211    -1.8612355163    -1.9737543106
| 24> *
| 25>
| 26>                          ****END OF INPUT****

CARTESIAN COORDINATES (ANGSTROEM)
---------------------------------
  C     -0.585378    1.310238    0.026831
  C      0.064563   -0.070197    0.062892
  C      0.856665   -0.507098   -1.189306
  C      1.800688   -1.621106   -0.656990
  C      2.216463   -1.139455    0.740234
  C      1.067224   -0.246431    1.215860
  O      0.962386    0.257178    2.303222
  C     -0.045776   -1.007623   -2.289755
  O     -0.100604   -0.567503   -3.407758
  H      0.152309    2.081589   -0.216954
  H     -1.383046    1.358241   -0.719613
  H     -1.005172    1.546818    1.007647
  H     -0.713220   -0.830722    0.251223
  H      1.438646    0.333759   -1.581782
  H      1.245815   -2.564954   -0.583786
  H      2.644970   -1.793116   -1.327514
  H      2.417063   -1.936167    1.460700
  H      3.117775   -0.515428    0.697869
  H     -0.695543   -1.861236   -1.973754

 Total Charge           Charge          ....    0
 Multiplicity           Mult            ....    1
 Number of Electrons    NEL             ....   68
 Basis Dimension        Dim             ....  339

ORBITAL ENERGIES
----------------

  NO   OCC          E(Eh)            E(eV)
   0   2.0000     -20.568000      -559.6837
   1   2.0000     -20.555946      -559.3557
   2   2.0000     -11.341524      -308.6186
   3   2.0000     -11.339542      -308.5646
   4   2.0000     -11.261581      -306.4432
   5   2.0000     -11.260093      -306.4027
   6   2.0000     -11.258060      -306.3474
   7   2.0000     -11.251858      -306.1786
   8   2.0000     -11.231068      -305.6129
   9   2.0000      -1.406872       -38.2829
  10   2.0000      -1.401190       -38.1283
  11   2.0000      -1.158560       -31.5260
  12   2.0000      -1.044337       -28.4178
  13   2.0000      -0.995474       -27.0882
  14   2.0000      -0.907878       -24.7046
  15   2.0000      -0.857625       -23.3372
  16   2.0000      -0.800776       -21.7902
  17   2.0000      -0.737699       -20.0738
  18   2.0000      -0.686017       -18.6675
  19   2.0000      -0.682463       -18.5708
  20   2.0000      -0.655037       -17.8245
  21   2.0000      -0.630762       -17.1639
  22   2.0000      -0.622730       -16.9454
  23   2.0000      -0.597571       -16.2607
  24   2.0000      -0.580187       -15.7877
  25   2.0000      -0.563016       -15.3205
  26   2.0000      -0.548166       -14.9164
  27   2.0000      -0.539498       -14.6805
  28   2.0000      -0.527270       -14.3478
  29   2.0000      -0.500345       -13.6151
  30   2.0000      -0.491138       -13.3645
  31   2.0000      -0.478981       -13.0337
  32   2.0000      -0.434741       -11.8299
  33   2.0000      -0.404098       -10.9961
  34   0.0000       0.114340         3.1113
  35   0.0000       0.122604         3.3362
  36   0.0000       0.125413         3.4127
  37   0.0000       0.141079         3.8390
  38   0.0000       0.156808         4.2670

MULLIKEN ATOMIC CHARGES
-----------------------
   0 C :   -0.405514
   1 C :   -0.095785
   2 C :   -0.002311
   3 C :   -0.263189
   4 C :   -0.195792
   5 C :    0.125417
   6 O :   -0.264725
   7 C :    0.059693
   8 O :   -0.251788
   9 H :    0.129673
  10 H :    0.145520
  11 H :    0.158131
  12 H :    0.117721
  13 H :    0.107189
  14 H :    0.124006
  15 H :    0.145411
  16 H :    0.150430
  17 H :    0.142748
  18 H :    0.073166
Sum of atomic charges:    0.0000000

LOEWDIN ATOMIC CHARGES
----------------------
   0 C :   -0.279292
   1 C :   -0.222892
   2 C :   -0.219800
   3 C :   -0.218872
   4 C :   -0.221526
   5 C :   -0.291389
   6 O :    0.162400
   7 C :   -0.279731
   8 O :    0.140681
   9 H :    0.128841
  10 H :    0.127709
  11 H :    0.134647
  12 H :    0.173128
  13 H :    0.162275
  14 H :    0.142868
  15 H :    0.140584
  16 H :    0.149359
  17 H :    0.158021
  18 H :    0.112988

  Mayer bond orders larger than 0.1
B(  0-C ,  1-C ) :   0.9292 B(  0-C ,  9-H ) :   0.9316 B(  0-C , 10-H ) :   0.9349
B(  0-C , 11-H ) :   0.9319 B(  1-C ,  2-C ) :   0.8813 B(  1-C ,  4-C ) :  -0.1040
B(  1-C ,  5-C ) :   0.8514 B(  1-C , 12-H ) :   0.8916 B(  2-C ,  3-C ) :   0.8893
B(  2-C ,  7-C ) :   0.8490 B(  2-C , 13-H ) :   0.8988 B(  3-C ,  4-C ) :   0.9195
B(  3-C , 14-H ) :   0.9223 B(  3-C , 15-H ) :   0.9239 B(  4-C ,  5-C ) :   0.9015
B(  4-C , 16-H ) :   0.9146 B(  4-C , 17-H ) :   0.9068 B(  5-C ,  6-O ) :   2.0474
B(  7-C ,  8-O ) :   2.0065 B(  7-C , 18-H ) :   0.9334

MP2 TOTAL ENERGY:     -422.364442679 Eh
FINAL SINGLE POINT ENERGY      -422.364442678520

DIPOLE MOMENT
-------------
                                X             Y             Z
Electronic contribution:     -0.10364      -0.32834      -0.49663
Nuclear contribution   :      0.39881      -0.30200       0.59809
                        -----------------------------------------
Total Dipole Moment    :      0.29517      -0.63033       0.10146
                        -----------------------------------------
Magnitude (a.u.)       :      0.70338
Magnitude (Debye)      :      1.78785

                             ****ORCA TERMINATED NORMALLY****
TOTAL RUN TIME: 0 days 0 hours 16 minutes 59 seconds 971 msec
