                         Program Version 3.0.3 - RELEASE   -
|  1> ! RI-MP2 RIJK def2-TZVP def2-TZVP/C def2-TZVP/JK TIGHTSCF
|  2> % maxcore 2000
|  3> % mp2 density relaxed end
|  4> *xyz 0 1
|  5>  C       -0.1418646561     1.5484097336    -0.0190013175
|  6>  C        0.0328004997     0.0406847853     0.0276786275
|  7>  O        0.8197029589    -0.4164541154    -1.1031699110
|  8>  C        1.8884886454    -1.2177535861    -0.5628679810
|  9>  C        1.2505874374    -1.8980666184     0.6506747233
| 10>  C        0.8384196267    -0.5248796481     1.2107368693
| 11>  O        2.1013076086     0.1880825137     1.2516092884
| 12>  C        2.8188693456    -0.2242228208     0.1489772222
| 13>  O        3.9035474586     0.1892700394    -0.1227602854
| 14>  H        0.8163301213     2.0592768480     0.0934026069
| 15>  H       -0.5842127843     1.8384685590    -0.9755457450
| 16>  H       -0.8122151412     1.8776294118     0.7819529840
| 17>  H       -0.9490744073    -0.4518604362    -0.0093668056
| 18>  H        2.3490754258    -1.8030738276    -1.3536381463
| 19>  H        0.4107355679    -2.5443349291     0.3906338621
| 20>  H        1.9592700739    -2.4217102472     1.2953050826
| 21>  H        0.3723472890    -0.4696252120     2.1921431157
| 22> *
| 23>
| 24>                          ****END OF INPUT****

CARTESIAN COORDINATES (ANGSTROEM)
---------------------------------
  C     -0.141865    1.548410   -0.019001
  C      0.032800    0.040685    0.027679
  O      0.819703   -0.416454   -1.103170
  C      1.888489   -1.217754   -0.562868
  C      1.250587   -1.898067    0.650675
  C      0.838420   -0.524880    1.210737
  O      2.101308    0.188083    1.251609
  C      2.818869   -0.224223    0.148977
  O      3.903547    0.189270   -0.122760
  H      0.816330    2.059277    0.093403
  H     -0.584213    1.838469   -0.975546
  H     -0.812215    1.877629    0.781953
  H     -0.949074   -0.451860   -0.009367
  H      2.349075   -1.803074   -1.353638
  H      0.410736   -2.544335    0.390634
  H      1.959270   -2.421710    1.295305
  H      0.372347   -0.469625    2.192143

 Total Charge           Charge          ....    0
 Multiplicity           Mult            ....    1
 Number of Electrons    NEL             ....   68
 Basis Dimension        Dim             ....  327

ORBITAL ENERGIES
----------------

  NO   OCC          E(Eh)            E(eV)
   0   2.0000     -20.605799      -560.7123
   1   2.0000     -20.580348      -560.0197
   2   2.0000     -20.552746      -559.2686
   3   2.0000     -11.381905      -309.7174
   4   2.0000     -11.317839      -307.9741
   5   2.0000     -11.316699      -307.9430
   6   2.0000     -11.303494      -307.5837
   7   2.0000     -11.260016      -306.4006
   8   2.0000     -11.226942      -305.5006
   9   2.0000      -1.472006       -40.0553
  10   2.0000      -1.398104       -38.0443
  11   2.0000      -1.370030       -37.2804
  12   2.0000      -1.085403       -29.5353
  13   2.0000      -1.066246       -29.0140
  14   2.0000      -0.960603       -26.1393
  15   2.0000      -0.862530       -23.4706
  16   2.0000      -0.848137       -23.0790
  17   2.0000      -0.763847       -20.7853
  18   2.0000      -0.726989       -19.7824
  19   2.0000      -0.720617       -19.6090
  20   2.0000      -0.679740       -18.4967
  21   2.0000      -0.646453       -17.5909
  22   2.0000      -0.615973       -16.7615
  23   2.0000      -0.594483       -16.1767
  24   2.0000      -0.585971       -15.9451
  25   2.0000      -0.569164       -15.4877
  26   2.0000      -0.566514       -15.4156
  27   2.0000      -0.542251       -14.7554
  28   2.0000      -0.527446       -14.3525
  29   2.0000      -0.524009       -14.2590
  30   2.0000      -0.511431       -13.9167
  31   2.0000      -0.476751       -12.9730
  32   2.0000      -0.449056       -12.2194
  33   2.0000      -0.415134       -11.2964
  34   0.0000       0.126812         3.4507
  35   0.0000       0.148472         4.0401
  36   0.0000       0.156018         4.2455
  37   0.0000       0.167492         4.5577
  38   0.0000       0.173136         4.7113

MULLIKEN ATOMIC CHARGES
-----------------------
   0 C :   -0.413050
   1 C :    0.037366
   2 O :   -0.318569
   3 C :    0.101636
   4 C :   -0.306654
   5 C :    0.089937
   6 O :   -0.248688
   7 C :    0.193457
   8 O :   -0.261373
   9 H :    0.159345
  10 H :    0.147404
  11 H :    0.125890
  12 H :    0.100386
  13 H :    0.150889
  14 H :    0.140369
  15 H :    0.149500
  16 H :    0.152155
Sum of atomic charges:   -0.0000000

LOEWDIN ATOMIC CHARGES
----------------------
   0 C :   -0.287718
   1 C :   -0.299480
   2 O :    0.187979
   3 C :   -0.263240
   4 C :   -0.205294
   5 C :   -0.247712
   6 O :    0.262927
   7 C :   -0.433004
   8 O :    0.156888
   9 H :    0.133131
  10 H :    0.131588
  11 H :    0.128889
  12 H :    0.144142
  13 H :    0.149450
  14 H :    0.146437
  15 H :    0.148869
  16 H :    0.146147

  Mayer bond orders larger than 0.1
B(  0-C ,  1-C ) :   0.9277 B(  0-C ,  9-H ) :   0.9300 B(  0-C , 10-H ) :   0.9359
B(  0-C , 11-H ) :   0.9290 B(  1-C ,  2-O ) :   0.8968 B(  1-C ,  5-C ) :   0.9388
B(  1-C , 12-H ) :   0.9132 B(  2-O ,  3-C ) :   0.8941 B(  3-C ,  4-C ) :   0.9459
B(  3-C ,  7-C ) :   0.8972 B(  3-C , 13-H ) :   0.9079 B(  4-C ,  5-C ) :   0.9319
B(  4-C , 14-H ) :   0.9196 B(  4-C , 15-H ) :   0.9129 B(  5-C ,  6-O ) :   0.8398
B(  5-C , 16-H ) :   0.9102 B(  6-O ,  7-C ) :   1.0837 B(  7-C ,  8-O ) :   2.0557

MP2 TOTAL ENERGY:     -458.272658244 Eh
FINAL SINGLE POINT ENERGY      -458.272658243643

DIPOLE MOMENT
-------------
                                X             Y             Z
Electronic contribution:      6.52407      -0.85577      -0.54914
Nuclear contribution   :     -7.93519      -0.03609       1.06772
                        -----------------------------------------
Total Dipole Moment    :     -1.41112      -0.89186       0.51858
                        -----------------------------------------
Magnitude (a.u.)       :      1.74802
Magnitude (Debye)      :      4.44312

                             ****ORCA TERMINATED NORMALLY****
TOTAL RUN TIME: 0 days 0 hours 18 minutes 17 seconds 606 msec
