                         Program Version 3.0.3 - RELEASE   -
|  1> ! RI-MP2 RIJK def2-TZVP def2-TZVP/C def2-TZVP/JK TIGHTSCF
|  2> % maxcore 2000
|  3> % mp2 density relaxed end
|  4> *xyz 0 1
|  5>  C       -0.1613732218     1.5344547193     0.1059106704
|  6>  N       -0.0983391441     0.0870739961     0.0146075106
|  7>  C        0.5737865470    -0.5817654534     0.8496120494
|  8>  C        0.5856552137    -2.0927137573     0.7742441749
|  9>  C        1.9366401591    -2.7513982388     0.5818356945
| 10>  C        3.0208383597    -2.5323025912     1.3225415199
| 11>  C        3.0966959964    -1.5414705147     2.4590389223
| 12>  C        2.6098073936    -0.1373047950     2.0974796920
| 13>  O        1.1925497019    -0.0101374980     1.9403798433
| 14>  H        0.4604500234     1.9691052854     0.8955994436
| 15>  H        0.1307861541     1.9594259228    -0.8610587636
| 16>  H       -1.2028000578     1.8321982029     0.2757245596
| 17>  H        0.1375408100    -2.4691975616     1.7067230348
| 18>  H       -0.0855371033    -2.3659745558    -0.0401069052
| 19>  H        1.9876930967    -3.4894926067    -0.2140518205
| 20>  H        3.9224204484    -3.0995060483     1.1060443669
| 21>  H        2.5174029804    -1.8965344065     3.3234087395
| 22>  H        4.1334562433    -1.4492644312     2.8013402303
| 23>  H        2.8502856240     0.5571501366     2.9079367357
| 24>  H        3.1138727653     0.2116619754     1.1865196615
| 25> *
| 26>
| 27>                          ****END OF INPUT****

CARTESIAN COORDINATES (ANGSTROEM)
---------------------------------
  C     -0.161373    1.534455    0.105911
  N     -0.098339    0.087074    0.014608
  C      0.573787   -0.581765    0.849612
  C      0.585655   -2.092714    0.774244
  C      1.936640   -2.751398    0.581836
  C      3.020838   -2.532303    1.322542
  C      3.096696   -1.541471    2.459039
  C      2.609807   -0.137305    2.097480
  O      1.192550   -0.010137    1.940380
  H      0.460450    1.969105    0.895599
  H      0.130786    1.959426   -0.861059
  H     -1.202800    1.832198    0.275725
  H      0.137541   -2.469198    1.706723
  H     -0.085537   -2.365975   -0.040107
  H      1.987693   -3.489493   -0.214052
  H      3.922420   -3.099506    1.106044
  H      2.517403   -1.896534    3.323409
  H      4.133456   -1.449264    2.801340
  H      2.850286    0.557150    2.907937
  H      3.113873    0.211662    1.186520

 Total Charge           Charge          ....    0
 Multiplicity           Mult            ....    1
 Number of Electrons    NEL             ....   68
 Basis Dimension        Dim             ....  345

ORBITAL ENERGIES
----------------

  NO   OCC          E(Eh)            E(eV)
   0   2.0000     -20.574025      -559.8477
   1   2.0000     -15.537560      -422.7985
   2   2.0000     -11.323636      -308.1318
   3   2.0000     -11.293053      -307.2996
   4   2.0000     -11.238879      -305.8254
   5   2.0000     -11.236940      -305.7727
   6   2.0000     -11.236305      -305.7554
   7   2.0000     -11.233401      -305.6764
   8   2.0000     -11.233050      -305.6668
   9   2.0000      -1.405892       -38.2563
  10   2.0000      -1.208483       -32.8845
  11   2.0000      -1.101417       -29.9711
  12   2.0000      -1.041357       -28.3368
  13   2.0000      -0.958677       -26.0869
  14   2.0000      -0.922935       -25.1143
  15   2.0000      -0.872391       -23.7390
  16   2.0000      -0.747114       -20.3300
  17   2.0000      -0.732707       -19.9380
  18   2.0000      -0.688754       -18.7420
  19   2.0000      -0.665329       -18.1045
  20   2.0000      -0.648607       -17.6495
  21   2.0000      -0.638085       -17.3632
  22   2.0000      -0.586713       -15.9653
  23   2.0000      -0.581646       -15.8274
  24   2.0000      -0.564626       -15.3642
  25   2.0000      -0.551666       -15.0116
  26   2.0000      -0.544936       -14.8285
  27   2.0000      -0.530188       -14.4272
  28   2.0000      -0.511957       -13.9310
  29   2.0000      -0.475401       -12.9363
  30   2.0000      -0.454037       -12.3550
  31   2.0000      -0.406114       -11.0509
  32   2.0000      -0.383960       -10.4481
  33   2.0000      -0.355495        -9.6735
  34   0.0000       0.131544         3.5795
  35   0.0000       0.138995         3.7822
  36   0.0000       0.159817         4.3489
  37   0.0000       0.165563         4.5052
  38   0.0000       0.170616         4.6427

MULLIKEN ATOMIC CHARGES
-----------------------
   0 C :   -0.274263
   1 N :   -0.235871
   2 C :    0.137412
   3 C :   -0.124008
   4 C :   -0.178582
   5 C :   -0.194146
   6 C :   -0.170962
   7 C :   -0.054117
   8 O :   -0.308695
   9 H :    0.123466
  10 H :    0.134583
  11 H :    0.135373
  12 H :    0.126502
  13 H :    0.142203
  14 H :    0.130022
  15 H :    0.126293
  16 H :    0.121700
  17 H :    0.124981
  18 H :    0.128757
  19 H :    0.109351
Sum of atomic charges:   -0.0000000

LOEWDIN ATOMIC CHARGES
----------------------
   0 C :   -0.334347
   1 N :    0.088036
   2 C :   -0.367550
   3 C :   -0.211778
   4 C :   -0.167557
   5 C :   -0.182247
   6 C :   -0.259438
   7 C :   -0.290416
   8 O :    0.214078
   9 H :    0.107295
  10 H :    0.118044
  11 H :    0.119897
  12 H :    0.159085
  13 H :    0.157125
  14 H :    0.145899
  15 H :    0.143593
  16 H :    0.150820
  17 H :    0.148436
  18 H :    0.132673
  19 H :    0.128352

  Mayer bond orders larger than 0.1
B(  0-C ,  1-N ) :   0.8708 B(  0-C ,  9-H ) :   0.9280 B(  0-C , 10-H ) :   0.9338
B(  0-C , 11-H ) :   0.9327 B(  1-N ,  2-C ) :   1.9782 B(  2-C ,  3-C ) :   0.9214
B(  2-C ,  8-O ) :   1.0015 B(  3-C ,  4-C ) :   0.9149 B(  3-C , 12-H ) :   0.9069
B(  3-C , 13-H ) :   0.9199 B(  4-C ,  5-C ) :   1.8017 B(  4-C , 14-H ) :   0.9279
B(  5-C ,  6-C ) :   0.9402 B(  5-C , 15-H ) :   0.9262 B(  6-C ,  7-C ) :   0.9371
B(  6-C , 16-H ) :   0.9076 B(  6-C , 17-H ) :   0.9258 B(  7-C ,  8-O ) :   0.8710
B(  7-C , 18-H ) :   0.9298 B(  7-C , 19-H ) :   0.9287

MP2 TOTAL ENERGY:     -402.448051682 Eh
FINAL SINGLE POINT ENERGY      -402.448051682026

DIPOLE MOMENT
-------------
                                X             Y             Z
Electronic contribution:     -1.56304      -1.04239      -0.09855
Nuclear contribution   :      2.34236       0.90760       0.50954
                        -----------------------------------------
Total Dipole Moment    :      0.77932      -0.13479       0.41099
                        -----------------------------------------
Magnitude (a.u.)       :      0.89130
Magnitude (Debye)      :      2.26551

                             ****ORCA TERMINATED NORMALLY****
TOTAL RUN TIME: 0 days 0 hours 17 minutes 50 seconds 440 msec
