                         Program Version 3.0.3 - RELEASE   -
|  1> ! RI-MP2 RIJK def2-TZVP def2-TZVP/C def2-TZVP/JK TIGHTSCF
|  2> % maxcore 2000
|  3> % mp2 density relaxed end
|  4> *xyz 0 1
|  5>  C        0.1650628387     1.5331989205    -0.1479233256
|  6>  C       -0.1067183489     0.0378974160     0.0729070878
|  7>  C        0.6240514563    -0.5123525418     1.2677152842
|  8>  C        2.0656750687    -0.9490342153     1.2210962434
|  9>  C        1.0254680419    -1.9471510128     1.6451482838
| 10>  C        0.6658607629    -1.7021958782     3.1130963399
| 11>  C        0.2205379615    -0.2506751335     2.7173362507
| 12>  O        0.8782472214     0.8547821090     3.3038463862
| 13>  H        1.2262387444     1.7105308776    -0.3497539352
| 14>  H       -0.4120796052     1.9203352649    -0.9936635101
| 15>  H       -0.0991404546     2.1138618230     0.7412938064
| 16>  H       -1.1863913106    -0.1228356436     0.1986268956
| 17>  H        0.1836450860    -0.5275174243    -0.8217268078
| 18>  H        2.4612408485    -1.0814893914     0.2184063924
| 19>  H        2.7849926022    -0.5672135012     1.9404835873
| 20>  H        0.8400842340    -2.8609818949     1.0933994082
| 21>  H       -0.1616100090    -2.3111385786     3.4851858308
| 22>  H        1.5004431517    -1.7588049769     3.8201709468
| 23>  H       -0.8706269853    -0.1445127273     2.8025817620
| 24>  H        0.5813509954     0.9331261689     4.2162161734
| 25> *
| 26>
| 27>                          ****END OF INPUT****

CARTESIAN COORDINATES (ANGSTROEM)
---------------------------------
  C      0.165063    1.533199   -0.147923
  C     -0.106718    0.037897    0.072907
  C      0.624051   -0.512353    1.267715
  C      2.065675   -0.949034    1.221096
  C      1.025468   -1.947151    1.645148
  C      0.665861   -1.702196    3.113096
  C      0.220538   -0.250675    2.717336
  O      0.878247    0.854782    3.303846
  H      1.226239    1.710531   -0.349754
  H     -0.412080    1.920335   -0.993664
  H     -0.099140    2.113862    0.741294
  H     -1.186391   -0.122836    0.198627
  H      0.183645   -0.527517   -0.821727
  H      2.461241   -1.081489    0.218406
  H      2.784993   -0.567214    1.940484
  H      0.840084   -2.860982    1.093399
  H     -0.161610   -2.311139    3.485186
  H      1.500443   -1.758805    3.820171
  H     -0.870627   -0.144513    2.802582
  H      0.581351    0.933126    4.216216

 Total Charge           Charge          ....    0
 Multiplicity           Mult            ....    1
 Number of Electrons    NEL             ....   62
 Basis Dimension        Dim             ....  320

ORBITAL ENERGIES
----------------

  NO   OCC          E(Eh)            E(eV)
   0   2.0000     -20.552451      -559.2606
   1   2.0000     -11.279087      -306.9196
   2   2.0000     -11.228106      -305.5323
   3   2.0000     -11.227487      -305.5155
   4   2.0000     -11.221859      -305.3623
   5   2.0000     -11.219622      -305.3014
   6   2.0000     -11.218300      -305.2655
   7   2.0000     -11.205139      -304.9073
   8   2.0000      -1.359455       -36.9926
   9   2.0000      -1.183491       -32.2044
  10   2.0000      -1.028170       -27.9779
  11   2.0000      -0.970608       -26.4116
  12   2.0000      -0.891004       -24.2454
  13   2.0000      -0.840523       -22.8718
  14   2.0000      -0.783681       -21.3250
  15   2.0000      -0.717760       -19.5312
  16   2.0000      -0.693230       -18.8638
  17   2.0000      -0.656482       -17.8638
  18   2.0000      -0.629719       -17.1355
  19   2.0000      -0.588730       -16.0202
  20   2.0000      -0.579282       -15.7631
  21   2.0000      -0.567274       -15.4363
  22   2.0000      -0.531180       -14.4542
  23   2.0000      -0.524512       -14.2727
  24   2.0000      -0.512080       -13.9344
  25   2.0000      -0.502408       -13.6712
  26   2.0000      -0.485673       -13.2158
  27   2.0000      -0.450277       -12.2527
  28   2.0000      -0.420449       -11.4410
  29   2.0000      -0.397274       -10.8104
  30   2.0000      -0.367444        -9.9987
  31   0.0000       0.133092         3.6216
  32   0.0000       0.152627         4.1532
  33   0.0000       0.162025         4.4089
  34   0.0000       0.174456         4.7472
  35   0.0000       0.184705         5.0261

MULLIKEN ATOMIC CHARGES
-----------------------
   0 C :   -0.391423
   1 C :   -0.217620
   2 C :    0.105339
   3 C :   -0.298374
   4 C :   -0.129292
   5 C :   -0.211694
   6 C :   -0.002975
   7 O :   -0.457004
   8 H :    0.125328
   9 H :    0.126789
  10 H :    0.135891
  11 H :    0.104118
  12 H :    0.108853
  13 H :    0.126564
  14 H :    0.136120
  15 H :    0.127428
  16 H :    0.115281
  17 H :    0.104146
  18 H :    0.079075
  19 H :    0.313449
Sum of atomic charges:   -0.0000000

LOEWDIN ATOMIC CHARGES
----------------------
   0 C :   -0.308441
   1 C :   -0.258137
   2 C :   -0.194720
   3 C :   -0.183050
   4 C :   -0.166200
   5 C :   -0.206599
   6 C :   -0.284827
   7 O :   -0.019882
   8 H :    0.122624
   9 H :    0.117644
  10 H :    0.124810
  11 H :    0.138377
  12 H :    0.141402
  13 H :    0.141068
  14 H :    0.135820
  15 H :    0.133497
  16 H :    0.130964
  17 H :    0.128755
  18 H :    0.133261
  19 H :    0.173634

  Mayer bond orders larger than 0.1
B(  0-C ,  1-C ) :   0.9311 B(  0-C ,  8-H ) :   0.9380 B(  0-C ,  9-H ) :   0.9374
B(  0-C , 10-H ) :   0.9344 B(  1-C ,  2-C ) :   0.9314 B(  1-C , 11-H ) :   0.9345
B(  1-C , 12-H ) :   0.9329 B(  2-C ,  3-C ) :   0.8890 B(  2-C ,  4-C ) :   0.7804
B(  2-C ,  6-C ) :   0.9066 B(  2-C ,  7-O ) :  -0.1521 B(  3-C ,  4-C ) :   0.8928
B(  3-C , 13-H ) :   0.9338 B(  3-C , 14-H ) :   0.9112 B(  4-C ,  5-C ) :   0.9544
B(  4-C , 15-H ) :   0.9139 B(  5-C ,  6-C ) :   0.9534 B(  5-C , 16-H ) :   0.9234
B(  5-C , 17-H ) :   0.9006 B(  6-C ,  7-O ) :   1.1332 B(  6-C , 18-H ) :   0.9561
B(  7-O , 19-H ) :   0.8451

MP2 TOTAL ENERGY:     -348.375749900 Eh
FINAL SINGLE POINT ENERGY      -348.375749900378

DIPOLE MOMENT
-------------
                                X             Y             Z
Electronic contribution:      0.86635      -1.26812       3.77010
Nuclear contribution   :     -1.29290       0.95668      -3.51639
                        -----------------------------------------
Total Dipole Moment    :     -0.42655      -0.31144       0.25371
                        -----------------------------------------
Magnitude (a.u.)       :      0.58592
Magnitude (Debye)      :      1.48929

                             ****ORCA TERMINATED NORMALLY****
TOTAL RUN TIME: 0 days 0 hours 13 minutes 29 seconds 978 msec
