                         Program Version 3.0.3 - RELEASE   -
|  1> ! RI-MP2 RIJK def2-TZVP def2-TZVP/C def2-TZVP/JK TIGHTSCF
|  2> % maxcore 2000
|  3> % mp2 density relaxed end
|  4> *xyz 0 1
|  5>  O        0.1137047174     1.2774088135    -0.0429957147
|  6>  C        0.1002995975    -0.0503729448    -0.0656193362
|  7>  N        0.0654569781    -0.7093175800    -1.1976416262
|  8>  O        0.0642163093    -2.0635331886    -0.7339451660
|  9>  C        0.0983783237    -1.9956566915     0.5938351666
| 10>  O        0.1062542666    -3.1048283340     1.3204769728
| 11>  C        0.0766685924    -4.3413600748     0.6964336258
| 12>  N        0.0853132906    -5.3505794257     1.4373679209
| 13>  N        0.1222625263    -0.7970374645     1.0867580833
| 14>  H        0.1401530089     1.5490820210     0.8830969780
| 15>  H        0.0488655346    -4.2799393289    -0.3908205423
| 16>  H        0.0616399946    -6.2007935917     0.8772876180
| 17> *
| 18>
| 19>                          ****END OF INPUT****

CARTESIAN COORDINATES (ANGSTROEM)
---------------------------------
  O      0.113705    1.277409   -0.042996
  C      0.100300   -0.050373   -0.065619
  N      0.065457   -0.709318   -1.197642
  O      0.064216   -2.063533   -0.733945
  C      0.098378   -1.995657    0.593835
  O      0.106254   -3.104828    1.320477
  C      0.076669   -4.341360    0.696434
  N      0.085313   -5.350579    1.437368
  N      0.122263   -0.797037    1.086758
  H      0.140153    1.549082    0.883097
  H      0.048866   -4.279939   -0.390821
  H      0.061640   -6.200794    0.877288

 Total Charge           Charge          ....    0
 Multiplicity           Mult            ....    1
 Number of Electrons    NEL             ....   66
 Basis Dimension        Dim             ....  297

ORBITAL ENERGIES
----------------

  NO   OCC          E(Eh)            E(eV)
   0   2.0000     -20.676751      -562.6430
   1   2.0000     -20.671015      -562.4869
   2   2.0000     -20.635469      -561.5197
   3   2.0000     -15.626937      -425.2306
   4   2.0000     -15.593965      -424.3334
   5   2.0000     -15.586062      -424.1183
   6   2.0000     -11.452777      -311.6459
   7   2.0000     -11.396354      -310.1106
   8   2.0000     -11.380421      -309.6770
   9   2.0000      -1.565069       -42.5877
  10   2.0000      -1.494042       -40.6549
  11   2.0000      -1.462539       -39.7977
  12   2.0000      -1.281006       -34.8579
  13   2.0000      -1.248848       -33.9829
  14   2.0000      -1.164816       -31.6963
  15   2.0000      -0.953856       -25.9557
  16   2.0000      -0.887612       -24.1532
  17   2.0000      -0.837694       -22.7948
  18   2.0000      -0.800590       -21.7852
  19   2.0000      -0.777934       -21.1687
  20   2.0000      -0.743241       -20.2246
  21   2.0000      -0.703734       -19.1496
  22   2.0000      -0.660322       -17.9683
  23   2.0000      -0.649775       -17.6813
  24   2.0000      -0.636759       -17.3271
  25   2.0000      -0.617501       -16.8031
  26   2.0000      -0.614093       -16.7103
  27   2.0000      -0.545225       -14.8363
  28   2.0000      -0.491591       -13.3769
  29   2.0000      -0.490464       -13.3462
  30   2.0000      -0.480887       -13.0856
  31   2.0000      -0.458631       -12.4800
  32   2.0000      -0.401719       -10.9313
  33   0.0000       0.113537         3.0895
  34   0.0000       0.130831         3.5601
  35   0.0000       0.133041         3.6202
  36   0.0000       0.153550         4.1783
  37   0.0000       0.168893         4.5958

MULLIKEN ATOMIC CHARGES
-----------------------
   0 O :   -0.395842
   1 C :    0.320586
   2 N :   -0.182672
   3 O :   -0.126667
   4 C :    0.391956
   5 O :   -0.173893
   6 C :    0.031771
   7 N :   -0.299640
   8 N :   -0.322579
   9 H :    0.360037
  10 H :    0.152811
  11 H :    0.244133
Sum of atomic charges:   -0.0000000

LOEWDIN ATOMIC CHARGES
----------------------
   0 O :    0.117524
   1 C :   -0.517286
   2 N :    0.029419
   3 O :    0.261289
   4 C :   -0.493355
   5 O :    0.342821
   6 C :   -0.335082
   7 N :   -0.031115
   8 N :    0.107594
   9 H :    0.212975
  10 H :    0.124967
  11 H :    0.180249

  Mayer bond orders larger than 0.1
B(  0-O ,  1-C ) :   1.1596 B(  0-O ,  9-H ) :   0.8086 B(  1-C ,  2-N ) :   1.6159
B(  1-C ,  8-N ) :   1.1720 B(  2-N ,  3-O ) :   0.8044 B(  3-O ,  4-C ) :   1.1599
B(  4-C ,  5-O ) :   1.1079 B(  4-C ,  8-N ) :   1.6267 B(  5-O ,  6-C ) :   0.9235
B(  6-C ,  7-N ) :   1.9948 B(  6-C , 10-H ) :   0.9249 B(  7-N , 11-H ) :   0.8435

MP2 TOTAL ENERGY:     -505.145283121 Eh
FINAL SINGLE POINT ENERGY      -505.145283121193

DIPOLE MOMENT
-------------
                                X             Y             Z
Electronic contribution:      0.01672       2.55861      -0.43124
Nuclear contribution   :     -0.02491      -3.03874       0.33417
                        -----------------------------------------
Total Dipole Moment    :     -0.00819      -0.48014      -0.09707
                        -----------------------------------------
Magnitude (a.u.)       :      0.48992
Magnitude (Debye)      :      1.24528

                             ****ORCA TERMINATED NORMALLY****
TOTAL RUN TIME: 0 days 0 hours 11 minutes 40 seconds 386 msec
