                         Program Version 3.0.3 - RELEASE   -
|  1> ! RI-MP2 RIJK def2-TZVP def2-TZVP/C def2-TZVP/JK TIGHTSCF
|  2> % maxcore 2000
|  3> % mp2 density relaxed end
|  4> *xyz 0 1
|  5>  C        0.0061110321     1.5493026525     0.0486894042
|  6>  C       -0.0516751668     0.0187288378     0.0334534194
|  7>  C       -1.4761959630    -0.5639466260    -0.0251651597
|  8>  C       -2.2188173264    -0.1939018036    -1.3164648554
|  9>  C       -1.4052221421    -2.0785415129     0.1520342343
| 10>  O       -2.7465723213    -2.5838570573     0.2654993380
| 11>  C       -2.8547388248    -3.9336372968     0.3140119059
| 12>  N       -4.1746723011    -4.2918310154     0.3721240513
| 13>  O       -1.9238274565    -4.7035325068     0.2789413788
| 14>  H        1.0382173748     1.8982236172     0.1514377696
| 15>  H       -0.3964238423     1.9833184252    -0.8713437119
| 16>  H       -0.5676521772     1.9578103559     0.8882381088
| 17>  H        0.5264917918    -0.3607782649    -0.8203306681
| 18>  H        0.4488701609    -0.3637344364     0.9324026033
| 19>  H       -2.0430231406    -0.1645892663     0.8281710063
| 20>  H       -3.1976872304    -0.6781410551    -1.3502470358
| 21>  H       -2.3737731672     0.8851703215    -1.3986389158
| 22>  H       -1.6513254742    -0.5193288230    -2.1970144100
| 23>  H       -0.9107558680    -2.5604084992    -0.6985823498
| 24>  H       -0.8468800875    -2.3487491013     1.0547905320
| 25>  H       -4.8513037223    -3.5945066768     0.6323852287
| 26>  H       -4.3595219280    -5.2449713682     0.6335126160
| 27> *
| 28>
| 29>                          ****END OF INPUT****

CARTESIAN COORDINATES (ANGSTROEM)
---------------------------------
  C      0.006111    1.549303    0.048689
  C     -0.051675    0.018729    0.033453
  C     -1.476196   -0.563947   -0.025165
  C     -2.218817   -0.193902   -1.316465
  C     -1.405222   -2.078542    0.152034
  O     -2.746572   -2.583857    0.265499
  C     -2.854739   -3.933637    0.314012
  N     -4.174672   -4.291831    0.372124
  O     -1.923827   -4.703533    0.278941
  H      1.038217    1.898224    0.151438
  H     -0.396424    1.983318   -0.871344
  H     -0.567652    1.957810    0.888238
  H      0.526492   -0.360778   -0.820331
  H      0.448870   -0.363734    0.932403
  H     -2.043023   -0.164589    0.828171
  H     -3.197687   -0.678141   -1.350247
  H     -2.373773    0.885170   -1.398639
  H     -1.651325   -0.519329   -2.197014
  H     -0.910756   -2.560408   -0.698582
  H     -0.846880   -2.348749    1.054791
  H     -4.851304   -3.594507    0.632385
  H     -4.359522   -5.244971    0.633513

 Total Charge           Charge          ....    0
 Multiplicity           Mult            ....    1
 Number of Electrons    NEL             ....   72
 Basis Dimension        Dim             ....  357

ORBITAL ENERGIES
----------------

  NO   OCC          E(Eh)            E(eV)
   0   2.0000     -20.595596      -560.4347
   1   2.0000     -20.523149      -558.4633
   2   2.0000     -15.583517      -424.0490
   3   2.0000     -11.399014      -310.1830
   4   2.0000     -11.280896      -306.9688
   5   2.0000     -11.231802      -305.6329
   6   2.0000     -11.224862      -305.4440
   7   2.0000     -11.216432      -305.2146
   8   2.0000     -11.212355      -305.1037
   9   2.0000      -1.458869       -39.6979
  10   2.0000      -1.353083       -36.8193
  11   2.0000      -1.215097       -33.0645
  12   2.0000      -1.096219       -29.8296
  13   2.0000      -0.998057       -27.1585
  14   2.0000      -0.940933       -25.6041
  15   2.0000      -0.870423       -23.6854
  16   2.0000      -0.799628       -21.7590
  17   2.0000      -0.776508       -21.1299
  18   2.0000      -0.742249       -20.1976
  19   2.0000      -0.702032       -19.1033
  20   2.0000      -0.680517       -18.5178
  21   2.0000      -0.641965       -17.4688
  22   2.0000      -0.630345       -17.1526
  23   2.0000      -0.613325       -16.6894
  24   2.0000      -0.580993       -15.8096
  25   2.0000      -0.575446       -15.6587
  26   2.0000      -0.551763       -15.0142
  27   2.0000      -0.533952       -14.5296
  28   2.0000      -0.519975       -14.1492
  29   2.0000      -0.506843       -13.7919
  30   2.0000      -0.470793       -12.8109
  31   2.0000      -0.468338       -12.7441
  32   2.0000      -0.465341       -12.6626
  33   2.0000      -0.455612       -12.3978
  34   2.0000      -0.453320       -12.3355
  35   2.0000      -0.428426       -11.6581
  36   0.0000       0.129211         3.5160
  37   0.0000       0.140048         3.8109
  38   0.0000       0.163308         4.4438
  39   0.0000       0.169590         4.6148
  40   0.0000       0.177069         4.8183

MULLIKEN ATOMIC CHARGES
-----------------------
   0 C :   -0.405288
   1 C :   -0.212297
   2 C :   -0.007862
   3 C :   -0.425898
   4 C :   -0.070230
   5 O :   -0.287640
   6 C :    0.412910
   7 N :   -0.513801
   8 O :   -0.376739
   9 H :    0.137457
  10 H :    0.131180
  11 H :    0.124019
  12 H :    0.109928
  13 H :    0.113815
  14 H :    0.083048
  15 H :    0.146071
  16 H :    0.135926
  17 H :    0.120031
  18 H :    0.127093
  19 H :    0.123958
  20 H :    0.265945
  21 H :    0.268375
Sum of atomic charges:   -0.0000000

LOEWDIN ATOMIC CHARGES
----------------------
   0 C :   -0.317557
   1 C :   -0.271195
   2 C :   -0.291268
   3 C :   -0.293015
   4 C :   -0.258841
   5 O :    0.229267
   6 C :   -0.615164
   7 N :   -0.040009
   8 O :    0.074685
   9 H :    0.122168
  10 H :    0.119994
  11 H :    0.121511
  12 H :    0.138341
  13 H :    0.138441
  14 H :    0.153449
  15 H :    0.126155
  16 H :    0.122085
  17 H :    0.124784
  18 H :    0.134206
  19 H :    0.131497
  20 H :    0.173551
  21 H :    0.176916

  Mayer bond orders larger than 0.1
B(  0-C ,  1-C ) :   0.9164 B(  0-C ,  9-H ) :   0.9427 B(  0-C , 10-H ) :   0.9428
B(  0-C , 11-H ) :   0.9377 B(  1-C ,  2-C ) :   0.9229 B(  1-C , 12-H ) :   0.9237
B(  1-C , 13-H ) :   0.9342 B(  2-C ,  3-C ) :   0.9057 B(  2-C ,  4-C ) :   0.9260
B(  2-C , 14-H ) :   0.9183 B(  3-C , 15-H ) :   0.9368 B(  3-C , 16-H ) :   0.9406
B(  3-C , 17-H ) :   0.9284 B(  4-C ,  5-O ) :   0.8428 B(  4-C , 18-H ) :   0.9302
B(  4-C , 19-H ) :   0.9402 B(  5-O ,  6-C ) :   1.0791 B(  6-C ,  7-N ) :   1.1531
B(  6-C ,  8-O ) :   1.9324 B(  7-N , 20-H ) :   0.8651 B(  7-N , 21-H ) :   0.8678

MP2 TOTAL ENERGY:     -440.825466913 Eh
FINAL SINGLE POINT ENERGY      -440.825466913420

DIPOLE MOMENT
-------------
                                X             Y             Z
Electronic contribution:     -5.74738     -13.82863       2.57279
Nuclear contribution   :      5.09260      14.48048      -2.26956
                        -----------------------------------------
Total Dipole Moment    :     -0.65478       0.65185       0.30323
                        -----------------------------------------
Magnitude (a.u.)       :      0.97242
Magnitude (Debye)      :      2.47169

                             ****ORCA TERMINATED NORMALLY****
TOTAL RUN TIME: 0 days 0 hours 16 minutes 32 seconds 858 msec
