                         Program Version 3.0.3 - RELEASE   -
|  1> ! RI-MP2 RIJK def2-TZVP def2-TZVP/C def2-TZVP/JK TIGHTSCF
|  2> % maxcore 2000
|  3> % mp2 density relaxed end
|  4> *xyz 0 1
|  5>  C        0.0782942651     1.3602099889    -0.0138892865
|  6>  O       -0.0677727849    -0.0293646053     0.1977095103
|  7>  C       -1.3666042819    -0.5520619896     0.0634698700
|  8>  C       -2.3535590043     0.0245791196     1.0680537872
|  9>  C       -1.8364659101    -0.6840807521    -1.4210572663
| 10>  N       -1.3385976038    -2.0775982158    -1.4414105953
| 11>  C       -1.2478561964    -2.1168770403     0.0319489977
| 12>  C       -0.0329416616    -2.7271830878     0.5724506909
| 13>  N        0.8993639078    -3.2425096134     1.0194778432
| 14>  H        1.1520548451     1.5579482514    -0.0240563327
| 15>  H       -0.3460161602     1.6805484362    -0.9760608361
| 16>  H       -0.3801968125     1.9556173492     0.7867737833
| 17>  H       -2.5491907015     1.0831038289     0.8716878379
| 18>  H       -3.3116553791    -0.5000749887     1.0178130650
| 19>  H       -1.9562009810    -0.0698812296     2.0835580197
| 20>  H       -2.9238435034    -0.5762131533    -1.5282239535
| 21>  H       -1.3409617297    -0.0310251404    -2.1456089852
| 22>  H       -1.9562671095    -2.7687783219    -1.8501735430
| 23>  H       -2.1093509282    -2.5790694858     0.5336443635
| 24> *
| 25>
| 26>                          ****END OF INPUT****

CARTESIAN COORDINATES (ANGSTROEM)
---------------------------------
  C      0.078294    1.360210   -0.013889
  O     -0.067773   -0.029365    0.197710
  C     -1.366604   -0.552062    0.063470
  C     -2.353559    0.024579    1.068054
  C     -1.836466   -0.684081   -1.421057
  N     -1.338598   -2.077598   -1.441411
  C     -1.247856   -2.116877    0.031949
  C     -0.032942   -2.727183    0.572451
  N      0.899364   -3.242510    1.019478
  H      1.152055    1.557948   -0.024056
  H     -0.346016    1.680548   -0.976061
  H     -0.380197    1.955617    0.786774
  H     -2.549191    1.083104    0.871688
  H     -3.311655   -0.500075    1.017813
  H     -1.956201   -0.069881    2.083558
  H     -2.923844   -0.576213   -1.528224
  H     -1.340962   -0.031025   -2.145609
  H     -1.956267   -2.768778   -1.850174
  H     -2.109351   -2.579069    0.533644

 Total Charge           Charge          ....    0
 Multiplicity           Mult            ....    1
 Number of Electrons    NEL             ....   68
 Basis Dimension        Dim             ....  339

ORBITAL ENERGIES
----------------

  NO   OCC          E(Eh)            E(eV)
   0   2.0000     -20.571098      -559.7680
   1   2.0000     -15.569624      -423.6710
   2   2.0000     -15.558561      -423.3700
   3   2.0000     -11.318751      -307.9989
   4   2.0000     -11.308412      -307.7175
   5   2.0000     -11.282591      -307.0149
   6   2.0000     -11.272330      -306.7357
   7   2.0000     -11.259664      -306.3910
   8   2.0000     -11.239268      -305.8360
   9   2.0000      -1.398827       -38.0640
  10   2.0000      -1.259590       -34.2752
  11   2.0000      -1.201447       -32.6930
  12   2.0000      -1.047947       -28.5161
  13   2.0000      -0.985257       -26.8102
  14   2.0000      -0.951141       -25.8819
  15   2.0000      -0.911944       -24.8153
  16   2.0000      -0.787460       -21.4279
  17   2.0000      -0.727831       -19.8053
  18   2.0000      -0.713547       -19.4166
  19   2.0000      -0.664524       -18.0826
  20   2.0000      -0.645522       -17.5656
  21   2.0000      -0.628665       -17.1068
  22   2.0000      -0.601649       -16.3717
  23   2.0000      -0.576613       -15.6904
  24   2.0000      -0.572228       -15.5711
  25   2.0000      -0.564749       -15.3676
  26   2.0000      -0.544769       -14.8239
  27   2.0000      -0.524472       -14.2716
  28   2.0000      -0.518640       -14.1129
  29   2.0000      -0.476389       -12.9632
  30   2.0000      -0.453902       -12.3513
  31   2.0000      -0.437635       -11.9087
  32   2.0000      -0.433702       -11.8016
  33   2.0000      -0.400362       -10.8944
  34   0.0000       0.113854         3.0981
  35   0.0000       0.129025         3.5110
  36   0.0000       0.150585         4.0976
  37   0.0000       0.169537         4.6133
  38   0.0000       0.179015         4.8712

MULLIKEN ATOMIC CHARGES
-----------------------
   0 C :   -0.239180
   1 O :   -0.286028
   2 C :    0.258612
   3 C :   -0.461280
   4 C :   -0.183318
   5 N :   -0.324225
   6 C :    0.081715
   7 C :   -0.197248
   8 N :   -0.049542
   9 H :    0.154998
  10 H :    0.109150
  11 H :    0.124926
  12 H :    0.145059
  13 H :    0.136372
  14 H :    0.155534
  15 H :    0.118926
  16 H :    0.111478
  17 H :    0.213275
  18 H :    0.130776
Sum of atomic charges:    0.0000000

LOEWDIN ATOMIC CHARGES
----------------------
   0 C :   -0.342890
   1 O :    0.202597
   2 C :   -0.338992
   3 C :   -0.275100
   4 C :   -0.231392
   5 N :    0.018725
   6 C :   -0.228398
   7 C :   -0.164321
   8 N :    0.068130
   9 H :    0.119552
  10 H :    0.103575
  11 H :    0.103846
  12 H :    0.130183
  13 H :    0.129743
  14 H :    0.136106
  15 H :    0.122608
  16 H :    0.125166
  17 H :    0.160440
  18 H :    0.160421

  Mayer bond orders larger than 0.1
B(  0-C ,  1-O ) :   0.9039 B(  0-C ,  9-H ) :   0.9394 B(  0-C , 10-H ) :   0.9281
B(  0-C , 11-H ) :   0.9362 B(  1-O ,  2-C ) :   0.9759 B(  2-C ,  3-C ) :   0.9097
B(  2-C ,  4-C ) :   0.9204 B(  2-C ,  6-C ) :   0.8469 B(  3-C , 12-H ) :   0.9285
B(  3-C , 13-H ) :   0.9245 B(  3-C , 14-H ) :   0.9330 B(  4-C ,  5-N ) :   0.9649
B(  4-C , 15-H ) :   0.9168 B(  4-C , 16-H ) :   0.9067 B(  5-N ,  6-C ) :   1.0323
B(  5-N , 17-H ) :   0.8752 B(  6-C ,  7-C ) :   0.9174 B(  6-C , 18-H ) :   0.9013
B(  7-C ,  8-N ) :   2.8806

MP2 TOTAL ENERGY:     -418.475366027 Eh
FINAL SINGLE POINT ENERGY      -418.475366027456

DIPOLE MOMENT
-------------
                                X             Y             Z
Electronic contribution:      5.03012      -8.30436       0.65545
Nuclear contribution   :     -6.97791       9.55367      -1.12620
                        -----------------------------------------
Total Dipole Moment    :     -1.94779       1.24931      -0.47075
                        -----------------------------------------
Magnitude (a.u.)       :      2.36141
Magnitude (Debye)      :      6.00224

                             ****ORCA TERMINATED NORMALLY****
TOTAL RUN TIME: 0 days 0 hours 18 minutes 51 seconds 973 msec
