                         Program Version 3.0.3 - RELEASE   -
|  1> ! RI-MP2 RIJK def2-TZVP def2-TZVP/C def2-TZVP/JK TIGHTSCF
|  2> % maxcore 2000
|  3> % mp2 density relaxed end
|  4> *xyz 0 1
|  5>  O       -0.0348791801     1.3780181935     0.1430393753
|  6>  C       -0.0079288620    -0.0146408948     0.0257834941
|  7>  C       -1.4074992167    -0.6215948064    -0.2105458511
|  8>  C       -1.1465949423    -2.0600573070    -0.6943645106
|  9>  C       -0.6160866101    -1.2349102328    -1.8848479160
| 10>  O       -1.6394705787    -0.2304182723    -1.6051114928
| 11>  C        0.6677691654    -0.5699593782    -1.3099889725
| 12>  C        1.2244913197     0.4559050569    -2.1693499693
| 13>  C        1.6678783760     1.3072265579    -2.8934572475
| 14>  H       -0.4186219793     1.7185312965    -0.6756950792
| 15>  H        0.4856616274    -0.3972825462     0.9221084515
| 16>  H       -2.2030720898    -0.3329342234     0.4753118726
| 17>  H       -0.4559892925    -2.6976719671    -0.1362301374
| 18>  H       -2.0708572907    -2.5846307212    -0.9366638383
| 19>  H       -0.5982913855    -1.5803770380    -2.9172881073
| 20>  H        1.4309901334    -1.3209132453    -1.0816459111
| 21>  H        2.0707241861     2.0554289180    -3.5302550503
| 22> *
| 23>
| 24>                          ****END OF INPUT****

CARTESIAN COORDINATES (ANGSTROEM)
---------------------------------
  O     -0.034879    1.378018    0.143039
  C     -0.007929   -0.014641    0.025783
  C     -1.407499   -0.621595   -0.210546
  C     -1.146595   -2.060057   -0.694365
  C     -0.616087   -1.234910   -1.884848
  O     -1.639471   -0.230418   -1.605111
  C      0.667769   -0.569959   -1.309989
  C      1.224491    0.455905   -2.169350
  C      1.667878    1.307227   -2.893457
  H     -0.418622    1.718531   -0.675695
  H      0.485662   -0.397283    0.922108
  H     -2.203072   -0.332934    0.475312
  H     -0.455989   -2.697672   -0.136230
  H     -2.070857   -2.584631   -0.936664
  H     -0.598291   -1.580377   -2.917288
  H      1.430990   -1.320913   -1.081646
  H      2.070724    2.055429   -3.530255

 Total Charge           Charge          ....    0
 Multiplicity           Mult            ....    1
 Number of Electrons    NEL             ....   66
 Basis Dimension        Dim             ....  327

ORBITAL ENERGIES
----------------

  NO   OCC          E(Eh)            E(eV)
   0   2.0000     -20.563489      -559.5610
   1   2.0000     -20.557589      -559.4004
   2   2.0000     -11.305503      -307.6384
   3   2.0000     -11.297930      -307.4323
   4   2.0000     -11.296193      -307.3850
   5   2.0000     -11.266095      -306.5660
   6   2.0000     -11.245763      -306.0128
   7   2.0000     -11.236065      -305.7489
   8   2.0000     -11.224963      -305.4468
   9   2.0000      -1.410282       -38.3757
  10   2.0000      -1.364140       -37.1201
  11   2.0000      -1.102107       -29.9899
  12   2.0000      -1.039843       -28.2956
  13   2.0000      -0.972007       -26.4497
  14   2.0000      -0.961459       -26.1626
  15   2.0000      -0.827661       -22.5218
  16   2.0000      -0.786159       -21.3925
  17   2.0000      -0.739854       -20.1325
  18   2.0000      -0.713409       -19.4129
  19   2.0000      -0.683672       -18.6037
  20   2.0000      -0.664604       -18.0848
  21   2.0000      -0.634347       -17.2615
  22   2.0000      -0.612282       -16.6610
  23   2.0000      -0.575861       -15.6700
  24   2.0000      -0.552106       -15.0236
  25   2.0000      -0.547686       -14.9033
  26   2.0000      -0.505390       -13.7524
  27   2.0000      -0.493535       -13.4298
  28   2.0000      -0.485983       -13.2243
  29   2.0000      -0.461838       -12.5673
  30   2.0000      -0.423781       -11.5317
  31   2.0000      -0.389611       -10.6019
  32   2.0000      -0.379099       -10.3158
  33   0.0000       0.133784         3.6404
  34   0.0000       0.157075         4.2742
  35   0.0000       0.162045         4.4095
  36   0.0000       0.165346         4.4993
  37   0.0000       0.173462         4.7202

MULLIKEN ATOMIC CHARGES
-----------------------
   0 O :   -0.450528
   1 C :    0.074374
   2 C :   -0.013472
   3 C :   -0.193138
   4 C :   -0.003171
   5 O :   -0.318128
   6 C :   -0.208324
   7 C :   -0.065278
   8 C :   -0.122593
   9 H :    0.332762
  10 H :    0.113757
  11 H :    0.133451
  12 H :    0.123866
  13 H :    0.130699
  14 H :    0.141393
  15 H :    0.132397
  16 H :    0.191931
Sum of atomic charges:   -0.0000000

LOEWDIN ATOMIC CHARGES
----------------------
   0 O :    0.013133
   1 C :   -0.288281
   2 C :   -0.245736
   3 C :   -0.199360
   4 C :   -0.222760
   5 O :    0.158293
   6 C :   -0.197928
   7 C :   -0.096227
   8 C :   -0.092005
   9 H :    0.186947
  10 H :    0.142813
  11 H :    0.135001
  12 H :    0.131505
  13 H :    0.142301
  14 H :    0.136413
  15 H :    0.168373
  16 H :    0.127517

  Mayer bond orders larger than 0.1
B(  0-O ,  1-C ) :   1.0060 B(  0-O ,  9-H ) :   0.8199 B(  1-C ,  2-C ) :   0.9411
B(  1-C ,  6-C ) :   0.8820 B(  1-C , 10-H ) :   0.9227 B(  2-C ,  3-C ) :   0.9337
B(  2-C ,  5-O ) :   0.8930 B(  2-C , 11-H ) :   0.9159 B(  3-C ,  4-C ) :   0.9251
B(  3-C , 12-H ) :   0.9287 B(  3-C , 13-H ) :   0.9176 B(  4-C ,  5-O ) :   0.9448
B(  4-C ,  6-C ) :   0.8621 B(  4-C , 14-H ) :   0.9114 B(  6-C ,  7-C ) :   1.2014
B(  6-C ,  8-C ) :  -0.1132 B(  6-C , 15-H ) :   0.8971 B(  7-C ,  8-C ) :   2.5800
B(  8-C , 16-H ) :   0.8893

MP2 TOTAL ENERGY:     -421.060999677 Eh
FINAL SINGLE POINT ENERGY      -421.060999677437

DIPOLE MOMENT
-------------
                                X             Y             Z
Electronic contribution:      0.27348       2.70058      -1.16772
Nuclear contribution   :     -0.22034      -3.60894       1.14829
                        -----------------------------------------
Total Dipole Moment    :      0.05314      -0.90836      -0.01943
                        -----------------------------------------
Magnitude (a.u.)       :      0.91012
Magnitude (Debye)      :      2.31334

                             ****ORCA TERMINATED NORMALLY****
TOTAL RUN TIME: 0 days 0 hours 16 minutes 51 seconds 38 msec
