                         Program Version 3.0.3 - RELEASE   -
|  1> ! RI-MP2 RIJK def2-TZVP def2-TZVP/C def2-TZVP/JK TIGHTSCF
|  2> % maxcore 2000
|  3> % mp2 density relaxed end
|  4> *xyz 0 1
|  5>  C       -0.2601737412     1.3983708841    -0.7980544288
|  6>  N       -0.1245113647     0.0096618355    -0.3741985933
|  7>  C        0.6261824148    -0.0790985077     0.8771633733
|  8>  C       -1.4129955476    -0.6376644748    -0.2598616539
|  9>  C       -2.2674884124    -0.7646338677    -1.5381047419
| 10>  O       -2.4188102952    -2.1878175003    -1.3428925425
| 11>  C       -1.4439195152    -2.1976732528    -0.2846101630
| 12>  C       -0.1527219691    -2.8656828079    -0.7321325644
| 13>  O        0.6966401973    -3.2592780407     0.0252553830
| 14>  H        0.7338851331     1.8370485621    -0.9237722496
| 15>  H       -0.7775429325     1.4569543136    -1.7599465163
| 16>  H       -0.8159750243     2.0182261912    -0.0691623018
| 17>  H        0.1240428569     0.4528133325     1.7071211528
| 18>  H        0.7612582761    -1.1241457461     1.1631774429
| 19>  H        1.6154333589     0.3664905637     0.7382204384
| 20>  H       -2.0065314233    -0.2482733192     0.5871098459
| 21>  H       -3.2316089365    -0.2468707260    -1.5478051821
| 22>  H       -1.7163600507    -0.5398160627    -2.4596711612
| 23>  H       -1.8119305039    -2.6893363744     0.6224467421
| 24>  H       -0.0688759307    -2.9822658221    -1.8347616197
| 25> *
| 26>
| 27>                          ****END OF INPUT****

CARTESIAN COORDINATES (ANGSTROEM)
---------------------------------
  C     -0.260174    1.398371   -0.798054
  N     -0.124511    0.009662   -0.374199
  C      0.626182   -0.079099    0.877163
  C     -1.412996   -0.637664   -0.259862
  C     -2.267488   -0.764634   -1.538105
  O     -2.418810   -2.187818   -1.342893
  C     -1.443920   -2.197673   -0.284610
  C     -0.152722   -2.865683   -0.732133
  O      0.696640   -3.259278    0.025255
  H      0.733885    1.837049   -0.923772
  H     -0.777543    1.456954   -1.759947
  H     -0.815975    2.018226   -0.069162
  H      0.124043    0.452813    1.707121
  H      0.761258   -1.124146    1.163177
  H      1.615433    0.366491    0.738220
  H     -2.006531   -0.248273    0.587110
  H     -3.231609   -0.246871   -1.547805
  H     -1.716360   -0.539816   -2.459671
  H     -1.811931   -2.689336    0.622447
  H     -0.068876   -2.982266   -1.834762

 Total Charge           Charge          ....    0
 Multiplicity           Mult            ....    1
 Number of Electrons    NEL             ....   70
 Basis Dimension        Dim             ....  345

ORBITAL ENERGIES
----------------

  NO   OCC          E(Eh)            E(eV)
   0   2.0000     -20.568388      -559.6943
   1   2.0000     -20.560653      -559.4838
   2   2.0000     -15.566677      -423.5908
   3   2.0000     -11.333365      -308.3965
   4   2.0000     -11.300604      -307.5051
   5   2.0000     -11.293413      -307.3094
   6   2.0000     -11.282020      -306.9994
   7   2.0000     -11.257904      -306.3431
   8   2.0000     -11.247854      -306.0697
   9   2.0000      -1.408077       -38.3157
  10   2.0000      -1.393340       -37.9147
  11   2.0000      -1.244419       -33.8624
  12   2.0000      -1.022040       -27.8111
  13   2.0000      -0.986284       -26.8382
  14   2.0000      -0.957432       -26.0531
  15   2.0000      -0.873450       -23.7678
  16   2.0000      -0.837057       -22.7775
  17   2.0000      -0.753478       -20.5032
  18   2.0000      -0.714072       -19.4309
  19   2.0000      -0.690780       -18.7971
  20   2.0000      -0.664537       -18.0830
  21   2.0000      -0.639297       -17.3962
  22   2.0000      -0.633894       -17.2491
  23   2.0000      -0.608873       -16.5683
  24   2.0000      -0.594264       -16.1708
  25   2.0000      -0.584901       -15.9160
  26   2.0000      -0.551478       -15.0065
  27   2.0000      -0.544618       -14.8198
  28   2.0000      -0.538611       -14.6563
  29   2.0000      -0.524431       -14.2705
  30   2.0000      -0.484506       -13.1841
  31   2.0000      -0.470860       -12.8128
  32   2.0000      -0.454521       -12.3682
  33   2.0000      -0.410970       -11.1831
  34   2.0000      -0.374814       -10.1992
  35   0.0000       0.116212         3.1623
  36   0.0000       0.137579         3.7437
  37   0.0000       0.152335         4.1452
  38   0.0000       0.160597         4.3701
  39   0.0000       0.179571         4.8864

MULLIKEN ATOMIC CHARGES
-----------------------
   0 C :   -0.321536
   1 N :   -0.175773
   2 C :   -0.324823
   3 C :   -0.083844
   4 C :   -0.045615
   5 O :   -0.329864
   6 C :    0.174890
   7 C :    0.048686
   8 O :   -0.266366
   9 H :    0.142312
  10 H :    0.132111
  11 H :    0.111844
  12 H :    0.107061
  13 H :    0.162567
  14 H :    0.136286
  15 H :    0.092829
  16 H :    0.114815
  17 H :    0.104666
  18 H :    0.123040
  19 H :    0.096713
Sum of atomic charges:    0.0000000

LOEWDIN ATOMIC CHARGES
----------------------
   0 C :   -0.320370
   1 N :    0.052544
   2 C :   -0.317448
   3 C :   -0.255174
   4 C :   -0.248222
   5 O :    0.143347
   6 C :   -0.257676
   7 C :   -0.271064
   8 O :    0.136973
   9 H :    0.121742
  10 H :    0.118281
  11 H :    0.105314
  12 H :    0.104038
  13 H :    0.125168
  14 H :    0.120846
  15 H :    0.135928
  16 H :    0.119742
  17 H :    0.123847
  18 H :    0.145052
  19 H :    0.117133

  Mayer bond orders larger than 0.1
B(  0-C ,  1-N ) :   0.9082 B(  0-C ,  9-H ) :   0.9381 B(  0-C , 10-H ) :   0.9374
B(  0-C , 11-H ) :   0.9277 B(  1-N ,  2-C ) :   0.8874 B(  1-N ,  3-C ) :   1.0010
B(  2-C , 12-H ) :   0.9240 B(  2-C , 13-H ) :   0.9278 B(  2-C , 14-H ) :   0.9372
B(  3-C ,  4-C ) :   0.9603 B(  3-C ,  6-C ) :   0.9307 B(  3-C , 15-H ) :   0.9202
B(  4-C ,  5-O ) :   0.9419 B(  4-C , 16-H ) :   0.9181 B(  4-C , 17-H ) :   0.9041
B(  5-O ,  6-C ) :   0.9458 B(  6-C ,  7-C ) :   0.8169 B(  6-C , 18-H ) :   0.8982
B(  7-C ,  8-O ) :   1.9621 B(  7-C , 19-H ) :   0.9317

MP2 TOTAL ENERGY:     -439.524939773 Eh
FINAL SINGLE POINT ENERGY      -439.524939772912

DIPOLE MOMENT
-------------
                                X             Y             Z
Electronic contribution:     -1.25710      -9.21020      -1.47790
Nuclear contribution   :      0.88381      10.39446       1.48474
                        -----------------------------------------
Total Dipole Moment    :     -0.37329       1.18426       0.00685
                        -----------------------------------------
Magnitude (a.u.)       :      1.24172
Magnitude (Debye)      :      3.15621

                             ****ORCA TERMINATED NORMALLY****
TOTAL RUN TIME: 0 days 0 hours 19 minutes 50 seconds 976 msec
