                         Program Version 3.0.3 - RELEASE   -
|  1> ! RI-MP2 RIJK def2-TZVP def2-TZVP/C def2-TZVP/JK TIGHTSCF
|  2> % maxcore 2000
|  3> % mp2 density relaxed end
|  4> *xyz 0 1
|  5>  C       -0.0816423971     1.5465545584     0.0189360043
|  6>  C       -0.0034259472     0.0401485314    -0.0568186584
|  7>  C        0.7071875037    -0.5780616656    -1.2330315670
|  8>  C        0.1927824558    -1.7872571050    -1.4511014549
|  9>  C       -0.9339893776    -1.9909265554    -0.5015327088
| 10>  C       -0.7408868430    -1.6820881886     0.9608880909
| 11>  C        0.4104728325    -0.7582477650     1.2531982945
| 12>  O        1.6753802381    -1.3477137772     1.4021029022
| 13>  N       -1.3662865542    -0.6759551649     0.0163403633
| 14>  H        0.9206921958     1.9851437938     0.0869667881
| 15>  H       -0.5710729979     1.9547471645    -0.8709231066
| 16>  H       -0.6559673483     1.8634283651     0.8948447131
| 17>  H        1.5814918188    -0.1442916621    -1.7013403910
| 18>  H        0.5270664888    -2.5323611843    -2.1605724379
| 19>  H       -1.7379227785    -2.6834548177    -0.7334744290
| 20>  H       -1.3257664149    -2.1976559500     1.7167297239
| 21>  H        0.1494876761    -0.1371284407     2.1205148123
| 22>  H        2.2783788792    -0.6937736269     1.7692961510
| 23> *
| 24>
| 25>                          ****END OF INPUT****

CARTESIAN COORDINATES (ANGSTROEM)
---------------------------------
  C     -0.081642    1.546555    0.018936
  C     -0.003426    0.040149   -0.056819
  C      0.707188   -0.578062   -1.233032
  C      0.192782   -1.787257   -1.451101
  C     -0.933989   -1.990927   -0.501533
  C     -0.740887   -1.682088    0.960888
  C      0.410473   -0.758248    1.253198
  O      1.675380   -1.347714    1.402103
  N     -1.366287   -0.675955    0.016340
  H      0.920692    1.985144    0.086967
  H     -0.571073    1.954747   -0.870923
  H     -0.655967    1.863428    0.894845
  H      1.581492   -0.144292   -1.701340
  H      0.527066   -2.532361   -2.160572
  H     -1.737923   -2.683455   -0.733474
  H     -1.325766   -2.197656    1.716730
  H      0.149488   -0.137128    2.120515
  H      2.278379   -0.693774    1.769296

 Total Charge           Charge          ....    0
 Multiplicity           Mult            ....    1
 Number of Electrons    NEL             ....   66
 Basis Dimension        Dim             ....  333

ORBITAL ENERGIES
----------------

  NO   OCC          E(Eh)            E(eV)
   0   2.0000     -20.563776      -559.5688
   1   2.0000     -15.562093      -423.4661
   2   2.0000     -11.291761      -307.2644
   3   2.0000     -11.270139      -306.6761
   4   2.0000     -11.265153      -306.5404
   5   2.0000     -11.260626      -306.4172
   6   2.0000     -11.230835      -305.6065
   7   2.0000     -11.225935      -305.4732
   8   2.0000     -11.220620      -305.3286
   9   2.0000      -1.375100       -37.4184
  10   2.0000      -1.301326       -35.4109
  11   2.0000      -1.066618       -29.0242
  12   2.0000      -1.036222       -28.1970
  13   2.0000      -0.954535       -25.9742
  14   2.0000      -0.899284       -24.4708
  15   2.0000      -0.807003       -21.9597
  16   2.0000      -0.772223       -21.0133
  17   2.0000      -0.720890       -19.6164
  18   2.0000      -0.714502       -19.4426
  19   2.0000      -0.669765       -18.2252
  20   2.0000      -0.652069       -17.7437
  21   2.0000      -0.603025       -16.4092
  22   2.0000      -0.586913       -15.9707
  23   2.0000      -0.564507       -15.3610
  24   2.0000      -0.555602       -15.1187
  25   2.0000      -0.535313       -14.5666
  26   2.0000      -0.507314       -13.8047
  27   2.0000      -0.497580       -13.5398
  28   2.0000      -0.460548       -12.5321
  29   2.0000      -0.448262       -12.1978
  30   2.0000      -0.416788       -11.3414
  31   2.0000      -0.410687       -11.1754
  32   2.0000      -0.326545        -8.8857
  33   0.0000       0.122427         3.3314
  34   0.0000       0.140161         3.8140
  35   0.0000       0.165100         4.4926
  36   0.0000       0.168952         4.5974
  37   0.0000       0.173541         4.7223

MULLIKEN ATOMIC CHARGES
-----------------------
   0 C :   -0.384174
   1 C :    0.281200
   2 C :   -0.293801
   3 C :   -0.117877
   4 C :   -0.077171
   5 C :   -0.075538
   6 C :   -0.002372
   7 O :   -0.437586
   8 N :   -0.228410
   9 H :    0.122105
  10 H :    0.141922
  11 H :    0.134504
  12 H :    0.123951
  13 H :    0.135886
  14 H :    0.134402
  15 H :    0.128759
  16 H :    0.098815
  17 H :    0.315383
Sum of atomic charges:    0.0000000

LOEWDIN ATOMIC CHARGES
----------------------
   0 C :   -0.272339
   1 C :   -0.253302
   2 C :   -0.115364
   3 C :   -0.126219
   4 C :   -0.215352
   5 C :   -0.173820
   6 C :   -0.294427
   7 O :   -0.000360
   8 N :    0.176649
   9 H :    0.128133
  10 H :    0.132825
  11 H :    0.129169
  12 H :    0.141195
  13 H :    0.140988
  14 H :    0.147502
  15 H :    0.134714
  16 H :    0.143940
  17 H :    0.176067

  Mayer bond orders larger than 0.1
B(  0-C ,  1-C ) :   0.8920 B(  0-C ,  9-H ) :   0.9303 B(  0-C , 10-H ) :   0.9407
B(  0-C , 11-H ) :   0.9382 B(  1-C ,  2-C ) :   0.9147 B(  1-C ,  6-C ) :   0.8458
B(  1-C ,  7-O ) :  -0.1566 B(  1-C ,  8-N ) :   0.9234 B(  2-C ,  3-C ) :   1.7985
B(  2-C , 12-H ) :   0.9162 B(  3-C ,  4-C ) :   0.9674 B(  3-C , 13-H ) :   0.9201
B(  4-C ,  5-C ) :   0.9121 B(  4-C ,  8-N ) :   0.9359 B(  4-C , 14-H ) :   0.9160
B(  5-C ,  6-C ) :   0.9587 B(  5-C ,  8-N ) :   0.8711 B(  5-C , 15-H ) :   0.9008
B(  6-C ,  7-O ) :   1.2130 B(  6-C , 16-H ) :   0.9630 B(  7-O , 17-H ) :   0.8429

MP2 TOTAL ENERGY:     -401.221365761 Eh
FINAL SINGLE POINT ENERGY      -401.221365761417

DIPOLE MOMENT
-------------
                                X             Y             Z
Electronic contribution:     -0.31640      -3.85767      -0.02555
Nuclear contribution   :      0.87487       4.16305       0.27165
                        -----------------------------------------
Total Dipole Moment    :      0.55847       0.30539       0.24609
                        -----------------------------------------
Magnitude (a.u.)       :      0.68243
Magnitude (Debye)      :      1.73460

                             ****ORCA TERMINATED NORMALLY****
TOTAL RUN TIME: 0 days 0 hours 19 minutes 20 seconds 684 msec
