                         Program Version 3.0.3 - RELEASE   -
|  1> ! RI-MP2 RIJK def2-TZVP def2-TZVP/C def2-TZVP/JK TIGHTSCF
|  2> % maxcore 2000
|  3> % mp2 density relaxed end
|  4> *xyz 0 1
|  5>  C       -0.1541870794     1.5969331804    -0.0190609560
|  6>  C       -0.0303768971     0.0804003492    -0.0000598699
|  7>  C        1.1872122093    -0.5966959141    -0.6706428195
|  8>  C        2.1334850412    -0.3001328469     0.5439008011
|  9>  C        2.5858452757    -1.7671965974     0.6463490568
| 10>  C        1.0919126228    -1.8597949058     0.2679197314
| 11>  C        0.2595600606    -3.0940073396     0.0475005452
| 12>  C        0.7248693747    -0.6115524674     1.1581638023
| 13>  H        0.7951072251     2.0845235209     0.2248999252
| 14>  H       -0.4677890508     1.9540234683    -1.0065882308
| 15>  H       -0.9007996405     1.9401319966     0.7060966197
| 16>  H       -0.9932749639    -0.3851388460    -0.2472675404
| 17>  H        1.4798091548    -0.6054782141    -1.7236900955
| 18>  H        2.7213561675     0.6042781746     0.6998631964
| 19>  H        3.3058700768    -2.1162874598    -0.1026344498
| 20>  H        2.8648278855    -2.1304338465     1.6420909356
| 21>  H        0.2335097114    -3.7164851669     0.9491174642
| 22>  H       -0.7738064756    -2.8406099394    -0.2135601831
| 23>  H        0.6695708164    -3.7043259113    -0.7651928045
| 24>  H        0.4819119853    -0.6375601046     2.2234788314
| 25> *
| 26>
| 27>                          ****END OF INPUT****

CARTESIAN COORDINATES (ANGSTROEM)
---------------------------------
  C     -0.154187    1.596933   -0.019061
  C     -0.030377    0.080400   -0.000060
  C      1.187212   -0.596696   -0.670643
  C      2.133485   -0.300133    0.543901
  C      2.585845   -1.767197    0.646349
  C      1.091913   -1.859795    0.267920
  C      0.259560   -3.094007    0.047501
  C      0.724869   -0.611552    1.158164
  H      0.795107    2.084524    0.224900
  H     -0.467789    1.954023   -1.006588
  H     -0.900800    1.940132    0.706097
  H     -0.993275   -0.385139   -0.247268
  H      1.479809   -0.605478   -1.723690
  H      2.721356    0.604278    0.699863
  H      3.305870   -2.116287   -0.102634
  H      2.864828   -2.130434    1.642091
  H      0.233510   -3.716485    0.949117
  H     -0.773806   -2.840610   -0.213560
  H      0.669571   -3.704326   -0.765193
  H      0.481912   -0.637560    2.223479

 Total Charge           Charge          ....    0
 Multiplicity           Mult            ....    1
 Number of Electrons    NEL             ....   60
 Basis Dimension        Dim             ....  320

ORBITAL ENERGIES
----------------

  NO   OCC          E(Eh)            E(eV)
   0   2.0000     -11.240271      -305.8633
   1   2.0000     -11.233039      -305.6665
   2   2.0000     -11.230943      -305.6095
   3   2.0000     -11.230932      -305.6092
   4   2.0000     -11.223885      -305.4174
   5   2.0000     -11.215575      -305.1913
   6   2.0000     -11.213180      -305.1261
   7   2.0000     -11.208044      -304.9864
   8   2.0000      -1.235683       -33.6246
   9   2.0000      -1.029417       -28.0119
  10   2.0000      -0.978783       -26.6340
  11   2.0000      -0.928020       -25.2527
  12   2.0000      -0.855496       -23.2792
  13   2.0000      -0.816579       -22.2202
  14   2.0000      -0.780627       -21.2419
  15   2.0000      -0.677004       -18.4222
  16   2.0000      -0.646189       -17.5837
  17   2.0000      -0.619236       -16.8503
  18   2.0000      -0.597683       -16.2638
  19   2.0000      -0.592388       -16.1197
  20   2.0000      -0.556113       -15.1326
  21   2.0000      -0.549616       -14.9558
  22   2.0000      -0.540016       -14.6946
  23   2.0000      -0.514262       -13.9938
  24   2.0000      -0.440281       -11.9807
  25   2.0000      -0.431028       -11.7289
  26   2.0000      -0.418213       -11.3801
  27   2.0000      -0.416307       -11.3283
  28   2.0000      -0.407165       -11.0795
  29   2.0000      -0.400850       -10.9077
  30   0.0000       0.142686         3.8827
  31   0.0000       0.149020         4.0550
  32   0.0000       0.164497         4.4762
  33   0.0000       0.185113         5.0372
  34   0.0000       0.192856         5.2479

MULLIKEN ATOMIC CHARGES
-----------------------
   0 C :   -0.416785
   1 C :   -0.071927
   2 C :   -0.078348
   3 C :   -0.190699
   4 C :   -0.179954
   5 C :   -0.011273
   6 C :   -0.417746
   7 C :   -0.078231
   8 H :    0.127457
   9 H :    0.128071
  10 H :    0.128073
  11 H :    0.090983
  12 H :    0.118016
  13 H :    0.125882
  14 H :    0.103913
  15 H :    0.103918
  16 H :    0.133095
  17 H :    0.134434
  18 H :    0.133105
  19 H :    0.118018
Sum of atomic charges:   -0.0000000

LOEWDIN ATOMIC CHARGES
----------------------
   0 C :   -0.297223
   1 C :   -0.217642
   2 C :   -0.105970
   3 C :   -0.144707
   4 C :   -0.185960
   5 C :   -0.191701
   6 C :   -0.279308
   7 C :   -0.105968
   8 H :    0.124970
   9 H :    0.123550
  10 H :    0.123550
  11 H :    0.140256
  12 H :    0.126570
  13 H :    0.123901
  14 H :    0.126368
  15 H :    0.126368
  16 H :    0.128691
  17 H :    0.128987
  18 H :    0.128698
  19 H :    0.126569

  Mayer bond orders larger than 0.1
B(  0-C ,  1-C ) :   0.8949 B(  0-C ,  8-H ) :   0.9401 B(  0-C ,  9-H ) :   0.9382
B(  0-C , 10-H ) :   0.9382 B(  1-C ,  2-C ) :   0.9052 B(  1-C ,  7-C ) :   0.9052
B(  1-C , 11-H ) :   0.9257 B(  2-C ,  3-C ) :   0.8621 B(  2-C ,  5-C ) :   0.8316
B(  2-C , 12-H ) :   0.8925 B(  3-C ,  4-C ) :   0.9259 B(  3-C ,  7-C ) :   0.8621
B(  3-C , 13-H ) :   0.9069 B(  4-C ,  5-C ) :   0.8981 B(  4-C , 14-H ) :   0.9238
B(  4-C , 15-H ) :   0.9238 B(  5-C ,  6-C ) :   0.8606 B(  5-C ,  7-C ) :   0.8315
B(  6-C , 16-H ) :   0.9402 B(  6-C , 17-H ) :   0.9410 B(  6-C , 18-H ) :   0.9402
B(  7-C , 19-H ) :   0.8925

MP2 TOTAL ENERGY:     -311.226433474 Eh
FINAL SINGLE POINT ENERGY      -311.226433474376

DIPOLE MOMENT
-------------
                                X             Y             Z
Electronic contribution:      1.82984      -0.29065       0.46025
Nuclear contribution   :     -1.90087       0.22891      -0.47871
                        -----------------------------------------
Total Dipole Moment    :     -0.07103      -0.06174      -0.01846
                        -----------------------------------------
Magnitude (a.u.)       :      0.09590
Magnitude (Debye)      :      0.24376

                             ****ORCA TERMINATED NORMALLY****
TOTAL RUN TIME: 0 days 0 hours 15 minutes 14 seconds 49 msec
