                         Program Version 3.0.3 - RELEASE   -
|  1> ! RI-MP2 RIJK def2-TZVP def2-TZVP/C def2-TZVP/JK TIGHTSCF
|  2> % maxcore 2000
|  3> % mp2 density relaxed end
|  4> *xyz 0 1
|  5>  O       -0.0326200486     0.1462393506    -0.5840962172
|  6>  C       -0.0081811100     1.3136756614    -0.3120538828
|  7>  C       -1.0660820146     2.3652873603    -0.0618577897
|  8>  C       -2.3682435617     2.4469683245    -0.7783373299
|  9>  N       -2.3246908605     2.1473122492     0.6518113227
| 10>  C        0.0056029370     3.4287100852     0.2442892316
| 11>  C        1.0783569239     2.3441646703     0.0024857914
| 12>  C        2.3837461750     2.1153886995     0.6387411046
| 13>  O        2.2768056532     2.5076904142    -0.7289528766
| 14>  H       -2.7600407639     3.4285185525    -1.0302406406
| 15>  H       -2.6020918563     1.6513347896    -1.4811830195
| 16>  H       -2.4499661877     1.1470392169     0.8039775724
| 17>  H        0.0476784068     4.2507338079    -0.4736721791
| 18>  H       -0.0270620142     3.8269720485     1.2603553324
| 19>  H        2.7752193451     2.8722346532     1.3168146488
| 20>  H        2.7220060865     1.0945692861     0.8075761212
| 21> *
| 22>
| 23>                          ****END OF INPUT****

CARTESIAN COORDINATES (ANGSTROEM)
---------------------------------
  O     -0.032620    0.146239   -0.584096
  C     -0.008181    1.313676   -0.312054
  C     -1.066082    2.365287   -0.061858
  C     -2.368244    2.446968   -0.778337
  N     -2.324691    2.147312    0.651811
  C      0.005603    3.428710    0.244289
  C      1.078357    2.344165    0.002486
  C      2.383746    2.115389    0.638741
  O      2.276806    2.507690   -0.728953
  H     -2.760041    3.428519   -1.030241
  H     -2.602092    1.651335   -1.481183
  H     -2.449966    1.147039    0.803978
  H      0.047678    4.250734   -0.473672
  H     -0.027062    3.826972    1.260355
  H      2.775219    2.872235    1.316815
  H      2.722006    1.094569    0.807576

 Total Charge           Charge          ....    0
 Multiplicity           Mult            ....    1
 Number of Electrons    NEL             ....   66
 Basis Dimension        Dim             ....  321

ORBITAL ENERGIES
----------------

  NO   OCC          E(Eh)            E(eV)
   0   2.0000     -20.594719      -560.4108
   1   2.0000     -20.570935      -559.7636
   2   2.0000     -15.585822      -424.1118
   3   2.0000     -11.345895      -308.7375
   4   2.0000     -11.314083      -307.8718
   5   2.0000     -11.305789      -307.6462
   6   2.0000     -11.287684      -307.1535
   7   2.0000     -11.281692      -306.9905
   8   2.0000     -11.253028      -306.2105
   9   2.0000      -1.441083       -39.2139
  10   2.0000      -1.408582       -38.3295
  11   2.0000      -1.290398       -35.1135
  12   2.0000      -1.119213       -30.4553
  13   2.0000      -0.935787       -25.4641
  14   2.0000      -0.905150       -24.6304
  15   2.0000      -0.892151       -24.2767
  16   2.0000      -0.836371       -22.7588
  17   2.0000      -0.745035       -20.2734
  18   2.0000      -0.719084       -19.5673
  19   2.0000      -0.691997       -18.8302
  20   2.0000      -0.674339       -18.3497
  21   2.0000      -0.644417       -17.5355
  22   2.0000      -0.623568       -16.9682
  23   2.0000      -0.589662       -16.0455
  24   2.0000      -0.568845       -15.4791
  25   2.0000      -0.554571       -15.0906
  26   2.0000      -0.534191       -14.5361
  27   2.0000      -0.507923       -13.8213
  28   2.0000      -0.487242       -13.2585
  29   2.0000      -0.478189       -13.0122
  30   2.0000      -0.456123       -12.4117
  31   2.0000      -0.412999       -11.2383
  32   2.0000      -0.403312       -10.9747
  33   0.0000       0.093072         2.5326
  34   0.0000       0.141761         3.8575
  35   0.0000       0.154447         4.2027
  36   0.0000       0.162208         4.4139
  37   0.0000       0.177945         4.8421

MULLIKEN ATOMIC CHARGES
-----------------------
   0 O :   -0.246483
   1 C :    0.114014
   2 C :    0.066245
   3 C :   -0.192447
   4 N :   -0.377030
   5 C :   -0.141426
   6 C :    0.120089
   7 C :   -0.085671
   8 O :   -0.317708
   9 H :    0.135227
  10 H :    0.150073
  11 H :    0.237318
  12 H :    0.134161
  13 H :    0.134371
  14 H :    0.128523
  15 H :    0.140743
Sum of atomic charges:    0.0000000

LOEWDIN ATOMIC CHARGES
----------------------
   0 O :    0.172422
   1 C :   -0.259630
   2 C :   -0.254207
   3 C :   -0.222008
   4 N :    0.025918
   5 C :   -0.147107
   6 C :   -0.270420
   7 C :   -0.222483
   8 O :    0.192150
   9 H :    0.132355
  10 H :    0.131395
  11 H :    0.177994
  12 H :    0.145301
  13 H :    0.143739
  14 H :    0.125604
  15 H :    0.128977

  Mayer bond orders larger than 0.1
B(  0-O ,  1-C ) :   2.0682 B(  1-C ,  2-C ) :   0.8928 B(  1-C ,  6-C ) :   0.8521
B(  2-C ,  3-C ) :   0.8660 B(  2-C ,  4-N ) :   0.8690 B(  2-C ,  5-C ) :   0.9048
B(  2-C ,  6-C ) :  -0.1011 B(  3-C ,  4-N ) :   0.9658 B(  3-C ,  9-H ) :   0.9178
B(  3-C , 10-H ) :   0.9201 B(  4-N , 11-H ) :   0.8661 B(  5-C ,  6-C ) :   0.9314
B(  5-C , 12-H ) :   0.9000 B(  5-C , 13-H ) :   0.8988 B(  6-C ,  7-C ) :   0.9285
B(  6-C ,  8-O ) :   0.8759 B(  7-C ,  8-O ) :   0.9011 B(  7-C , 14-H ) :   0.9193
B(  7-C , 15-H ) :   0.9127

MP2 TOTAL ENERGY:     -437.103077706 Eh
FINAL SINGLE POINT ENERGY      -437.103077706199

DIPOLE MOMENT
-------------
                                X             Y             Z
Electronic contribution:      2.01193      -2.99851      -1.42250
Nuclear contribution   :     -2.20236       3.51199       1.84513
                        -----------------------------------------
Total Dipole Moment    :     -0.19042       0.51348       0.42263
                        -----------------------------------------
Magnitude (a.u.)       :      0.69176
Magnitude (Debye)      :      1.75833

                             ****ORCA TERMINATED NORMALLY****
TOTAL RUN TIME: 0 days 0 hours 16 minutes 7 seconds 795 msec
