                         Program Version 3.0.3 - RELEASE   -
|  1> ! RI-MP2 RIJK def2-TZVP def2-TZVP/C def2-TZVP/JK TIGHTSCF
|  2> % maxcore 2000
|  3> % mp2 density relaxed end
|  4> *xyz 0 1
|  5>  C        0.0439863456     1.5927836186     0.1256295670
|  6>  C       -0.0019124493     0.0652203689     0.0072485005
|  7>  C       -1.4543588893    -0.4715435105     0.0484842398
|  8>  C       -2.1415373828    -0.1821418756     1.3003031142
|  9>  C       -2.6883216314     0.0585538940     2.3437276771
| 10>  C        0.6749107170    -0.4292839209    -1.2933129079
| 11>  O        0.0305892022     0.0653602004    -2.4358430464
| 12>  C        2.1443850102    -0.0629428085    -1.3188129528
| 13>  O        2.6298810526     0.5618353272    -2.2308314053
| 14>  H        1.0722277619     1.9609560544     0.2048053761
| 15>  H       -0.4118254494     2.0530655093    -0.7555123212
| 16>  H       -0.5022565268     1.9235505463     1.0119411909
| 17>  H        0.5435719885    -0.3828746917     0.8486172610
| 18>  H       -2.0087648027    -0.0418711421    -0.7940810034
| 19>  H       -1.4428259847    -1.5572880896    -0.1136626550
| 20>  H       -3.1851186325     0.2664226062     3.2587663104
| 21>  H        0.6416038781    -1.5360154269    -1.2877674600
| 22>  H        0.7188937701     0.5123777610    -2.9538553367
| 23>  H        2.7520422626    -0.4072733204    -0.4569101884
| 24> *
| 25>
| 26>                          ****END OF INPUT****

CARTESIAN COORDINATES (ANGSTROEM)
---------------------------------
  C      0.043986    1.592784    0.125630
  C     -0.001912    0.065220    0.007249
  C     -1.454359   -0.471544    0.048484
  C     -2.141537   -0.182142    1.300303
  C     -2.688322    0.058554    2.343728
  C      0.674911   -0.429284   -1.293313
  O      0.030589    0.065360   -2.435843
  C      2.144385   -0.062943   -1.318813
  O      2.629881    0.561835   -2.230831
  H      1.072228    1.960956    0.204805
  H     -0.411825    2.053066   -0.755512
  H     -0.502257    1.923551    1.011941
  H      0.543572   -0.382875    0.848617
  H     -2.008765   -0.041871   -0.794081
  H     -1.442826   -1.557288   -0.113663
  H     -3.185119    0.266423    3.258766
  H      0.641604   -1.536015   -1.287767
  H      0.718894    0.512378   -2.953855
  H      2.752042   -0.407273   -0.456910

 Total Charge           Charge          ....    0
 Multiplicity           Mult            ....    1
 Number of Electrons    NEL             ....   68
 Basis Dimension        Dim             ....  339

ORBITAL ENERGIES
----------------

  NO   OCC          E(Eh)            E(eV)
   0   2.0000     -20.582114      -560.0678
   1   2.0000     -20.566306      -559.6376
   2   2.0000     -11.351674      -308.8948
   3   2.0000     -11.306008      -307.6521
   4   2.0000     -11.257867      -306.3421
   5   2.0000     -11.257302      -306.3268
   6   2.0000     -11.237499      -305.7879
   7   2.0000     -11.223771      -305.4143
   8   2.0000     -11.221955      -305.3649
   9   2.0000      -1.428607       -38.8744
  10   2.0000      -1.373474       -37.3741
  11   2.0000      -1.117688       -30.4139
  12   2.0000      -1.041620       -28.3439
  13   2.0000      -0.977753       -26.6060
  14   2.0000      -0.951682       -25.8966
  15   2.0000      -0.841964       -22.9110
  16   2.0000      -0.788673       -21.4609
  17   2.0000      -0.741242       -20.1702
  18   2.0000      -0.719308       -19.5734
  19   2.0000      -0.692235       -18.8367
  20   2.0000      -0.668897       -18.2016
  21   2.0000      -0.642235       -17.4761
  22   2.0000      -0.628925       -17.1139
  23   2.0000      -0.585762       -15.9394
  24   2.0000      -0.578718       -15.7477
  25   2.0000      -0.555393       -15.1130
  26   2.0000      -0.547502       -14.8983
  27   2.0000      -0.529716       -14.4143
  28   2.0000      -0.509948       -13.8764
  29   2.0000      -0.499426       -13.5901
  30   2.0000      -0.451842       -12.2952
  31   2.0000      -0.445734       -12.1290
  32   2.0000      -0.389189       -10.5904
  33   2.0000      -0.388077       -10.5601
  34   0.0000       0.110997         3.0204
  35   0.0000       0.131950         3.5905
  36   0.0000       0.154368         4.2006
  37   0.0000       0.156314         4.2535
  38   0.0000       0.165215         4.4957

MULLIKEN ATOMIC CHARGES
-----------------------
   0 C :   -0.460660
   1 C :    0.006569
   2 C :   -0.408276
   3 C :   -0.004397
   4 C :   -0.132886
   5 C :    0.073431
   6 O :   -0.490349
   7 C :    0.106691
   8 O :   -0.291074
   9 H :    0.133035
  10 H :    0.147013
  11 H :    0.159070
  12 H :    0.104892
  13 H :    0.173838
  14 H :    0.140526
  15 H :    0.190213
  16 H :    0.111530
  17 H :    0.335541
  18 H :    0.105294
Sum of atomic charges:   -0.0000000

LOEWDIN ATOMIC CHARGES
----------------------
   0 C :   -0.283891
   1 C :   -0.248710
   2 C :   -0.223596
   3 C :   -0.112157
   4 C :   -0.107604
   5 C :   -0.350623
   6 O :    0.003744
   7 C :   -0.269725
   8 O :    0.130154
   9 H :    0.124864
  10 H :    0.131542
  11 H :    0.133207
  12 H :    0.159124
  13 H :    0.166729
  14 H :    0.159508
  15 H :    0.126318
  16 H :    0.155235
  17 H :    0.184036
  18 H :    0.121844

  Mayer bond orders larger than 0.1
B(  0-C ,  1-C ) :   0.8995 B(  0-C ,  9-H ) :   0.9315 B(  0-C , 10-H ) :   0.9310
B(  0-C , 11-H ) :   0.9338 B(  1-C ,  2-C ) :   0.8840 B(  1-C ,  5-C ) :   0.8265
B(  1-C ,  6-O ) :  -0.1080 B(  1-C , 12-H ) :   0.9152 B(  2-C ,  3-C ) :   1.0812
B(  2-C ,  4-C ) :  -0.1123 B(  2-C , 13-H ) :   0.9325 B(  2-C , 14-H ) :   0.9220
B(  3-C ,  4-C ) :   2.6229 B(  4-C , 15-H ) :   0.8957 B(  5-C ,  6-O ) :   1.0925
B(  5-C ,  7-C ) :   0.8693 B(  5-C , 16-H ) :   0.9364 B(  6-O , 17-H ) :   0.8040
B(  7-C ,  8-O ) :   1.9222 B(  7-C , 18-H ) :   0.9347

MP2 TOTAL ENERGY:     -422.293494880 Eh
FINAL SINGLE POINT ENERGY      -422.293494880277

DIPOLE MOMENT
-------------
                                X             Y             Z
Electronic contribution:      1.86377      -1.50747      -2.88575
Nuclear contribution   :     -1.64179       1.15798       3.51827
                        -----------------------------------------
Total Dipole Moment    :      0.22198      -0.34949       0.63252
                        -----------------------------------------
Magnitude (a.u.)       :      0.75598
Magnitude (Debye)      :      1.92155

                             ****ORCA TERMINATED NORMALLY****
TOTAL RUN TIME: 0 days 0 hours 18 minutes 27 seconds 132 msec
