                         Program Version 3.0.3 - RELEASE   -
|  1> ! RI-MP2 RIJK def2-TZVP def2-TZVP/C def2-TZVP/JK TIGHTSCF
|  2> % maxcore 2000
|  3> % mp2 density relaxed end
|  4> *xyz 0 1
|  5>  N       -0.1549798954    -1.1793252792     0.0412711253
|  6>  C       -0.0994418968    -0.0246096652     0.0541233384
|  7>  C       -0.0210562350     1.4151636035     0.0206302675
|  8>  N        0.5830243008     2.0793669715     1.2176275496
|  9>  C        1.2777053368     2.1338189462    -0.0266811694
| 10>  C        2.7423239469     1.7985399462    -0.3380625146
| 11>  C        2.4904581475     2.2191225156    -1.8072369840
| 12>  C        1.8477674782     3.2798770137    -0.8783065922
| 13>  O        3.0608452875     3.2197082688    -0.0280318828
| 14>  H       -0.8718683611     1.8942651578    -0.4575524308
| 15>  H        0.0877626338     2.9420243238     1.4316503796
| 16>  H        3.3853705734     1.0265286788     0.0787167831
| 17>  H        3.3810077489     2.5692963611    -2.3280870530
| 18>  H        1.8381275757     1.5964876169    -2.4237722631
| 19>  H        1.4330400587     4.2612021607    -1.1083000635
| 20> *
| 21>
| 22>                          ****END OF INPUT****

CARTESIAN COORDINATES (ANGSTROEM)
---------------------------------
  N     -0.154980   -1.179325    0.041271
  C     -0.099442   -0.024610    0.054123
  C     -0.021056    1.415164    0.020630
  N      0.583024    2.079367    1.217628
  C      1.277705    2.133819   -0.026681
  C      2.742324    1.798540   -0.338063
  C      2.490458    2.219123   -1.807237
  C      1.847767    3.279877   -0.878307
  O      3.060845    3.219708   -0.028032
  H     -0.871868    1.894265   -0.457552
  H      0.087763    2.942024    1.431650
  H      3.385371    1.026529    0.078717
  H      3.381008    2.569296   -2.328087
  H      1.838128    1.596488   -2.423772
  H      1.433040    4.261202   -1.108300

 Total Charge           Charge          ....    0
 Multiplicity           Mult            ....    1
 Number of Electrons    NEL             ....   64
 Basis Dimension        Dim             ....  315

ORBITAL ENERGIES
----------------

  NO   OCC          E(Eh)            E(eV)
   0   2.0000     -20.573364      -559.8297
   1   2.0000     -15.603317      -424.5879
   2   2.0000     -15.580034      -423.9543
   3   2.0000     -11.329406      -308.2888
   4   2.0000     -11.326738      -308.2162
   5   2.0000     -11.324136      -308.1454
   6   2.0000     -11.317774      -307.9723
   7   2.0000     -11.282713      -307.0182
   8   2.0000     -11.261980      -306.4541
   9   2.0000      -1.422758       -38.7152
  10   2.0000      -1.310626       -35.6639
  11   2.0000      -1.222636       -33.2696
  12   2.0000      -1.087847       -29.6018
  13   2.0000      -0.976823       -26.5807
  14   2.0000      -0.916338       -24.9348
  15   2.0000      -0.912303       -24.8250
  16   2.0000      -0.793147       -21.5826
  17   2.0000      -0.738218       -20.0879
  18   2.0000      -0.733072       -19.9479
  19   2.0000      -0.688823       -18.7438
  20   2.0000      -0.619492       -16.8572
  21   2.0000      -0.595394       -16.2015
  22   2.0000      -0.572950       -15.5908
  23   2.0000      -0.564495       -15.3607
  24   2.0000      -0.542306       -14.7569
  25   2.0000      -0.520845       -14.1729
  26   2.0000      -0.510409       -13.8889
  27   2.0000      -0.491839       -13.3836
  28   2.0000      -0.469163       -12.7666
  29   2.0000      -0.460447       -12.5294
  30   2.0000      -0.441357       -12.0099
  31   2.0000      -0.414407       -11.2766
  32   0.0000       0.110663         3.0113
  33   0.0000       0.132778         3.6131
  34   0.0000       0.155993         4.2448
  35   0.0000       0.158479         4.3124
  36   0.0000       0.167100         4.5470

MULLIKEN ATOMIC CHARGES
-----------------------
   0 N :   -0.051087
   1 C :   -0.202451
   2 C :    0.004549
   3 N :   -0.352614
   4 C :    0.138265
   5 C :   -0.027978
   6 C :   -0.160895
   7 C :   -0.043528
   8 O :   -0.288625
   9 H :    0.168628
  10 H :    0.238505
  11 H :    0.161228
  12 H :    0.137725
  13 H :    0.127478
  14 H :    0.150800
Sum of atomic charges:   -0.0000000

LOEWDIN ATOMIC CHARGES
----------------------
   0 N :    0.074860
   1 C :   -0.168243
   2 C :   -0.213174
   3 N :    0.075513
   4 C :   -0.243160
   5 C :   -0.169189
   6 C :   -0.185261
   7 C :   -0.194116
   8 O :    0.141384
   9 H :    0.162936
  10 H :    0.180514
  11 H :    0.134902
  12 H :    0.139491
  13 H :    0.134571
  14 H :    0.128973

  Mayer bond orders larger than 0.1
B(  0-N ,  1-C ) :   2.8523 B(  1-C ,  2-C ) :   0.9246 B(  2-C ,  3-N ) :   0.9879
B(  2-C ,  4-C ) :   0.8443 B(  2-C ,  9-H ) :   0.9050 B(  3-N ,  4-C ) :   0.8936
B(  3-N , 10-H ) :   0.8553 B(  4-C ,  5-C ) :   0.9122 B(  4-C ,  7-C ) :   0.9178
B(  5-C ,  6-C ) :   0.9182 B(  5-C ,  8-O ) :   0.9117 B(  5-C , 11-H ) :   0.8817
B(  6-C ,  7-C ) :   0.9205 B(  6-C , 12-H ) :   0.9205 B(  6-C , 13-H ) :   0.9131
B(  7-C ,  8-O ) :   0.9300 B(  7-C , 14-H ) :   0.8752

MP2 TOTAL ENERGY:     -415.996888875 Eh
FINAL SINGLE POINT ENERGY      -415.996888875324

DIPOLE MOMENT
-------------
                                X             Y             Z
Electronic contribution:     -1.56621      -2.38751       2.54708
Nuclear contribution   :      1.17059       3.80449      -3.42013
                        -----------------------------------------
Total Dipole Moment    :     -0.39562       1.41698      -0.87305
                        -----------------------------------------
Magnitude (a.u.)       :      1.71072
Magnitude (Debye)      :      4.34831

                             ****ORCA TERMINATED NORMALLY****
TOTAL RUN TIME: 0 days 0 hours 14 minutes 35 seconds 357 msec
