                         Program Version 3.0.3 - RELEASE   -
|  1> ! RI-MP2 RIJK def2-TZVP def2-TZVP/C def2-TZVP/JK TIGHTSCF
|  2> % maxcore 2000
|  3> % mp2 density relaxed end
|  4> *xyz 0 1
|  5>  C       -0.3179173127     1.5828069047     0.0606537697
|  6>  C        0.1907216911     0.1542459161     0.0377341979
|  7>  C        1.0314293292    -0.2341661514    -1.1985937505
|  8>  O        2.0771705012    -1.0476381844    -0.6816668324
|  9>  C        1.8821608957    -1.1629094141     0.7227290060
| 10>  C        3.2103016604    -1.1661070219     1.4450975799
| 11>  O        1.1094510397    -0.0516706287     1.1060341564
| 12>  H        0.5169399152     2.2845345710    -0.0262615247
| 13>  H       -1.0090157718     1.7551227612    -0.7705028511
| 14>  H       -0.8485197756     1.7882670292     0.9941755238
| 15>  H       -0.6525476393    -0.5483268955     0.1434798966
| 16>  H        0.4438731661    -0.7865051439    -1.9421076027
| 17>  H        1.4672035871     0.6494852927    -1.6828860397
| 18>  H        1.3176578956    -2.0934731667     0.9273447827
| 19>  H        3.7419370147    -0.2338105706     1.2401716691
| 20>  H        3.0515154597    -1.2625218621     2.5223213628
| 21>  H        3.8167056436    -2.0077697454     1.1015340062
| 22> *
| 23>
| 24>                          ****END OF INPUT****

CARTESIAN COORDINATES (ANGSTROEM)
---------------------------------
  C     -0.317917    1.582807    0.060654
  C      0.190722    0.154246    0.037734
  C      1.031429   -0.234166   -1.198594
  O      2.077171   -1.047638   -0.681667
  C      1.882161   -1.162909    0.722729
  C      3.210302   -1.166107    1.445098
  O      1.109451   -0.051671    1.106034
  H      0.516940    2.284535   -0.026262
  H     -1.009016    1.755123   -0.770503
  H     -0.848520    1.788267    0.994176
  H     -0.652548   -0.548327    0.143480
  H      0.443873   -0.786505   -1.942108
  H      1.467204    0.649485   -1.682886
  H      1.317658   -2.093473    0.927345
  H      3.741937   -0.233811    1.240172
  H      3.051515   -1.262522    2.522321
  H      3.816706   -2.007770    1.101534

 Total Charge           Charge          ....    0
 Multiplicity           Mult            ....    1
 Number of Electrons    NEL             ....   56
 Basis Dimension        Dim             ....  277

ORBITAL ENERGIES
----------------

  NO   OCC          E(Eh)            E(eV)
   0   2.0000     -20.561581      -559.5091
   1   2.0000     -20.555722      -559.3496
   2   2.0000     -11.328701      -308.2696
   3   2.0000     -11.287169      -307.1395
   4   2.0000     -11.277432      -306.8745
   5   2.0000     -11.223487      -305.4066
   6   2.0000     -11.213648      -305.1389
   7   2.0000      -1.436290       -39.0834
   8   2.0000      -1.329036       -36.1649
   9   2.0000      -1.070496       -29.1297
  10   2.0000      -0.989190       -26.9172
  11   2.0000      -0.920884       -25.0585
  12   2.0000      -0.825507       -22.4632
  13   2.0000      -0.813322       -22.1316
  14   2.0000      -0.714913       -19.4538
  15   2.0000      -0.666095       -18.1254
  16   2.0000      -0.654466       -17.8089
  17   2.0000      -0.614920       -16.7328
  18   2.0000      -0.584861       -15.9149
  19   2.0000      -0.571779       -15.5589
  20   2.0000      -0.546679       -14.8759
  21   2.0000      -0.536543       -14.6001
  22   2.0000      -0.526813       -14.3353
  23   2.0000      -0.515203       -14.0194
  24   2.0000      -0.506230       -13.7752
  25   2.0000      -0.473220       -12.8770
  26   2.0000      -0.438003       -11.9187
  27   2.0000      -0.418770       -11.3953
  28   0.0000       0.138696         3.7741
  29   0.0000       0.158706         4.3186
  30   0.0000       0.165905         4.5145
  31   0.0000       0.186182         5.0663
  32   0.0000       0.204288         5.5590

MULLIKEN ATOMIC CHARGES
-----------------------
   0 C :   -0.388255
   1 C :    0.042211
   2 C :   -0.012101
   3 O :   -0.318701
   4 C :    0.202782
   5 C :   -0.346943
   6 O :   -0.302889
   7 H :    0.132309
   8 H :    0.128396
   9 H :    0.142153
  10 H :    0.082244
  11 H :    0.098356
  12 H :    0.092478
  13 H :    0.058425
  14 H :    0.125141
  15 H :    0.131021
  16 H :    0.133372
Sum of atomic charges:   -0.0000000

LOEWDIN ATOMIC CHARGES
----------------------
   0 C :   -0.291979
   1 C :   -0.344104
   2 C :   -0.283945
   3 O :    0.159449
   4 C :   -0.422951
   5 C :   -0.288294
   6 O :    0.198442
   7 H :    0.128053
   8 H :    0.128795
   9 H :    0.128864
  10 H :    0.134491
  11 H :    0.121486
  12 H :    0.123085
  13 H :    0.120988
  14 H :    0.128487
  15 H :    0.128980
  16 H :    0.130153

  Mayer bond orders larger than 0.1
B(  0-C ,  1-C ) :   0.9193 B(  0-C ,  7-H ) :   0.9345 B(  0-C ,  8-H ) :   0.9321
B(  0-C ,  9-H ) :   0.9355 B(  1-C ,  2-C ) :   0.9422 B(  1-C ,  6-O ) :   0.9351
B(  1-C , 10-H ) :   0.9350 B(  2-C ,  3-O ) :   0.9495 B(  2-C , 11-H ) :   0.9146
B(  2-C , 12-H ) :   0.9175 B(  3-O ,  4-C ) :   0.9619 B(  4-C ,  5-C ) :   0.9231
B(  4-C ,  6-O ) :   0.9867 B(  4-C , 13-H ) :   0.9271 B(  5-C , 14-H ) :   0.9317
B(  5-C , 15-H ) :   0.9330 B(  5-C , 16-H ) :   0.9324

MP2 TOTAL ENERGY:     -346.305235708 Eh
FINAL SINGLE POINT ENERGY      -346.305235708122

DIPOLE MOMENT
-------------
                                X             Y             Z
Electronic contribution:      0.79625      -2.04385      -0.44403
Nuclear contribution   :     -1.27479       2.13417       0.31838
                        -----------------------------------------
Total Dipole Moment    :     -0.47855       0.09032      -0.12564
                        -----------------------------------------
Magnitude (a.u.)       :      0.50294
Magnitude (Debye)      :      1.27837

                             ****ORCA TERMINATED NORMALLY****
TOTAL RUN TIME: 0 days 0 hours 8 minutes 30 seconds 326 msec
