                         Program Version 3.0.3 - RELEASE   -
|  1> ! RI-MP2 RIJK def2-TZVP def2-TZVP/C def2-TZVP/JK TIGHTSCF
|  2> % maxcore 2000
|  3> % mp2 density relaxed end
|  4> *xyz 0 1
|  5>  O        0.2294804330     1.4081054889    -0.1030949539
|  6>  C        0.0536367771     0.0090029137    -0.0044881980
|  7>  C        0.3179707694    -0.6000938187     1.4269201826
|  8>  O        0.6871942900     0.3291618511     2.4115959736
|  9>  C       -1.1343269722    -1.1912957984     1.4331686775
| 10>  C       -2.3407167521    -0.3980999715     1.9844663375
| 11>  C       -2.2115396483     1.0820407766     1.8233102806
| 12>  C       -2.5539285386     0.2520487357     0.6031282322
| 13>  C       -1.3854994171    -0.5775071955     0.0210513220
| 14>  H       -0.6284175054     1.8194440664     0.0490224800
| 15>  H        0.6873022176    -0.4495123599    -0.7694518475
| 16>  H        1.0576451447    -1.4115528186     1.3828682161
| 17>  H        0.9465690860     1.1260405980     1.9257792193
| 18>  H       -1.2023467427    -2.2673891298     1.5887832614
| 19>  H       -3.0834272125    -0.8274547601     2.6456826073
| 20>  H       -3.0597313281     1.6452933969     2.2017118229
| 21>  H       -1.2592046602     1.5693709824     1.9786416932
| 22>  H       -3.4827585249     0.4246659806     0.0726680798
| 23>  H       -1.6771954160    -1.2028188778    -0.8226785667
| 24> *
| 25>
| 26>                          ****END OF INPUT****

CARTESIAN COORDINATES (ANGSTROEM)
---------------------------------
  O      0.229480    1.408105   -0.103095
  C      0.053637    0.009003   -0.004488
  C      0.317971   -0.600094    1.426920
  O      0.687194    0.329162    2.411596
  C     -1.134327   -1.191296    1.433169
  C     -2.340717   -0.398100    1.984466
  C     -2.211540    1.082041    1.823310
  C     -2.553929    0.252049    0.603128
  C     -1.385499   -0.577507    0.021051
  H     -0.628418    1.819444    0.049022
  H      0.687302   -0.449512   -0.769452
  H      1.057645   -1.411553    1.382868
  H      0.946569    1.126041    1.925779
  H     -1.202347   -2.267389    1.588783
  H     -3.083427   -0.827455    2.645683
  H     -3.059731    1.645293    2.201712
  H     -1.259205    1.569371    1.978642
  H     -3.482759    0.424666    0.072668
  H     -1.677195   -1.202819   -0.822679

 Total Charge           Charge          ....    0
 Multiplicity           Mult            ....    1
 Number of Electrons    NEL             ....   68
 Basis Dimension        Dim             ....  339

ORBITAL ENERGIES
----------------

  NO   OCC          E(Eh)            E(eV)
   0   2.0000     -20.567866      -559.6801
   1   2.0000     -20.548981      -559.1662
   2   2.0000     -11.283713      -307.0454
   3   2.0000     -11.277631      -306.8799
   4   2.0000     -11.244630      -305.9819
   5   2.0000     -11.241316      -305.8918
   6   2.0000     -11.238912      -305.8263
   7   2.0000     -11.235803      -305.7417
   8   2.0000     -11.233718      -305.6850
   9   2.0000      -1.383311       -37.6418
  10   2.0000      -1.351185       -36.7676
  11   2.0000      -1.200726       -32.6734
  12   2.0000      -1.069852       -29.1121
  13   2.0000      -0.914374       -24.8814
  14   2.0000      -0.913819       -24.8663
  15   2.0000      -0.821835       -22.3633
  16   2.0000      -0.799260       -21.7490
  17   2.0000      -0.719290       -19.5729
  18   2.0000      -0.718590       -19.5538
  19   2.0000      -0.689560       -18.7639
  20   2.0000      -0.654791       -17.8178
  21   2.0000      -0.649465       -17.6728
  22   2.0000      -0.614036       -16.7088
  23   2.0000      -0.593770       -16.1573
  24   2.0000      -0.570372       -15.5206
  25   2.0000      -0.562324       -15.3016
  26   2.0000      -0.530188       -14.4271
  27   2.0000      -0.505541       -13.7565
  28   2.0000      -0.482569       -13.1314
  29   2.0000      -0.471001       -12.8166
  30   2.0000      -0.425686       -11.5835
  31   2.0000      -0.412988       -11.2380
  32   2.0000      -0.410725       -11.1764
  33   2.0000      -0.359946        -9.7946
  34   0.0000       0.138227         3.7613
  35   0.0000       0.149763         4.0752
  36   0.0000       0.161357         4.3908
  37   0.0000       0.166340         4.5263
  38   0.0000       0.187531         5.1030

MULLIKEN ATOMIC CHARGES
-----------------------
   0 O :   -0.483268
   1 C :   -0.065454
   2 C :    0.076436
   3 O :   -0.478093
   4 C :   -0.089015
   5 C :   -0.126135
   6 C :   -0.255572
   7 C :   -0.273853
   8 C :    0.038778
   9 H :    0.350697
  10 H :    0.103690
  11 H :    0.093149
  12 H :    0.334518
  13 H :    0.123211
  14 H :    0.137651
  15 H :    0.129035
  16 H :    0.131784
  17 H :    0.130430
  18 H :    0.122011
Sum of atomic charges:   -0.0000000

LOEWDIN ATOMIC CHARGES
----------------------
   0 O :   -0.017179
   1 C :   -0.289968
   2 C :   -0.292955
   3 O :   -0.013667
   4 C :   -0.142949
   5 C :   -0.152527
   6 C :   -0.215300
   7 C :   -0.169663
   8 C :   -0.156593
   9 H :    0.180195
  10 H :    0.137168
  11 H :    0.131994
  12 H :    0.177971
  13 H :    0.141218
  14 H :    0.136980
  15 H :    0.142935
  16 H :    0.124969
  17 H :    0.134901
  18 H :    0.142469

  Mayer bond orders larger than 0.1
B(  0-O ,  1-C ) :   0.9844 B(  0-O ,  9-H ) :   0.8237 B(  1-C ,  2-C ) :   0.9318
B(  1-C ,  8-C ) :   0.9227 B(  1-C , 10-H ) :   0.9529 B(  2-C ,  3-O ) :   1.0076
B(  2-C ,  4-C ) :   0.8545 B(  2-C , 11-H ) :   0.9549 B(  3-O , 12-H ) :   0.8164
B(  4-C ,  5-C ) :   0.8856 B(  4-C ,  8-C ) :   0.9265 B(  4-C , 13-H ) :   0.9114
B(  5-C ,  6-C ) :   0.8443 B(  5-C ,  7-C ) :   0.8280 B(  5-C , 14-H ) :   0.9158
B(  6-C ,  7-C ) :   0.9136 B(  6-C , 15-H ) :   0.9312 B(  6-C , 16-H ) :   0.9266
B(  7-C ,  8-C ) :   0.8685 B(  7-C , 17-H ) :   0.9314 B(  8-C , 18-H ) :   0.9156

MP2 TOTAL ENERGY:     -422.256473163 Eh
FINAL SINGLE POINT ENERGY      -422.256473163279

DIPOLE MOMENT
-------------
                                X             Y             Z
Electronic contribution:      2.13204       0.19234      -0.04275
Nuclear contribution   :     -2.88644      -0.40424      -0.40295
                        -----------------------------------------
Total Dipole Moment    :     -0.75440      -0.21191      -0.44570
                        -----------------------------------------
Magnitude (a.u.)       :      0.90149
Magnitude (Debye)      :      2.29139

                             ****ORCA TERMINATED NORMALLY****
TOTAL RUN TIME: 0 days 0 hours 17 minutes 45 seconds 662 msec
