                         Program Version 3.0.3 - RELEASE   -
|  1> ! RI-MP2 RIJK def2-TZVP def2-TZVP/C def2-TZVP/JK TIGHTSCF
|  2> % maxcore 2000
|  3> % mp2 density relaxed end
|  4> *xyz 0 1
|  5>  N        0.8720450413    -0.0157937367    -0.3089850001
|  6>  C       -0.2342084558     0.4372346401     0.3344943809
|  7>  O       -0.2568684189     1.4192943115     1.0508572389
|  8>  C       -1.5031697107    -0.3800738526     0.0642424470
|  9>  N       -1.2098094832    -1.6900600196    -0.5148375376
| 10>  C       -1.1929775754    -2.8478614965     0.3778443170
| 11>  C       -2.2758406064    -2.6847453452    -0.6338671109
| 12>  C       -3.7200653986    -2.4165848589    -0.2309081558
| 13>  O       -3.9162817400    -2.0417464294     1.1213987017
| 14>  H        1.7309693029     0.5010327260    -0.2287280439
| 15>  H        0.7959166574    -0.8154470033    -0.9160533073
| 16>  H       -2.0835324855    -0.4168100044     0.9922340839
| 17>  H       -2.0947500054     0.1937715191    -0.6601555946
| 18>  H       -0.3908301595    -3.5644665872     0.2232541517
| 19>  H       -1.4550181943    -2.6698089373     1.4187545964
| 20>  H       -2.2073345241    -3.2678933077    -1.5525683450
| 21>  H       -4.1231611502    -1.5903293536    -0.8280403762
| 22>  H       -4.3106894779    -3.3091944581    -0.4874751319
| 23>  H       -3.7503928558    -2.8144411065     1.6707033758
| 24> *
| 25>
| 26>                          ****END OF INPUT****

CARTESIAN COORDINATES (ANGSTROEM)
---------------------------------
  N      0.872045   -0.015794   -0.308985
  C     -0.234208    0.437235    0.334494
  O     -0.256868    1.419294    1.050857
  C     -1.503170   -0.380074    0.064242
  N     -1.209809   -1.690060   -0.514838
  C     -1.192978   -2.847861    0.377844
  C     -2.275841   -2.684745   -0.633867
  C     -3.720065   -2.416585   -0.230908
  O     -3.916282   -2.041746    1.121399
  H      1.730969    0.501033   -0.228728
  H      0.795917   -0.815447   -0.916053
  H     -2.083532   -0.416810    0.992234
  H     -2.094750    0.193772   -0.660156
  H     -0.390830   -3.564467    0.223254
  H     -1.455018   -2.669809    1.418755
  H     -2.207335   -3.267893   -1.552568
  H     -4.123161   -1.590329   -0.828040
  H     -4.310689   -3.309194   -0.487475
  H     -3.750393   -2.814441    1.670703

 Total Charge           Charge          ....    0
 Multiplicity           Mult            ....    1
 Number of Electrons    NEL             ....   70
 Basis Dimension        Dim             ....  339

ORBITAL ENERGIES
----------------

  NO   OCC          E(Eh)            E(eV)
   0   2.0000     -20.574129      -559.8505
   1   2.0000     -20.504583      -557.9581
   2   2.0000     -15.575876      -423.8411
   3   2.0000     -15.569340      -423.6633
   4   2.0000     -11.339441      -308.5619
   5   2.0000     -11.297800      -307.4288
   6   2.0000     -11.278074      -306.8920
   7   2.0000     -11.269867      -306.6687
   8   2.0000     -11.262379      -306.4649
   9   2.0000      -1.381186       -37.5840
  10   2.0000      -1.369755       -37.2729
  11   2.0000      -1.288222       -35.0543
  12   2.0000      -1.200236       -32.6601
  13   2.0000      -1.031499       -28.0685
  14   2.0000      -0.973634       -26.4939
  15   2.0000      -0.862463       -23.4688
  16   2.0000      -0.814632       -22.1673
  17   2.0000      -0.779930       -21.2230
  18   2.0000      -0.731150       -19.8956
  19   2.0000      -0.713760       -19.4224
  20   2.0000      -0.690334       -18.7850
  21   2.0000      -0.663938       -18.0667
  22   2.0000      -0.628927       -17.1140
  23   2.0000      -0.616550       -16.7772
  24   2.0000      -0.612581       -16.6692
  25   2.0000      -0.573178       -15.5970
  26   2.0000      -0.571617       -15.5545
  27   2.0000      -0.537411       -14.6237
  28   2.0000      -0.521219       -14.1831
  29   2.0000      -0.497472       -13.5369
  30   2.0000      -0.475874       -12.9492
  31   2.0000      -0.456970       -12.4348
  32   2.0000      -0.414259       -11.2726
  33   2.0000      -0.402338       -10.9482
  34   2.0000      -0.384283       -10.4569
  35   0.0000       0.124801         3.3960
  36   0.0000       0.142503         3.8777
  37   0.0000       0.150997         4.1088
  38   0.0000       0.162430         4.4199
  39   0.0000       0.176674         4.8075

MULLIKEN ATOMIC CHARGES
-----------------------
   0 N :   -0.469695
   1 C :    0.231363
   2 O :   -0.354599
   3 C :   -0.118184
   4 N :   -0.244457
   5 C :   -0.216440
   6 C :   -0.100008
   7 C :   -0.023383
   8 O :   -0.469485
   9 H :    0.252282
  10 H :    0.273822
  11 H :    0.156654
  12 H :    0.130520
  13 H :    0.136337
  14 H :    0.133301
  15 H :    0.120843
  16 H :    0.118893
  17 H :    0.123886
  18 H :    0.318350
Sum of atomic charges:   -0.0000000

LOEWDIN ATOMIC CHARGES
----------------------
   0 N :   -0.011391
   1 C :   -0.487384
   2 O :    0.073003
   3 C :   -0.253769
   4 N :    0.097881
   5 C :   -0.246247
   6 C :   -0.270452
   7 C :   -0.335906
   8 O :   -0.036082
   9 H :    0.170378
  10 H :    0.172815
  11 H :    0.145937
  12 H :    0.149017
  13 H :    0.124265
  14 H :    0.126087
  15 H :    0.145743
  16 H :    0.136478
  17 H :    0.126470
  18 H :    0.173158

  Mayer bond orders larger than 0.1
B(  0-N ,  1-C ) :   1.1797 B(  0-N ,  9-H ) :   0.8629 B(  0-N , 10-H ) :   0.8466
B(  1-C ,  2-O ) :   2.0181 B(  1-C ,  3-C ) :   0.9030 B(  3-C ,  4-N ) :   0.8395
B(  3-C , 11-H ) :   0.9127 B(  3-C , 12-H ) :   0.9059 B(  4-N ,  5-C ) :   0.8483
B(  4-N ,  6-C ) :   0.9281 B(  5-C ,  6-C ) :   0.9411 B(  5-C , 13-H ) :   0.9230
B(  5-C , 14-H ) :   0.9233 B(  6-C ,  7-C ) :   0.9293 B(  6-C , 15-H ) :   0.9098
B(  7-C ,  8-O ) :   0.9380 B(  7-C , 16-H ) :   0.9217 B(  7-C , 17-H ) :   0.9307
B(  8-O , 18-H ) :   0.8420

MP2 TOTAL ENERGY:     -455.606291747 Eh
FINAL SINGLE POINT ENERGY      -455.606291747022

DIPOLE MOMENT
-------------
                                X             Y             Z
Electronic contribution:      2.57536       4.19332       1.14420
Nuclear contribution   :     -2.60272      -6.06547      -1.89487
                        -----------------------------------------
Total Dipole Moment    :     -0.02736      -1.87216      -0.75066
                        -----------------------------------------
Magnitude (a.u.)       :      2.01723
Magnitude (Debye)      :      5.12739

                             ****ORCA TERMINATED NORMALLY****
TOTAL RUN TIME: 0 days 0 hours 25 minutes 56 seconds 220 msec
