                         Program Version 3.0.3 - RELEASE   -
|  1> ! RI-MP2 RIJK def2-TZVP def2-TZVP/C def2-TZVP/JK TIGHTSCF
|  2> % maxcore 2000
|  3> % mp2 density relaxed end
|  4> *xyz 0 1
|  5>  C       -0.4424822996     1.3755950463     0.2884943494
|  6>  C        0.0681561539    -0.0107887039    -0.0606947684
|  7>  C        1.0319959657    -0.1602199609    -1.2804061576
|  8>  C        2.0425799016    -0.7533650895    -0.3078210562
|  9>  N        3.1686568973    -1.2988556836    -0.4750729956
| 10>  N        1.1819648038    -0.5007904901     0.7800694890
| 11>  C        1.1440513302    -0.8290127717     2.1274784722
| 12>  N        2.3687482725    -1.1990468159     2.6529480711
| 13>  O        0.1091308255    -0.8094023628     2.7619780655
| 14>  H        0.3754376952     2.1036294531     0.2945950931
| 15>  H       -1.1858470716     1.6982390763    -0.4475897808
| 16>  H       -0.9121947131     1.3682672725     1.2750898377
| 17>  H       -0.7545253964    -0.7323429378    -0.0774260364
| 18>  H        0.7116476636    -0.8406723092    -2.0702843869
| 19>  H        1.3460480021     0.7883378218    -1.7217010828
| 20>  H        3.5543921482    -1.6762377097     0.3903612286
| 21>  H        3.1920479668    -0.7539289644     2.2753207556
| 22>  H        2.3559105641    -1.2789059106     3.6591813327
| 23> *
| 24>
| 25>                          ****END OF INPUT****

CARTESIAN COORDINATES (ANGSTROEM)
---------------------------------
  C     -0.442482    1.375595    0.288494
  C      0.068156   -0.010789   -0.060695
  C      1.031996   -0.160220   -1.280406
  C      2.042580   -0.753365   -0.307821
  N      3.168657   -1.298856   -0.475073
  N      1.181965   -0.500790    0.780069
  C      1.144051   -0.829013    2.127478
  N      2.368748   -1.199047    2.652948
  O      0.109131   -0.809402    2.761978
  H      0.375438    2.103629    0.294595
  H     -1.185847    1.698239   -0.447590
  H     -0.912195    1.368267    1.275090
  H     -0.754525   -0.732343   -0.077426
  H      0.711648   -0.840672   -2.070284
  H      1.346048    0.788338   -1.721701
  H      3.554392   -1.676238    0.390361
  H      3.192048   -0.753929    2.275321
  H      2.355911   -1.278906    3.659181

 Total Charge           Charge          ....    0
 Multiplicity           Mult            ....    1
 Number of Electrons    NEL             ....   68
 Basis Dimension        Dim             ....  333

ORBITAL ENERGIES
----------------

  NO   OCC          E(Eh)            E(eV)
   0   2.0000     -20.529271      -558.6299
   1   2.0000     -15.604325      -424.6153
   2   2.0000     -15.594718      -424.3538
   3   2.0000     -15.543641      -422.9640
   4   2.0000     -11.393878      -310.0432
   5   2.0000     -11.335819      -308.4633
   6   2.0000     -11.289114      -307.1924
   7   2.0000     -11.251007      -306.1555
   8   2.0000     -11.227281      -305.5098
   9   2.0000      -1.411782       -38.4165
  10   2.0000      -1.311024       -35.6748
  11   2.0000      -1.223312       -33.2880
  12   2.0000      -1.188756       -32.3477
  13   2.0000      -1.054518       -28.6949
  14   2.0000      -0.991714       -26.9859
  15   2.0000      -0.861967       -23.4553
  16   2.0000      -0.839701       -22.8494
  17   2.0000      -0.766328       -20.8528
  18   2.0000      -0.723772       -19.6948
  19   2.0000      -0.712167       -19.3790
  20   2.0000      -0.680789       -18.5252
  21   2.0000      -0.644468       -17.5369
  22   2.0000      -0.624450       -16.9922
  23   2.0000      -0.605686       -16.4815
  24   2.0000      -0.578888       -15.7523
  25   2.0000      -0.571572       -15.5533
  26   2.0000      -0.533643       -14.5212
  27   2.0000      -0.524376       -14.2690
  28   2.0000      -0.494672       -13.4607
  29   2.0000      -0.490829       -13.3561
  30   2.0000      -0.464218       -12.6320
  31   2.0000      -0.439246       -11.9525
  32   2.0000      -0.428844       -11.6694
  33   2.0000      -0.380014       -10.3407
  34   0.0000       0.120809         3.2874
  35   0.0000       0.139942         3.8080
  36   0.0000       0.142954         3.8900
  37   0.0000       0.169441         4.6107
  38   0.0000       0.173278         4.7151

MULLIKEN ATOMIC CHARGES
-----------------------
   0 C :   -0.417336
   1 C :    0.017867
   2 C :   -0.163560
   3 C :    0.025507
   4 N :   -0.357914
   5 N :   -0.105300
   6 C :    0.344988
   7 N :   -0.523310
   8 O :   -0.365440
   9 H :    0.122499
  10 H :    0.135167
  11 H :    0.164975
  12 H :    0.116902
  13 H :    0.138460
  14 H :    0.132173
  15 H :    0.209194
  16 H :    0.259459
  17 H :    0.265670
Sum of atomic charges:    0.0000000

LOEWDIN ATOMIC CHARGES
----------------------
   0 C :   -0.291857
   1 C :   -0.226025
   2 C :   -0.165324
   3 C :   -0.328500
   4 N :   -0.058842
   5 N :    0.243808
   6 C :   -0.536869
   7 N :   -0.049664
   8 O :    0.080614
   9 H :    0.125502
  10 H :    0.129711
  11 H :    0.134334
  12 H :    0.147796
  13 H :    0.143407
  14 H :    0.145985
  15 H :    0.157619
  16 H :    0.169091
  17 H :    0.179214

  Mayer bond orders larger than 0.1
B(  0-C ,  1-C ) :   0.9133 B(  0-C ,  9-H ) :   0.9312 B(  0-C , 10-H ) :   0.9315
B(  0-C , 11-H ) :   0.9336 B(  1-C ,  2-C ) :   0.9201 B(  1-C ,  5-N ) :   0.8754
B(  1-C , 12-H ) :   0.9269 B(  2-C ,  3-C ) :   0.9347 B(  2-C , 13-H ) :   0.9144
B(  2-C , 14-H ) :   0.9066 B(  3-C ,  4-N ) :   2.0455 B(  3-C ,  5-N ) :   1.0130
B(  4-N , 15-H ) :   0.8557 B(  5-N ,  6-C ) :   1.0377 B(  6-C ,  7-N ) :   1.1137
B(  6-C ,  8-O ) :   1.9493 B(  7-N , 16-H ) :   0.8610 B(  7-N , 17-H ) :   0.8636

MP2 TOTAL ENERGY:     -434.588897242 Eh
FINAL SINGLE POINT ENERGY      -434.588897241855

DIPOLE MOMENT
-------------
                                X             Y             Z
Electronic contribution:      2.11194      -3.95195       3.20773
Nuclear contribution   :     -1.86611       4.52591      -3.14795
                        -----------------------------------------
Total Dipole Moment    :      0.24583       0.57396       0.05979
                        -----------------------------------------
Magnitude (a.u.)       :      0.62724
Magnitude (Debye)      :      1.59432

                             ****ORCA TERMINATED NORMALLY****
TOTAL RUN TIME: 0 days 0 hours 15 minutes 53 seconds 47 msec
