                         Program Version 3.0.3 - RELEASE   -
|  1> ! RI-MP2 RIJK def2-TZVP def2-TZVP/C def2-TZVP/JK TIGHTSCF
|  2> % maxcore 2000
|  3> % mp2 density relaxed end
|  4> *xyz 0 1
|  5>  C       -0.6037840295     1.4325966676     0.1837485801
|  6>  C       -0.1435281432    -0.0075524121     0.1258896727
|  7>  C        1.2247767915    -0.3729925597    -0.3390116433
|  8>  N        0.8349945080    -0.5923052518     1.0563112071
|  9>  C        1.4599936362     0.2767169754     2.0598764042
| 10>  C        0.5958707755     0.4247380125     3.2345170290
| 11>  C       -0.1222029745     0.5690952230     4.1846453078
| 12>  C        2.7631112000    -0.3105618308     2.4385704194
| 13>  N        3.7970566138    -0.7437375195     2.7136425436
| 14>  H        0.2240329085     2.1410335100     0.2717885912
| 15>  H       -1.1406631719     1.6776021136    -0.7381934441
| 16>  H       -1.2865268915     1.5955602402     1.0233077119
| 17>  H       -0.9460971827    -0.7112527181    -0.0865852442
| 18>  H        1.4097689548    -1.2726283845    -0.9180014720
| 19>  H        1.9053990720     0.4506142728    -0.5530025187
| 20>  H        1.6870171331     1.2856865587     1.6736406582
| 21>  H       -0.7526179402     0.6864660927     5.0318219973
| 22> *
| 23>
| 24>                          ****END OF INPUT****

CARTESIAN COORDINATES (ANGSTROEM)
---------------------------------
  C     -0.603784    1.432597    0.183749
  C     -0.143528   -0.007552    0.125890
  C      1.224777   -0.372993   -0.339012
  N      0.834995   -0.592305    1.056311
  C      1.459994    0.276717    2.059876
  C      0.595871    0.424738    3.234517
  C     -0.122203    0.569095    4.184645
  C      2.763111   -0.310562    2.438570
  N      3.797057   -0.743738    2.713643
  H      0.224033    2.141034    0.271789
  H     -1.140663    1.677602   -0.738193
  H     -1.286527    1.595560    1.023308
  H     -0.946097   -0.711253   -0.086585
  H      1.409769   -1.272628   -0.918001
  H      1.905399    0.450614   -0.553003
  H      1.687017    1.285687    1.673641
  H     -0.752618    0.686466    5.031822

 Total Charge           Charge          ....    0
 Multiplicity           Mult            ....    1
 Number of Electrons    NEL             ....   64
 Basis Dimension        Dim             ....  327

ORBITAL ENERGIES
----------------

  NO   OCC          E(Eh)            E(eV)
   0   2.0000     -15.590650      -424.2432
   1   2.0000     -15.576024      -423.8452
   2   2.0000     -11.349621      -308.8389
   3   2.0000     -11.285001      -307.0805
   4   2.0000     -11.278415      -306.9013
   5   2.0000     -11.274743      -306.8014
   6   2.0000     -11.257296      -306.3266
   7   2.0000     -11.249476      -306.1138
   8   2.0000     -11.242706      -305.9296
   9   2.0000      -1.306883       -35.5621
  10   2.0000      -1.222368       -33.2623
  11   2.0000      -1.108983       -30.1770
  12   2.0000      -1.026863       -27.9424
  13   2.0000      -0.996417       -27.1139
  14   2.0000      -0.879337       -23.9280
  15   2.0000      -0.823369       -22.4050
  16   2.0000      -0.766507       -20.8577
  17   2.0000      -0.730126       -19.8677
  18   2.0000      -0.700905       -19.0726
  19   2.0000      -0.678506       -18.4631
  20   2.0000      -0.649190       -17.6654
  21   2.0000      -0.593724       -16.1560
  22   2.0000      -0.571956       -15.5637
  23   2.0000      -0.562037       -15.2938
  24   2.0000      -0.534485       -14.5441
  25   2.0000      -0.500822       -13.6281
  26   2.0000      -0.493699       -13.4342
  27   2.0000      -0.473473       -12.8839
  28   2.0000      -0.460392       -12.5279
  29   2.0000      -0.418468       -11.3871
  30   2.0000      -0.415040       -11.2938
  31   2.0000      -0.398569       -10.8456
  32   0.0000       0.119027         3.2389
  33   0.0000       0.137582         3.7438
  34   0.0000       0.151115         4.1121
  35   0.0000       0.156075         4.2470
  36   0.0000       0.163635         4.4527

MULLIKEN ATOMIC CHARGES
-----------------------
   0 C :   -0.394783
   1 C :   -0.032532
   2 C :   -0.190944
   3 N :   -0.220821
   4 C :   -0.003893
   5 C :   -0.034209
   6 C :   -0.094983
   7 C :   -0.150874
   8 N :   -0.046410
   9 H :    0.124018
  10 H :    0.150168
  11 H :    0.150685
  12 H :    0.128604
  13 H :    0.142335
  14 H :    0.127013
  15 H :    0.144433
  16 H :    0.202193
Sum of atomic charges:    0.0000000

LOEWDIN ATOMIC CHARGES
----------------------
   0 C :   -0.295338
   1 C :   -0.266581
   2 C :   -0.231681
   3 N :    0.147928
   4 C :   -0.271728
   5 C :   -0.065903
   6 C :   -0.061032
   7 C :   -0.140604
   8 N :    0.078036
   9 H :    0.124434
  10 H :    0.134658
  11 H :    0.132333
  12 H :    0.146872
  13 H :    0.129583
  14 H :    0.129302
  15 H :    0.177778
  16 H :    0.131942

  Mayer bond orders larger than 0.1
B(  0-C ,  1-C ) :   0.9055 B(  0-C ,  9-H ) :   0.9330 B(  0-C , 10-H ) :   0.9268
B(  0-C , 11-H ) :   0.9354 B(  1-C ,  2-C ) :   0.9479 B(  1-C ,  3-N ) :   0.8871
B(  1-C , 12-H ) :   0.9239 B(  2-C ,  3-N ) :   0.8648 B(  2-C , 13-H ) :   0.9215
B(  2-C , 14-H ) :   0.9146 B(  3-N ,  4-C ) :   0.8501 B(  4-C ,  5-C ) :   1.1185
B(  4-C ,  7-C ) :   0.8862 B(  4-C , 15-H ) :   0.9546 B(  5-C ,  6-C ) :   2.5888
B(  6-C , 16-H ) :   0.8854 B(  7-C ,  8-N ) :   2.8690

MP2 TOTAL ENERGY:     -380.118105811 Eh
FINAL SINGLE POINT ENERGY      -380.118105811304

DIPOLE MOMENT
-------------
                                X             Y             Z
Electronic contribution:      5.57253      -3.73023       6.45701
Nuclear contribution   :     -6.95802       4.77369      -7.22255
                        -----------------------------------------
Total Dipole Moment    :     -1.38548       1.04346      -0.76555
                        -----------------------------------------
Magnitude (a.u.)       :      1.89590
Magnitude (Debye)      :      4.81899

                             ****ORCA TERMINATED NORMALLY****
TOTAL RUN TIME: 0 days 0 hours 16 minutes 29 seconds 648 msec
