                         Program Version 3.0.3 - RELEASE   -
|  1> ! RI-MP2 RIJK def2-TZVP def2-TZVP/C def2-TZVP/JK TIGHTSCF
|  2> % maxcore 2000
|  3> % mp2 density relaxed end
|  4> *xyz 0 1
|  5>  N       -0.1746071084     0.8028358708     1.0170661030
|  6>  C       -0.0994562427     0.0482122012     0.0045188233
|  7>  C       -1.3882290919    -0.2452561315    -0.7578128091
|  8>  O       -1.4475311723    -1.4529149806    -1.4892024804
|  9>  C       -0.9746529347    -2.5928032682    -0.8064162571
| 10>  C        0.5372120872    -2.7400789295    -1.0008451517
| 11>  O        1.1167806788    -3.7846203729    -0.8526723238
| 12>  C        1.2427061223    -1.4473691091    -1.4258548547
| 13>  O        1.1028746420    -0.4283288838    -0.4262025503
| 14>  H        0.7553440274     0.9807168864     1.4016187297
| 15>  H       -2.1961075770    -0.1819503508    -0.0188758036
| 16>  H       -1.5447078201     0.5514518761    -1.4928542933
| 17>  H       -1.2110245533    -2.5703229496     0.2686629089
| 18>  H       -1.4632514684    -3.4732740740    -1.2331576678
| 19>  H        2.3134402373    -1.6384088468    -1.4951986191
| 20>  H        0.8614708737    -1.1097833376    -2.3954255940
| 21> *
| 22>
| 23>                          ****END OF INPUT****

CARTESIAN COORDINATES (ANGSTROEM)
---------------------------------
  N     -0.174607    0.802836    1.017066
  C     -0.099456    0.048212    0.004519
  C     -1.388229   -0.245256   -0.757813
  O     -1.447531   -1.452915   -1.489202
  C     -0.974653   -2.592803   -0.806416
  C      0.537212   -2.740079   -1.000845
  O      1.116781   -3.784620   -0.852672
  C      1.242706   -1.447369   -1.425855
  O      1.102875   -0.428329   -0.426203
  H      0.755344    0.980717    1.401619
  H     -2.196108   -0.181950   -0.018876
  H     -1.544708    0.551452   -1.492854
  H     -1.211025   -2.570323    0.268663
  H     -1.463251   -3.473274   -1.233158
  H      2.313440   -1.638409   -1.495199
  H      0.861471   -1.109783   -2.395426

 Total Charge           Charge          ....    0
 Multiplicity           Mult            ....    1
 Number of Electrons    NEL             ....   68
 Basis Dimension        Dim             ....  321

ORBITAL ENERGIES
----------------

  NO   OCC          E(Eh)            E(eV)
   0   2.0000     -20.617191      -561.0223
   1   2.0000     -20.595171      -560.4231
   2   2.0000     -20.576479      -559.9145
   3   2.0000     -15.547801      -423.0772
   4   2.0000     -11.357067      -309.0415
   5   2.0000     -11.354003      -308.9581
   6   2.0000     -11.319274      -308.0131
   7   2.0000     -11.313331      -307.8514
   8   2.0000     -11.313150      -307.8465
   9   2.0000      -1.451886       -39.5078
  10   2.0000      -1.419212       -38.6187
  11   2.0000      -1.410964       -38.3943
  12   2.0000      -1.215638       -33.0792
  13   2.0000      -1.050940       -28.5975
  14   2.0000      -1.001579       -27.2544
  15   2.0000      -0.957044       -26.0425
  16   2.0000      -0.818984       -22.2857
  17   2.0000      -0.780599       -21.2412
  18   2.0000      -0.728006       -19.8100
  19   2.0000      -0.714687       -19.4476
  20   2.0000      -0.712317       -19.3831
  21   2.0000      -0.671193       -18.2641
  22   2.0000      -0.657046       -17.8791
  23   2.0000      -0.639936       -17.4136
  24   2.0000      -0.629390       -17.1266
  25   2.0000      -0.606113       -16.4932
  26   2.0000      -0.573090       -15.5946
  27   2.0000      -0.550845       -14.9892
  28   2.0000      -0.524769       -14.2797
  29   2.0000      -0.510184       -13.8828
  30   2.0000      -0.485317       -13.2061
  31   2.0000      -0.454684       -12.3726
  32   2.0000      -0.430855       -11.7242
  33   2.0000      -0.405081       -11.0228
  34   0.0000       0.110311         3.0017
  35   0.0000       0.128737         3.5031
  36   0.0000       0.151063         4.1106
  37   0.0000       0.162600         4.4246
  38   0.0000       0.169206         4.6043

MULLIKEN ATOMIC CHARGES
-----------------------
   0 N :   -0.363914
   1 C :    0.093267
   2 C :   -0.012830
   3 O :   -0.315094
   4 C :   -0.075169
   5 C :    0.123249
   6 O :   -0.253020
   7 C :   -0.051420
   8 O :   -0.256173
   9 H :    0.225756
  10 H :    0.142858
  11 H :    0.144622
  12 H :    0.146038
  13 H :    0.160006
  14 H :    0.152435
  15 H :    0.139391
Sum of atomic charges:   -0.0000000

LOEWDIN ATOMIC CHARGES
----------------------
   0 N :   -0.046693
   1 C :   -0.425396
   2 C :   -0.285608
   3 O :    0.165283
   4 C :   -0.286563
   5 C :   -0.327154
   6 O :    0.175793
   7 C :   -0.251149
   8 O :    0.244078
   9 H :    0.169065
  10 H :    0.144783
  11 H :    0.147805
  12 H :    0.144664
  13 H :    0.147864
  14 H :    0.143136
  15 H :    0.140094

  Mayer bond orders larger than 0.1
B(  0-N ,  1-C ) :   2.0211 B(  0-N ,  9-H ) :   0.8539 B(  1-C ,  2-C ) :   0.8896
B(  1-C ,  8-O ) :   1.0769 B(  2-C ,  3-O ) :   0.9164 B(  2-C , 10-H ) :   0.9348
B(  2-C , 11-H ) :   0.9126 B(  3-O ,  4-C ) :   0.9140 B(  4-C ,  5-C ) :   0.8836
B(  4-C , 12-H ) :   0.9185 B(  4-C , 13-H ) :   0.9137 B(  5-C ,  6-O ) :   2.0128
B(  5-C ,  7-C ) :   0.9055 B(  7-C ,  8-O ) :   0.8482 B(  7-C , 14-H ) :   0.9181
B(  7-C , 15-H ) :   0.9142

MP2 TOTAL ENERGY:     -474.267695015 Eh
FINAL SINGLE POINT ENERGY      -474.267695014843

DIPOLE MOMENT
-------------
                                X             Y             Z
Electronic contribution:      2.17319      -1.56788      -0.05998
Nuclear contribution   :     -2.28008       1.68787      -0.44366
                        -----------------------------------------
Total Dipole Moment    :     -0.10688       0.11999      -0.50364
                        -----------------------------------------
Magnitude (a.u.)       :      0.52865
Magnitude (Debye)      :      1.34373

                             ****ORCA TERMINATED NORMALLY****
TOTAL RUN TIME: 0 days 0 hours 16 minutes 3 seconds 51 msec
