                         Program Version 3.0.3 - RELEASE   -
|  1> ! RI-MP2 RIJK def2-TZVP def2-TZVP/C def2-TZVP/JK TIGHTSCF
|  2> % maxcore 2000
|  3> % mp2 density relaxed end
|  4> *xyz 0 1
|  5>  N       -0.0981460174     1.2932613037     0.3896911272
|  6>  C       -0.0502039948     0.0666669966     0.0635674708
|  7>  O        1.1487471665    -0.5581675567    -0.1748601633
|  8>  C        1.1330126077    -1.7821189694    -0.9372431939
|  9>  C        0.0969594238    -2.7721518134    -0.3801039804
| 10>  C       -1.2154421096    -2.0749059571    -0.1644052375
| 11>  C       -1.2642841235    -0.7535009057     0.0125433144
| 12>  C        0.9280221207    -1.5070149851    -2.3613561570
| 13>  C        0.7733138060    -1.2893743643    -3.5325201192
| 14>  H        0.8431738271     1.6919702763     0.3823521983
| 15>  H        2.1405120583    -2.1862408408    -0.7999043136
| 16>  H       -0.0081463354    -3.6102072918    -1.0757794921
| 17>  H        0.4667312007    -3.1893715033     0.5661537551
| 18>  H       -2.1212311750    -2.6729668816    -0.1437173600
| 19>  H       -2.1891273483    -0.2137398600     0.1727268066
| 20>  H        0.6361097132    -1.0897396874    -4.5669363852
| 21> *
| 22>
| 23>                          ****END OF INPUT****

CARTESIAN COORDINATES (ANGSTROEM)
---------------------------------
  N     -0.098146    1.293261    0.389691
  C     -0.050204    0.066667    0.063567
  O      1.148747   -0.558168   -0.174860
  C      1.133013   -1.782119   -0.937243
  C      0.096959   -2.772152   -0.380104
  C     -1.215442   -2.074906   -0.164405
  C     -1.264284   -0.753501    0.012543
  C      0.928022   -1.507015   -2.361356
  C      0.773314   -1.289374   -3.532520
  H      0.843174    1.691970    0.382352
  H      2.140512   -2.186241   -0.799904
  H     -0.008146   -3.610207   -1.075779
  H      0.466731   -3.189372    0.566154
  H     -2.121231   -2.672967   -0.143717
  H     -2.189127   -0.213740    0.172727
  H      0.636110   -1.089740   -4.566936

 Total Charge           Charge          ....    0
 Multiplicity           Mult            ....    1
 Number of Electrons    NEL             ....   64
 Basis Dimension        Dim             ....  321

ORBITAL ENERGIES
----------------

  NO   OCC          E(Eh)            E(eV)
   0   2.0000     -20.597510      -560.4867
   1   2.0000     -15.533782      -422.6957
   2   2.0000     -11.337743      -308.5157
   3   2.0000     -11.335448      -308.4532
   4   2.0000     -11.261303      -306.4356
   5   2.0000     -11.259467      -306.3857
   6   2.0000     -11.245323      -306.0008
   7   2.0000     -11.244191      -305.9700
   8   2.0000     -11.240111      -305.8590
   9   2.0000      -1.428837       -38.8806
  10   2.0000      -1.198061       -32.6009
  11   2.0000      -1.121163       -30.5084
  12   2.0000      -1.064050       -28.9543
  13   2.0000      -1.006611       -27.3913
  14   2.0000      -0.914234       -24.8776
  15   2.0000      -0.851212       -23.1627
  16   2.0000      -0.774909       -21.0863
  17   2.0000      -0.716241       -19.4899
  18   2.0000      -0.704532       -19.1713
  19   2.0000      -0.694362       -18.8946
  20   2.0000      -0.668646       -18.1948
  21   2.0000      -0.609571       -16.5873
  22   2.0000      -0.606447       -16.5023
  23   2.0000      -0.592188       -16.1143
  24   2.0000      -0.570192       -15.5157
  25   2.0000      -0.536982       -14.6120
  26   2.0000      -0.487772       -13.2730
  27   2.0000      -0.443801       -12.0764
  28   2.0000      -0.431348       -11.7376
  29   2.0000      -0.411780       -11.2051
  30   2.0000      -0.401878       -10.9356
  31   2.0000      -0.359014        -9.7693
  32   0.0000       0.100888         2.7453
  33   0.0000       0.128120         3.4863
  34   0.0000       0.155497         4.2313
  35   0.0000       0.158792         4.3210
  36   0.0000       0.160338         4.3630

MULLIKEN ATOMIC CHARGES
-----------------------
   0 N :   -0.356246
   1 C :    0.159043
   2 O :   -0.268252
   3 C :    0.097998
   4 C :   -0.184159
   5 C :   -0.153042
   6 C :   -0.149101
   7 C :   -0.107012
   8 C :   -0.155643
   9 H :    0.222370
  10 H :    0.133525
  11 H :    0.144785
  12 H :    0.138300
  13 H :    0.136872
  14 H :    0.144036
  15 H :    0.196527
Sum of atomic charges:   -0.0000000

LOEWDIN ATOMIC CHARGES
----------------------
   0 N :   -0.038190
   1 C :   -0.394905
   2 O :    0.257534
   3 C :   -0.272300
   4 C :   -0.213547
   5 C :   -0.133557
   6 C :   -0.126928
   7 C :   -0.082584
   8 C :   -0.073817
   9 H :    0.167357
  10 H :    0.165686
  11 H :    0.156225
  12 H :    0.153563
  13 H :    0.146425
  14 H :    0.159124
  15 H :    0.129914

  Mayer bond orders larger than 0.1
B(  0-N ,  1-C ) :   2.0064 B(  0-N ,  9-H ) :   0.8579 B(  1-C ,  2-O ) :   1.0678
B(  1-C ,  6-C ) :   1.0064 B(  2-O ,  3-C ) :   0.8640 B(  3-C ,  4-C ) :   0.9209
B(  3-C ,  7-C ) :   1.1037 B(  3-C , 10-H ) :   0.9189 B(  4-C ,  5-C ) :   0.9445
B(  4-C , 11-H ) :   0.9243 B(  4-C , 12-H ) :   0.8956 B(  5-C ,  6-C ) :   1.7250
B(  5-C , 13-H ) :   0.9265 B(  6-C , 14-H ) :   0.9236 B(  7-C ,  8-C ) :   2.6236
B(  8-C , 15-H ) :   0.8948

MP2 TOTAL ENERGY:     -400.023046066 Eh
FINAL SINGLE POINT ENERGY      -400.023046066091

DIPOLE MOMENT
-------------
                                X             Y             Z
Electronic contribution:      1.49931       2.58857      -0.22682
Nuclear contribution   :     -1.37532      -3.85135      -0.20506
                        -----------------------------------------
Total Dipole Moment    :      0.12400      -1.26277      -0.43189
                        -----------------------------------------
Magnitude (a.u.)       :      1.34034
Magnitude (Debye)      :      3.40686

                             ****ORCA TERMINATED NORMALLY****
TOTAL RUN TIME: 0 days 0 hours 16 minutes 35 seconds 553 msec
