                         Program Version 3.0.3 - RELEASE   -
|  1> ! RI-MP2 RIJK def2-TZVP def2-TZVP/C def2-TZVP/JK TIGHTSCF
|  2> % maxcore 2000
|  3> % mp2 density relaxed end
|  4> *xyz 0 1
|  5>  N       -0.0454208989     1.2791214989     0.2901451125
|  6>  C       -0.0003181489     0.0076373188    -0.1894148448
|  7>  O        0.6785789701    -0.4022709154    -1.0898749756
|  8>  O       -0.9254677227    -0.7558289803     0.5068779258
|  9>  C       -0.9320949547    -2.0909049960     0.2386517630
| 10>  C       -1.8099258273    -2.7829484097    -0.5241328618
| 11>  O       -1.4676811940    -4.1033307018    -0.4255130974
| 12>  C       -0.3950241420    -4.1149676206     0.3958458505
| 13>  N       -0.0305973708    -2.9520896222     0.8275233897
| 14>  H        0.6842378260     1.8998615170    -0.0139985325
| 15>  H       -0.4866252806     1.4544193933     1.1765403248
| 16>  H       -2.6505464952    -2.5301640212    -1.1440308868
| 17>  H        0.0427348591    -5.0766105807     0.6108378726
| 18> *
| 19>
| 20>                          ****END OF INPUT****

CARTESIAN COORDINATES (ANGSTROEM)
---------------------------------
  N     -0.045421    1.279121    0.290145
  C     -0.000318    0.007637   -0.189415
  O      0.678579   -0.402271   -1.089875
  O     -0.925468   -0.755829    0.506878
  C     -0.932095   -2.090905    0.238652
  C     -1.809926   -2.782948   -0.524133
  O     -1.467681   -4.103331   -0.425513
  C     -0.395024   -4.114968    0.395846
  N     -0.030597   -2.952090    0.827523
  H      0.684238    1.899862   -0.013999
  H     -0.486625    1.454419    1.176540
  H     -2.650546   -2.530164   -1.144031
  H      0.042735   -5.076611    0.610838

 Total Charge           Charge          ....    0
 Multiplicity           Mult            ....    1
 Number of Electrons    NEL             ....   66
 Basis Dimension        Dim             ....  303

ORBITAL ENERGIES
----------------

  NO   OCC          E(Eh)            E(eV)
   0   2.0000     -20.647352      -561.8430
   1   2.0000     -20.625431      -561.2465
   2   2.0000     -20.539788      -558.9160
   3   2.0000     -15.598144      -424.4471
   4   2.0000     -15.575946      -423.8430
   5   2.0000     -11.418539      -310.7142
   6   2.0000     -11.345216      -308.7190
   7   2.0000     -11.330587      -308.3209
   8   2.0000     -11.297092      -307.4095
   9   2.0000      -1.501157       -40.8486
  10   2.0000      -1.481458       -40.3125
  11   2.0000      -1.381482       -37.5920
  12   2.0000      -1.249431       -33.9987
  13   2.0000      -1.227650       -33.4061
  14   2.0000      -1.041248       -28.3338
  15   2.0000      -0.901044       -24.5187
  16   2.0000      -0.848427       -23.0869
  17   2.0000      -0.808284       -21.9945
  18   2.0000      -0.770241       -20.9593
  19   2.0000      -0.731759       -19.9122
  20   2.0000      -0.718873       -19.5615
  21   2.0000      -0.669286       -18.2122
  22   2.0000      -0.664574       -18.0840
  23   2.0000      -0.655201       -17.8289
  24   2.0000      -0.631014       -17.1708
  25   2.0000      -0.609085       -16.5741
  26   2.0000      -0.592675       -16.1275
  27   2.0000      -0.509903       -13.8752
  28   2.0000      -0.478889       -13.0312
  29   2.0000      -0.470263       -12.7965
  30   2.0000      -0.458843       -12.4858
  31   2.0000      -0.441371       -12.0103
  32   2.0000      -0.348233        -9.4759
  33   0.0000       0.129297         3.5184
  34   0.0000       0.130558         3.5527
  35   0.0000       0.172257         4.6873
  36   0.0000       0.179007         4.8710
  37   0.0000       0.180751         4.9185

MULLIKEN ATOMIC CHARGES
-----------------------
   0 N :   -0.504802
   1 C :    0.407169
   2 O :   -0.333933
   3 O :   -0.308012
   4 C :    0.214559
   5 C :   -0.032912
   6 O :   -0.194033
   7 C :    0.124125
   8 N :   -0.257628
   9 H :    0.274734
  10 H :    0.275194
  11 H :    0.170287
  12 H :    0.165252
Sum of atomic charges:    0.0000000

LOEWDIN ATOMIC CHARGES
----------------------
   0 N :   -0.022708
   1 C :   -0.580476
   2 O :    0.110915
   3 O :    0.284466
   4 C :   -0.362847
   5 C :   -0.217183
   6 O :    0.339463
   7 C :   -0.317355
   8 N :    0.131927
   9 H :    0.181358
  10 H :    0.178741
  11 H :    0.139284
  12 H :    0.134416

  Mayer bond orders larger than 0.1
B(  0-N ,  1-C ) :   1.1796 B(  0-N ,  9-H ) :   0.8655 B(  0-N , 10-H ) :   0.8613
B(  1-C ,  2-O ) :   1.9961 B(  1-C ,  3-O ) :   0.9758 B(  3-O ,  4-C ) :   0.9584
B(  4-C ,  5-C ) :   1.5968 B(  4-C ,  8-N ) :   1.2188 B(  5-C ,  6-O ) :   1.0207
B(  5-C , 11-H ) :   0.9126 B(  6-O ,  7-C ) :   1.0844 B(  7-C ,  8-N ) :   1.6123
B(  7-C , 12-H ) :   0.9231

MP2 TOTAL ENERGY:     -489.177019947 Eh
FINAL SINGLE POINT ENERGY      -489.177019946823

DIPOLE MOMENT
-------------
                                X             Y             Z
Electronic contribution:     -0.33193      -1.96428      -0.18276
Nuclear contribution   :     -0.24720       2.45726       0.60532
                        -----------------------------------------
Total Dipole Moment    :     -0.57914       0.49298       0.42256
                        -----------------------------------------
Magnitude (a.u.)       :      0.87005
Magnitude (Debye)      :      2.21149

                             ****ORCA TERMINATED NORMALLY****
TOTAL RUN TIME: 0 days 0 hours 12 minutes 39 seconds 766 msec
