                         Program Version 3.0.3 - RELEASE   -
|  1> ! RI-MP2 RIJK def2-TZVP def2-TZVP/C def2-TZVP/JK TIGHTSCF
|  2> % maxcore 2000
|  3> % mp2 density relaxed end
|  4> *xyz 0 1
|  5>  C       -0.1488823130     1.5049914266     0.1063907023
|  6>  C        0.0764827286    -0.0012015499    -0.0320895589
|  7>  C        0.5143742927    -0.3737591313    -1.4547073702
|  8>  C        0.6548748154    -1.8499247924    -1.6832587692
|  9>  C        0.8115194314    -2.8148510951    -0.7730067370
| 10>  N        0.9310974067    -2.7360894558     0.6164848092
| 11>  C        1.2645804145    -1.6739832199     1.4528029856
| 12>  O        1.7123987203    -1.8886476028     2.5663723390
| 13>  N        1.0762557488    -0.4064851022     0.9604564898
| 14>  H        0.7783876303     2.0548799676    -0.0892798303
| 15>  H       -0.9032824052     1.8464861191    -0.6067632758
| 16>  H       -0.4956330895     1.7606600239     1.1128819739
| 17>  H       -0.8724219005    -0.5160666776     0.1759091606
| 18>  H       -0.2282850900     0.0228030758    -2.1598606797
| 19>  H        1.4542990974     0.1511829402    -1.6782873759
| 20>  H        0.6038692953    -2.1840500251    -2.7146293458
| 21>  H        0.8575925475    -3.8449633764    -1.1120655977
| 22>  H        1.1040364912    -3.6076398401     1.0924964985
| 23>  H        1.2930926380     0.2762204254     1.6714919916
| 24> *
| 25>
| 26>                          ****END OF INPUT****

CARTESIAN COORDINATES (ANGSTROEM)
---------------------------------
  C     -0.148882    1.504991    0.106391
  C      0.076483   -0.001202   -0.032090
  C      0.514374   -0.373759   -1.454707
  C      0.654875   -1.849925   -1.683259
  C      0.811519   -2.814851   -0.773007
  N      0.931097   -2.736089    0.616485
  C      1.264580   -1.673983    1.452803
  O      1.712399   -1.888648    2.566372
  N      1.076256   -0.406485    0.960456
  H      0.778388    2.054880   -0.089280
  H     -0.903282    1.846486   -0.606763
  H     -0.495633    1.760660    1.112882
  H     -0.872422   -0.516067    0.175909
  H     -0.228285    0.022803   -2.159861
  H      1.454299    0.151183   -1.678287
  H      0.603869   -2.184050   -2.714629
  H      0.857593   -3.844963   -1.112066
  H      1.104036   -3.607640    1.092496
  H      1.293093    0.276220    1.671492

 Total Charge           Charge          ....    0
 Multiplicity           Mult            ....    1
 Number of Electrons    NEL             ....   68
 Basis Dimension        Dim             ....  339

ORBITAL ENERGIES
----------------

  NO   OCC          E(Eh)            E(eV)
   0   2.0000     -20.507280      -558.0315
   1   2.0000     -15.593081      -424.3093
   2   2.0000     -15.577109      -423.8747
   3   2.0000     -11.375885      -309.5536
   4   2.0000     -11.282004      -306.9989
   5   2.0000     -11.281419      -306.9830
   6   2.0000     -11.236409      -305.7582
   7   2.0000     -11.234518      -305.7068
   8   2.0000     -11.226701      -305.4941
   9   2.0000      -1.392439       -37.8902
  10   2.0000      -1.255526       -34.1646
  11   2.0000      -1.219183       -33.1757
  12   2.0000      -1.085480       -29.5374
  13   2.0000      -1.021531       -27.7973
  14   2.0000      -0.949192       -25.8288
  15   2.0000      -0.866982       -23.5918
  16   2.0000      -0.815688       -22.1960
  17   2.0000      -0.777458       -21.1557
  18   2.0000      -0.706468       -19.2240
  19   2.0000      -0.683729       -18.6052
  20   2.0000      -0.652613       -17.7585
  21   2.0000      -0.625969       -17.0335
  22   2.0000      -0.612531       -16.6678
  23   2.0000      -0.603630       -16.4256
  24   2.0000      -0.585821       -15.9410
  25   2.0000      -0.567154       -15.4330
  26   2.0000      -0.553127       -15.0513
  27   2.0000      -0.526828       -14.3357
  28   2.0000      -0.514198       -13.9920
  29   2.0000      -0.490527       -13.3479
  30   2.0000      -0.471559       -12.8318
  31   2.0000      -0.438955       -11.9446
  32   2.0000      -0.395477       -10.7615
  33   2.0000      -0.326083        -8.8732
  34   0.0000       0.124871         3.3979
  35   0.0000       0.144368         3.9284
  36   0.0000       0.151016         4.1093
  37   0.0000       0.162295         4.4163
  38   0.0000       0.172093         4.6829

MULLIKEN ATOMIC CHARGES
-----------------------
   0 C :   -0.426577
   1 C :    0.029916
   2 C :   -0.129603
   3 C :   -0.258801
   4 C :   -0.019299
   5 N :   -0.309319
   6 C :    0.303382
   7 O :   -0.386314
   8 N :   -0.328005
   9 H :    0.140223
  10 H :    0.139041
  11 H :    0.147726
  12 H :    0.114084
  13 H :    0.112854
  14 H :    0.114471
  15 H :    0.127276
  16 H :    0.132898
  17 H :    0.251225
  18 H :    0.244822
Sum of atomic charges:   -0.0000000

LOEWDIN ATOMIC CHARGES
----------------------
   0 C :   -0.291733
   1 C :   -0.298308
   2 C :   -0.241042
   3 C :   -0.212406
   4 C :   -0.233753
   5 N :    0.126531
   6 C :   -0.540833
   7 O :    0.048898
   8 N :    0.115113
   9 H :    0.127785
  10 H :    0.130019
  11 H :    0.125991
  12 H :    0.151306
  13 H :    0.147825
  14 H :    0.148206
  15 H :    0.148958
  16 H :    0.146720
  17 H :    0.203519
  18 H :    0.197206

  Mayer bond orders larger than 0.1
B(  0-C ,  1-C ) :   0.8968 B(  0-C ,  9-H ) :   0.9315 B(  0-C , 10-H ) :   0.9387
B(  0-C , 11-H ) :   0.9422 B(  1-C ,  2-C ) :   0.9271 B(  1-C ,  8-N ) :   0.8750
B(  1-C , 12-H ) :   0.9427 B(  2-C ,  3-C ) :   0.9408 B(  2-C , 13-H ) :   0.9241
B(  2-C , 14-H ) :   0.9010 B(  3-C ,  4-C ) :   1.7671 B(  3-C , 15-H ) :   0.9225
B(  4-C ,  5-N ) :   1.0151 B(  4-C , 16-H ) :   0.9157 B(  5-N ,  6-C ) :   1.0593
B(  5-N , 17-H ) :   0.8644 B(  6-C ,  7-O ) :   1.9559 B(  6-C ,  8-N ) :   1.1589
B(  8-N , 18-H ) :   0.8658

MP2 TOTAL ENERGY:     -418.555330783 Eh
FINAL SINGLE POINT ENERGY      -418.555330783092

DIPOLE MOMENT
-------------
                                X             Y             Z
Electronic contribution:      3.17945      -6.28127       5.15424
Nuclear contribution   :     -3.84544       6.66858      -6.24505
                        -----------------------------------------
Total Dipole Moment    :     -0.66599       0.38731      -1.09081
                        -----------------------------------------
Magnitude (a.u.)       :      1.33545
Magnitude (Debye)      :      3.39444

                             ****ORCA TERMINATED NORMALLY****
TOTAL RUN TIME: 0 days 0 hours 16 minutes 53 seconds 609 msec
