                         Program Version 3.0.3 - RELEASE   -
|  1> ! RI-MP2 RIJK def2-TZVP def2-TZVP/C def2-TZVP/JK TIGHTSCF
|  2> % maxcore 2000
|  3> % mp2 density relaxed end
|  4> *xyz 0 1
|  5>  C        0.0065896729     1.4497766865     0.1947395707
|  6>  O        1.3947222960     1.6211259250    -0.2348165887
|  7>  C        1.3567373052     0.3148171059    -0.7746042772
|  8>  C        2.4146444191    -0.7340393975    -1.0767300375
|  9>  N        1.4837815926    -1.3370621662    -2.1101267790
| 10>  C        0.3078278713    -2.0597018430    -1.5013994714
| 11>  C       -0.4946321518    -0.7495278695    -1.2855524664
| 12>  C        0.0723197912    -0.0869828790    -0.0165742503
| 13>  C        0.6477054336    -0.0677135704    -2.1136711144
| 14>  H       -0.1339106267     1.7893147528     1.2242620398
| 15>  H       -0.6844723396     1.9859253122    -0.4673421508
| 16>  H        3.3027843282    -0.3481921304    -1.5883178186
| 17>  H        2.7255153895    -1.4026103709    -0.2669461697
| 18>  H       -0.1356544819    -2.7138387796    -2.2584701163
| 19>  H        0.5387678027    -2.6587358366    -0.6124846905
| 20>  H       -1.5627454215    -0.7306037910    -1.5075075590
| 21>  H        0.1013358089    -0.6661919532     0.9094693770
| 22>  H        0.5746947303     0.5289906151    -3.0216576078
| 23> *
| 24>
| 25>                          ****END OF INPUT****

CARTESIAN COORDINATES (ANGSTROEM)
---------------------------------
  C      0.006590    1.449777    0.194740
  O      1.394722    1.621126   -0.234817
  C      1.356737    0.314817   -0.774604
  C      2.414644   -0.734039   -1.076730
  N      1.483782   -1.337062   -2.110127
  C      0.307828   -2.059702   -1.501399
  C     -0.494632   -0.749528   -1.285552
  C      0.072320   -0.086983   -0.016574
  C      0.647705   -0.067714   -2.113671
  H     -0.133911    1.789315    1.224262
  H     -0.684472    1.985925   -0.467342
  H      3.302784   -0.348192   -1.588318
  H      2.725515   -1.402610   -0.266946
  H     -0.135654   -2.713839   -2.258470
  H      0.538768   -2.658736   -0.612485
  H     -1.562745   -0.730604   -1.507508
  H      0.101336   -0.666192    0.909469
  H      0.574695    0.528991   -3.021658

 Total Charge           Charge          ....    0
 Multiplicity           Mult            ....    1
 Number of Electrons    NEL             ....   66
 Basis Dimension        Dim             ....  333

ORBITAL ENERGIES
----------------

  NO   OCC          E(Eh)            E(eV)
   0   2.0000     -20.558653      -559.4294
   1   2.0000     -15.552877      -423.2153
   2   2.0000     -11.290945      -307.2422
   3   2.0000     -11.290283      -307.2242
   4   2.0000     -11.258712      -306.3651
   5   2.0000     -11.258681      -306.3643
   6   2.0000     -11.257490      -306.3319
   7   2.0000     -11.242631      -305.9275
   8   2.0000     -11.237604      -305.7908
   9   2.0000      -1.393139       -37.9092
  10   2.0000      -1.274241       -34.6739
  11   2.0000      -1.069116       -29.0921
  12   2.0000      -1.010682       -27.5020
  13   2.0000      -0.942025       -25.6338
  14   2.0000      -0.899426       -24.4746
  15   2.0000      -0.825757       -22.4700
  16   2.0000      -0.782524       -21.2936
  17   2.0000      -0.709704       -19.3120
  18   2.0000      -0.690078       -18.7780
  19   2.0000      -0.665983       -18.1223
  20   2.0000      -0.661458       -17.9992
  21   2.0000      -0.615810       -16.7570
  22   2.0000      -0.600158       -16.3311
  23   2.0000      -0.571448       -15.5499
  24   2.0000      -0.562968       -15.3191
  25   2.0000      -0.516071       -14.0430
  26   2.0000      -0.496483       -13.5100
  27   2.0000      -0.489814       -13.3285
  28   2.0000      -0.464576       -12.6417
  29   2.0000      -0.445667       -12.1272
  30   2.0000      -0.421818       -11.4783
  31   2.0000      -0.393176       -10.6989
  32   2.0000      -0.349789        -9.5182
  33   0.0000       0.145522         3.9599
  34   0.0000       0.152932         4.1615
  35   0.0000       0.159966         4.3529
  36   0.0000       0.168519         4.5856
  37   0.0000       0.189180         5.1478

MULLIKEN ATOMIC CHARGES
-----------------------
   0 C :   -0.025089
   1 O :   -0.311357
   2 C :    0.182153
   3 C :   -0.127916
   4 N :   -0.196134
   5 C :   -0.171761
   6 C :   -0.072664
   7 C :   -0.203735
   8 C :   -0.128408
   9 H :    0.116487
  10 H :    0.093867
  11 H :    0.124278
  12 H :    0.113740
  13 H :    0.128850
  14 H :    0.113272
  15 H :    0.130054
  16 H :    0.102398
  17 H :    0.131964
Sum of atomic charges:   -0.0000000

LOEWDIN ATOMIC CHARGES
----------------------
   0 C :   -0.218251
   1 O :    0.158909
   2 C :   -0.294546
   3 C :   -0.209167
   4 N :    0.100193
   5 C :   -0.222269
   6 C :   -0.180339
   7 C :   -0.160442
   8 C :   -0.127610
   9 H :    0.121739
  10 H :    0.123061
  11 H :    0.136214
  12 H :    0.124359
  13 H :    0.131132
  14 H :    0.122407
  15 H :    0.129720
  16 H :    0.137287
  17 H :    0.127604

  Mayer bond orders larger than 0.1
B(  0-C ,  1-O ) :   0.9114 B(  0-C ,  7-C ) :   0.9708 B(  0-C ,  9-H ) :   0.9132
B(  0-C , 10-H ) :   0.8941 B(  1-O ,  2-C ) :   1.0311 B(  2-C ,  3-C ) :   0.9694
B(  2-C ,  7-C ) :   0.9191 B(  2-C ,  8-C ) :   0.8538 B(  3-C ,  4-N ) :   0.9225
B(  3-C , 11-H ) :   0.9064 B(  3-C , 12-H ) :   0.9227 B(  4-N ,  5-C ) :   0.8961
B(  4-N ,  8-C ) :   0.9312 B(  5-C ,  6-C ) :   0.8941 B(  5-C , 13-H ) :   0.9278
B(  5-C , 14-H ) :   0.9235 B(  6-C ,  7-C ) :   0.8857 B(  6-C ,  8-C ) :   0.8697
B(  6-C , 15-H ) :   0.9034 B(  7-C , 16-H ) :   0.9016 B(  8-C , 17-H ) :   0.8849

MP2 TOTAL ENERGY:     -401.155444359 Eh
FINAL SINGLE POINT ENERGY      -401.155444359240

DIPOLE MOMENT
-------------
                                X             Y             Z
Electronic contribution:      1.63014       2.28118      -0.66470
Nuclear contribution   :     -2.38512      -2.54608       1.10671
                        -----------------------------------------
Total Dipole Moment    :     -0.75498      -0.26491       0.44201
                        -----------------------------------------
Magnitude (a.u.)       :      0.91408
Magnitude (Debye)      :      2.32342

                             ****ORCA TERMINATED NORMALLY****
TOTAL RUN TIME: 0 days 0 hours 19 minutes 58 seconds 520 msec
