                         Program Version 3.0.3 - RELEASE   -
|  1> ! RI-MP2 RIJK def2-TZVP def2-TZVP/C def2-TZVP/JK TIGHTSCF
|  2> % maxcore 2000
|  3> % mp2 density relaxed end
|  4> *xyz 0 1
|  5>  C        0.0811016764     1.6320502480     0.0721158590
|  6>  C        0.0489875176     0.1204447895     0.0434307344
|  7>  C        1.3338608759    -0.6899689562    -0.1366304905
|  8>  C        2.6102858361    -0.0588473004    -0.3087272915
|  9>  C        3.6901650969     0.4254868347    -0.5256922989
| 10>  C        0.5668020218    -0.7249950678     1.1819554155
| 11>  C        1.0522106592    -0.1660334936     2.4846170545
| 12>  C        2.4301135323    -0.3200763333     2.9763789217
| 13>  O        1.9501262910     0.9390637520     2.4968919949
| 14>  H        0.9762958480     2.0043415735     0.5707424097
| 15>  H        0.0641890998     2.0317311591    -0.9473127988
| 16>  H       -0.7941901862     2.0262917902     0.5997482790
| 17>  H       -0.8063530401    -0.2966855498    -0.4823781351
| 18>  H        1.2268518297    -1.5952638777    -0.7289871968
| 19>  H        4.6396577229     0.8708176843    -0.6909492289
| 20>  H        0.0290462401    -1.6573376126     1.3426153284
| 21>  H        0.2627565328    -0.0910225208     3.2364749857
| 22>  H        2.6185668708    -0.3666258626     4.0479192750
| 23>  H        3.1701222351    -0.7985191164     2.3392808827
| 24> *
| 25>
| 26>                          ****END OF INPUT****

CARTESIAN COORDINATES (ANGSTROEM)
---------------------------------
  C      0.081102    1.632050    0.072116
  C      0.048988    0.120445    0.043431
  C      1.333861   -0.689969   -0.136630
  C      2.610286   -0.058847   -0.308727
  C      3.690165    0.425487   -0.525692
  C      0.566802   -0.724995    1.181955
  C      1.052211   -0.166033    2.484617
  C      2.430114   -0.320076    2.976379
  O      1.950126    0.939064    2.496892
  H      0.976296    2.004342    0.570742
  H      0.064189    2.031731   -0.947313
  H     -0.794190    2.026292    0.599748
  H     -0.806353   -0.296686   -0.482378
  H      1.226852   -1.595264   -0.728987
  H      4.639658    0.870818   -0.690949
  H      0.029046   -1.657338    1.342615
  H      0.262757   -0.091023    3.236475
  H      2.618567   -0.366626    4.047919
  H      3.170122   -0.798519    2.339281

 Total Charge           Charge          ....    0
 Multiplicity           Mult            ....    1
 Number of Electrons    NEL             ....   66
 Basis Dimension        Dim             ....  339

ORBITAL ENERGIES
----------------

  NO   OCC          E(Eh)            E(eV)
   0   2.0000     -20.566188      -559.6344
   1   2.0000     -11.292155      -307.2752
   2   2.0000     -11.278769      -306.9109
   3   2.0000     -11.257138      -306.3223
   4   2.0000     -11.249882      -306.1249
   5   2.0000     -11.245857      -306.0153
   6   2.0000     -11.229111      -305.5596
   7   2.0000     -11.213268      -305.1285
   8   2.0000     -11.210914      -305.0645
   9   2.0000      -1.411596       -38.4115
  10   2.0000      -1.168100       -31.7856
  11   2.0000      -1.023127       -27.8407
  12   2.0000      -0.977411       -26.5967
  13   2.0000      -0.939226       -25.5576
  14   2.0000      -0.891079       -24.2475
  15   2.0000      -0.836315       -22.7573
  16   2.0000      -0.766480       -20.8570
  17   2.0000      -0.711127       -19.3507
  18   2.0000      -0.700827       -19.0705
  19   2.0000      -0.674099       -18.3432
  20   2.0000      -0.658397       -17.9159
  21   2.0000      -0.606293       -16.4981
  22   2.0000      -0.572182       -15.5699
  23   2.0000      -0.545821       -14.8526
  24   2.0000      -0.542159       -14.7529
  25   2.0000      -0.535214       -14.5639
  26   2.0000      -0.501372       -13.6430
  27   2.0000      -0.483740       -13.1632
  28   2.0000      -0.463875       -12.6227
  29   2.0000      -0.446662       -12.1543
  30   2.0000      -0.412023       -11.2117
  31   2.0000      -0.368819       -10.0361
  32   2.0000      -0.353722        -9.6253
  33   0.0000       0.133223         3.6252
  34   0.0000       0.162214         4.4141
  35   0.0000       0.166497         4.5306
  36   0.0000       0.169463         4.6113
  37   0.0000       0.177300         4.8246

MULLIKEN ATOMIC CHARGES
-----------------------
   0 C :   -0.423482
   1 C :   -0.033783
   2 C :   -0.326676
   3 C :    0.002930
   4 C :   -0.126952
   5 C :   -0.085837
   6 C :    0.021558
   7 C :   -0.077683
   8 O :   -0.333893
   9 H :    0.174255
  10 H :    0.132191
  11 H :    0.129550
  12 H :    0.122256
  13 H :    0.136918
  14 H :    0.186173
  15 H :    0.124333
  16 H :    0.126332
  17 H :    0.120126
  18 H :    0.131684
Sum of atomic charges:   -0.0000000

LOEWDIN ATOMIC CHARGES
----------------------
   0 C :   -0.284745
   1 C :   -0.187732
   2 C :   -0.170229
   3 C :   -0.097014
   4 C :   -0.099883
   5 C :   -0.166945
   6 C :   -0.277791
   7 C :   -0.253903
   8 O :    0.157245
   9 H :    0.137920
  10 H :    0.128342
  11 H :    0.126855
  12 H :    0.148698
  13 H :    0.166686
  14 H :    0.125570
  15 H :    0.159944
  16 H :    0.142064
  17 H :    0.118751
  18 H :    0.126167

  Mayer bond orders larger than 0.1
B(  0-C ,  1-C ) :   0.9223 B(  0-C ,  9-H ) :   0.9272 B(  0-C , 10-H ) :   0.9333
B(  0-C , 11-H ) :   0.9367 B(  1-C ,  2-C ) :   0.8244 B(  1-C ,  5-C ) :   0.8632
B(  1-C , 12-H ) :   0.9261 B(  2-C ,  3-C ) :   1.2095 B(  2-C ,  4-C ) :  -0.1350
B(  2-C ,  5-C ) :   0.8689 B(  2-C , 13-H ) :   0.9438 B(  3-C ,  4-C ) :   2.5631
B(  4-C , 14-H ) :   0.8953 B(  5-C ,  6-C ) :   0.9443 B(  5-C , 15-H ) :   0.9201
B(  6-C ,  7-C ) :   0.9770 B(  6-C ,  8-O ) :   0.8820 B(  6-C , 16-H ) :   0.9229
B(  7-C ,  8-O ) :   0.8986 B(  7-C , 17-H ) :   0.9247 B(  7-C , 18-H ) :   0.9049

MP2 TOTAL ENERGY:     -385.128697301 Eh
FINAL SINGLE POINT ENERGY      -385.128697300966

DIPOLE MOMENT
-------------
                                X             Y             Z
Electronic contribution:      3.10564      -1.12204       0.56538
Nuclear contribution   :     -3.48455       0.48807      -0.38937
                        -----------------------------------------
Total Dipole Moment    :     -0.37890      -0.63398       0.17601
                        -----------------------------------------
Magnitude (a.u.)       :      0.75926
Magnitude (Debye)      :      1.92988

                             ****ORCA TERMINATED NORMALLY****
TOTAL RUN TIME: 0 days 0 hours 20 minutes 6 seconds 977 msec
