                         Program Version 3.0.3 - RELEASE   -
|  1> ! RI-MP2 RIJK def2-TZVP def2-TZVP/C def2-TZVP/JK TIGHTSCF
|  2> % maxcore 2000
|  3> % mp2 density relaxed end
|  4> *xyz 0 1
|  5>  C        0.1240989679     1.3364840016     0.0570855723
|  6>  O       -0.4571840734     0.1443455177    -0.4848373061
|  7>  C        0.3428819340    -0.5814048430    -1.2709493507
|  8>  C        0.7004990878    -1.8875552539    -1.2645742805
|  9>  C        0.3576641254    -2.9534728500    -0.2817950148
| 10>  N        1.4845734096    -2.1213961596    -2.3988863553
| 11>  C        1.5665732306    -0.9824941628    -3.0048820183
| 12>  C        2.2962432332    -0.6451575475    -4.2540129655
| 13>  O        0.8858376625     0.0227506027    -2.3806747926
| 14>  H        1.0132204809     1.0964356830     0.6518680730
| 15>  H        0.3948161912     2.0366797054    -0.7390959507
| 16>  H       -0.6385050807     1.7836362177     0.6959452048
| 17>  H       -0.2141035398    -3.7593881181    -0.7549902688
| 18>  H        1.2613431887    -3.4042699133     0.1424292519
| 19>  H       -0.2416127048    -2.5414585229     0.5339075448
| 20>  H        1.6158977499    -0.2587954541    -5.0203957199
| 21>  H        3.0586962958     0.1207422803    -4.0750302695
| 22>  H        2.7806148010    -1.5466430531    -4.6302954242
| 23> *
| 24>
| 25>                          ****END OF INPUT****

CARTESIAN COORDINATES (ANGSTROEM)
---------------------------------
  C      0.124099    1.336484    0.057086
  O     -0.457184    0.144346   -0.484837
  C      0.342882   -0.581405   -1.270949
  C      0.700499   -1.887555   -1.264574
  C      0.357664   -2.953473   -0.281795
  N      1.484573   -2.121396   -2.398886
  C      1.566573   -0.982494   -3.004882
  C      2.296243   -0.645158   -4.254013
  O      0.885838    0.022751   -2.380675
  H      1.013220    1.096436    0.651868
  H      0.394816    2.036680   -0.739096
  H     -0.638505    1.783636    0.695945
  H     -0.214104   -3.759388   -0.754990
  H      1.261343   -3.404270    0.142429
  H     -0.241613   -2.541459    0.533908
  H      1.615898   -0.258795   -5.020396
  H      3.058696    0.120742   -4.075030
  H      2.780615   -1.546643   -4.630295

 Total Charge           Charge          ....    0
 Multiplicity           Mult            ....    1
 Number of Electrons    NEL             ....   68
 Basis Dimension        Dim             ....  333

ORBITAL ENERGIES
----------------

  NO   OCC          E(Eh)            E(eV)
   0   2.0000     -20.626246      -561.2687
   1   2.0000     -20.594717      -560.4107
   2   2.0000     -15.550854      -423.1602
   3   2.0000     -11.334021      -308.4144
   4   2.0000     -11.329629      -308.2949
   5   2.0000     -11.290294      -307.2245
   6   2.0000     -11.248865      -306.0972
   7   2.0000     -11.240659      -305.8739
   8   2.0000     -11.219816      -305.3067
   9   2.0000      -1.488552       -40.5056
  10   2.0000      -1.408178       -38.3185
  11   2.0000      -1.223617       -33.2963
  12   2.0000      -1.067338       -29.0437
  13   2.0000      -0.992689       -27.0125
  14   2.0000      -0.970233       -26.4014
  15   2.0000      -0.899658       -24.4809
  16   2.0000      -0.818379       -22.2692
  17   2.0000      -0.772977       -21.0338
  18   2.0000      -0.718738       -19.5578
  19   2.0000      -0.685238       -18.6463
  20   2.0000      -0.645779       -17.5725
  21   2.0000      -0.642217       -17.4756
  22   2.0000      -0.626478       -17.0473
  23   2.0000      -0.586972       -15.9723
  24   2.0000      -0.573233       -15.5985
  25   2.0000      -0.568424       -15.4676
  26   2.0000      -0.559738       -15.2312
  27   2.0000      -0.543826       -14.7983
  28   2.0000      -0.530652       -14.4398
  29   2.0000      -0.526012       -14.3135
  30   2.0000      -0.486447       -13.2369
  31   2.0000      -0.442898       -12.0519
  32   2.0000      -0.435704       -11.8561
  33   2.0000      -0.307327        -8.3628
  34   0.0000       0.136302         3.7090
  35   0.0000       0.151495         4.1224
  36   0.0000       0.159961         4.3528
  37   0.0000       0.168727         4.5913
  38   0.0000       0.205153         5.5825

MULLIKEN ATOMIC CHARGES
-----------------------
   0 C :   -0.203021
   1 O :   -0.303035
   2 C :    0.243696
   3 C :    0.052493
   4 C :   -0.421646
   5 N :   -0.288268
   6 C :    0.260631
   7 C :   -0.423400
   8 O :   -0.221823
   9 H :    0.125630
  10 H :    0.142669
  11 H :    0.147019
  12 H :    0.143913
  13 H :    0.142582
  14 H :    0.144152
  15 H :    0.149318
  16 H :    0.145491
  17 H :    0.163599
Sum of atomic charges:   -0.0000000

LOEWDIN ATOMIC CHARGES
----------------------
   0 C :   -0.309256
   1 O :    0.224786
   2 C :   -0.371007
   3 C :   -0.267434
   4 C :   -0.272140
   5 N :    0.137474
   6 C :   -0.366373
   7 C :   -0.271850
   8 O :    0.344018
   9 H :    0.109242
  10 H :    0.110742
  11 H :    0.116367
  12 H :    0.133248
  13 H :    0.132650
  14 H :    0.134152
  15 H :    0.136255
  16 H :    0.135464
  17 H :    0.143662

  Mayer bond orders larger than 0.1
B(  0-C ,  1-O ) :   0.8442 B(  0-C ,  9-H ) :   0.9283 B(  0-C , 10-H ) :   0.9381
B(  0-C , 11-H ) :   0.9374 B(  1-O ,  2-C ) :   1.1004 B(  2-C ,  3-C ) :   1.5770
B(  2-C ,  8-O ) :   1.0283 B(  3-C ,  4-C ) :   0.8703 B(  3-C ,  5-N ) :   1.1372
B(  4-C , 12-H ) :   0.9371 B(  4-C , 13-H ) :   0.9343 B(  4-C , 14-H ) :   0.9494
B(  5-N ,  6-C ) :   1.7011 B(  6-C ,  7-C ) :   0.8669 B(  6-C ,  8-O ) :   1.0476
B(  7-C , 15-H ) :   0.9309 B(  7-C , 16-H ) :   0.9297 B(  7-C , 17-H ) :   0.9499

MP2 TOTAL ENERGY:     -438.391960537 Eh
FINAL SINGLE POINT ENERGY      -438.391960536957

DIPOLE MOMENT
-------------
                                X             Y             Z
Electronic contribution:     -1.54218       0.12337      -1.51710
Nuclear contribution   :      1.71996       0.73270       1.77453
                        -----------------------------------------
Total Dipole Moment    :      0.17778       0.85607       0.25744
                        -----------------------------------------
Magnitude (a.u.)       :      0.91145
Magnitude (Debye)      :      2.31672

                             ****ORCA TERMINATED NORMALLY****
TOTAL RUN TIME: 0 days 0 hours 16 minutes 35 seconds 654 msec
