                         Program Version 3.0.3 - RELEASE   -
|  1> ! RI-MP2 RIJK def2-TZVP def2-TZVP/C def2-TZVP/JK TIGHTSCF
|  2> % maxcore 2000
|  3> % mp2 density relaxed end
|  4> *xyz 0 1
|  5>  C       -0.0895666761     1.6853526429    -0.4423155675
|  6>  C        0.3058216340     0.3917112065     0.2307650818
|  7>  C        0.6640840681    -0.8758433440    -0.4446441700
|  8>  C        1.4273667729    -0.6675389726    -1.7514598790
|  9>  C        2.4208720967     0.1871804770    -0.9278040781
| 10>  N        1.6973880002    -0.0954929949     0.3662949083
| 11>  C        3.8534456648    -0.3391614292    -0.9303856587
| 12>  N        4.3381911613    -0.6230136313     0.3035647246
| 13>  O        4.4792485505    -0.4528141301    -1.9680868860
| 14>  H        0.3006321168     1.7839273575    -1.4571099177
| 15>  H       -1.1810417811     1.7445497279    -0.5025523731
| 16>  H        0.2579015372     2.5451948803     0.1406079864
| 17>  H       -0.2077821690     0.2385354162     1.1789291599
| 18>  H        0.2842218496    -1.8326734040    -0.0987939424
| 19>  H        1.8926749804    -1.5759001820    -2.1350994266
| 20>  H        0.8880960214    -0.1809201298    -2.5681712045
| 21>  H        2.4700574132     1.2510929335    -1.1810620335
| 22>  H        3.7033519653    -0.6098525312     1.0872821424
| 23>  H        5.2615203537    -1.0138025527     0.3873405338
| 24> *
| 25>
| 26>                          ****END OF INPUT****

CARTESIAN COORDINATES (ANGSTROEM)
---------------------------------
  C     -0.089567    1.685353   -0.442316
  C      0.305822    0.391711    0.230765
  C      0.664084   -0.875843   -0.444644
  C      1.427367   -0.667539   -1.751460
  C      2.420872    0.187180   -0.927804
  N      1.697388   -0.095493    0.366295
  C      3.853446   -0.339161   -0.930386
  N      4.338191   -0.623014    0.303565
  O      4.479249   -0.452814   -1.968087
  H      0.300632    1.783927   -1.457110
  H     -1.181042    1.744550   -0.502552
  H      0.257902    2.545195    0.140608
  H     -0.207782    0.238535    1.178929
  H      0.284222   -1.832673   -0.098794
  H      1.892675   -1.575900   -2.135099
  H      0.888096   -0.180920   -2.568171
  H      2.470057    1.251093   -1.181062
  H      3.703352   -0.609853    1.087282
  H      5.261520   -1.013803    0.387341

 Total Charge           Charge          ....    0
 Multiplicity           Mult            ....    1
 Number of Electrons    NEL             ....   68
 Basis Dimension        Dim             ....  339

ORBITAL ENERGIES
----------------

  NO   OCC          E(Eh)            E(eV)
   0   2.0000     -20.508900      -558.0755
   1   2.0000     -15.571965      -423.7347
   2   2.0000     -15.571883      -423.7325
   3   2.0000     -11.342799      -308.6533
   4   2.0000     -11.275921      -306.8334
   5   2.0000     -11.274934      -306.8065
   6   2.0000     -11.273115      -306.7571
   7   2.0000     -11.241908      -305.9079
   8   2.0000     -11.234505      -305.7064
   9   2.0000      -1.374021       -37.3890
  10   2.0000      -1.301433       -35.4138
  11   2.0000      -1.203558       -32.7505
  12   2.0000      -1.044607       -28.4252
  13   2.0000      -0.988251       -26.8917
  14   2.0000      -0.954512       -25.9736
  15   2.0000      -0.831284       -22.6204
  16   2.0000      -0.782828       -21.3018
  17   2.0000      -0.750129       -20.4121
  18   2.0000      -0.730193       -19.8696
  19   2.0000      -0.682134       -18.5618
  20   2.0000      -0.655267       -17.8307
  21   2.0000      -0.645728       -17.5712
  22   2.0000      -0.601306       -16.3624
  23   2.0000      -0.587255       -15.9800
  24   2.0000      -0.576983       -15.7005
  25   2.0000      -0.563020       -15.3206
  26   2.0000      -0.541373       -14.7315
  27   2.0000      -0.526685       -14.3318
  28   2.0000      -0.485510       -13.2114
  29   2.0000      -0.471798       -12.8383
  30   2.0000      -0.437871       -11.9151
  31   2.0000      -0.415323       -11.3015
  32   2.0000      -0.405082       -11.0228
  33   2.0000      -0.379561       -10.3284
  34   0.0000       0.132105         3.5948
  35   0.0000       0.149315         4.0631
  36   0.0000       0.156860         4.2684
  37   0.0000       0.164987         4.4895
  38   0.0000       0.192981         5.2513

MULLIKEN ATOMIC CHARGES
-----------------------
   0 C :   -0.407902
   1 C :   -0.024295
   2 C :   -0.041208
   3 C :   -0.272381
   4 C :    0.062300
   5 N :   -0.297990
   6 C :    0.177551
   7 N :   -0.457583
   8 O :   -0.357644
   9 H :    0.142605
  10 H :    0.141381
  11 H :    0.143270
  12 H :    0.120273
  13 H :    0.132665
  14 H :    0.148752
  15 H :    0.130851
  16 H :    0.125625
  17 H :    0.279844
  18 H :    0.253886
Sum of atomic charges:   -0.0000000

LOEWDIN ATOMIC CHARGES
----------------------
   0 C :   -0.292390
   1 C :   -0.270813
   2 C :   -0.190566
   3 C :   -0.202065
   4 C :   -0.211898
   5 N :    0.112874
   6 C :   -0.474583
   7 N :   -0.002034
   8 O :    0.076100
   9 H :    0.128223
  10 H :    0.133095
  11 H :    0.130989
  12 H :    0.152505
  13 H :    0.132564
  14 H :    0.147459
  15 H :    0.131950
  16 H :    0.152021
  17 H :    0.175029
  18 H :    0.171541

  Mayer bond orders larger than 0.1
B(  0-C ,  1-C ) :   0.8985 B(  0-C ,  9-H ) :   0.9369 B(  0-C , 10-H ) :   0.9273
B(  0-C , 11-H ) :   0.9366 B(  1-C ,  2-C ) :   0.9349 B(  1-C ,  5-N ) :   0.9262
B(  1-C , 12-H ) :   0.9278 B(  2-C ,  3-C ) :   0.9218 B(  2-C ,  5-N ) :   0.8007
B(  2-C , 13-H ) :   0.9066 B(  3-C ,  4-C ) :   0.9349 B(  3-C , 14-H ) :   0.9243
B(  3-C , 15-H ) :   0.9248 B(  4-C ,  5-N ) :   0.8436 B(  4-C ,  6-C ) :   0.8860
B(  4-C , 16-H ) :   0.9123 B(  6-C ,  7-N ) :   1.2025 B(  6-C ,  8-O ) :   2.0131
B(  7-N , 17-H ) :   0.8399 B(  7-N , 18-H ) :   0.8617

MP2 TOTAL ENERGY:     -418.497023742 Eh
FINAL SINGLE POINT ENERGY      -418.497023741881

DIPOLE MOMENT
-------------
                                X             Y             Z
Electronic contribution:      6.38474      -2.91776      -0.17814
Nuclear contribution   :     -7.43795       2.96638       1.00029
                        -----------------------------------------
Total Dipole Moment    :     -1.05322       0.04862       0.82215
                        -----------------------------------------
Magnitude (a.u.)       :      1.33700
Magnitude (Debye)      :      3.39837

                             ****ORCA TERMINATED NORMALLY****
TOTAL RUN TIME: 0 days 0 hours 17 minutes 37 seconds 141 msec
