                         Program Version 3.0.3 - RELEASE   -
|  1> ! RI-MP2 RIJK def2-TZVP def2-TZVP/C def2-TZVP/JK TIGHTSCF
|  2> % maxcore 2000
|  3> % mp2 density relaxed end
|  4> *xyz 0 1
|  5>  C       -0.0236340905     1.5178646411    -0.0078963679
|  6>  C       -0.0527512116     0.0122449991    -0.0922399966
|  7>  C        0.8670018938    -0.6851215033    -1.0915509817
|  8>  C        0.3326903629    -2.1056243959    -1.1933723971
|  9>  C        0.0932060535    -2.8087808228     0.1184340074
| 10>  C        0.3927234215    -1.9746805190     1.3536589264
| 11>  N       -0.3003894722    -0.6856350000     1.1882364892
| 12>  C       -1.2840046710    -0.8230747342     0.0882716148
| 13>  C       -1.0674351299    -2.1515274934    -0.6042492805
| 14>  H        0.9689521829     1.8743366267     0.2916514182
| 15>  H       -0.2661615474     1.9720175220    -0.9752374455
| 16>  H       -0.7421335555     1.8714910123     0.7355667499
| 17>  H        0.8068552831    -0.1763147434    -2.0609533510
| 18>  H        1.9178433541    -0.6481220448    -0.7749112595
| 19>  H        0.5886854083    -2.7055998252    -2.0596598261
| 20>  H        0.1869774592    -3.8887393310     0.1605223611
| 21>  H        0.0059217769    -2.4593772792     2.2572980247
| 22>  H        1.4645350174    -1.8004004573     1.5066098126
| 23>  H       -2.2797424792    -0.4215158392     0.2430747780
| 24>  H       -1.8849936566    -2.7050477926    -1.0457369465
| 25> *
| 26>
| 27>                          ****END OF INPUT****

CARTESIAN COORDINATES (ANGSTROEM)
---------------------------------
  C     -0.023634    1.517865   -0.007896
  C     -0.052751    0.012245   -0.092240
  C      0.867002   -0.685122   -1.091551
  C      0.332690   -2.105624   -1.193372
  C      0.093206   -2.808781    0.118434
  C      0.392723   -1.974681    1.353659
  N     -0.300389   -0.685635    1.188236
  C     -1.284005   -0.823075    0.088272
  C     -1.067435   -2.151527   -0.604249
  H      0.968952    1.874337    0.291651
  H     -0.266162    1.972018   -0.975237
  H     -0.742134    1.871491    0.735567
  H      0.806855   -0.176315   -2.060953
  H      1.917843   -0.648122   -0.774911
  H      0.588685   -2.705600   -2.059660
  H      0.186977   -3.888739    0.160522
  H      0.005922   -2.459377    2.257298
  H      1.464535   -1.800400    1.506610
  H     -2.279742   -0.421516    0.243075
  H     -1.884994   -2.705048   -1.045737

 Total Charge           Charge          ....    0
 Multiplicity           Mult            ....    1
 Number of Electrons    NEL             ....   66
 Basis Dimension        Dim             ....  345

ORBITAL ENERGIES
----------------

  NO   OCC          E(Eh)            E(eV)
   0   2.0000     -15.546741      -423.0483
   1   2.0000     -11.256235      -306.2977
   2   2.0000     -11.247601      -306.0628
   3   2.0000     -11.244955      -305.9908
   4   2.0000     -11.230634      -305.6011
   5   2.0000     -11.228879      -305.5533
   6   2.0000     -11.228083      -305.5317
   7   2.0000     -11.225236      -305.4542
   8   2.0000     -11.211934      -305.0922
   9   2.0000      -1.290509       -35.1165
  10   2.0000      -1.133608       -30.8470
  11   2.0000      -1.041994       -28.3541
  12   2.0000      -0.971068       -26.4241
  13   2.0000      -0.945803       -25.7366
  14   2.0000      -0.838490       -22.8165
  15   2.0000      -0.793770       -21.5996
  16   2.0000      -0.753133       -20.4938
  17   2.0000      -0.717302       -19.5188
  18   2.0000      -0.701006       -19.0753
  19   2.0000      -0.626256       -17.0413
  20   2.0000      -0.605915       -16.4878
  21   2.0000      -0.583159       -15.8686
  22   2.0000      -0.566972       -15.4281
  23   2.0000      -0.553128       -15.0514
  24   2.0000      -0.544180       -14.8079
  25   2.0000      -0.540968       -14.7205
  26   2.0000      -0.516340       -14.0503
  27   2.0000      -0.488685       -13.2978
  28   2.0000      -0.433684       -11.8011
  29   2.0000      -0.428054       -11.6479
  30   2.0000      -0.407630       -11.0922
  31   2.0000      -0.394119       -10.7245
  32   2.0000      -0.349768        -9.5177
  33   0.0000       0.138208         3.7608
  34   0.0000       0.160495         4.3673
  35   0.0000       0.171573         4.6688
  36   0.0000       0.176955         4.8152
  37   0.0000       0.190190         5.1753

MULLIKEN ATOMIC CHARGES
-----------------------
   0 C :   -0.431962
   1 C :    0.177619
   2 C :   -0.192913
   3 C :   -0.144523
   4 C :   -0.110811
   5 C :   -0.147627
   6 N :   -0.231633
   7 C :   -0.142156
   8 C :   -0.148964
   9 H :    0.127213
  10 H :    0.123297
  11 H :    0.142911
  12 H :    0.119232
  13 H :    0.114540
  14 H :    0.127860
  15 H :    0.125020
  16 H :    0.122808
  17 H :    0.111265
  18 H :    0.125114
  19 H :    0.133710
Sum of atomic charges:    0.0000000

LOEWDIN ATOMIC CHARGES
----------------------
   0 C :   -0.269376
   1 C :   -0.273735
   2 C :   -0.189559
   3 C :   -0.172714
   4 C :   -0.183642
   5 C :   -0.250296
   6 N :    0.150908
   7 C :   -0.175488
   8 C :   -0.156501
   9 H :    0.127780
  10 H :    0.125706
  11 H :    0.132420
  12 H :    0.147794
  13 H :    0.143765
  14 H :    0.144280
  15 H :    0.144758
  16 H :    0.136174
  17 H :    0.135158
  18 H :    0.139491
  19 H :    0.143076

  Mayer bond orders larger than 0.1
B(  0-C ,  1-C ) :   0.8601 B(  0-C ,  9-H ) :   0.9396 B(  0-C , 10-H ) :   0.9375
B(  0-C , 11-H ) :   0.9453 B(  1-C ,  2-C ) :   0.9536 B(  1-C ,  6-N ) :   0.8245
B(  1-C ,  7-C ) :   0.8898 B(  2-C ,  3-C ) :   0.9686 B(  2-C , 12-H ) :   0.9132
B(  2-C , 13-H ) :   0.9121 B(  3-C ,  4-C ) :   0.8589 B(  3-C ,  8-C ) :   0.8810
B(  3-C , 14-H ) :   0.9316 B(  4-C ,  5-C ) :   0.9796 B(  4-C ,  8-C ) :   0.8310
B(  4-C , 15-H ) :   0.9278 B(  5-C ,  6-N ) :   0.9561 B(  5-C , 16-H ) :   0.9269
B(  5-C , 17-H ) :   0.9279 B(  6-N ,  7-C ) :   0.9223 B(  7-C ,  8-C ) :   0.9484
B(  7-C , 18-H ) :   0.9104 B(  8-C , 19-H ) :   0.9264

MP2 TOTAL ENERGY:     -365.350747522 Eh
FINAL SINGLE POINT ENERGY      -365.350747521578

DIPOLE MOMENT
-------------
                                X             Y             Z
Electronic contribution:     -1.66347      -2.62116       0.87179
Nuclear contribution   :      1.76991       2.29928      -1.41665
                        -----------------------------------------
Total Dipole Moment    :      0.10643      -0.32188      -0.54486
                        -----------------------------------------
Magnitude (a.u.)       :      0.64172
Magnitude (Debye)      :      1.63111

                             ****ORCA TERMINATED NORMALLY****
TOTAL RUN TIME: 0 days 0 hours 19 minutes 53 seconds 794 msec
