                         Program Version 3.0.3 - RELEASE   -
|  1> ! RI-MP2 RIJK def2-TZVP def2-TZVP/C def2-TZVP/JK TIGHTSCF
|  2> % maxcore 2000
|  3> % mp2 density relaxed end
|  4> *xyz 0 1
|  5>  C        0.1042883950     1.0746988151     0.6733731161
|  6>  O       -0.1684447623    -0.2952102789     0.4445341111
|  7>  C       -1.3634081846    -0.5229859140    -0.2701189212
|  8>  C       -1.4368829181    -2.0386840363    -0.5553695730
|  9>  C       -2.3475339738    -2.7414384740     0.4615029073
| 10>  C       -3.7632842532    -2.1001695793     0.3835121612
| 11>  C       -3.1621034885    -0.9776612756     1.2643977179
| 12>  C       -2.1957728554    -2.0437200714     1.8470055537
| 13>  O       -2.4892043114    -0.0277835943     0.4359464011
| 14>  H        1.0611712120     1.1258955533     1.1976592443
| 15>  H        0.1869478226     1.6276020901    -0.2752830641
| 16>  H       -0.6736731758     1.5461560380     1.2840303293
| 17>  H       -1.3369663809     0.0688333028    -1.1972573778
| 18>  H       -1.8146809161    -2.2048646931    -1.5701568585
| 19>  H       -0.4156745663    -2.4265247080    -0.5134244970
| 20>  H       -2.2596093708    -3.8283222857     0.4014024484
| 21>  H       -4.1508882789    -1.8053945186    -0.5955667385
| 22>  H       -4.5119809896    -2.6863441020     0.9228804459
| 23>  H       -3.8047470460    -0.3967349373     1.9281420416
| 24>  H       -2.6816394472    -2.6130204748     2.6434708683
| 25>  H       -1.2051267707    -1.7156759361     2.1607966836
| 26> *
| 27>
| 28>                          ****END OF INPUT****

CARTESIAN COORDINATES (ANGSTROEM)
---------------------------------
  C      0.104288    1.074699    0.673373
  O     -0.168445   -0.295210    0.444534
  C     -1.363408   -0.522986   -0.270119
  C     -1.436883   -2.038684   -0.555370
  C     -2.347534   -2.741438    0.461503
  C     -3.763284   -2.100170    0.383512
  C     -3.162103   -0.977661    1.264398
  C     -2.195773   -2.043720    1.847006
  O     -2.489204   -0.027784    0.435946
  H      1.061171    1.125896    1.197659
  H      0.186948    1.627602   -0.275283
  H     -0.673673    1.546156    1.284030
  H     -1.336966    0.068833   -1.197257
  H     -1.814681   -2.204865   -1.570157
  H     -0.415675   -2.426525   -0.513424
  H     -2.259609   -3.828322    0.401402
  H     -4.150888   -1.805395   -0.595567
  H     -4.511981   -2.686344    0.922880
  H     -3.804747   -0.396735    1.928142
  H     -2.681639   -2.613020    2.643471
  H     -1.205127   -1.715676    2.160797

 Total Charge           Charge          ....    0
 Multiplicity           Mult            ....    1
 Number of Electrons    NEL             ....   70
 Basis Dimension        Dim             ....  351

ORBITAL ENERGIES
----------------

  NO   OCC          E(Eh)            E(eV)
   0   2.0000     -20.552361      -559.2582
   1   2.0000     -20.551525      -559.2354
   2   2.0000     -11.327615      -308.2401
   3   2.0000     -11.279280      -306.9248
   4   2.0000     -11.263142      -306.4857
   5   2.0000     -11.233091      -305.6679
   6   2.0000     -11.222455      -305.3785
   7   2.0000     -11.218038      -305.2583
   8   2.0000     -11.216775      -305.2240
   9   2.0000      -1.409111       -38.3439
  10   2.0000      -1.340762       -36.4840
  11   2.0000      -1.132458       -30.8158
  12   2.0000      -1.027740       -27.9662
  13   2.0000      -0.924688       -25.1620
  14   2.0000      -0.900167       -24.4948
  15   2.0000      -0.857146       -23.3241
  16   2.0000      -0.833374       -22.6773
  17   2.0000      -0.714006       -19.4291
  18   2.0000      -0.708107       -19.2686
  19   2.0000      -0.681677       -18.5494
  20   2.0000      -0.648568       -17.6484
  21   2.0000      -0.622710       -16.9448
  22   2.0000      -0.609898       -16.5962
  23   2.0000      -0.580752       -15.8031
  24   2.0000      -0.570371       -15.5206
  25   2.0000      -0.554458       -15.0876
  26   2.0000      -0.551581       -15.0093
  27   2.0000      -0.525984       -14.3127
  28   2.0000      -0.510882       -13.9018
  29   2.0000      -0.486937       -13.2502
  30   2.0000      -0.456877       -12.4322
  31   2.0000      -0.441379       -12.0105
  32   2.0000      -0.427337       -11.6284
  33   2.0000      -0.414673       -11.2838
  34   2.0000      -0.404624       -11.0104
  35   0.0000       0.139856         3.8057
  36   0.0000       0.159674         4.3449
  37   0.0000       0.165048         4.4912
  38   0.0000       0.177106         4.8193
  39   0.0000       0.192879         5.2485

MULLIKEN ATOMIC CHARGES
-----------------------
   0 C :   -0.228547
   1 O :   -0.313548
   2 C :    0.188803
   3 C :   -0.259191
   4 C :    0.006248
   5 C :   -0.308439
   6 C :    0.120639
   7 C :   -0.301967
   8 O :   -0.329632
   9 H :    0.136494
  10 H :    0.107464
  11 H :    0.135489
  12 H :    0.079224
  13 H :    0.118851
  14 H :    0.131549
  15 H :    0.113349
  16 H :    0.113618
  17 H :    0.115696
  18 H :    0.116605
  19 H :    0.119211
  20 H :    0.138085
Sum of atomic charges:    0.0000000

LOEWDIN ATOMIC CHARGES
----------------------
   0 C :   -0.355967
   1 O :    0.148569
   2 C :   -0.391573
   3 C :   -0.217444
   4 C :   -0.223805
   5 C :   -0.206859
   6 C :   -0.277652
   7 C :   -0.204106
   8 O :    0.191011
   9 H :    0.111804
  10 H :    0.102444
  11 H :    0.105875
  12 H :    0.128362
  13 H :    0.141375
  14 H :    0.148579
  15 H :    0.134924
  16 H :    0.127629
  17 H :    0.137302
  18 H :    0.128511
  19 H :    0.138327
  20 H :    0.132695

  Mayer bond orders larger than 0.1
B(  0-C ,  1-O ) :   0.8968 B(  0-C ,  9-H ) :   0.9388 B(  0-C , 10-H ) :   0.9337
B(  0-C , 11-H ) :   0.9368 B(  1-O ,  2-C ) :   0.9903 B(  2-C ,  3-C ) :   0.9389
B(  2-C ,  8-O ) :   0.9841 B(  2-C , 12-H ) :   0.9195 B(  3-C ,  4-C ) :   0.9172
B(  3-C , 13-H ) :   0.9274 B(  3-C , 14-H ) :   0.9232 B(  4-C ,  5-C ) :   0.9110
B(  4-C ,  7-C ) :   0.9246 B(  4-C , 15-H ) :   0.9286 B(  5-C ,  6-C ) :   0.9139
B(  5-C , 16-H ) :   0.9231 B(  5-C , 17-H ) :   0.9172 B(  6-C ,  7-C ) :   0.9146
B(  6-C ,  8-O ) :   0.8839 B(  6-C , 18-H ) :   0.9333 B(  7-C , 19-H ) :   0.9187
B(  7-C , 20-H ) :   0.9084

MP2 TOTAL ENERGY:     -423.508183041 Eh
FINAL SINGLE POINT ENERGY      -423.508183041282

DIPOLE MOMENT
-------------
                                X             Y             Z
Electronic contribution:     -0.43950       0.76201      -0.20218
Nuclear contribution   :      0.33544      -0.96370       0.17321
                        -----------------------------------------
Total Dipole Moment    :     -0.10406      -0.20170      -0.02898
                        -----------------------------------------
Magnitude (a.u.)       :      0.22880
Magnitude (Debye)      :      0.58156

                             ****ORCA TERMINATED NORMALLY****
TOTAL RUN TIME: 0 days 0 hours 30 minutes 32 seconds 92 msec
