                         Program Version 3.0.3 - RELEASE   -
|  1> ! RI-MP2 RIJK def2-TZVP def2-TZVP/C def2-TZVP/JK TIGHTSCF
|  2> % maxcore 2000
|  3> % mp2 density relaxed end
|  4> *xyz 0 1
|  5>  O        0.2698497207     1.1770641440    -0.6005974463
|  6>  N        0.0735966857    -0.2121731008    -0.5941355721
|  7>  C       -1.0184761756    -0.5557535935    -0.0067011549
|  8>  C       -1.2750777274    -2.0440687973     0.0423008516
|  9>  C       -1.4045387977    -2.5742519817     1.4528227980
| 10>  C       -2.3093308225    -2.1687055000     2.3390184078
| 11>  C       -3.3696149608    -1.1158337797     2.1236836356
| 12>  C       -3.0182924568     0.1316979240     1.3550936901
| 13>  C       -2.0118365172     0.3841472000     0.5078240981
| 14>  H        1.0792242337     1.2602493119    -1.1149824615
| 15>  H       -2.1979095351    -2.2575736764    -0.5157503397
| 16>  H       -0.4581850285    -2.5424359167    -0.4828552641
| 17>  H       -0.6976400471    -3.3463792948     1.7442976039
| 18>  H       -2.3232234946    -2.6416968091     3.3180792489
| 19>  H       -4.2526075985    -1.5795334413     1.6482647830
| 20>  H       -3.7426821799    -0.7930077200     3.1036888817
| 21>  H       -3.6976691202     0.9589525711     1.5553160399
| 22>  H       -1.9152164785     1.3923283703     0.1198472401
| 23> *
| 24>
| 25>                          ****END OF INPUT****

CARTESIAN COORDINATES (ANGSTROEM)
---------------------------------
  O      0.269850    1.177064   -0.600597
  N      0.073597   -0.212173   -0.594136
  C     -1.018476   -0.555754   -0.006701
  C     -1.275078   -2.044069    0.042301
  C     -1.404539   -2.574252    1.452823
  C     -2.309331   -2.168706    2.339018
  C     -3.369615   -1.115834    2.123684
  C     -3.018292    0.131698    1.355094
  C     -2.011837    0.384147    0.507824
  H      1.079224    1.260249   -1.114982
  H     -2.197910   -2.257574   -0.515750
  H     -0.458185   -2.542436   -0.482855
  H     -0.697640   -3.346379    1.744298
  H     -2.323223   -2.641697    3.318079
  H     -4.252608   -1.579533    1.648265
  H     -3.742682   -0.793008    3.103689
  H     -3.697669    0.958953    1.555316
  H     -1.915216    1.392328    0.119847

 Total Charge           Charge          ....    0
 Multiplicity           Mult            ....    1
 Number of Electrons    NEL             ....   66
 Basis Dimension        Dim             ....  333

ORBITAL ENERGIES
----------------

  NO   OCC          E(Eh)            E(eV)
   0   2.0000     -20.585023      -560.1469
   1   2.0000     -15.609322      -424.7513
   2   2.0000     -11.277584      -306.8787
   3   2.0000     -11.252402      -306.1934
   4   2.0000     -11.246120      -306.0225
   5   2.0000     -11.236873      -305.7709
   6   2.0000     -11.234590      -305.7087
   7   2.0000     -11.232809      -305.6603
   8   2.0000     -11.232023      -305.6389
   9   2.0000      -1.412789       -38.4439
  10   2.0000      -1.172915       -31.9166
  11   2.0000      -1.104311       -30.0498
  12   2.0000      -1.051062       -28.6008
  13   2.0000      -0.993928       -27.0462
  14   2.0000      -0.915130       -24.9020
  15   2.0000      -0.834857       -22.7176
  16   2.0000      -0.736857       -20.0509
  17   2.0000      -0.717755       -19.5311
  18   2.0000      -0.691160       -18.8074
  19   2.0000      -0.667223       -18.1561
  20   2.0000      -0.633171       -17.2295
  21   2.0000      -0.625072       -17.0091
  22   2.0000      -0.598376       -16.2826
  23   2.0000      -0.582782       -15.8583
  24   2.0000      -0.564671       -15.3655
  25   2.0000      -0.548255       -14.9188
  26   2.0000      -0.539584       -14.6828
  27   2.0000      -0.499168       -13.5831
  28   2.0000      -0.486375       -13.2349
  29   2.0000      -0.431886       -11.7522
  30   2.0000      -0.417967       -11.3735
  31   2.0000      -0.358321        -9.7504
  32   2.0000      -0.336514        -9.1570
  33   0.0000       0.106449         2.8966
  34   0.0000       0.131197         3.5700
  35   0.0000       0.143906         3.9159
  36   0.0000       0.160091         4.3563
  37   0.0000       0.166291         4.5250

MULLIKEN ATOMIC CHARGES
-----------------------
   0 O :   -0.372326
   1 N :   -0.093024
   2 C :    0.119640
   3 C :   -0.165387
   4 C :   -0.171146
   5 C :   -0.188426
   6 C :   -0.133265
   7 C :   -0.137955
   8 C :   -0.252655
   9 H :    0.336338
  10 H :    0.128349
  11 H :    0.137339
  12 H :    0.129565
  13 H :    0.125795
  14 H :    0.137469
  15 H :    0.133634
  16 H :    0.126444
  17 H :    0.139611
Sum of atomic charges:   -0.0000000

LOEWDIN ATOMIC CHARGES
----------------------
   0 O :   -0.075128
   1 N :    0.026715
   2 C :   -0.271610
   3 C :   -0.207464
   4 C :   -0.164175
   5 C :   -0.170413
   6 C :   -0.243250
   7 C :   -0.141505
   8 C :   -0.146262
   9 H :    0.169670
  10 H :    0.156265
  11 H :    0.152374
  12 H :    0.145748
  13 H :    0.145449
  14 H :    0.161938
  15 H :    0.154450
  16 H :    0.149005
  17 H :    0.158192

  Mayer bond orders larger than 0.1
B(  0-O ,  1-N ) :   0.8127 B(  0-O ,  9-H ) :   0.8450 B(  1-N ,  2-C ) :   1.8211
B(  2-C ,  3-C ) :   0.9080 B(  2-C ,  8-C ) :   1.0273 B(  3-C ,  4-C ) :   0.9193
B(  3-C , 10-H ) :   0.9128 B(  3-C , 11-H ) :   0.9253 B(  4-C ,  5-C ) :   1.8103
B(  4-C , 12-H ) :   0.9249 B(  5-C ,  6-C ) :   0.9449 B(  5-C , 13-H ) :   0.9236
B(  6-C ,  7-C ) :   0.9399 B(  6-C , 14-H ) :   0.8873 B(  6-C , 15-H ) :   0.9283
B(  7-C ,  8-C ) :   1.7290 B(  7-C , 16-H ) :   0.9230 B(  8-C , 17-H ) :   0.9139

MP2 TOTAL ENERGY:     -401.209256567 Eh
FINAL SINGLE POINT ENERGY      -401.209256567049

DIPOLE MOMENT
-------------
                                X             Y             Z
Electronic contribution:      3.88656       2.68718      -2.75512
Nuclear contribution   :     -4.28973      -2.81451       2.91671
                        -----------------------------------------
Total Dipole Moment    :     -0.40318      -0.12733       0.16159
                        -----------------------------------------
Magnitude (a.u.)       :      0.45263
Magnitude (Debye)      :      1.15050

                             ****ORCA TERMINATED NORMALLY****
TOTAL RUN TIME: 0 days 0 hours 17 minutes 49 seconds 303 msec
