                         Program Version 3.0.3 - RELEASE   -
|  1> ! RI-MP2 RIJK def2-TZVP def2-TZVP/C def2-TZVP/JK TIGHTSCF
|  2> % maxcore 2000
|  3> % mp2 density relaxed end
|  4> *xyz 0 1
|  5>  C       -0.0427245046     1.5593407823    -0.3113406507
|  6>  C        1.5274091355     1.5855400687    -0.3261737039
|  7>  C        1.5200895746     0.1393982697     0.2091864614
|  8>  C        2.0471188197    -0.4966176428     1.4743674043
|  9>  C        0.8120404346    -1.2964445231     2.0001918919
| 10>  C       -0.4587273274    -0.5385140271     1.4978930707
| 11>  C        0.0229239737     0.1143837617     0.2232564247
| 12>  N        0.7781039154    -0.7658417458    -0.6694388854
| 13>  H       -0.4590277504     2.2645888544     0.4122130008
| 14>  H       -0.5633139845     1.6983402532    -1.2650703277
| 15>  H        2.0249813816     1.7415097037    -1.2895200384
| 16>  H        1.9335327546     2.3045228312     0.3896035191
| 17>  H        2.9198773623    -1.1429479172     1.3369828690
| 18>  H        2.3296450856     0.2933056107     2.1809760542
| 19>  H        0.8247082459    -2.2982063258     1.5660218635
| 20>  H        0.8241202875    -1.4083113230     3.0880594099
| 21>  H       -1.3118323367    -1.2136848237     1.3767146144
| 22>  H       -0.7541694315     0.2417450673     2.2099352697
| 23>  H        0.7635822242    -0.4383598544    -1.6320859176
| 24> *
| 25>
| 26>                          ****END OF INPUT****

CARTESIAN COORDINATES (ANGSTROEM)
---------------------------------
  C     -0.042725    1.559341   -0.311341
  C      1.527409    1.585540   -0.326174
  C      1.520090    0.139398    0.209186
  C      2.047119   -0.496618    1.474367
  C      0.812040   -1.296445    2.000192
  C     -0.458727   -0.538514    1.497893
  C      0.022924    0.114384    0.223256
  N      0.778104   -0.765842   -0.669439
  H     -0.459028    2.264589    0.412213
  H     -0.563314    1.698340   -1.265070
  H      2.024981    1.741510   -1.289520
  H      1.933533    2.304523    0.389604
  H      2.919877   -1.142948    1.336983
  H      2.329645    0.293306    2.180976
  H      0.824708   -2.298206    1.566022
  H      0.824120   -1.408311    3.088059
  H     -1.311832   -1.213685    1.376715
  H     -0.754169    0.241745    2.209935
  H      0.763582   -0.438360   -1.632086

 Total Charge           Charge          ....    0
 Multiplicity           Mult            ....    1
 Number of Electrons    NEL             ....   60
 Basis Dimension        Dim             ....  314

ORBITAL ENERGIES
----------------

  NO   OCC          E(Eh)            E(eV)
   0   2.0000     -15.553090      -423.2211
   1   2.0000     -11.244834      -305.9875
   2   2.0000     -11.244088      -305.9672
   3   2.0000     -11.234416      -305.7040
   4   2.0000     -11.233905      -305.6901
   5   2.0000     -11.221306      -305.3473
   6   2.0000     -11.221294      -305.3469
   7   2.0000     -11.215613      -305.1923
   8   2.0000      -1.288084       -35.0506
   9   2.0000      -1.058867       -28.8132
  10   2.0000      -1.041308       -28.3354
  11   2.0000      -0.967240       -26.3199
  12   2.0000      -0.862662       -23.4742
  13   2.0000      -0.858430       -23.3591
  14   2.0000      -0.779247       -21.2044
  15   2.0000      -0.685453       -18.6521
  16   2.0000      -0.681883       -18.5550
  17   2.0000      -0.634778       -17.2732
  18   2.0000      -0.607295       -16.5254
  19   2.0000      -0.587922       -15.9982
  20   2.0000      -0.572869       -15.5886
  21   2.0000      -0.545582       -14.8460
  22   2.0000      -0.517065       -14.0701
  23   2.0000      -0.479579       -13.0500
  24   2.0000      -0.473263       -12.8781
  25   2.0000      -0.468481       -12.7480
  26   2.0000      -0.460692       -12.5361
  27   2.0000      -0.436139       -11.8679
  28   2.0000      -0.419017       -11.4020
  29   2.0000      -0.342750        -9.3267
  30   0.0000       0.133223         3.6252
  31   0.0000       0.160445         4.3659
  32   0.0000       0.161001         4.3811
  33   0.0000       0.173550         4.7225
  34   0.0000       0.192809         5.2466

MULLIKEN ATOMIC CHARGES
-----------------------
   0 C :   -0.231291
   1 C :   -0.231284
   2 C :    0.098339
   3 C :   -0.277384
   4 C :   -0.188303
   5 C :   -0.277397
   6 C :    0.098376
   7 N :   -0.365890
   8 H :    0.113216
   9 H :    0.121385
  10 H :    0.121394
  11 H :    0.113207
  12 H :    0.118457
  13 H :    0.108238
  14 H :    0.120871
  15 H :    0.117720
  16 H :    0.118459
  17 H :    0.108235
  18 H :    0.213652
Sum of atomic charges:   -0.0000000

LOEWDIN ATOMIC CHARGES
----------------------
   0 C :   -0.206426
   1 C :   -0.206427
   2 C :   -0.248434
   3 C :   -0.220477
   4 C :   -0.234913
   5 C :   -0.220480
   6 C :   -0.248431
   7 N :    0.069534
   8 H :    0.135861
   9 H :    0.125321
  10 H :    0.125324
  11 H :    0.135860
  12 H :    0.137021
  13 H :    0.140478
  14 H :    0.139459
  15 H :    0.129247
  16 H :    0.137021
  17 H :    0.140478
  18 H :    0.169985

  Mayer bond orders larger than 0.1
B(  0-C ,  1-C ) :   0.9840 B(  0-C ,  6-C ) :   0.9356 B(  0-C ,  8-H ) :   0.9078
B(  0-C ,  9-H ) :   0.9239 B(  1-C ,  2-C ) :   0.9356 B(  1-C , 10-H ) :   0.9239
B(  1-C , 11-H ) :   0.9078 B(  2-C ,  3-C ) :   0.9641 B(  2-C ,  6-C ) :   0.7483
B(  2-C ,  7-N ) :   0.9713 B(  3-C ,  4-C ) :   0.9494 B(  3-C , 12-H ) :   0.9165
B(  3-C , 13-H ) :   0.9301 B(  4-C ,  5-C ) :   0.9494 B(  4-C , 14-H ) :   0.9218
B(  4-C , 15-H ) :   0.9271 B(  5-C ,  6-C ) :   0.9641 B(  5-C , 16-H ) :   0.9165
B(  5-C , 17-H ) :   0.9301 B(  6-C ,  7-N ) :   0.9713 B(  7-N , 18-H ) :   0.8650

MP2 TOTAL ENERGY:     -327.304995116 Eh
FINAL SINGLE POINT ENERGY      -327.304995115823

DIPOLE MOMENT
-------------
                                X             Y             Z
Electronic contribution:     -0.00756      -0.90340      -2.41245
Nuclear contribution   :     -0.00166       1.51965       2.52525
                        -----------------------------------------
Total Dipole Moment    :     -0.00922       0.61625       0.11279
                        -----------------------------------------
Magnitude (a.u.)       :      0.62655
Magnitude (Debye)      :      1.59257

                             ****ORCA TERMINATED NORMALLY****
TOTAL RUN TIME: 0 days 0 hours 14 minutes 24 seconds 754 msec
