                         Program Version 3.0.3 - RELEASE   -
|  1> ! RI-MP2 RIJK def2-TZVP def2-TZVP/C def2-TZVP/JK TIGHTSCF
|  2> % maxcore 2000
|  3> % mp2 density relaxed end
|  4> *xyz 0 1
|  5>  N       -0.0661440583     1.2747808193    -0.2500759410
|  6>  C       -0.0247743877    -0.0876289829    -0.0735594753
|  7>  N       -1.0794425125    -0.8911580768    -0.1897610037
|  8>  N       -0.5084392790    -2.0869881313     0.0106365767
|  9>  C       -1.2457809468    -3.3328197040    -0.0518801260
| 10>  C       -1.6932587183    -3.6549819141    -1.4780110061
| 11>  O       -2.4080902768    -4.8732034866    -1.3943761962
| 12>  N        0.7903751559    -2.0314865243     0.2303239177
| 13>  N        1.1246587683    -0.7629380443     0.1862196143
| 14>  H        0.7039004886     1.7572971922     0.1890901841
| 15>  H       -0.9631095281     1.6939965667    -0.0562991400
| 16>  H       -0.5806938265    -4.1108511755     0.3246128679
| 17>  H       -2.1192081021    -3.2603113620     0.6009569877
| 18>  H       -2.3155837798    -2.8317999312    -1.8558105480
| 19>  H       -0.8072061668    -3.7369555937    -2.1254837024
| 20>  H       -2.7272557100    -5.0991867413    -2.2724781097
| 21> *
| 22>
| 23>                          ****END OF INPUT****

CARTESIAN COORDINATES (ANGSTROEM)
---------------------------------
  N     -0.066144    1.274781   -0.250076
  C     -0.024774   -0.087629   -0.073559
  N     -1.079443   -0.891158   -0.189761
  N     -0.508439   -2.086988    0.010637
  C     -1.245781   -3.332820   -0.051880
  C     -1.693259   -3.654982   -1.478011
  O     -2.408090   -4.873203   -1.394376
  N      0.790375   -2.031487    0.230324
  N      1.124659   -0.762938    0.186220
  H      0.703900    1.757297    0.189090
  H     -0.963110    1.693997   -0.056299
  H     -0.580694   -4.110851    0.324613
  H     -2.119208   -3.260311    0.600957
  H     -2.315584   -2.831800   -1.855811
  H     -0.807206   -3.736956   -2.125484
  H     -2.727256   -5.099187   -2.272478

 Total Charge           Charge          ....    0
 Multiplicity           Mult            ....    1
 Number of Electrons    NEL             ....   68
 Basis Dimension        Dim             ....  321

ORBITAL ENERGIES
----------------

  NO   OCC          E(Eh)            E(eV)
   0   2.0000     -20.574261      -559.8541
   1   2.0000     -15.693767      -427.0491
   2   2.0000     -15.665160      -426.2707
   3   2.0000     -15.600874      -424.5214
   4   2.0000     -15.592124      -424.2833
   5   2.0000     -15.580598      -423.9696
   6   2.0000     -11.333429      -308.3983
   7   2.0000     -11.295728      -307.3724
   8   2.0000     -11.288883      -307.1861
   9   2.0000      -1.492459       -40.6119
  10   2.0000      -1.380216       -37.5576
  11   2.0000      -1.260309       -34.2947
  12   2.0000      -1.250343       -34.0236
  13   2.0000      -1.149710       -31.2852
  14   2.0000      -1.038467       -28.2581
  15   2.0000      -0.911104       -24.7924
  16   2.0000      -0.854659       -23.2565
  17   2.0000      -0.835310       -22.7299
  18   2.0000      -0.746904       -20.3243
  19   2.0000      -0.702979       -19.1290
  20   2.0000      -0.692580       -18.8461
  21   2.0000      -0.681685       -18.5496
  22   2.0000      -0.669248       -18.2112
  23   2.0000      -0.634044       -17.2532
  24   2.0000      -0.598217       -16.2783
  25   2.0000      -0.568814       -15.4782
  26   2.0000      -0.554852       -15.0983
  27   2.0000      -0.530085       -14.4243
  28   2.0000      -0.498572       -13.5668
  29   2.0000      -0.488436       -13.2910
  30   2.0000      -0.465278       -12.6609
  31   2.0000      -0.461607       -12.5610
  32   2.0000      -0.429466       -11.6864
  33   2.0000      -0.348938        -9.4951
  34   0.0000       0.122925         3.3450
  35   0.0000       0.128822         3.5054
  36   0.0000       0.136422         3.7122
  37   0.0000       0.166778         4.5383
  38   0.0000       0.187887         5.1127

MULLIKEN ATOMIC CHARGES
-----------------------
   0 N :   -0.522116
   1 C :    0.234710
   2 N :   -0.291836
   3 N :    0.219262
   4 C :   -0.122102
   5 C :   -0.092919
   6 O :   -0.465884
   7 N :   -0.171842
   8 N :   -0.190590
   9 H :    0.268998
  10 H :    0.263502
  11 H :    0.163103
  12 H :    0.143738
  13 H :    0.124216
  14 H :    0.113484
  15 H :    0.326274
Sum of atomic charges:   -0.0000000

LOEWDIN ATOMIC CHARGES
----------------------
   0 N :   -0.063013
   1 C :   -0.487921
   2 N :    0.038862
   3 N :    0.115627
   4 C :   -0.245020
   5 C :   -0.347506
   6 O :   -0.040902
   7 N :   -0.041170
   8 N :   -0.002671
   9 H :    0.179005
  10 H :    0.175341
  11 H :    0.152088
  12 H :    0.146861
  13 H :    0.121332
  14 H :    0.120679
  15 H :    0.178407

  Mayer bond orders larger than 0.1
B(  0-N ,  1-C ) :   1.0992 B(  0-N ,  9-H ) :   0.8657 B(  0-N , 10-H ) :   0.8692
B(  1-C ,  2-N ) :   1.4343 B(  1-C ,  8-N ) :   1.3916 B(  2-N ,  3-N ) :   1.0545
B(  2-N ,  7-N ) :   0.1074 B(  3-N ,  4-C ) :   0.8538 B(  3-N ,  7-N ) :   1.1044
B(  4-C ,  5-C ) :   0.9253 B(  4-C , 11-H ) :   0.9122 B(  4-C , 12-H ) :   0.9171
B(  5-C ,  6-O ) :   1.0135 B(  5-C , 13-H ) :   0.9296 B(  5-C , 14-H ) :   0.9253
B(  6-O , 15-H ) :   0.8434 B(  7-N ,  8-N ) :   1.2097

MP2 TOTAL ENERGY:     -466.629799162 Eh
FINAL SINGLE POINT ENERGY      -466.629799161946

DIPOLE MOMENT
-------------
                                X             Y             Z
Electronic contribution:      3.19444       2.59928       2.08478
Nuclear contribution   :     -4.23699      -2.35072      -2.48999
                        -----------------------------------------
Total Dipole Moment    :     -1.04256       0.24856      -0.40521
                        -----------------------------------------
Magnitude (a.u.)       :      1.14582
Magnitude (Debye)      :      2.91244

                             ****ORCA TERMINATED NORMALLY****
TOTAL RUN TIME: 0 days 0 hours 14 minutes 31 seconds 559 msec
