                         Program Version 3.0.3 - RELEASE   -
|  1> ! RI-MP2 RIJK def2-TZVP def2-TZVP/C def2-TZVP/JK TIGHTSCF
|  2> % maxcore 2000
|  3> % mp2 density relaxed end
|  4> *xyz 0 1
|  5>  C       -0.1437049423     1.5561290045    -0.0460893955
|  6>  C       -0.0161739037     0.0394920987    -0.0278048043
|  7>  O       -1.2381038584    -0.6081675053    -0.2800478773
|  8>  C        1.2308854374    -0.5003192772    -0.7802925113
|  9>  O        1.9109828909    -0.7660256028     0.4642859458
| 10>  C        0.7133610291    -0.5724264038     1.2160186730
| 11>  C        0.8577368175     0.2860232073     2.4457135353
| 12>  O        1.8492582365     0.8924698636     2.7546110595
| 13>  H        0.7997142262     2.0297897303     0.2372475778
| 14>  H       -0.4017949375     1.8987319806    -1.0558333404
| 15>  H       -0.9246006809     1.8931775279     0.6427390340
| 16>  H       -1.7513627448    -0.0727268925    -0.8939540184
| 17>  H        1.0152609675    -1.4190908846    -1.3395217581
| 18>  H        1.7874613139     0.2045349947    -1.4078483160
| 19>  H        0.2307486662    -1.5219607488     1.4978048296
| 20>  H       -0.0728335478     0.3270482176     3.0601007166
| 21> *
| 22>
| 23>                          ****END OF INPUT****

CARTESIAN COORDINATES (ANGSTROEM)
---------------------------------
  C     -0.143705    1.556129   -0.046089
  C     -0.016174    0.039492   -0.027805
  O     -1.238104   -0.608168   -0.280048
  C      1.230885   -0.500319   -0.780293
  O      1.910983   -0.766026    0.464286
  C      0.713361   -0.572426    1.216019
  C      0.857737    0.286023    2.445714
  O      1.849258    0.892470    2.754611
  H      0.799714    2.029790    0.237248
  H     -0.401795    1.898732   -1.055833
  H     -0.924601    1.893178    0.642739
  H     -1.751363   -0.072727   -0.893954
  H      1.015261   -1.419091   -1.339522
  H      1.787461    0.204535   -1.407848
  H      0.230749   -1.521961    1.497805
  H     -0.072834    0.327048    3.060101

 Total Charge           Charge          ....    0
 Multiplicity           Mult            ....    1
 Number of Electrons    NEL             ....   62
 Basis Dimension        Dim             ....  296

ORBITAL ENERGIES
----------------

  NO   OCC          E(Eh)            E(eV)
   0   2.0000     -20.583255      -560.0988
   1   2.0000     -20.564647      -559.5925
   2   2.0000     -20.563066      -559.5495
   3   2.0000     -11.335712      -308.4604
   4   2.0000     -11.318020      -307.9790
   5   2.0000     -11.300520      -307.5028
   6   2.0000     -11.288089      -307.1645
   7   2.0000     -11.243417      -305.9489
   8   2.0000      -1.417305       -38.5668
   9   2.0000      -1.397605       -38.0308
  10   2.0000      -1.378264       -37.5045
  11   2.0000      -1.058934       -28.8151
  12   2.0000      -0.994349       -27.0576
  13   2.0000      -0.940887       -25.6028
  14   2.0000      -0.842406       -22.9230
  15   2.0000      -0.753067       -20.4920
  16   2.0000      -0.727581       -19.7985
  17   2.0000      -0.694962       -18.9109
  18   2.0000      -0.671194       -18.2641
  19   2.0000      -0.666174       -18.1275
  20   2.0000      -0.630877       -17.1670
  21   2.0000      -0.606158       -16.4944
  22   2.0000      -0.585353       -15.9283
  23   2.0000      -0.579070       -15.7573
  24   2.0000      -0.549150       -14.9431
  25   2.0000      -0.535004       -14.5582
  26   2.0000      -0.525524       -14.3002
  27   2.0000      -0.481772       -13.1097
  28   2.0000      -0.459118       -12.4932
  29   2.0000      -0.434436       -11.8216
  30   2.0000      -0.411262       -11.1910
  31   0.0000       0.113520         3.0890
  32   0.0000       0.125183         3.4064
  33   0.0000       0.156900         4.2695
  34   0.0000       0.169889         4.6229
  35   0.0000       0.178937         4.8691

MULLIKEN ATOMIC CHARGES
-----------------------
   0 C :   -0.478634
   1 C :    0.193393
   2 O :   -0.451890
   3 C :   -0.042894
   4 O :   -0.307036
   5 C :    0.095657
   6 C :    0.059750
   7 O :   -0.244565
   8 H :    0.171506
   9 H :    0.140287
  10 H :    0.149145
  11 H :    0.324348
  12 H :    0.096085
  13 H :    0.107437
  14 H :    0.102564
  15 H :    0.084847
Sum of atomic charges:    0.0000000

LOEWDIN ATOMIC CHARGES
----------------------
   0 C :   -0.280282
   1 C :   -0.372963
   2 O :    0.019009
   3 C :   -0.230649
   4 O :    0.163362
   5 C :   -0.260441
   6 C :   -0.283991
   7 O :    0.150614
   8 H :    0.143369
   9 H :    0.128869
  10 H :    0.130879
  11 H :    0.180871
  12 H :    0.122906
  13 H :    0.120685
  14 H :    0.153021
  15 H :    0.114742

  Mayer bond orders larger than 0.1
B(  0-C ,  1-C ) :   0.9175 B(  0-C ,  8-H ) :   0.9247 B(  0-C ,  9-H ) :   0.9188
B(  0-C , 10-H ) :   0.9326 B(  1-C ,  2-O ) :   1.0471 B(  1-C ,  3-C ) :   0.9442
B(  1-C ,  5-C ) :   0.8921 B(  2-O , 11-H ) :   0.8355 B(  3-C ,  4-O ) :   0.9387
B(  3-C , 12-H ) :   0.8994 B(  3-C , 13-H ) :   0.9103 B(  4-O ,  5-C ) :   0.9868
B(  5-C ,  6-C ) :   0.8400 B(  5-C , 14-H ) :   0.8939 B(  6-C ,  7-O ) :   2.0172
B(  6-C , 15-H ) :   0.9395

MP2 TOTAL ENERGY:     -420.193728679 Eh
FINAL SINGLE POINT ENERGY      -420.193728678596

DIPOLE MOMENT
-------------
                                X             Y             Z
Electronic contribution:      2.77665      -2.45686       3.61565
Nuclear contribution   :     -4.05402       2.77645      -4.55981
                        -----------------------------------------
Total Dipole Moment    :     -1.27738       0.31959      -0.94416
                        -----------------------------------------
Magnitude (a.u.)       :      1.62027
Magnitude (Debye)      :      4.11839

                             ****ORCA TERMINATED NORMALLY****
TOTAL RUN TIME: 0 days 0 hours 11 minutes 9 seconds 316 msec
