                         Program Version 3.0.3 - RELEASE   -
|  1> ! RI-MP2 RIJK def2-TZVP def2-TZVP/C def2-TZVP/JK TIGHTSCF
|  2> % maxcore 2000
|  3> % mp2 density relaxed end
|  4> *xyz 0 1
|  5>  C        0.0054732855     1.5443054048     0.0858902678
|  6>  C        0.0018722573     0.0436233864     0.0562725204
|  7>  C       -1.2417067052    -0.8415342014    -0.0471576966
|  8>  C       -0.4343731290    -2.0167109513     0.6253948663
|  9>  C        0.6460726333    -0.9704953935     1.0080590371
| 10>  C        1.2363601267    -0.7729970741    -0.3509295231
| 11>  N        1.1055340651    -1.9987210216    -1.0904996008
| 12>  C        0.1465438105    -2.8256475286    -0.5376311561
| 13>  O       -0.2143533936    -3.8982510895    -0.9652691452
| 14>  H        1.0020236830     1.9361477152     0.3167083286
| 15>  H       -0.2967279088     1.9590783623    -0.8832236814
| 16>  H       -0.6864778598     1.9309049113     0.8428594318
| 17>  H       -2.0223057321    -0.4865402771     0.6302224853
| 18>  H       -1.6784831454    -1.0261833053    -1.0350735237
| 19>  H       -0.9408896255    -2.6111852168     1.3799174220
| 20>  H        1.1643754669    -0.8538624998     1.9514179651
| 21>  H        2.1715540660    -0.2373146242    -0.4614229797
| 22>  H        1.3849430151    -2.1096695568    -2.0518499378
| 23> *
| 24>
| 25>                          ****END OF INPUT****

CARTESIAN COORDINATES (ANGSTROEM)
---------------------------------
  C      0.005473    1.544305    0.085890
  C      0.001872    0.043623    0.056273
  C     -1.241707   -0.841534   -0.047158
  C     -0.434373   -2.016711    0.625395
  C      0.646073   -0.970495    1.008059
  C      1.236360   -0.772997   -0.350930
  N      1.105534   -1.998721   -1.090500
  C      0.146544   -2.825648   -0.537631
  O     -0.214353   -3.898251   -0.965269
  H      1.002024    1.936148    0.316708
  H     -0.296728    1.959078   -0.883224
  H     -0.686478    1.930905    0.842859
  H     -2.022306   -0.486540    0.630222
  H     -1.678483   -1.026183   -1.035074
  H     -0.940890   -2.611185    1.379917
  H      1.164375   -0.853862    1.951418
  H      2.171554   -0.237315   -0.461423
  H      1.384943   -2.109670   -2.051850

 Total Charge           Charge          ....    0
 Multiplicity           Mult            ....    1
 Number of Electrons    NEL             ....   66
 Basis Dimension        Dim             ....  333

ORBITAL ENERGIES
----------------

  NO   OCC          E(Eh)            E(eV)
   0   2.0000     -20.515340      -558.2508
   1   2.0000     -15.578106      -423.9018
   2   2.0000     -11.342129      -308.6350
   3   2.0000     -11.281053      -306.9731
   4   2.0000     -11.255110      -306.2671
   5   2.0000     -11.250771      -306.1491
   6   2.0000     -11.245502      -306.0057
   7   2.0000     -11.244367      -305.9748
   8   2.0000     -11.232881      -305.6622
   9   2.0000      -1.378774       -37.5184
  10   2.0000      -1.276701       -34.7408
  11   2.0000      -1.160038       -31.5662
  12   2.0000      -1.023168       -27.8418
  13   2.0000      -0.982046       -26.7228
  14   2.0000      -0.907173       -24.6854
  15   2.0000      -0.818690       -22.2777
  16   2.0000      -0.797401       -21.6984
  17   2.0000      -0.732465       -19.9314
  18   2.0000      -0.706730       -19.2311
  19   2.0000      -0.647523       -17.6200
  20   2.0000      -0.633526       -17.2391
  21   2.0000      -0.620547       -16.8859
  22   2.0000      -0.588768       -16.0212
  23   2.0000      -0.578198       -15.7336
  24   2.0000      -0.571070       -15.5396
  25   2.0000      -0.558032       -15.1848
  26   2.0000      -0.541326       -14.7302
  27   2.0000      -0.494316       -13.4510
  28   2.0000      -0.480539       -13.0761
  29   2.0000      -0.458788       -12.4842
  30   2.0000      -0.419850       -11.4247
  31   2.0000      -0.386378       -10.5139
  32   2.0000      -0.358629        -9.7588
  33   0.0000       0.127472         3.4687
  34   0.0000       0.148436         4.0391
  35   0.0000       0.157020         4.2727
  36   0.0000       0.163610         4.4521
  37   0.0000       0.178050         4.8450

MULLIKEN ATOMIC CHARGES
-----------------------
   0 C :   -0.415327
   1 C :    0.035766
   2 C :   -0.224873
   3 C :    0.005613
   4 C :   -0.179291
   5 C :   -0.056540
   6 N :   -0.312136
   7 C :    0.144643
   8 O :   -0.330379
   9 H :    0.130370
  10 H :    0.139954
  11 H :    0.135064
  12 H :    0.125561
  13 H :    0.124810
  14 H :    0.145113
  15 H :    0.148776
  16 H :    0.140839
  17 H :    0.242037
Sum of atomic charges:    0.0000000

LOEWDIN ATOMIC CHARGES
----------------------
   0 C :   -0.274744
   1 C :   -0.207982
   2 C :   -0.154790
   3 C :   -0.138741
   4 C :   -0.113921
   5 C :   -0.204313
   6 N :    0.137325
   7 C :   -0.419885
   8 O :    0.090011
   9 H :    0.130707
  10 H :    0.131288
  11 H :    0.128587
  12 H :    0.144617
  13 H :    0.132205
  14 H :    0.147813
  15 H :    0.137409
  16 H :    0.150055
  17 H :    0.184359

  Mayer bond orders larger than 0.1
B(  0-C ,  1-C ) :   0.8923 B(  0-C ,  9-H ) :   0.9328 B(  0-C , 10-H ) :   0.9372
B(  0-C , 11-H ) :   0.9410 B(  1-C ,  2-C ) :   0.9485 B(  1-C ,  4-C ) :   0.7985
B(  1-C ,  5-C ) :   0.8518 B(  2-C ,  3-C ) :   0.8805 B(  2-C , 12-H ) :   0.9201
B(  2-C , 13-H ) :   0.9188 B(  3-C ,  4-C ) :   0.8899 B(  3-C ,  6-N ) :  -0.1040
B(  3-C ,  7-C ) :   0.8842 B(  3-C , 14-H ) :   0.9255 B(  4-C ,  5-C ) :   0.9000
B(  4-C , 15-H ) :   0.8946 B(  5-C ,  6-N ) :   0.9428 B(  5-C , 16-H ) :   0.9267
B(  6-N ,  7-C ) :   1.1707 B(  6-N , 17-H ) :   0.8639 B(  7-C ,  8-O ) :   2.0125

MP2 TOTAL ENERGY:     -401.268887618 Eh
FINAL SINGLE POINT ENERGY      -401.268887617863

DIPOLE MOMENT
-------------
                                X             Y             Z
Electronic contribution:      1.41061      -8.05855      -1.71943
Nuclear contribution   :     -1.03782       9.65975       1.99668
                        -----------------------------------------
Total Dipole Moment    :      0.37279       1.60121       0.27725
                        -----------------------------------------
Magnitude (a.u.)       :      1.66724
Magnitude (Debye)      :      4.23780

                             ****ORCA TERMINATED NORMALLY****
TOTAL RUN TIME: 0 days 0 hours 17 minutes 38 seconds 937 msec
