                         Program Version 3.0.3 - RELEASE   -
|  1> ! RI-MP2 RIJK def2-TZVP def2-TZVP/C def2-TZVP/JK TIGHTSCF
|  2> % maxcore 2000
|  3> % mp2 density relaxed end
|  4> *xyz 0 1
|  5>  C       -0.2603349219     1.4849678846     0.3659425486
|  6>  C       -0.0248797497     0.0048740630     0.1735094581
|  7>  C        1.2542741484    -0.5466437947    -0.3459586443
|  8>  C        0.8945655045    -0.8065993200     1.1207230647
|  9>  C        1.6890719607    -0.0981234177     2.2041005426
| 10>  C        0.3755414215    -2.1805583615     1.3587703654
| 11>  O       -0.1443106957    -2.8610979789     0.4926210843
| 12>  C        0.4093054510    -2.8428425945     2.7487451274
| 13>  O        0.6917183519    -2.3140202991     3.7902850745
| 14>  H        0.6573384291     2.0249125295     0.6110175900
| 15>  H       -0.6580569945     1.9187200356    -0.5581525214
| 16>  H       -0.9881669739     1.6755392553     1.1615403751
| 17>  H       -0.9058827281    -0.5584162468    -0.1208737336
| 18>  H        1.2108903314    -1.4021369001    -1.0100096670
| 19>  H        2.0812739818     0.1369043702    -0.5099643142
| 20>  H        2.1022583242     0.8369929956     1.8192860545
| 21>  H        1.0821192344     0.1289354546     3.0825090819
| 22>  H        2.5300936598    -0.7106604408     2.5411481704
| 23>  H        0.0827403050    -3.9023147143     2.6731745330
| 24> *
| 25>
| 26>                          ****END OF INPUT****

CARTESIAN COORDINATES (ANGSTROEM)
---------------------------------
  C     -0.260335    1.484968    0.365943
  C     -0.024880    0.004874    0.173509
  C      1.254274   -0.546644   -0.345959
  C      0.894566   -0.806599    1.120723
  C      1.689072   -0.098123    2.204101
  C      0.375541   -2.180558    1.358770
  O     -0.144311   -2.861098    0.492621
  C      0.409305   -2.842843    2.748745
  O      0.691718   -2.314020    3.790285
  H      0.657338    2.024913    0.611018
  H     -0.658057    1.918720   -0.558153
  H     -0.988167    1.675539    1.161540
  H     -0.905883   -0.558416   -0.120874
  H      1.210890   -1.402137   -1.010010
  H      2.081274    0.136904   -0.509964
  H      2.102258    0.836993    1.819286
  H      1.082119    0.128935    3.082509
  H      2.530094   -0.710660    2.541148
  H      0.082740   -3.902315    2.673175

 Total Charge           Charge          ....    0
 Multiplicity           Mult            ....    1
 Number of Electrons    NEL             ....   68
 Basis Dimension        Dim             ....  339

ORBITAL ENERGIES
----------------

  NO   OCC          E(Eh)            E(eV)
   0   2.0000     -20.589026      -560.2559
   1   2.0000     -20.569795      -559.7326
   2   2.0000     -11.351995      -308.9035
   3   2.0000     -11.350045      -308.8504
   4   2.0000     -11.258759      -306.3664
   5   2.0000     -11.253089      -306.2121
   6   2.0000     -11.240749      -305.8763
   7   2.0000     -11.229989      -305.5835
   8   2.0000     -11.226487      -305.4882
   9   2.0000      -1.428472       -38.8707
  10   2.0000      -1.406366       -38.2692
  11   2.0000      -1.173148       -31.9230
  12   2.0000      -1.008377       -27.4393
  13   2.0000      -0.963476       -26.2175
  14   2.0000      -0.940419       -25.5901
  15   2.0000      -0.851871       -23.1806
  16   2.0000      -0.796882       -21.6843
  17   2.0000      -0.731892       -19.9158
  18   2.0000      -0.699823       -19.0431
  19   2.0000      -0.689132       -18.7522
  20   2.0000      -0.657618       -17.8947
  21   2.0000      -0.613888       -16.7047
  22   2.0000      -0.601386       -16.3645
  23   2.0000      -0.585151       -15.9228
  24   2.0000      -0.574895       -15.6437
  25   2.0000      -0.562337       -15.3020
  26   2.0000      -0.548618       -14.9287
  27   2.0000      -0.537962       -14.6387
  28   2.0000      -0.528750       -14.3880
  29   2.0000      -0.501402       -13.6438
  30   2.0000      -0.499224       -13.5846
  31   2.0000      -0.446863       -12.1598
  32   2.0000      -0.404790       -11.0149
  33   2.0000      -0.397724       -10.8226
  34   0.0000       0.057594         1.5672
  35   0.0000       0.134430         3.6580
  36   0.0000       0.165654         4.5077
  37   0.0000       0.168223         4.5776
  38   0.0000       0.182111         4.9555

MULLIKEN ATOMIC CHARGES
-----------------------
   0 C :   -0.391797
   1 C :   -0.074575
   2 C :   -0.278418
   3 C :    0.000760
   4 C :   -0.364604
   5 C :    0.207152
   6 O :   -0.300559
   7 C :    0.071921
   8 O :   -0.242472
   9 H :    0.123707
  10 H :    0.144156
  11 H :    0.138503
  12 H :    0.144630
  13 H :    0.155731
  14 H :    0.138035
  15 H :    0.123855
  16 H :    0.149730
  17 H :    0.140568
  18 H :    0.113678
Sum of atomic charges:   -0.0000000

LOEWDIN ATOMIC CHARGES
----------------------
   0 C :   -0.286526
   1 C :   -0.195374
   2 C :   -0.168000
   3 C :   -0.213271
   4 C :   -0.263102
   5 C :   -0.291998
   6 O :    0.164894
   7 C :   -0.250511
   8 O :    0.164294
   9 H :    0.125436
  10 H :    0.131430
  11 H :    0.128901
  12 H :    0.158521
  13 H :    0.142960
  14 H :    0.139416
  15 H :    0.126576
  16 H :    0.131613
  17 H :    0.131768
  18 H :    0.122973

  Mayer bond orders larger than 0.1
B(  0-C ,  1-C ) :   0.9141 B(  0-C ,  9-H ) :   0.9336 B(  0-C , 10-H ) :   0.9349
B(  0-C , 11-H ) :   0.9387 B(  1-C ,  2-C ) :   0.9263 B(  1-C ,  3-C ) :   0.7859
B(  1-C , 12-H ) :   0.9196 B(  2-C ,  3-C ) :   0.8276 B(  2-C , 13-H ) :   0.9139
B(  2-C , 14-H ) :   0.9297 B(  3-C ,  4-C ) :   0.9199 B(  3-C ,  5-C ) :   0.9703
B(  4-C , 15-H ) :   0.9259 B(  4-C , 16-H ) :   0.9306 B(  4-C , 17-H ) :   0.9330
B(  5-C ,  6-O ) :   1.8617 B(  5-C ,  7-C ) :   0.8436 B(  7-C ,  8-O ) :   1.9662
B(  7-C , 18-H ) :   0.9330

MP2 TOTAL ENERGY:     -422.323134602 Eh
FINAL SINGLE POINT ENERGY      -422.323134601884

DIPOLE MOMENT
-------------
                                X             Y             Z
Electronic contribution:     -1.46071     -10.03721       3.21873
Nuclear contribution   :      1.67692      10.69503      -3.51957
                        -----------------------------------------
Total Dipole Moment    :      0.21622       0.65782      -0.30084
                        -----------------------------------------
Magnitude (a.u.)       :      0.75498
Magnitude (Debye)      :      1.91900

                             ****ORCA TERMINATED NORMALLY****
TOTAL RUN TIME: 0 days 0 hours 18 minutes 7 seconds 182 msec
