                         Program Version 3.0.3 - RELEASE   -
|  1> ! RI-MP2 RIJK def2-TZVP def2-TZVP/C def2-TZVP/JK TIGHTSCF
|  2> % maxcore 2000
|  3> % mp2 density relaxed end
|  4> *xyz 0 1
|  5>  C       -0.0917396491     1.8046253537    -0.8855828000
|  6>  C        0.0546167566     0.3498010552    -0.4249614390
|  7>  C        0.8146992076    -0.5672092617    -1.4046398218
|  8>  C        2.3155287593    -0.2653255764    -1.3875998608
|  9>  O        2.9276878425    -0.9748119074    -2.4565440099
| 10>  C        0.5738490664    -2.0606423706    -1.1138669018
| 11>  C       -0.7715373020    -2.5742056090    -1.6106513451
| 12>  O       -0.8917212951    -3.9346915712    -1.2510452595
| 13>  C       -2.0979901577    -4.5102996661    -1.6847472347
| 14>  H        0.8762644634     2.2973487402    -1.0189791484
| 15>  H       -0.6245791409     1.8617794796    -1.8412062981
| 16>  H       -0.6578016928     2.3907297172    -0.1546902931
| 17>  H        0.5559218005     0.3183922007     0.5526588098
| 18>  H       -0.9459961615    -0.0633870077    -0.2554528970
| 19>  H        0.4677495129    -0.3528937194    -2.4262588002
| 20>  H        2.4876056135     0.8161139428    -1.4927221203
| 21>  H        2.7350261924    -0.5722111506    -0.4146852968
| 22>  H        3.8796147393    -0.8596552008    -2.3891173747
| 23>  H        1.3601263823    -2.6492182036    -1.5945599905
| 24>  H        0.6445408505    -2.2467786202    -0.0342722897
| 25>  H       -1.6087341909    -1.9970473371    -1.1804423202
| 26>  H       -0.8378867504    -2.4611112363    -2.7072978313
| 27>  H       -2.9753795448    -4.0042667207    -1.2493372872
| 28>  H       -2.1979938438    -4.4775635464    -2.7819470073
| 29>  H       -2.0994602881    -5.5548417743    -1.3627427022
| 30> *
| 31>
| 32>                          ****END OF INPUT****

CARTESIAN COORDINATES (ANGSTROEM)
---------------------------------
  C     -0.091740    1.804625   -0.885583
  C      0.054617    0.349801   -0.424961
  C      0.814699   -0.567209   -1.404640
  C      2.315529   -0.265326   -1.387600
  O      2.927688   -0.974812   -2.456544
  C      0.573849   -2.060642   -1.113867
  C     -0.771537   -2.574206   -1.610651
  O     -0.891721   -3.934692   -1.251045
  C     -2.097990   -4.510300   -1.684747
  H      0.876264    2.297349   -1.018979
  H     -0.624579    1.861779   -1.841206
  H     -0.657802    2.390730   -0.154690
  H      0.555922    0.318392    0.552659
  H     -0.945996   -0.063387   -0.255453
  H      0.467750   -0.352894   -2.426259
  H      2.487606    0.816114   -1.492722
  H      2.735026   -0.572211   -0.414685
  H      3.879615   -0.859655   -2.389117
  H      1.360126   -2.649218   -1.594560
  H      0.644541   -2.246779   -0.034272
  H     -1.608734   -1.997047   -1.180442
  H     -0.837887   -2.461111   -2.707298
  H     -2.975380   -4.004267   -1.249337
  H     -2.197994   -4.477564   -2.781947
  H     -2.099460   -5.554842   -1.362743

 Total Charge           Charge          ....    0
 Multiplicity           Mult            ....    1
 Number of Electrons    NEL             ....   74
 Basis Dimension        Dim             ....  375

ORBITAL ENERGIES
----------------

  NO   OCC          E(Eh)            E(eV)
   0   2.0000     -20.553227      -559.2817
   1   2.0000     -20.547256      -559.1193
   2   2.0000     -11.271812      -306.7216
   3   2.0000     -11.265748      -306.5566
   4   2.0000     -11.264637      -306.5263
   5   2.0000     -11.223577      -305.4090
   6   2.0000     -11.221094      -305.3415
   7   2.0000     -11.214631      -305.1656
   8   2.0000     -11.207211      -304.9637
   9   2.0000      -1.368588       -37.2412
  10   2.0000      -1.357636       -36.9432
  11   2.0000      -1.092979       -29.7415
  12   2.0000      -1.013351       -27.5747
  13   2.0000      -0.965599       -26.2753
  14   2.0000      -0.904737       -24.6192
  15   2.0000      -0.857944       -23.3459
  16   2.0000      -0.824973       -22.4487
  17   2.0000      -0.767650       -20.8888
  18   2.0000      -0.694341       -18.8940
  19   2.0000      -0.663809       -18.0632
  20   2.0000      -0.649792       -17.6817
  21   2.0000      -0.647341       -17.6151
  22   2.0000      -0.615111       -16.7380
  23   2.0000      -0.605499       -16.4765
  24   2.0000      -0.586821       -15.9682
  25   2.0000      -0.570603       -15.5269
  26   2.0000      -0.558310       -15.1924
  27   2.0000      -0.532705       -14.4956
  28   2.0000      -0.516298       -14.0492
  29   2.0000      -0.499549       -13.5934
  30   2.0000      -0.491203       -13.3663
  31   2.0000      -0.474184       -12.9032
  32   2.0000      -0.469453       -12.7745
  33   2.0000      -0.456039       -12.4095
  34   2.0000      -0.446858       -12.1596
  35   2.0000      -0.433650       -11.8002
  36   2.0000      -0.414646       -11.2831
  37   0.0000       0.137411         3.7392
  38   0.0000       0.142391         3.8747
  39   0.0000       0.152749         4.1565
  40   0.0000       0.162508         4.4221
  41   0.0000       0.181375         4.9355

MULLIKEN ATOMIC CHARGES
-----------------------
   0 C :   -0.400661
   1 C :   -0.226401
   2 C :   -0.038883
   3 C :   -0.081147
   4 O :   -0.472396
   5 C :   -0.153441
   6 C :   -0.084291
   7 O :   -0.299251
   8 C :   -0.213615
   9 H :    0.120049
  10 H :    0.126371
  11 H :    0.135101
  12 H :    0.109189
  13 H :    0.116375
  14 H :    0.079839
  15 H :    0.099662
  16 H :    0.096683
  17 H :    0.315496
  18 H :    0.139737
  19 H :    0.104055
  20 H :    0.080999
  21 H :    0.093185
  22 H :    0.106962
  23 H :    0.109459
  24 H :    0.136924
Sum of atomic charges:    0.0000000

LOEWDIN ATOMIC CHARGES
----------------------
   0 C :   -0.319931
   1 C :   -0.270219
   2 C :   -0.262405
   3 C :   -0.327345
   4 O :   -0.047869
   5 C :   -0.242699
   6 C :   -0.329875
   7 O :    0.134025
   8 C :   -0.366264
   9 H :    0.116675
  10 H :    0.121487
  11 H :    0.121392
  12 H :    0.137943
  13 H :    0.137629
  14 H :    0.156317
  15 H :    0.116089
  16 H :    0.118481
  17 H :    0.171914
  18 H :    0.148275
  19 H :    0.141282
  20 H :    0.113977
  21 H :    0.118885
  22 H :    0.099439
  23 H :    0.100312
  24 H :    0.112485

  Mayer bond orders larger than 0.1
B(  0-C ,  1-C ) :   0.9236 B(  0-C ,  9-H ) :   0.9400 B(  0-C , 10-H ) :   0.9387
B(  0-C , 11-H ) :   0.9422 B(  1-C ,  2-C ) :   0.8972 B(  1-C , 12-H ) :   0.9227
B(  1-C , 13-H ) :   0.9377 B(  2-C ,  3-C ) :   0.9219 B(  2-C ,  5-C ) :   0.8966
B(  2-C , 14-H ) :   0.9247 B(  3-C ,  4-O ) :   1.0041 B(  3-C , 15-H ) :   0.9300
B(  3-C , 16-H ) :   0.9273 B(  4-O , 17-H ) :   0.8483 B(  5-C ,  6-C ) :   0.9600
B(  5-C , 18-H ) :   0.9188 B(  5-C , 19-H ) :   0.9140 B(  6-C ,  7-O ) :   0.9616
B(  6-C , 20-H ) :   0.9251 B(  6-C , 21-H ) :   0.9258 B(  7-O ,  8-C ) :   0.9255
B(  8-C , 22-H ) :   0.9369 B(  8-C , 23-H ) :   0.9373 B(  8-C , 24-H ) :   0.9399

MP2 TOTAL ENERGY:     -425.911151076 Eh
FINAL SINGLE POINT ENERGY      -425.911151075871

DIPOLE MOMENT
-------------
                                X             Y             Z
Electronic contribution:      3.94030      -4.52785      -1.40591
Nuclear contribution   :     -3.89324       5.09748       1.56591
                        -----------------------------------------
Total Dipole Moment    :      0.04706       0.56963       0.16000
                        -----------------------------------------
Magnitude (a.u.)       :      0.59354
Magnitude (Debye)      :      1.50867

                             ****ORCA TERMINATED NORMALLY****
TOTAL RUN TIME: 0 days 0 hours 18 minutes 0 seconds 382 msec
