                         Program Version 3.0.3 - RELEASE   -
|  1> ! RI-MP2 RIJK def2-TZVP def2-TZVP/C def2-TZVP/JK TIGHTSCF
|  2> % maxcore 2000
|  3> % mp2 density relaxed end
|  4> *xyz 0 1
|  5>  C       -0.0080121262     1.5348624652    -0.0046545046
|  6>  C        0.0004567240     0.0313585579     0.0119147765
|  7>  C       -0.0538123149    -0.6893650387    -1.1276198494
|  8>  O       -0.0408648109    -2.0219484751    -1.1983187173
|  9>  C        0.0348891132    -2.8285041571    -0.0258217618
| 10>  O        0.0387908330    -4.0197077573    -0.1924740234
| 11>  C        0.0902764887    -2.0932939849     1.1996042827
| 12>  C        0.0793995700    -0.7224291987     1.2465922440
| 13>  N        0.1881402849    -0.0339118959     2.4269766589
| 14>  H        0.8880904931     1.9518604308     0.4705244841
| 15>  H       -0.0426026432     1.9091820057    -1.0308297430
| 16>  H       -0.8801902427     1.9497964487     0.5183806995
| 17>  H       -0.1133623218    -0.2320633545    -2.1104953948
| 18>  H        0.1457242219    -2.6879204409     2.1035822875
| 19>  H        0.0492484150    -0.5487488266     3.2816248096
| 20>  H       -0.1245684940     0.9218862113     2.4546666116
| 21> *
| 22>
| 23>                          ****END OF INPUT****

CARTESIAN COORDINATES (ANGSTROEM)
---------------------------------
  C     -0.008012    1.534862   -0.004655
  C      0.000457    0.031359    0.011915
  C     -0.053812   -0.689365   -1.127620
  O     -0.040865   -2.021948   -1.198319
  C      0.034889   -2.828504   -0.025822
  O      0.038791   -4.019708   -0.192474
  C      0.090276   -2.093294    1.199604
  C      0.079400   -0.722429    1.246592
  N      0.188140   -0.033912    2.426977
  H      0.888090    1.951860    0.470524
  H     -0.042603    1.909182   -1.030830
  H     -0.880190    1.949796    0.518381
  H     -0.113362   -0.232063   -2.110495
  H      0.145724   -2.687920    2.103582
  H      0.049248   -0.548749    3.281625
  H     -0.124568    0.921886    2.454667

 Total Charge           Charge          ....    0
 Multiplicity           Mult            ....    1
 Number of Electrons    NEL             ....   66
 Basis Dimension        Dim             ....  321

ORBITAL ENERGIES
----------------

  NO   OCC          E(Eh)            E(eV)
   0   2.0000     -20.618089      -561.0467
   1   2.0000     -20.515144      -558.2455
   2   2.0000     -15.601570      -424.5403
   3   2.0000     -11.371316      -309.4292
   4   2.0000     -11.327199      -308.2287
   5   2.0000     -11.327046      -308.2246
   6   2.0000     -11.254099      -306.2396
   7   2.0000     -11.252884      -306.2065
   8   2.0000     -11.222584      -305.3820
   9   2.0000      -1.460712       -39.7480
  10   2.0000      -1.357291       -36.9338
  11   2.0000      -1.265036       -34.4234
  12   2.0000      -1.111320       -30.2405
  13   2.0000      -1.049936       -28.5702
  14   2.0000      -0.965344       -26.2683
  15   2.0000      -0.882557       -24.0156
  16   2.0000      -0.855018       -23.2662
  17   2.0000      -0.764297       -20.7976
  18   2.0000      -0.722247       -19.6534
  19   2.0000      -0.679267       -18.4838
  20   2.0000      -0.666060       -18.1244
  21   2.0000      -0.650035       -17.6884
  22   2.0000      -0.638821       -17.3832
  23   2.0000      -0.611484       -16.6393
  24   2.0000      -0.598411       -16.2836
  25   2.0000      -0.578592       -15.7443
  26   2.0000      -0.547020       -14.8852
  27   2.0000      -0.536451       -14.5976
  28   2.0000      -0.521281       -14.1848
  29   2.0000      -0.505663       -13.7598
  30   2.0000      -0.436891       -11.8884
  31   2.0000      -0.385536       -10.4910
  32   2.0000      -0.318497        -8.6667
  33   0.0000       0.092143         2.5073
  34   0.0000       0.109759         2.9867
  35   0.0000       0.141492         3.8502
  36   0.0000       0.163838         4.4582
  37   0.0000       0.170193         4.6312

MULLIKEN ATOMIC CHARGES
-----------------------
   0 C :   -0.471922
   1 C :    0.012914
   2 C :    0.035449
   3 O :   -0.176517
   4 C :    0.268058
   5 O :   -0.312464
   6 C :   -0.344596
   7 C :    0.240301
   8 N :   -0.484682
   9 H :    0.162773
  10 H :    0.145741
  11 H :    0.145540
  12 H :    0.133840
  13 H :    0.127534
  14 H :    0.256703
  15 H :    0.261329
Sum of atomic charges:   -0.0000000

LOEWDIN ATOMIC CHARGES
----------------------
   0 C :   -0.269984
   1 C :   -0.185177
   2 C :   -0.207899
   3 O :    0.320661
   4 C :   -0.444712
   5 O :    0.114422
   6 C :   -0.147488
   7 C :   -0.214497
   8 N :   -0.011261
   9 H :    0.132748
  10 H :    0.136951
  11 H :    0.128013
  12 H :    0.144466
  13 H :    0.155452
  14 H :    0.175366
  15 H :    0.172939

  Mayer bond orders larger than 0.1
B(  0-C ,  1-C ) :   0.8566 B(  0-C ,  9-H ) :   0.9376 B(  0-C , 10-H ) :   0.9341
B(  0-C , 11-H ) :   0.9358 B(  1-C ,  2-C ) :   1.5737 B(  1-C ,  7-C ) :   1.0424
B(  2-C ,  3-O ) :   1.1338 B(  2-C , 12-H ) :   0.9522 B(  3-O ,  4-C ) :   0.9505
B(  4-C ,  5-O ) :   2.0026 B(  4-C ,  6-C ) :   1.1631 B(  6-C ,  7-C ) :   1.3809
B(  6-C , 13-H ) :   0.9334 B(  7-C ,  8-N ) :   1.1050 B(  8-N , 14-H ) :   0.8733
B(  8-N , 15-H ) :   0.8672

MP2 TOTAL ENERGY:     -437.222180816 Eh
FINAL SINGLE POINT ENERGY      -437.222180816463

DIPOLE MOMENT
-------------
                                X             Y             Z
Electronic contribution:      0.06485      -8.56071      -2.51693
Nuclear contribution   :     -0.29578      10.94578       3.58260
                        -----------------------------------------
Total Dipole Moment    :     -0.23092       2.38507       1.06566
                        -----------------------------------------
Magnitude (a.u.)       :      2.62250
Magnitude (Debye)      :      6.66587

                             ****ORCA TERMINATED NORMALLY****
TOTAL RUN TIME: 0 days 0 hours 15 minutes 32 seconds 852 msec
