                         Program Version 3.0.3 - RELEASE   -
|  1> ! RI-MP2 RIJK def2-TZVP def2-TZVP/C def2-TZVP/JK TIGHTSCF
|  2> % maxcore 2000
|  3> % mp2 density relaxed end
|  4> *xyz 0 1
|  5>  N       -0.0268082943     1.3640853017    -0.1803421274
|  6>  C        0.0510501703     0.0975031615    -0.0832117330
|  7>  N        1.0943352238    -0.7784989305    -0.2941937731
|  8>  C        0.8545352364    -2.1313675143     0.1996035276
|  9>  C       -0.6887717389    -2.2391941520     0.1739317184
| 10>  C       -1.2620151150    -3.1483086216     1.1440331109
| 11>  C       -1.7268690624    -3.8964539321     1.9603695327
| 12>  C       -1.1464650981    -0.7624441257     0.3041551937
| 13>  O       -2.2253599723    -0.3728752488     0.6375223219
| 14>  H        0.8722800513     1.7811575205    -0.4331779765
| 15>  H        2.0375327046    -0.4313826315    -0.3718799996
| 16>  H        1.3306767076    -2.8744399201    -0.4450629661
| 17>  H        1.2230620985    -2.2762021899     1.2233726242
| 18>  H       -0.9945856045    -2.5340968097    -0.8408716444
| 19>  H       -2.1488493471    -4.5538526274     2.6798651808
| 20> *
| 21>
| 22>                          ****END OF INPUT****

CARTESIAN COORDINATES (ANGSTROEM)
---------------------------------
  N     -0.026808    1.364085   -0.180342
  C      0.051050    0.097503   -0.083212
  N      1.094335   -0.778499   -0.294194
  C      0.854535   -2.131368    0.199604
  C     -0.688772   -2.239194    0.173932
  C     -1.262015   -3.148309    1.144033
  C     -1.726869   -3.896454    1.960370
  C     -1.146465   -0.762444    0.304155
  O     -2.225360   -0.372875    0.637522
  H      0.872280    1.781158   -0.433178
  H      2.037533   -0.431383   -0.371880
  H      1.330677   -2.874440   -0.445063
  H      1.223062   -2.276202    1.223373
  H     -0.994586   -2.534097   -0.840872
  H     -2.148849   -4.553853    2.679865

 Total Charge           Charge          ....    0
 Multiplicity           Mult            ....    1
 Number of Electrons    NEL             ....   64
 Basis Dimension        Dim             ....  315

ORBITAL ENERGIES
----------------

  NO   OCC          E(Eh)            E(eV)
   0   2.0000     -20.572159      -559.7969
   1   2.0000     -15.603831      -424.6018
   2   2.0000     -15.547262      -423.0625
   3   2.0000     -11.353176      -308.9356
   4   2.0000     -11.332352      -308.3690
   5   2.0000     -11.302152      -307.5472
   6   2.0000     -11.291587      -307.2597
   7   2.0000     -11.249839      -306.1237
   8   2.0000     -11.239912      -305.8536
   9   2.0000      -1.416645       -38.5489
  10   2.0000      -1.303682       -35.4750
  11   2.0000      -1.186715       -32.2921
  12   2.0000      -1.101608       -29.9763
  13   2.0000      -1.013990       -27.5921
  14   2.0000      -0.957573       -26.0569
  15   2.0000      -0.877413       -23.8756
  16   2.0000      -0.759650       -20.6711
  17   2.0000      -0.746745       -20.3200
  18   2.0000      -0.721827       -19.6419
  19   2.0000      -0.700899       -19.0724
  20   2.0000      -0.662232       -18.0203
  21   2.0000      -0.641673       -17.4608
  22   2.0000      -0.626487       -17.0476
  23   2.0000      -0.597035       -16.2461
  24   2.0000      -0.585618       -15.9355
  25   2.0000      -0.561179       -15.2705
  26   2.0000      -0.493328       -13.4241
  27   2.0000      -0.467206       -12.7133
  28   2.0000      -0.433547       -11.7974
  29   2.0000      -0.404798       -11.0151
  30   2.0000      -0.390627       -10.6295
  31   2.0000      -0.377168       -10.2633
  32   0.0000       0.080138         2.1807
  33   0.0000       0.115049         3.1306
  34   0.0000       0.135055         3.6750
  35   0.0000       0.152771         4.1571
  36   0.0000       0.158836         4.3222

MULLIKEN ATOMIC CHARGES
-----------------------
   0 N :   -0.319684
   1 C :    0.013766
   2 N :   -0.318135
   3 C :   -0.118069
   4 C :   -0.137266
   5 C :   -0.064279
   6 C :   -0.126952
   7 C :    0.226541
   8 O :   -0.215183
   9 H :    0.202715
  10 H :    0.235062
  11 H :    0.136510
  12 H :    0.138345
  13 H :    0.147968
  14 H :    0.198661
Sum of atomic charges:   -0.0000000

LOEWDIN ATOMIC CHARGES
----------------------
   0 N :   -0.045808
   1 C :   -0.368952
   2 N :    0.097644
   3 C :   -0.224574
   4 C :   -0.201331
   5 C :   -0.086434
   6 C :   -0.075782
   7 C :   -0.243481
   8 O :    0.218761
   9 H :    0.159636
  10 H :    0.180243
  11 H :    0.134153
  12 H :    0.135630
  13 H :    0.190610
  14 H :    0.129686

  Mayer bond orders larger than 0.1
B(  0-N ,  1-C ) :   2.0800 B(  0-N ,  9-H ) :   0.8558 B(  1-C ,  2-N ) :   1.1312
B(  1-C ,  7-C ) :   0.8668 B(  2-N ,  3-C ) :   0.8732 B(  2-N , 10-H ) :   0.8692
B(  3-C ,  4-C ) :   0.9320 B(  3-C , 11-H ) :   0.9166 B(  3-C , 12-H ) :   0.9360
B(  4-C ,  5-C ) :   1.1873 B(  4-C ,  6-C ) :  -0.1061 B(  4-C ,  7-C ) :   0.8619
B(  4-C , 13-H ) :   0.8648 B(  5-C ,  6-C ) :   2.5929 B(  6-C , 14-H ) :   0.8851
B(  7-C ,  8-O ) :   2.0656

MP2 TOTAL ENERGY:     -416.074649001 Eh
FINAL SINGLE POINT ENERGY      -416.074649001054

DIPOLE MOMENT
-------------
                                X             Y             Z
Electronic contribution:     -3.36055       1.91219       0.33520
Nuclear contribution   :      5.17683      -3.09487      -0.59919
                        -----------------------------------------
Total Dipole Moment    :      1.81628      -1.18267      -0.26399
                        -----------------------------------------
Magnitude (a.u.)       :      2.18341
Magnitude (Debye)      :      5.54979

                             ****ORCA TERMINATED NORMALLY****
TOTAL RUN TIME: 0 days 0 hours 14 minutes 14 seconds 24 msec
