                         Program Version 3.0.3 - RELEASE   -
|  1> ! RI-MP2 RIJK def2-TZVP def2-TZVP/C def2-TZVP/JK TIGHTSCF
|  2> % maxcore 2000
|  3> % mp2 density relaxed end
|  4> *xyz 0 1
|  5>  N        0.0333356158     1.4113258862     0.0046726025
|  6>  C       -0.0230295882     0.0018148199     0.0006293054
|  7>  C       -1.0413731939    -0.8971679959    -0.2220520224
|  8>  C       -0.5091677375    -2.2078751115    -0.0176485335
|  9>  C       -1.2543078216    -3.5143036709    -0.1293389222
| 10>  C       -1.8978205065    -3.7235140133    -1.4266200347
| 11>  C       -2.4359369316    -3.8885754579    -2.4886701969
| 12>  C        0.8157086392    -2.0621950268     0.3129469724
| 13>  N        1.1014129659    -0.7143638585     0.3256759199
| 14>  H        0.4763215750     1.7806124996    -0.8323969887
| 15>  H       -0.9001935323     1.8010337928     0.0507799160
| 16>  H       -2.0466846278    -0.6532843509    -0.5307434916
| 17>  H       -0.5622316975    -4.3427078901     0.0667406172
| 18>  H       -2.0237403372    -3.5783856642     0.6533925441
| 19>  H       -2.9047307658    -4.0361702890    -3.4294647369
| 20>  H        1.5730483754    -2.7977730215     0.5314797298
| 21>  H        1.9630848688    -0.2937285979     0.6268857997
| 22> *
| 23>
| 24>                          ****END OF INPUT****

CARTESIAN COORDINATES (ANGSTROEM)
---------------------------------
  N      0.033336    1.411326    0.004673
  C     -0.023030    0.001815    0.000629
  C     -1.041373   -0.897168   -0.222052
  C     -0.509168   -2.207875   -0.017649
  C     -1.254308   -3.514304   -0.129339
  C     -1.897821   -3.723514   -1.426620
  C     -2.435937   -3.888575   -2.488670
  C      0.815709   -2.062195    0.312947
  N      1.101413   -0.714364    0.325676
  H      0.476322    1.780612   -0.832397
  H     -0.900194    1.801034    0.050780
  H     -2.046685   -0.653284   -0.530743
  H     -0.562232   -4.342708    0.066741
  H     -2.023740   -3.578386    0.653393
  H     -2.904731   -4.036170   -3.429465
  H      1.573048   -2.797773    0.531480
  H      1.963085   -0.293729    0.626886

 Total Charge           Charge          ....    0
 Multiplicity           Mult            ....    1
 Number of Electrons    NEL             ....   64
 Basis Dimension        Dim             ....  327

ORBITAL ENERGIES
----------------

  NO   OCC          E(Eh)            E(eV)
   0   2.0000     -15.595206      -424.3671
   1   2.0000     -15.566801      -423.5942
   2   2.0000     -11.288442      -307.1741
   3   2.0000     -11.251363      -306.1651
   4   2.0000     -11.243903      -305.9622
   5   2.0000     -11.225832      -305.4704
   6   2.0000     -11.219645      -305.3021
   7   2.0000     -11.210432      -305.0514
   8   2.0000     -11.199079      -304.7424
   9   2.0000      -1.299044       -35.3488
  10   2.0000      -1.187776       -32.3210
  11   2.0000      -1.085621       -29.5413
  12   2.0000      -1.023281       -27.8449
  13   2.0000      -0.969234       -26.3742
  14   2.0000      -0.929342       -25.2887
  15   2.0000      -0.784676       -21.3521
  16   2.0000      -0.761550       -20.7228
  17   2.0000      -0.728064       -19.8116
  18   2.0000      -0.704503       -19.1705
  19   2.0000      -0.669908       -18.2291
  20   2.0000      -0.625542       -17.0219
  21   2.0000      -0.614444       -16.7199
  22   2.0000      -0.586888       -15.9700
  23   2.0000      -0.580510       -15.7965
  24   2.0000      -0.569608       -15.4998
  25   2.0000      -0.544593       -14.8191
  26   2.0000      -0.520498       -14.1635
  27   2.0000      -0.445170       -12.1137
  28   2.0000      -0.382123       -10.3981
  29   2.0000      -0.377190       -10.2638
  30   2.0000      -0.340031        -9.2527
  31   2.0000      -0.282418        -7.6850
  32   0.0000       0.128416         3.4944
  33   0.0000       0.147735         4.0201
  34   0.0000       0.154403         4.2015
  35   0.0000       0.171841         4.6760
  36   0.0000       0.174814         4.7569

MULLIKEN ATOMIC CHARGES
-----------------------
   0 N :   -0.545719
   1 C :    0.225546
   2 C :   -0.322819
   3 C :    0.120417
   4 C :   -0.365675
   5 C :    0.000110
   6 C :   -0.182368
   7 C :   -0.161881
   8 N :   -0.266267
   9 H :    0.253216
  10 H :    0.253106
  11 H :    0.128072
  12 H :    0.146461
  13 H :    0.150122
  14 H :    0.184358
  15 H :    0.140330
  16 H :    0.242992
Sum of atomic charges:    0.0000000

LOEWDIN ATOMIC CHARGES
----------------------
   0 N :   -0.116954
   1 C :   -0.333739
   2 C :   -0.163110
   3 C :   -0.186039
   4 C :   -0.212223
   5 C :   -0.100295
   6 C :   -0.114541
   7 C :   -0.218475
   8 N :    0.191361
   9 H :    0.166020
  10 H :    0.170574
  11 H :    0.141577
  12 H :    0.163549
  13 H :    0.163612
  14 H :    0.124349
  15 H :    0.133249
  16 H :    0.191084

  Mayer bond orders larger than 0.1
B(  0-N ,  1-C ) :   1.0319 B(  0-N ,  9-H ) :   0.8730 B(  0-N , 10-H ) :   0.8888
B(  1-C ,  2-C ) :   1.4916 B(  1-C ,  8-N ) :   1.1202 B(  2-C ,  3-C ) :   1.2370
B(  2-C , 11-H ) :   0.9250 B(  3-C ,  4-C ) :   0.8841 B(  3-C ,  7-C ) :   1.4807
B(  4-C ,  5-C ) :   1.0648 B(  4-C , 12-H ) :   0.9366 B(  4-C , 13-H ) :   0.9259
B(  5-C ,  6-C ) :   2.6284 B(  6-C , 14-H ) :   0.9103 B(  7-C ,  8-N ) :   1.1235
B(  7-C , 15-H ) :   0.9069 B(  8-N , 16-H ) :   0.8697

MP2 TOTAL ENERGY:     -380.180761725 Eh
FINAL SINGLE POINT ENERGY      -380.180761724972

DIPOLE MOMENT
-------------
                                X             Y             Z
Electronic contribution:      0.58844      -0.43146      -0.21554
Nuclear contribution   :     -0.09248       1.02737       0.19008
                        -----------------------------------------
Total Dipole Moment    :      0.49596       0.59591      -0.02546
                        -----------------------------------------
Magnitude (a.u.)       :      0.77572
Magnitude (Debye)      :      1.97172

                             ****ORCA TERMINATED NORMALLY****
TOTAL RUN TIME: 0 days 0 hours 14 minutes 59 seconds 949 msec
