                         Program Version 3.0.3 - RELEASE   -
|  1> ! RI-MP2 RIJK def2-TZVP def2-TZVP/C def2-TZVP/JK TIGHTSCF
|  2> % maxcore 2000
|  3> % mp2 density relaxed end
|  4> *xyz 0 1
|  5>  N       -0.1308424804     1.2863440448     0.0436320731
|  6>  C        0.0543994313    -0.0577019928     0.1651923934
|  7>  O        1.0001989768    -0.6011047035     0.6794868602
|  8>  O       -1.0184664760    -0.7143834284    -0.3730328641
|  9>  C       -0.9802852166    -2.1176463496    -0.2406174125
| 10>  C       -1.8817040724    -2.7609859132     0.7454900163
| 11>  C       -2.1927335202    -2.8578855649    -0.7559108466
| 12>  C       -3.3661052796    -2.1044026473    -1.2636318567
| 13>  O       -4.0619365308    -2.4751786081    -2.1761725120
| 14>  H        0.6705874777     1.8669596951     0.2199915273
| 15>  H       -0.8436764401     1.6311364225    -0.5762513431
| 16>  H       -0.0011516888    -2.5413997424    -0.4257312576
| 17>  H       -1.5554284315    -3.6589270238     1.2561600422
| 18>  H       -2.5260042905    -2.1061401168     1.3230295334
| 19>  H       -2.0178786499    -3.8011958587    -1.2606916279
| 20>  H       -3.5756884489    -1.1548958028    -0.7246259154
| 21> *
| 22>
| 23>                          ****END OF INPUT****

CARTESIAN COORDINATES (ANGSTROEM)
---------------------------------
  N     -0.130842    1.286344    0.043632
  C      0.054399   -0.057702    0.165192
  O      1.000199   -0.601105    0.679487
  O     -1.018466   -0.714383   -0.373033
  C     -0.980285   -2.117646   -0.240617
  C     -1.881704   -2.760986    0.745490
  C     -2.192734   -2.857886   -0.755911
  C     -3.366105   -2.104403   -1.263632
  O     -4.061937   -2.475179   -2.176173
  H      0.670587    1.866960    0.219992
  H     -0.843676    1.631136   -0.576251
  H     -0.001152   -2.541400   -0.425731
  H     -1.555428   -3.658927    1.256160
  H     -2.526004   -2.106140    1.323030
  H     -2.017879   -3.801196   -1.260692
  H     -3.575688   -1.154896   -0.724626

 Total Charge           Charge          ....    0
 Multiplicity           Mult            ....    1
 Number of Electrons    NEL             ....   68
 Basis Dimension        Dim             ....  321

ORBITAL ENERGIES
----------------

  NO   OCC          E(Eh)            E(eV)
   0   2.0000     -20.622771      -561.1741
   1   2.0000     -20.554598      -559.3190
   2   2.0000     -20.541887      -558.9732
   3   2.0000     -15.600505      -424.5113
   4   2.0000     -11.419511      -310.7407
   5   2.0000     -11.335909      -308.4658
   6   2.0000     -11.320674      -308.0512
   7   2.0000     -11.259304      -306.3812
   8   2.0000     -11.258714      -306.3652
   9   2.0000      -1.483410       -40.3656
  10   2.0000      -1.394425       -37.9442
  11   2.0000      -1.377446       -37.4822
  12   2.0000      -1.236512       -33.6472
  13   2.0000      -1.169104       -31.8129
  14   2.0000      -0.928237       -25.2586
  15   2.0000      -0.898897       -24.4602
  16   2.0000      -0.823987       -22.4218
  17   2.0000      -0.780461       -21.2374
  18   2.0000      -0.761928       -20.7331
  19   2.0000      -0.731603       -19.9079
  20   2.0000      -0.693584       -18.8734
  21   2.0000      -0.680523       -18.5180
  22   2.0000      -0.664387       -18.0789
  23   2.0000      -0.639027       -17.3888
  24   2.0000      -0.629895       -17.1403
  25   2.0000      -0.584408       -15.9026
  26   2.0000      -0.561483       -15.2787
  27   2.0000      -0.546028       -14.8582
  28   2.0000      -0.538506       -14.6535
  29   2.0000      -0.476508       -12.9664
  30   2.0000      -0.450728       -12.2649
  31   2.0000      -0.443307       -12.0630
  32   2.0000      -0.437028       -11.8921
  33   2.0000      -0.419542       -11.4163
  34   0.0000       0.120593         3.2815
  35   0.0000       0.128876         3.5069
  36   0.0000       0.150677         4.1001
  37   0.0000       0.163036         4.4364
  38   0.0000       0.180916         4.9230

MULLIKEN ATOMIC CHARGES
-----------------------
   0 N :   -0.507593
   1 C :    0.418692
   2 O :   -0.365845
   3 O :   -0.291343
   4 C :    0.045140
   5 C :   -0.273977
   6 C :   -0.043908
   7 C :    0.065438
   8 O :   -0.268072
   9 H :    0.273663
  10 H :    0.272671
  11 H :    0.150195
  12 H :    0.150293
  13 H :    0.148376
  14 H :    0.143995
  15 H :    0.082276
Sum of atomic charges:    0.0000000

LOEWDIN ATOMIC CHARGES
----------------------
   0 N :   -0.026452
   1 C :   -0.598515
   2 O :    0.087835
   3 O :    0.254138
   4 C :   -0.253130
   5 C :   -0.182574
   6 C :   -0.191011
   7 C :   -0.288514
   8 O :    0.128864
   9 H :    0.180547
  10 H :    0.177145
  11 H :    0.151212
  12 H :    0.141330
  13 H :    0.145689
  14 H :    0.157463
  15 H :    0.115971

  Mayer bond orders larger than 0.1
B(  0-N ,  1-C ) :   1.1730 B(  0-N ,  9-H ) :   0.8646 B(  0-N , 10-H ) :   0.8624
B(  1-C ,  2-O ) :   1.9305 B(  1-C ,  3-O ) :   1.0369 B(  3-O ,  4-C ) :   0.8790
B(  4-C ,  5-C ) :   0.9116 B(  4-C ,  6-C ) :   0.8158 B(  4-C , 11-H ) :   0.9341
B(  5-C ,  6-C ) :   0.8347 B(  5-C , 12-H ) :   0.9173 B(  5-C , 13-H ) :   0.9194
B(  6-C ,  7-C ) :   0.8971 B(  6-C , 14-H ) :   0.9138 B(  7-C ,  8-O ) :   1.9771
B(  7-C , 15-H ) :   0.9407

MP2 TOTAL ENERGY:     -474.303543365 Eh
FINAL SINGLE POINT ENERGY      -474.303543365282

DIPOLE MOMENT
-------------
                                X             Y             Z
Electronic contribution:      0.50770       1.16851      -1.76574
Nuclear contribution   :     -0.20307      -0.42741       2.13825
                        -----------------------------------------
Total Dipole Moment    :      0.30463       0.74110       0.37250
                        -----------------------------------------
Magnitude (a.u.)       :      0.88363
Magnitude (Debye)      :      2.24600

                             ****ORCA TERMINATED NORMALLY****
TOTAL RUN TIME: 0 days 0 hours 19 minutes 23 seconds 924 msec
