                         Program Version 3.0.3 - RELEASE   -
|  1> ! RI-MP2 RIJK def2-TZVP def2-TZVP/C def2-TZVP/JK TIGHTSCF
|  2> % maxcore 2000
|  3> % mp2 density relaxed end
|  4> *xyz 0 1
|  5>  O        0.2480913191     0.1656371107     0.2351415602
|  6>  C        0.0902977784     1.3526682779     0.1257826935
|  7>  C       -1.0810469018     2.1835868388     0.6618906964
|  8>  C       -0.8891429501     3.5437974517    -0.0346215635
|  9>  N        0.5625434463     3.6845601378    -0.2857555192
| 10>  C        1.0284404723     2.3321281112    -0.6033405095
| 11>  C        1.2759944769     4.2910915137     0.8089053768
| 12>  C        2.5515983069     5.0230585030     0.4881071436
| 13>  C        1.3100807903     5.7942193800     0.8688201457
| 14>  H       -2.0344904945     1.6879142437     0.4659747966
| 15>  H       -0.9726306476     2.2649949584     1.7502696829
| 16>  H       -1.4160220949     3.5502044822    -0.9971215726
| 17>  H       -1.2484628510     4.3939496049     0.5471842796
| 18>  H        2.0721097232     2.1764735706    -0.3224817530
| 19>  H        0.9438968037     2.1327955358    -1.6820415773
| 20>  H        1.2538109768     3.7731318955     1.7738290206
| 21>  H        3.3692416922     4.9689891173     1.1978194920
| 22>  H        2.8488452914     5.0493637537    -0.5536839507
| 23>  H        0.7960906035     6.3254842577     0.0762090850
| 24>  H        1.2715256987     6.2721805554     1.8411042930
| 25> *
| 26>
| 27>                          ****END OF INPUT****

CARTESIAN COORDINATES (ANGSTROEM)
---------------------------------
  O      0.248091    0.165637    0.235142
  C      0.090298    1.352668    0.125783
  C     -1.081047    2.183587    0.661891
  C     -0.889143    3.543797   -0.034622
  N      0.562543    3.684560   -0.285756
  C      1.028440    2.332128   -0.603341
  C      1.275994    4.291092    0.808905
  C      2.551598    5.023059    0.488107
  C      1.310081    5.794219    0.868820
  H     -2.034490    1.687914    0.465975
  H     -0.972631    2.264995    1.750270
  H     -1.416022    3.550204   -0.997122
  H     -1.248463    4.393950    0.547184
  H      2.072110    2.176474   -0.322482
  H      0.943897    2.132796   -1.682042
  H      1.253811    3.773132    1.773829
  H      3.369242    4.968989    1.197819
  H      2.848845    5.049364   -0.553684
  H      0.796091    6.325484    0.076209
  H      1.271526    6.272181    1.841104

 Total Charge           Charge          ....    0
 Multiplicity           Mult            ....    1
 Number of Electrons    NEL             ....   68
 Basis Dimension        Dim             ....  345

ORBITAL ENERGIES
----------------

  NO   OCC          E(Eh)            E(eV)
   0   2.0000     -20.547379      -559.1226
   1   2.0000     -15.561957      -423.4624
   2   2.0000     -11.330337      -308.3141
   3   2.0000     -11.264614      -306.5257
   4   2.0000     -11.263668      -306.5000
   5   2.0000     -11.262268      -306.4619
   6   2.0000     -11.238987      -305.8284
   7   2.0000     -11.230166      -305.5884
   8   2.0000     -11.229378      -305.5669
   9   2.0000      -1.391927       -37.8763
  10   2.0000      -1.259293       -34.2671
  11   2.0000      -1.134403       -30.8687
  12   2.0000      -1.026670       -27.9371
  13   2.0000      -0.976429       -26.5700
  14   2.0000      -0.866713       -23.5845
  15   2.0000      -0.829530       -22.5727
  16   2.0000      -0.780342       -21.2342
  17   2.0000      -0.747143       -20.3308
  18   2.0000      -0.697194       -18.9716
  19   2.0000      -0.676667       -18.4131
  20   2.0000      -0.650733       -17.7074
  21   2.0000      -0.620620       -16.8879
  22   2.0000      -0.607979       -16.5440
  23   2.0000      -0.597699       -16.2642
  24   2.0000      -0.568899       -15.4805
  25   2.0000      -0.554352       -15.0847
  26   2.0000      -0.534882       -14.5549
  27   2.0000      -0.521393       -14.1878
  28   2.0000      -0.516816       -14.0633
  29   2.0000      -0.487209       -13.2576
  30   2.0000      -0.444155       -12.0861
  31   2.0000      -0.422221       -11.4892
  32   2.0000      -0.411676       -11.2023
  33   2.0000      -0.360596        -9.8123
  34   0.0000       0.127744         3.4761
  35   0.0000       0.133169         3.6237
  36   0.0000       0.152823         4.1585
  37   0.0000       0.158319         4.3081
  38   0.0000       0.163928         4.4607

MULLIKEN ATOMIC CHARGES
-----------------------
   0 O :   -0.267878
   1 C :    0.112770
   2 C :   -0.240051
   3 C :   -0.176656
   4 N :   -0.147504
   5 C :   -0.160735
   6 C :   -0.108809
   7 C :   -0.243340
   8 C :   -0.244570
   9 H :    0.144600
  10 H :    0.142034
  11 H :    0.131353
  12 H :    0.134963
  13 H :    0.150452
  14 H :    0.138212
  15 H :    0.103488
  16 H :    0.131106
  17 H :    0.135338
  18 H :    0.134179
  19 H :    0.131048
Sum of atomic charges:   -0.0000000

LOEWDIN ATOMIC CHARGES
----------------------
   0 O :    0.152292
   1 C :   -0.316724
   2 C :   -0.237180
   3 C :   -0.258461
   4 N :    0.104232
   5 C :   -0.241161
   6 C :   -0.283647
   7 C :   -0.226922
   8 C :   -0.228266
   9 H :    0.147048
  10 H :    0.152699
  11 H :    0.133482
  12 H :    0.136348
  13 H :    0.149060
  14 H :    0.147961
  15 H :    0.134518
  16 H :    0.130503
  17 H :    0.137012
  18 H :    0.136933
  19 H :    0.130272

  Mayer bond orders larger than 0.1
B(  0-O ,  1-C ) :   2.0422 B(  1-C ,  2-C ) :   0.8970 B(  1-C ,  5-C ) :   0.9102
B(  2-C ,  3-C ) :   0.9319 B(  2-C ,  5-C ) :  -0.1013 B(  2-C ,  9-H ) :   0.9133
B(  2-C , 10-H ) :   0.9065 B(  3-C ,  4-N ) :   0.8746 B(  3-C , 11-H ) :   0.9350
B(  3-C , 12-H ) :   0.9297 B(  4-N ,  5-C ) :   0.9210 B(  4-N ,  6-C ) :   0.9421
B(  5-C , 13-H ) :   0.9127 B(  5-C , 14-H ) :   0.9004 B(  6-C ,  7-C ) :   0.8864
B(  6-C ,  8-C ) :   0.8821 B(  6-C , 15-H ) :   0.9182 B(  7-C ,  8-C ) :   0.9266
B(  7-C , 16-H ) :   0.9302 B(  7-C , 17-H ) :   0.9251 B(  8-C , 18-H ) :   0.9263
B(  8-C , 19-H ) :   0.9300

MP2 TOTAL ENERGY:     -402.449787317 Eh
FINAL SINGLE POINT ENERGY      -402.449787316956

DIPOLE MOMENT
-------------
                                X             Y             Z
Electronic contribution:     -0.86738      -6.72269      -1.04713
Nuclear contribution   :      0.66020       7.62591       1.22686
                        -----------------------------------------
Total Dipole Moment    :     -0.20718       0.90322       0.17973
                        -----------------------------------------
Magnitude (a.u.)       :      0.94394
Magnitude (Debye)      :      2.39931

                             ****ORCA TERMINATED NORMALLY****
TOTAL RUN TIME: 0 days 0 hours 18 minutes 44 seconds 681 msec
