                         Program Version 3.0.3 - RELEASE   -
|  1> ! RI-MP2 RIJK def2-TZVP def2-TZVP/C def2-TZVP/JK TIGHTSCF
|  2> % maxcore 2000
|  3> % mp2 density relaxed end
|  4> *xyz 0 1
|  5>  C       -0.1671993641     1.5280299719     0.0300071695
|  6>  C       -0.0001718591     0.0154460471    -0.0078221350
|  7>  C        1.1257741585    -0.5880914763    -0.9039161673
|  8>  C        2.1253274616    -0.2793048336     0.2535238792
|  9>  C        0.8927797132    -0.6188033629     1.1228536594
| 10>  O        0.8257065235    -0.2259486250     2.4539993395
| 11>  C        0.7261355484    -2.1198741673     0.8446763973
| 12>  O       -0.5501723216    -2.5132876010     1.3359835798
| 13>  C        0.8889704798    -2.1024661097    -0.7098725129
| 14>  H        0.7819598483     2.0673245571     0.0875472425
| 15>  H       -0.6934905796     1.8801602329    -0.8637762527
| 16>  H       -0.7598901595     1.8204269680     0.9031721220
| 17>  H       -0.9799398653    -0.4581024012    -0.1250271296
| 18>  H        1.3020496285    -0.2303783252    -1.9179292720
| 19>  H        3.0107914496    -0.9153606688     0.3526996213
| 20>  H        2.4158796797     0.7682167805     0.3184560911
| 21>  H        0.1107972311    -0.7382724831     2.8528222604
| 22>  H        1.5139501922    -2.6989575838     1.3452840177
| 23>  H       -0.6210697639    -3.4703378470     1.2788075819
| 24>  H       -0.0234941904    -2.4545487825    -1.2008201843
| 25>  H        1.7295106590    -2.7133042700    -1.0528279078
| 26> *
| 27>
| 28>                          ****END OF INPUT****

CARTESIAN COORDINATES (ANGSTROEM)
---------------------------------
  C     -0.167199    1.528030    0.030007
  C     -0.000172    0.015446   -0.007822
  C      1.125774   -0.588091   -0.903916
  C      2.125327   -0.279305    0.253524
  C      0.892780   -0.618803    1.122854
  O      0.825707   -0.225949    2.453999
  C      0.726136   -2.119874    0.844676
  O     -0.550172   -2.513288    1.335984
  C      0.888970   -2.102466   -0.709873
  H      0.781960    2.067325    0.087547
  H     -0.693491    1.880160   -0.863776
  H     -0.759890    1.820427    0.903172
  H     -0.979940   -0.458102   -0.125027
  H      1.302050   -0.230378   -1.917929
  H      3.010791   -0.915361    0.352700
  H      2.415880    0.768217    0.318456
  H      0.110797   -0.738272    2.852822
  H      1.513950   -2.698958    1.345284
  H     -0.621070   -3.470338    1.278808
  H     -0.023494   -2.454549   -1.200820
  H      1.729511   -2.713304   -1.052828

 Total Charge           Charge          ....    0
 Multiplicity           Mult            ....    1
 Number of Electrons    NEL             ....   70
 Basis Dimension        Dim             ....  351

ORBITAL ENERGIES
----------------

  NO   OCC          E(Eh)            E(eV)
   0   2.0000     -20.564720      -559.5945
   1   2.0000     -20.552559      -559.2636
   2   2.0000     -11.280953      -306.9703
   3   2.0000     -11.279324      -306.9260
   4   2.0000     -11.231671      -305.6293
   5   2.0000     -11.224857      -305.4439
   6   2.0000     -11.220403      -305.3227
   7   2.0000     -11.219068      -305.2863
   8   2.0000     -11.207393      -304.9687
   9   2.0000      -1.380334       -37.5608
  10   2.0000      -1.355377       -36.8817
  11   2.0000      -1.175956       -31.9994
  12   2.0000      -1.004226       -27.3264
  13   2.0000      -0.948790       -25.8179
  14   2.0000      -0.922345       -25.0983
  15   2.0000      -0.858186       -23.3524
  16   2.0000      -0.778598       -21.1867
  17   2.0000      -0.727262       -19.7898
  18   2.0000      -0.701864       -19.0987
  19   2.0000      -0.693310       -18.8659
  20   2.0000      -0.657199       -17.8833
  21   2.0000      -0.624791       -17.0014
  22   2.0000      -0.594256       -16.1705
  23   2.0000      -0.584071       -15.8934
  24   2.0000      -0.554038       -15.0761
  25   2.0000      -0.542685       -14.7672
  26   2.0000      -0.531594       -14.4654
  27   2.0000      -0.524090       -14.2612
  28   2.0000      -0.508869       -13.8470
  29   2.0000      -0.494813       -13.4645
  30   2.0000      -0.471506       -12.8303
  31   2.0000      -0.445311       -12.1175
  32   2.0000      -0.432961       -11.7815
  33   2.0000      -0.418182       -11.3793
  34   2.0000      -0.389175       -10.5900
  35   0.0000       0.130313         3.5460
  36   0.0000       0.149847         4.0775
  37   0.0000       0.160501         4.3674
  38   0.0000       0.169277         4.6063
  39   0.0000       0.189662         5.1610

MULLIKEN ATOMIC CHARGES
-----------------------
   0 C :   -0.420156
   1 C :   -0.109703
   2 C :   -0.043774
   3 C :   -0.309094
   4 C :    0.279555
   5 O :   -0.474571
   6 C :   -0.027889
   7 O :   -0.480372
   8 C :   -0.261515
   9 H :    0.121604
  10 H :    0.132221
  11 H :    0.135101
  12 H :    0.106370
  13 H :    0.124271
  14 H :    0.111974
  15 H :    0.131764
  16 H :    0.329262
  17 H :    0.099286
  18 H :    0.320931
  19 H :    0.114650
  20 H :    0.120086
Sum of atomic charges:   -0.0000000

LOEWDIN ATOMIC CHARGES
----------------------
   0 C :   -0.290719
   1 C :   -0.193115
   2 C :   -0.185004
   3 C :   -0.171241
   4 C :   -0.337516
   5 O :    0.026490
   6 C :   -0.300158
   7 O :   -0.025008
   8 C :   -0.212491
   9 H :    0.123391
  10 H :    0.124066
  11 H :    0.128290
  12 H :    0.147539
  13 H :    0.133361
  14 H :    0.128898
  15 H :    0.138305
  16 H :    0.187797
  17 H :    0.132629
  18 H :    0.175405
  19 H :    0.136866
  20 H :    0.132214

  Mayer bond orders larger than 0.1
B(  0-C ,  1-C ) :   0.9092 B(  0-C ,  9-H ) :   0.9328 B(  0-C , 10-H ) :   0.9432
B(  0-C , 11-H ) :   0.9385 B(  1-C ,  2-C ) :   0.8760 B(  1-C ,  4-C ) :   0.8669
B(  1-C , 12-H ) :   0.9106 B(  2-C ,  3-C ) :   0.9121 B(  2-C ,  8-C ) :   0.8872
B(  2-C , 13-H ) :   0.9137 B(  3-C ,  4-C ) :   0.9061 B(  3-C , 14-H ) :   0.9205
B(  3-C , 15-H ) :   0.9241 B(  4-C ,  5-O ) :   1.0160 B(  4-C ,  6-C ) :   0.8957
B(  5-O , 16-H ) :   0.8252 B(  6-C ,  7-O ) :   1.0458 B(  6-C ,  8-C ) :   0.9221
B(  6-C , 17-H ) :   0.9501 B(  7-O , 18-H ) :   0.8439 B(  8-C , 19-H ) :   0.9123
B(  8-C , 20-H ) :   0.9169

MP2 TOTAL ENERGY:     -423.529315252 Eh
FINAL SINGLE POINT ENERGY      -423.529315251607

DIPOLE MOMENT
-------------
                                X             Y             Z
Electronic contribution:     -0.35906      -2.96456       3.82277
Nuclear contribution   :      0.31552       2.15735      -4.26935
                        -----------------------------------------
Total Dipole Moment    :     -0.04355      -0.80720      -0.44658
                        -----------------------------------------
Magnitude (a.u.)       :      0.92353
Magnitude (Debye)      :      2.34743

                             ****ORCA TERMINATED NORMALLY****
TOTAL RUN TIME: 0 days 0 hours 19 minutes 17 seconds 853 msec
