                         Program Version 3.0.3 - RELEASE   -
|  1> ! RI-MP2 RIJK def2-TZVP def2-TZVP/C def2-TZVP/JK TIGHTSCF
|  2> % maxcore 2000
|  3> % mp2 density relaxed end
|  4> *xyz 0 1
|  5>  C        0.0551725498     1.5431233973     0.0733724111
|  6>  O        1.5008304201     1.4787275721    -0.0305878550
|  7>  C        1.4713357017     0.0435005736    -0.0144445222
|  8>  C        2.4241733552    -0.7310783328    -0.8470418635
|  9>  C        2.8892966471    -1.7910994161    -0.1803595913
| 10>  C        2.3479005853    -1.9060176001     1.2321500787
| 11>  C        1.4666382244    -0.6461347068     1.3896360186
| 12>  C       -0.0873313613    -0.7825651300     1.2965301903
| 13>  C       -0.0915823032     0.0106697195    -0.0342183304
| 14>  H       -0.2722376931     1.9875580519     1.0226620563
| 15>  H       -0.3732705217     2.1172558928    -0.7559178976
| 16>  H        2.6653557073    -0.4665359519    -1.8699645001
| 17>  H        3.5710459930    -2.5286943462    -0.5918588270
| 18>  H        1.7638147938    -2.8281525246     1.3547125430
| 19>  H        3.1584957705    -1.9629827067     1.9692762416
| 20>  H        1.8113325690     0.0072597493     2.1930628884
| 21>  H       -0.4142863148    -1.8183651704     1.1652978104
| 22>  H       -0.6607014993    -0.3444939727     2.1187782985
| 23>  H       -0.6833007537    -0.3656564983    -0.8685792198
| 24> *
| 25>
| 26>                          ****END OF INPUT****

CARTESIAN COORDINATES (ANGSTROEM)
---------------------------------
  C      0.055173    1.543123    0.073372
  O      1.500830    1.478728   -0.030588
  C      1.471336    0.043501   -0.014445
  C      2.424173   -0.731078   -0.847042
  C      2.889297   -1.791099   -0.180360
  C      2.347901   -1.906018    1.232150
  C      1.466638   -0.646135    1.389636
  C     -0.087331   -0.782565    1.296530
  C     -0.091582    0.010670   -0.034218
  H     -0.272238    1.987558    1.022662
  H     -0.373271    2.117256   -0.755918
  H      2.665356   -0.466536   -1.869965
  H      3.571046   -2.528694   -0.591859
  H      1.763815   -2.828153    1.354713
  H      3.158496   -1.962983    1.969276
  H      1.811333    0.007260    2.193063
  H     -0.414286   -1.818365    1.165298
  H     -0.660701   -0.344494    2.118778
  H     -0.683301   -0.365656   -0.868579

 Total Charge           Charge          ....    0
 Multiplicity           Mult            ....    1
 Number of Electrons    NEL             ....   66
 Basis Dimension        Dim             ....  339

ORBITAL ENERGIES
----------------

  NO   OCC          E(Eh)            E(eV)
   0   2.0000     -20.544007      -559.0309
   1   2.0000     -11.280436      -306.9563
   2   2.0000     -11.276178      -306.8404
   3   2.0000     -11.235782      -305.7412
   4   2.0000     -11.230392      -305.5945
   5   2.0000     -11.228753      -305.5499
   6   2.0000     -11.226934      -305.5004
   7   2.0000     -11.224467      -305.4333
   8   2.0000     -11.222983      -305.3929
   9   2.0000      -1.376291       -37.4508
  10   2.0000      -1.147197       -31.2168
  11   2.0000      -1.063657       -28.9436
  12   2.0000      -0.968284       -26.3483
  13   2.0000      -0.944807       -25.7095
  14   2.0000      -0.868534       -23.6340
  15   2.0000      -0.823603       -22.4114
  16   2.0000      -0.758942       -20.6519
  17   2.0000      -0.693920       -18.8825
  18   2.0000      -0.683723       -18.6050
  19   2.0000      -0.649933       -17.6856
  20   2.0000      -0.638501       -17.3745
  21   2.0000      -0.617322       -16.7982
  22   2.0000      -0.578428       -15.7398
  23   2.0000      -0.561484       -15.2788
  24   2.0000      -0.543469       -14.7885
  25   2.0000      -0.524265       -14.2660
  26   2.0000      -0.501041       -13.6340
  27   2.0000      -0.478117       -13.0102
  28   2.0000      -0.459797       -12.5117
  29   2.0000      -0.447731       -12.1834
  30   2.0000      -0.430309       -11.7093
  31   2.0000      -0.389170       -10.5898
  32   2.0000      -0.343527        -9.3478
  33   0.0000       0.139410         3.7935
  34   0.0000       0.145882         3.9697
  35   0.0000       0.161746         4.4013
  36   0.0000       0.167252         4.5512
  37   0.0000       0.175125         4.7654

MULLIKEN ATOMIC CHARGES
-----------------------
   0 C :   -0.035055
   1 O :   -0.326056
   2 C :    0.284818
   3 C :   -0.265699
   4 C :   -0.122469
   5 C :   -0.226051
   6 C :   -0.053897
   7 C :   -0.269204
   8 C :   -0.127824
   9 H :    0.087118
  10 H :    0.103518
  11 H :    0.129951
  12 H :    0.128522
  13 H :    0.118995
  14 H :    0.124210
  15 H :    0.108332
  16 H :    0.114255
  17 H :    0.117486
  18 H :    0.109050
Sum of atomic charges:    0.0000000

LOEWDIN ATOMIC CHARGES
----------------------
   0 C :   -0.242709
   1 O :    0.156456
   2 C :   -0.257969
   3 C :   -0.123501
   4 C :   -0.131886
   5 C :   -0.221448
   6 C :   -0.150002
   7 C :   -0.203160
   8 C :   -0.168221
   9 H :    0.117668
  10 H :    0.118431
  11 H :    0.142966
  12 H :    0.136783
  13 H :    0.142396
  14 H :    0.139027
  15 H :    0.147910
  16 H :    0.134469
  17 H :    0.128397
  18 H :    0.134392

  Mayer bond orders larger than 0.1
B(  0-C ,  1-O ) :   0.9419 B(  0-C ,  8-C ) :   0.9736 B(  0-C ,  9-H ) :   0.8958
B(  0-C , 10-H ) :   0.9169 B(  1-O ,  2-C ) :   0.9714 B(  2-C ,  3-C ) :   0.9668
B(  2-C ,  6-C ) :   0.9023 B(  2-C ,  8-C ) :   0.9043 B(  3-C ,  4-C ) :   1.7685
B(  3-C , 11-H ) :   0.9249 B(  4-C ,  5-C ) :   0.9474 B(  4-C , 12-H ) :   0.9272
B(  5-C ,  6-C ) :   0.9241 B(  5-C , 13-H ) :   0.9070 B(  5-C , 14-H ) :   0.9200
B(  6-C ,  7-C ) :   0.9534 B(  6-C , 15-H ) :   0.8995 B(  7-C ,  8-C ) :   0.9546
B(  7-C , 16-H ) :   0.9046 B(  7-C , 17-H ) :   0.9205 B(  8-C , 18-H ) :   0.9036

MP2 TOTAL ENERGY:     -385.182318923 Eh
FINAL SINGLE POINT ENERGY      -385.182318922541

DIPOLE MOMENT
-------------
                                X             Y             Z
Electronic contribution:      1.96691       2.58891      -2.18928
Nuclear contribution   :     -2.40861      -3.20107       2.28156
                        -----------------------------------------
Total Dipole Moment    :     -0.44170      -0.61216       0.09228
                        -----------------------------------------
Magnitude (a.u.)       :      0.76049
Magnitude (Debye)      :      1.93302

                             ****ORCA TERMINATED NORMALLY****
TOTAL RUN TIME: 0 days 0 hours 18 minutes 2 seconds 760 msec
