                         Program Version 3.0.3 - RELEASE   -
|  1> ! RI-MP2 RIJK def2-TZVP def2-TZVP/C def2-TZVP/JK TIGHTSCF
|  2> % maxcore 2000
|  3> % mp2 density relaxed end
|  4> *xyz 0 1
|  5>  C       -0.3040642311     1.2315992296    -1.3737929120
|  6>  C        0.2445630743    -0.1106358175    -0.9231286998
|  7>  O        1.6479199045    -0.3051687803    -1.2585150080
|  8>  C        2.0264960939    -0.5642425933     0.1230737743
|  9>  C        3.1147009879     0.3623107858     0.6335429628
| 10>  C        0.5963628595    -0.3026741256     0.5354815101
| 11>  N        0.0367794480    -0.2565177442     1.6658965236
| 12>  O       -1.3344899950     0.0392302565     1.5411620865
| 13>  H        0.2854229928     2.0538161792    -0.9596150676
| 14>  H       -0.2722612603     1.2971090996    -2.4656185649
| 15>  H       -1.3405290542     1.3393677777    -1.0427631348
| 16>  H       -0.3696078484    -0.9296357967    -1.3249161000
| 17>  H        2.3266426606    -1.6145310046     0.2490105052
| 18>  H        2.8166397321     1.4087308892     0.5289014415
| 19>  H        3.3144454311     0.1577763055     1.6900235734
| 20>  H        4.0375273953     0.2028991930     0.0676283244
| 21>  H       -1.6253110610     0.0491963460     2.4594508753
| 22> *
| 23>
| 24>                          ****END OF INPUT****

CARTESIAN COORDINATES (ANGSTROEM)
---------------------------------
  C     -0.304064    1.231599   -1.373793
  C      0.244563   -0.110636   -0.923129
  O      1.647920   -0.305169   -1.258515
  C      2.026496   -0.564243    0.123074
  C      3.114701    0.362311    0.633543
  C      0.596363   -0.302674    0.535482
  N      0.036779   -0.256518    1.665897
  O     -1.334490    0.039230    1.541162
  H      0.285423    2.053816   -0.959615
  H     -0.272261    1.297109   -2.465619
  H     -1.340529    1.339368   -1.042763
  H     -0.369608   -0.929636   -1.324916
  H      2.326643   -1.614531    0.249011
  H      2.816640    1.408731    0.528901
  H      3.314445    0.157776    1.690024
  H      4.037527    0.202899    0.067628
  H     -1.625311    0.049196    2.459451

 Total Charge           Charge          ....    0
 Multiplicity           Mult            ....    1
 Number of Electrons    NEL             ....   62
 Basis Dimension        Dim             ....  302

ORBITAL ENERGIES
----------------

  NO   OCC          E(Eh)            E(eV)
   0   2.0000     -20.600422      -560.5660
   1   2.0000     -20.557111      -559.3874
   2   2.0000     -15.625653      -425.1956
   3   2.0000     -11.298887      -307.4584
   4   2.0000     -11.298268      -307.4415
   5   2.0000     -11.282238      -307.0053
   6   2.0000     -11.226233      -305.4813
   7   2.0000     -11.224014      -305.4209
   8   2.0000      -1.426440       -38.8154
   9   2.0000      -1.388900       -37.7939
  10   2.0000      -1.163172       -31.6515
  11   2.0000      -1.039766       -28.2935
  12   2.0000      -1.006335       -27.3838
  13   2.0000      -0.912738       -24.8369
  14   2.0000      -0.845030       -22.9944
  15   2.0000      -0.734364       -19.9830
  16   2.0000      -0.713053       -19.4032
  17   2.0000      -0.690826       -18.7983
  18   2.0000      -0.635315       -17.2878
  19   2.0000      -0.632042       -17.1987
  20   2.0000      -0.603257       -16.4155
  21   2.0000      -0.593363       -16.1462
  22   2.0000      -0.567141       -15.4327
  23   2.0000      -0.545035       -14.8312
  24   2.0000      -0.532296       -14.4845
  25   2.0000      -0.526889       -14.3374
  26   2.0000      -0.511893       -13.9293
  27   2.0000      -0.489477       -13.3194
  28   2.0000      -0.444957       -12.1079
  29   2.0000      -0.426826       -11.6145
  30   2.0000      -0.389580       -10.6010
  31   0.0000       0.126261         3.4357
  32   0.0000       0.145355         3.9553
  33   0.0000       0.161188         4.3861
  34   0.0000       0.166757         4.5377
  35   0.0000       0.176876         4.8130

MULLIKEN ATOMIC CHARGES
-----------------------
   0 C :   -0.394726
   1 C :    0.120805
   2 O :   -0.334686
   3 C :    0.137594
   4 C :   -0.400538
   5 C :   -0.054057
   6 N :   -0.080613
   7 O :   -0.361959
   8 H :    0.126296
   9 H :    0.141747
  10 H :    0.142430
  11 H :    0.106863
  12 H :    0.104553
  13 H :    0.129260
  14 H :    0.135785
  15 H :    0.141712
  16 H :    0.339535
Sum of atomic charges:   -0.0000000

LOEWDIN ATOMIC CHARGES
----------------------
   0 C :   -0.285887
   1 C :   -0.269915
   2 O :    0.155827
   3 C :   -0.265006
   4 C :   -0.285871
   5 C :   -0.248532
   6 N :    0.030740
   7 O :   -0.072636
   8 H :    0.126835
   9 H :    0.129502
  10 H :    0.132878
  11 H :    0.147121
  12 H :    0.144604
  13 H :    0.126926
  14 H :    0.132274
  15 H :    0.129993
  16 H :    0.171147

  Mayer bond orders larger than 0.1
B(  0-C ,  1-C ) :   0.9030 B(  0-C ,  8-H ) :   0.9346 B(  0-C ,  9-H ) :   0.9315
B(  0-C , 10-H ) :   0.9255 B(  1-C ,  2-O ) :   0.9371 B(  1-C ,  5-C ) :   0.9765
B(  1-C , 11-H ) :   0.8994 B(  2-O ,  3-C ) :   0.9414 B(  3-C ,  4-C ) :   0.9083
B(  3-C ,  5-C ) :   0.9668 B(  3-C , 12-H ) :   0.9032 B(  4-C , 13-H ) :   0.9352
B(  4-C , 14-H ) :   0.9269 B(  4-C , 15-H ) :   0.9321 B(  5-C ,  6-N ) :   1.8793
B(  6-N ,  7-O ) :   0.8088 B(  7-O , 16-H ) :   0.8421

MP2 TOTAL ENERGY:     -400.286608818 Eh
FINAL SINGLE POINT ENERGY      -400.286608817725

DIPOLE MOMENT
-------------
                                X             Y             Z
Electronic contribution:     -2.73344      -3.35963       2.23781
Nuclear contribution   :      2.50015       3.45271      -1.83861
                        -----------------------------------------
Total Dipole Moment    :     -0.23329       0.09308       0.39919
                        -----------------------------------------
Magnitude (a.u.)       :      0.47164
Magnitude (Debye)      :      1.19881

                             ****ORCA TERMINATED NORMALLY****
TOTAL RUN TIME: 0 days 0 hours 11 minutes 25 seconds 262 msec
