                         Program Version 3.0.3 - RELEASE   -
|  1> ! RI-MP2 RIJK def2-TZVP def2-TZVP/C def2-TZVP/JK TIGHTSCF
|  2> % maxcore 2000
|  3> % mp2 density relaxed end
|  4> *xyz 0 1
|  5>  C        0.0644886321     1.5249180689     0.1077835532
|  6>  C       -0.0420096090    -0.0003722266     0.1751479832
|  7>  C       -1.3952612849    -0.5235395121    -0.3249190309
|  8>  C       -1.4896647321    -2.0279859036    -0.2439053306
|  9>  N       -1.8141048105    -2.6033718654     1.0629061615
| 10>  C       -2.7842916669    -2.7568910614    -0.0418421270
| 11>  C       -4.0391715435    -2.0563631957     0.0931946042
| 12>  N       -5.0511724461    -1.5022665998     0.1681169004
| 13>  H        1.0362402736     1.8714400475     0.4723434736
| 14>  H       -0.0547825606     1.8866404816    -0.9195565157
| 15>  H       -0.7105248964     2.0012526710     0.7177442322
| 16>  H        0.7653962364    -0.4524381606    -0.4166183259
| 17>  H        0.1043258574    -0.3393752917     1.2076623466
| 18>  H       -2.2053973131    -0.0837365847     0.2665416344
| 19>  H       -1.5568017904    -0.2132242642    -1.3655998721
| 20>  H       -0.7684208370    -2.5689427686    -0.8569608041
| 21>  H       -1.3353112395    -3.4873283954     1.2135358999
| 22>  H       -2.8827140493    -3.7315649990    -0.5123015431
| 23> *
| 24>
| 25>                          ****END OF INPUT****

CARTESIAN COORDINATES (ANGSTROEM)
---------------------------------
  C      0.064489    1.524918    0.107784
  C     -0.042010   -0.000372    0.175148
  C     -1.395261   -0.523540   -0.324919
  C     -1.489665   -2.027986   -0.243905
  N     -1.814105   -2.603372    1.062906
  C     -2.784292   -2.756891   -0.041842
  C     -4.039172   -2.056363    0.093195
  N     -5.051172   -1.502267    0.168117
  H      1.036240    1.871440    0.472343
  H     -0.054783    1.886640   -0.919557
  H     -0.710525    2.001253    0.717744
  H      0.765396   -0.452438   -0.416618
  H      0.104326   -0.339375    1.207662
  H     -2.205397   -0.083737    0.266542
  H     -1.556802   -0.213224   -1.365600
  H     -0.768421   -2.568943   -0.856961
  H     -1.335311   -3.487328    1.213536
  H     -2.882714   -3.731565   -0.512302

 Total Charge           Charge          ....    0
 Multiplicity           Mult            ....    1
 Number of Electrons    NEL             ....   60
 Basis Dimension        Dim             ....  308

ORBITAL ENERGIES
----------------

  NO   OCC          E(Eh)            E(eV)
   0   2.0000     -15.593175      -424.3119
   1   2.0000     -15.571022      -423.7091
   2   2.0000     -11.314600      -307.8859
   3   2.0000     -11.295461      -307.3651
   4   2.0000     -11.274105      -306.7840
   5   2.0000     -11.235672      -305.7382
   6   2.0000     -11.230030      -305.5846
   7   2.0000     -11.218871      -305.2810
   8   2.0000      -1.302625       -35.4462
   9   2.0000      -1.214181       -33.0395
  10   2.0000      -1.075837       -29.2750
  11   2.0000      -0.976964       -26.5845
  12   2.0000      -0.960336       -26.1321
  13   2.0000      -0.855808       -23.2877
  14   2.0000      -0.805710       -21.9245
  15   2.0000      -0.747815       -20.3491
  16   2.0000      -0.700227       -19.0541
  17   2.0000      -0.639084       -17.3904
  18   2.0000      -0.597414       -16.2565
  19   2.0000      -0.584745       -15.9117
  20   2.0000      -0.564752       -15.3677
  21   2.0000      -0.555812       -15.1244
  22   2.0000      -0.529006       -14.3950
  23   2.0000      -0.517828       -14.0908
  24   2.0000      -0.503421       -13.6988
  25   2.0000      -0.482081       -13.1181
  26   2.0000      -0.481398       -13.0995
  27   2.0000      -0.463192       -12.6041
  28   2.0000      -0.454867       -12.3776
  29   2.0000      -0.411919       -11.2089
  30   0.0000       0.112699         3.0667
  31   0.0000       0.138203         3.7607
  32   0.0000       0.147782         4.0213
  33   0.0000       0.158613         4.3161
  34   0.0000       0.183805         5.0016

MULLIKEN ATOMIC CHARGES
-----------------------
   0 C :   -0.389122
   1 C :   -0.208362
   2 C :   -0.250932
   3 C :    0.026043
   4 N :   -0.374595
   5 C :    0.036152
   6 C :   -0.180279
   7 N :   -0.059256
   8 H :    0.135074
   9 H :    0.122235
  10 H :    0.131481
  11 H :    0.102498
  12 H :    0.125673
  13 H :    0.142045
  14 H :    0.117858
  15 H :    0.135178
  16 H :    0.228752
  17 H :    0.159557
Sum of atomic charges:   -0.0000000

LOEWDIN ATOMIC CHARGES
----------------------
   0 C :   -0.318476
   1 C :   -0.290007
   2 C :   -0.245978
   3 C :   -0.240732
   4 N :    0.032182
   5 C :   -0.246093
   6 C :   -0.172879
   7 N :    0.069598
   8 H :    0.121665
   9 H :    0.120728
  10 H :    0.123249
  11 H :    0.133537
  12 H :    0.139644
  13 H :    0.153288
  14 H :    0.145656
  15 H :    0.143324
  16 H :    0.172532
  17 H :    0.158764

  Mayer bond orders larger than 0.1
B(  0-C ,  1-C ) :   0.9245 B(  0-C ,  8-H ) :   0.9429 B(  0-C ,  9-H ) :   0.9379
B(  0-C , 10-H ) :   0.9403 B(  1-C ,  2-C ) :   0.9293 B(  1-C , 11-H ) :   0.9307
B(  1-C , 12-H ) :   0.9329 B(  2-C ,  3-C ) :   0.9318 B(  2-C , 13-H ) :   0.9275
B(  2-C , 14-H ) :   0.9272 B(  3-C ,  4-N ) :   0.8655 B(  3-C ,  5-C ) :   0.8837
B(  3-C , 15-H ) :   0.9147 B(  4-N ,  5-C ) :   0.9408 B(  4-N , 16-H ) :   0.8632
B(  5-C ,  6-C ) :   0.9476 B(  5-C , 17-H ) :   0.9066 B(  6-C ,  7-N ) :   2.8442

MP2 TOTAL ENERGY:     -343.370814384 Eh
FINAL SINGLE POINT ENERGY      -343.370814384216

DIPOLE MOMENT
-------------
                                X             Y             Z
Electronic contribution:     -9.98360      -7.32435       0.83762
Nuclear contribution   :     11.59718       6.50076      -1.38790
                        -----------------------------------------
Total Dipole Moment    :      1.61358      -0.82359      -0.55028
                        -----------------------------------------
Magnitude (a.u.)       :      1.89334
Magnitude (Debye)      :      4.81249

                             ****ORCA TERMINATED NORMALLY****
TOTAL RUN TIME: 0 days 0 hours 12 minutes 11 seconds 592 msec
