                         Program Version 3.0.3 - RELEASE   -
|  1> ! RI-MP2 RIJK def2-TZVP def2-TZVP/C def2-TZVP/JK TIGHTSCF
|  2> % maxcore 2000
|  3> % mp2 density relaxed end
|  4> *xyz 0 1
|  5>  C        0.0356639733     1.3226462333     0.2210222329
|  6>  O       -0.0744726013    -0.0395359823    -0.1906753816
|  7>  C       -1.3449396239    -0.5228299313    -0.1290589844
|  8>  C       -1.9760235087    -1.0675782062     1.1632561641
|  9>  N       -3.4482969787    -0.9694069474     1.0002929289
| 10>  C       -3.2026433351    -1.5439580614    -0.3751495062
| 11>  C       -1.7530825056    -2.0198083419     0.0330452197
| 12>  C       -2.4925174505    -0.3628916079    -1.0830807895
| 13>  O       -2.6696200689     0.2371399467    -2.1037643527
| 14>  H        1.0910647332     1.5871543294     0.1382542791
| 15>  H       -0.5574435855     1.9772191363    -0.4275707570
| 16>  H       -0.2932741226     1.4512619346     1.2604659271
| 17>  H       -1.4547414060    -0.9594174987     2.1065094980
| 18>  H       -3.8590989536    -1.7124443708     1.5669559848
| 19>  H       -3.9868409374    -2.1171280991    -0.8601565666
| 20>  H       -1.1424867088    -2.8905582834    -0.1606721167
| 21> *
| 22>
| 23>                          ****END OF INPUT****

CARTESIAN COORDINATES (ANGSTROEM)
---------------------------------
  C      0.035664    1.322646    0.221022
  O     -0.074473   -0.039536   -0.190675
  C     -1.344940   -0.522830   -0.129059
  C     -1.976024   -1.067578    1.163256
  N     -3.448297   -0.969407    1.000293
  C     -3.202643   -1.543958   -0.375150
  C     -1.753083   -2.019808    0.033045
  C     -2.492517   -0.362892   -1.083081
  O     -2.669620    0.237140   -2.103764
  H      1.091065    1.587154    0.138254
  H     -0.557444    1.977219   -0.427571
  H     -0.293274    1.451262    1.260466
  H     -1.454741   -0.959417    2.106509
  H     -3.859099   -1.712444    1.566956
  H     -3.986841   -2.117128   -0.860157
  H     -1.142487   -2.890558   -0.160672

 Total Charge           Charge          ....    0
 Multiplicity           Mult            ....    1
 Number of Electrons    NEL             ....   66
 Basis Dimension        Dim             ....  321

ORBITAL ENERGIES
----------------

  NO   OCC          E(Eh)            E(eV)
   0   2.0000     -20.586975      -560.2001
   1   2.0000     -20.547656      -559.1301
   2   2.0000     -15.575667      -423.8354
   3   2.0000     -11.338930      -308.5480
   4   2.0000     -11.314235      -307.8760
   5   2.0000     -11.296348      -307.3893
   6   2.0000     -11.294653      -307.3431
   7   2.0000     -11.284629      -307.0704
   8   2.0000     -11.269582      -306.6609
   9   2.0000      -1.417343       -38.5679
  10   2.0000      -1.390458       -37.8363
  11   2.0000      -1.306577       -35.5538
  12   2.0000      -1.103471       -30.0270
  13   2.0000      -0.973958       -26.5028
  14   2.0000      -0.949501       -25.8372
  15   2.0000      -0.873002       -23.7556
  16   2.0000      -0.789926       -21.4950
  17   2.0000      -0.745372       -20.2826
  18   2.0000      -0.719191       -19.5702
  19   2.0000      -0.670623       -18.2486
  20   2.0000      -0.652392       -17.7525
  21   2.0000      -0.640297       -17.4234
  22   2.0000      -0.638435       -17.3727
  23   2.0000      -0.612753       -16.6739
  24   2.0000      -0.606515       -16.5041
  25   2.0000      -0.548739       -14.9319
  26   2.0000      -0.530952       -14.4479
  27   2.0000      -0.520404       -14.1609
  28   2.0000      -0.493931       -13.4406
  29   2.0000      -0.450990       -12.2721
  30   2.0000      -0.429456       -11.6861
  31   2.0000      -0.397777       -10.8241
  32   2.0000      -0.368735       -10.0338
  33   0.0000       0.129879         3.5342
  34   0.0000       0.145884         3.9697
  35   0.0000       0.157246         4.2789
  36   0.0000       0.169303         4.6070
  37   0.0000       0.183008         4.9799

MULLIKEN ATOMIC CHARGES
-----------------------
   0 C :   -0.215738
   1 O :   -0.308428
   2 C :    0.182294
   3 C :   -0.091599
   4 N :   -0.333031
   5 C :    0.032702
   6 C :   -0.234305
   7 C :    0.135138
   8 O :   -0.265250
   9 H :    0.144775
  10 H :    0.148501
  11 H :    0.119511
  12 H :    0.149321
  13 H :    0.209035
  14 H :    0.156668
  15 H :    0.170406
Sum of atomic charges:   -0.0000000

LOEWDIN ATOMIC CHARGES
----------------------
   0 C :   -0.315131
   1 O :    0.210793
   2 C :   -0.265990
   3 C :   -0.194897
   4 N :    0.007819
   5 C :   -0.156762
   6 C :   -0.088101
   7 C :   -0.280611
   8 O :    0.156754
   9 H :    0.115768
  10 H :    0.114353
  11 H :    0.105737
  12 H :    0.142373
  13 H :    0.169397
  14 H :    0.136242
  15 H :    0.142256

  Mayer bond orders larger than 0.1
B(  0-C ,  1-O ) :   0.8635 B(  0-C ,  9-H ) :   0.9382 B(  0-C , 10-H ) :   0.9348
B(  0-C , 11-H ) :   0.9336 B(  1-O ,  2-C ) :   1.0148 B(  2-C ,  3-C ) :   0.8241
B(  2-C ,  5-C ) :  -0.1097 B(  2-C ,  6-C ) :   0.8413 B(  2-C ,  7-C ) :   0.9166
B(  3-C ,  4-N ) :   0.9308 B(  3-C ,  6-C ) :   0.9268 B(  3-C , 12-H ) :   0.9094
B(  4-N ,  5-C ) :   0.9038 B(  4-N , 13-H ) :   0.8685 B(  5-C ,  6-C ) :   0.9079
B(  5-C ,  7-C ) :   0.7964 B(  5-C , 14-H ) :   0.9024 B(  6-C , 15-H ) :   0.8888
B(  7-C ,  8-O ) :   2.0454

MP2 TOTAL ENERGY:     -437.077636464 Eh
FINAL SINGLE POINT ENERGY      -437.077636464138

DIPOLE MOMENT
-------------
                                X             Y             Z
Electronic contribution:     -2.22288      -1.62628      -3.34187
Nuclear contribution   :      2.57862       0.84796       4.48394
                        -----------------------------------------
Total Dipole Moment    :      0.35573      -0.77832       1.14207
                        -----------------------------------------
Magnitude (a.u.)       :      1.42711
Magnitude (Debye)      :      3.62743

                             ****ORCA TERMINATED NORMALLY****
TOTAL RUN TIME: 0 days 0 hours 15 minutes 8 seconds 274 msec
