                         Program Version 3.0.3 - RELEASE   -
|  1> ! RI-MP2 RIJK def2-TZVP def2-TZVP/C def2-TZVP/JK TIGHTSCF
|  2> % maxcore 2000
|  3> % mp2 density relaxed end
|  4> *xyz 0 1
|  5>  O       -0.0067535767     1.4427945715     0.1706635361
|  6>  C        0.0242201774     0.0464623421     0.0608546449
|  7>  C       -1.3844255241    -0.5914866081    -0.0588799267
|  8>  N       -0.9721707543    -1.1413166703    -1.3698689667
|  9>  C       -1.6566896713    -1.9355433429    -2.2757045936
| 10>  O       -1.2203699761    -2.3090698922    -3.3313100925
| 11>  C        0.2934661636    -0.5175226406    -1.3589939304
| 12>  O        1.1757706341    -0.4385319105    -2.1576321762
| 13>  H        0.8504676124     1.7811762140    -0.1128489568
| 14>  H        0.6536820831    -0.4270062050     0.8268534779
| 15>  H       -1.6308657433    -1.3522640409     0.6844257551
| 16>  H       -2.1771834482     0.1563027825    -0.1292805320
| 17>  H       -2.6679241865    -2.1897858194    -1.8989929291
| 18> *
| 19>
| 20>                          ****END OF INPUT****

CARTESIAN COORDINATES (ANGSTROEM)
---------------------------------
  O     -0.006754    1.442795    0.170664
  C      0.024220    0.046462    0.060855
  C     -1.384426   -0.591487   -0.058880
  N     -0.972171   -1.141317   -1.369869
  C     -1.656690   -1.935543   -2.275705
  O     -1.220370   -2.309070   -3.331310
  C      0.293466   -0.517523   -1.358994
  O      1.175771   -0.438532   -2.157632
  H      0.850468    1.781176   -0.112849
  H      0.653682   -0.427006    0.826853
  H     -1.630866   -1.352264    0.684426
  H     -2.177183    0.156303   -0.129281
  H     -2.667924   -2.189786   -1.898993

 Total Charge           Charge          ....    0
 Multiplicity           Mult            ....    1
 Number of Electrons    NEL             ....   60
 Basis Dimension        Dim             ....  278

ORBITAL ENERGIES
----------------

  NO   OCC          E(Eh)            E(eV)
   0   2.0000     -20.597856      -560.4962
   1   2.0000     -20.566498      -559.6429
   2   2.0000     -20.556817      -559.3794
   3   2.0000     -15.626832      -425.2277
   4   2.0000     -11.381819      -309.7150
   5   2.0000     -11.377376      -309.5941
   6   2.0000     -11.331141      -308.3360
   7   2.0000     -11.307073      -307.6811
   8   2.0000      -1.435272       -39.0557
   9   2.0000      -1.409845       -38.3638
  10   2.0000      -1.401635       -38.1404
  11   2.0000      -1.299066       -35.3494
  12   2.0000      -1.057945       -28.7882
  13   2.0000      -0.937187       -25.5022
  14   2.0000      -0.878245       -23.8983
  15   2.0000      -0.769458       -20.9380
  16   2.0000      -0.745134       -20.2761
  17   2.0000      -0.713258       -19.4087
  18   2.0000      -0.696636       -18.9564
  19   2.0000      -0.671516       -18.2729
  20   2.0000      -0.644463       -17.5367
  21   2.0000      -0.610307       -16.6073
  22   2.0000      -0.607095       -16.5199
  23   2.0000      -0.582646       -15.8546
  24   2.0000      -0.555540       -15.1170
  25   2.0000      -0.541350       -14.7309
  26   2.0000      -0.506140       -13.7728
  27   2.0000      -0.473777       -12.8921
  28   2.0000      -0.425064       -11.5666
  29   2.0000      -0.422268       -11.4905
  30   0.0000       0.094423         2.5694
  31   0.0000       0.130265         3.5447
  32   0.0000       0.139003         3.7825
  33   0.0000       0.157870         4.2958
  34   0.0000       0.173314         4.7161

MULLIKEN ATOMIC CHARGES
-----------------------
   0 O :   -0.468411
   1 C :    0.094613
   2 C :   -0.158088
   3 N :   -0.066922
   4 C :    0.134559
   5 O :   -0.269952
   6 C :    0.145802
   7 O :   -0.248655
   8 H :    0.339220
   9 H :    0.116189
  10 H :    0.139410
  11 H :    0.143281
  12 H :    0.098954
Sum of atomic charges:    0.0000000

LOEWDIN ATOMIC CHARGES
----------------------
   0 O :   -0.000161
   1 C :   -0.294170
   2 C :   -0.186616
   3 N :    0.212070
   4 C :   -0.372018
   5 O :    0.129381
   6 C :   -0.368312
   7 O :    0.166123
   8 H :    0.191382
   9 H :    0.138913
  10 H :    0.129560
  11 H :    0.137361
  12 H :    0.116487

  Mayer bond orders larger than 0.1
B(  0-O ,  1-C ) :   0.9775 B(  0-O ,  8-H ) :   0.8306 B(  1-C ,  2-C ) :   0.9104
B(  1-C ,  6-C ) :   0.9073 B(  1-C ,  9-H ) :   0.9158 B(  2-C ,  3-N ) :   0.9125
B(  2-C , 10-H ) :   0.9170 B(  2-C , 11-H ) :   0.9114 B(  3-N ,  4-C ) :   0.9869
B(  3-N ,  6-C ) :   0.9845 B(  4-C ,  5-O ) :   1.9827 B(  4-C , 12-H ) :   0.9278
B(  6-C ,  7-O ) :   2.0428

MP2 TOTAL ENERGY:     -435.080356893 Eh
FINAL SINGLE POINT ENERGY      -435.080356892572

DIPOLE MOMENT
-------------
                                X             Y             Z
Electronic contribution:      1.92773      -0.93989      -3.77132
Nuclear contribution   :     -2.52190       1.15458       5.44173
                        -----------------------------------------
Total Dipole Moment    :     -0.59417       0.21468       1.67040
                        -----------------------------------------
Magnitude (a.u.)       :      1.78588
Magnitude (Debye)      :      4.53935

                             ****ORCA TERMINATED NORMALLY****
TOTAL RUN TIME: 0 days 0 hours 9 minutes 24 seconds 635 msec
