                         Program Version 3.0.3 - RELEASE   -
|  1> ! RI-MP2 RIJK def2-TZVP def2-TZVP/C def2-TZVP/JK TIGHTSCF
|  2> % maxcore 2000
|  3> % mp2 density relaxed end
|  4> *xyz 0 1
|  5>  C        0.0267976709     1.5753460379     0.1270051325
|  6>  C       -0.0164766022     0.0766268897     0.0697070166
|  7>  C        1.1664549811    -0.7711509927    -0.3652495422
|  8>  C        0.5819108985    -0.9640839387     1.0049089871
|  9>  O        1.2939606762    -0.7460602698     2.1674747723
| 10>  C       -0.7023903939    -1.8201619598     0.9440574576
| 11>  C       -1.2905476026    -0.7676001399    -0.0748038143
| 12>  C       -0.5905080973    -3.2085042723     0.5375918527
| 13>  C       -0.4769393634    -4.3524896240     0.1817731561
| 14>  H        0.9981549060     1.9233366555     0.4919894227
| 15>  H       -0.1379542050     2.0190781086    -0.8620230095
| 16>  H       -0.7428929975     1.9689433571     0.8006086628
| 17>  H        1.0672613960    -1.5316821723    -1.1366512416
| 18>  H        2.1153985170    -0.2431545178    -0.3625714127
| 19>  H        2.0034366195    -1.3965483941     2.2177792404
| 20>  H       -1.2314006895    -1.7445562087     1.8987638463
| 21>  H       -2.1866399340    -0.2804580938     0.3165561141
| 22>  H       -1.4992057855    -1.1547036877    -1.0758680305
| 23>  H       -0.3855257944    -5.3648721671    -0.1247744103
| 24> *
| 25>
| 26>                          ****END OF INPUT****

CARTESIAN COORDINATES (ANGSTROEM)
---------------------------------
  C      0.026798    1.575346    0.127005
  C     -0.016477    0.076627    0.069707
  C      1.166455   -0.771151   -0.365250
  C      0.581911   -0.964084    1.004909
  O      1.293961   -0.746060    2.167475
  C     -0.702390   -1.820162    0.944057
  C     -1.290548   -0.767600   -0.074804
  C     -0.590508   -3.208504    0.537592
  C     -0.476939   -4.352490    0.181773
  H      0.998155    1.923337    0.491989
  H     -0.137954    2.019078   -0.862023
  H     -0.742893    1.968943    0.800609
  H      1.067261   -1.531682   -1.136651
  H      2.115399   -0.243155   -0.362571
  H      2.003437   -1.396548    2.217779
  H     -1.231401   -1.744556    1.898764
  H     -2.186640   -0.280458    0.316556
  H     -1.499206   -1.154704   -1.075868
  H     -0.385526   -5.364872   -0.124774

 Total Charge           Charge          ....    0
 Multiplicity           Mult            ....    1
 Number of Electrons    NEL             ....   66
 Basis Dimension        Dim             ....  339

ORBITAL ENERGIES
----------------

  NO   OCC          E(Eh)            E(eV)
   0   2.0000     -20.571357      -559.7751
   1   2.0000     -11.291908      -307.2684
   2   2.0000     -11.256751      -306.3118
   3   2.0000     -11.240703      -305.8751
   4   2.0000     -11.235239      -305.7264
   5   2.0000     -11.231530      -305.6255
   6   2.0000     -11.226689      -305.4937
   7   2.0000     -11.220726      -305.3315
   8   2.0000     -11.219915      -305.3094
   9   2.0000      -1.383434       -37.6451
  10   2.0000      -1.193451       -32.4755
  11   2.0000      -1.052128       -28.6298
  12   2.0000      -0.987083       -26.8599
  13   2.0000      -0.971095       -26.4248
  14   2.0000      -0.888265       -24.1709
  15   2.0000      -0.821304       -22.3488
  16   2.0000      -0.739021       -20.1098
  17   2.0000      -0.718026       -19.5385
  18   2.0000      -0.686576       -18.6827
  19   2.0000      -0.654293       -17.8042
  20   2.0000      -0.643399       -17.5078
  21   2.0000      -0.621341       -16.9076
  22   2.0000      -0.582143       -15.8409
  23   2.0000      -0.560177       -15.2432
  24   2.0000      -0.545715       -14.8496
  25   2.0000      -0.536182       -14.5902
  26   2.0000      -0.528529       -14.3820
  27   2.0000      -0.487680       -13.2704
  28   2.0000      -0.481073       -13.0907
  29   2.0000      -0.406214       -11.0536
  30   2.0000      -0.385421       -10.4878
  31   2.0000      -0.378092       -10.2884
  32   2.0000      -0.366561        -9.9746
  33   0.0000       0.133730         3.6390
  34   0.0000       0.148601         4.0436
  35   0.0000       0.164476         4.4756
  36   0.0000       0.169098         4.6014
  37   0.0000       0.173448         4.7198

MULLIKEN ATOMIC CHARGES
-----------------------
   0 C :   -0.428806
   1 C :    0.047891
   2 C :   -0.342467
   3 C :    0.195402
   4 O :   -0.452837
   5 C :   -0.158513
   6 C :   -0.190098
   7 C :   -0.061329
   8 C :   -0.174509
   9 H :    0.138874
  10 H :    0.137062
  11 H :    0.130073
  12 H :    0.135891
  13 H :    0.138098
  14 H :    0.332817
  15 H :    0.118872
  16 H :    0.119181
  17 H :    0.126895
  18 H :    0.187504
Sum of atomic charges:    0.0000000

LOEWDIN ATOMIC CHARGES
----------------------
   0 C :   -0.271706
   1 C :   -0.209759
   2 C :   -0.172047
   3 C :   -0.298401
   4 O :    0.036113
   5 C :   -0.172571
   6 C :   -0.145524
   7 C :   -0.091857
   8 C :   -0.104790
   9 H :    0.134027
  10 H :    0.129340
  11 H :    0.128873
  12 H :    0.135710
  13 H :    0.144418
  14 H :    0.188727
  15 H :    0.172067
  16 H :    0.136794
  17 H :    0.134798
  18 H :    0.125791

  Mayer bond orders larger than 0.1
B(  0-C ,  1-C ) :   0.8741 B(  0-C ,  9-H ) :   0.9367 B(  0-C , 10-H ) :   0.9403
B(  0-C , 11-H ) :   0.9396 B(  1-C ,  2-C ) :   0.8691 B(  1-C ,  3-C ) :   0.8132
B(  1-C ,  6-C ) :   0.9361 B(  2-C ,  3-C ) :   0.9128 B(  2-C , 12-H ) :   0.8920
B(  2-C , 13-H ) :   0.9341 B(  3-C ,  4-O ) :   1.0570 B(  3-C ,  5-C ) :   0.9391
B(  4-O , 14-H ) :   0.8315 B(  5-C ,  6-C ) :   0.9421 B(  5-C ,  7-C ) :   1.1434
B(  5-C , 15-H ) :   0.8973 B(  6-C , 16-H ) :   0.9179 B(  6-C , 17-H ) :   0.9107
B(  7-C ,  8-C ) :   2.5660 B(  8-C , 18-H ) :   0.9035

MP2 TOTAL ENERGY:     -385.146891508 Eh
FINAL SINGLE POINT ENERGY      -385.146891508152

DIPOLE MOMENT
-------------
                                X             Y             Z
Electronic contribution:      0.57916      -5.38671       2.74940
Nuclear contribution   :     -0.37008       5.36401      -3.01320
                        -----------------------------------------
Total Dipole Moment    :      0.20908      -0.02269      -0.26380
                        -----------------------------------------
Magnitude (a.u.)       :      0.33737
Magnitude (Debye)      :      0.85752

                             ****ORCA TERMINATED NORMALLY****
TOTAL RUN TIME: 0 days 0 hours 18 minutes 59 seconds 358 msec
