                         Program Version 3.0.3 - RELEASE   -
|  1> ! RI-MP2 RIJK def2-TZVP def2-TZVP/C def2-TZVP/JK TIGHTSCF
|  2> % maxcore 2000
|  3> % mp2 density relaxed end
|  4> *xyz 0 1
|  5>  C       -0.0842527465     1.5567118747     0.1401858116
|  6>  C        0.0154743249     0.0417721889    -0.0241339325
|  7>  C        0.7236308154    -0.4214776922    -1.2684096981
|  8>  N        1.1940839665     0.4562791085    -2.1050114060
|  9>  N        1.8152232419    -0.0317359450    -3.1950880123
| 10>  C        2.0067767521    -1.3658957735    -3.5207938359
| 11>  O        2.5813109388    -1.7281005200    -4.5299242648
| 12>  C        1.4237781105    -2.2329407440    -2.4857452446
| 13>  N        0.8230568574    -1.7940574080    -1.4311742000
| 14>  H        0.9064367562     2.0175662402     0.1757732827
| 15>  H       -0.6255243274     2.0110499741    -0.6939043452
| 16>  H       -0.6112433164     1.8006175503     1.0666876070
| 17>  H        0.5305791225    -0.4090031175     0.8340040985
| 18>  H       -0.9824922687    -0.4154041550    -0.0247645583
| 19>  H        2.1751879840     0.6646434213    -3.8354470449
| 20>  H        1.5170197487    -3.3066748528    -2.6404797873
| 21> *
| 22>
| 23>                          ****END OF INPUT****

CARTESIAN COORDINATES (ANGSTROEM)
---------------------------------
  C     -0.084253    1.556712    0.140186
  C      0.015474    0.041772   -0.024134
  C      0.723631   -0.421478   -1.268410
  N      1.194084    0.456279   -2.105011
  N      1.815223   -0.031736   -3.195088
  C      2.006777   -1.365896   -3.520794
  O      2.581311   -1.728101   -4.529924
  C      1.423778   -2.232941   -2.485745
  N      0.823057   -1.794057   -1.431174
  H      0.906437    2.017566    0.175773
  H     -0.625524    2.011050   -0.693904
  H     -0.611243    1.800618    1.066688
  H      0.530579   -0.409003    0.834004
  H     -0.982492   -0.415404   -0.024765
  H      2.175188    0.664643   -3.835447
  H      1.517020   -3.306675   -2.640480

 Total Charge           Charge          ....    0
 Multiplicity           Mult            ....    1
 Number of Electrons    NEL             ....   66
 Basis Dimension        Dim             ....  321

ORBITAL ENERGIES
----------------

  NO   OCC          E(Eh)            E(eV)
   0   2.0000     -20.538899      -558.8919
   1   2.0000     -15.654966      -425.9933
   2   2.0000     -15.632128      -425.3718
   3   2.0000     -15.614134      -424.8822
   4   2.0000     -11.376999      -309.5839
   5   2.0000     -11.325353      -308.1785
   6   2.0000     -11.323804      -308.1364
   7   2.0000     -11.245717      -306.0115
   8   2.0000     -11.223250      -305.4002
   9   2.0000      -1.421821       -38.6897
  10   2.0000      -1.367406       -37.2090
  11   2.0000      -1.269754       -34.5518
  12   2.0000      -1.150960       -31.3192
  13   2.0000      -1.042967       -28.3806
  14   2.0000      -0.966227       -26.2924
  15   2.0000      -0.920905       -25.0591
  16   2.0000      -0.853355       -23.2210
  17   2.0000      -0.778599       -21.1868
  18   2.0000      -0.746036       -20.3007
  19   2.0000      -0.661692       -18.0056
  20   2.0000      -0.656327       -17.8596
  21   2.0000      -0.651847       -17.7377
  22   2.0000      -0.618999       -16.8438
  23   2.0000      -0.618361       -16.8265
  24   2.0000      -0.546012       -14.8577
  25   2.0000      -0.535619       -14.5749
  26   2.0000      -0.521639       -14.1945
  27   2.0000      -0.512022       -13.9328
  28   2.0000      -0.508325       -13.8322
  29   2.0000      -0.501865       -13.6564
  30   2.0000      -0.485908       -13.2222
  31   2.0000      -0.417600       -11.3635
  32   2.0000      -0.355455        -9.6724
  33   0.0000       0.049329         1.3423
  34   0.0000       0.131444         3.5768
  35   0.0000       0.137209         3.7337
  36   0.0000       0.148211         4.0330
  37   0.0000       0.169626         4.6158

MULLIKEN ATOMIC CHARGES
-----------------------
   0 C :   -0.366057
   1 C :   -0.197840
   2 C :    0.151908
   3 N :   -0.139857
   4 N :   -0.149009
   5 C :    0.236400
   6 O :   -0.352263
   7 C :   -0.055132
   8 N :   -0.212529
   9 H :    0.130089
  10 H :    0.130115
  11 H :    0.137267
  12 H :    0.130692
  13 H :    0.130664
  14 H :    0.266288
  15 H :    0.159266
Sum of atomic charges:   -0.0000000

LOEWDIN ATOMIC CHARGES
----------------------
   0 C :   -0.311182
   1 C :   -0.257600
   2 C :   -0.322305
   3 N :    0.094051
   4 N :    0.139648
   5 C :   -0.469644
   6 O :    0.083710
   7 C :   -0.148256
   8 N :    0.165703
   9 H :    0.124714
  10 H :    0.124716
  11 H :    0.123139
  12 H :    0.152030
  13 H :    0.152028
  14 H :    0.199503
  15 H :    0.149745

  Mayer bond orders larger than 0.1
B(  0-C ,  1-C ) :   0.9412 B(  0-C ,  9-H ) :   0.9339 B(  0-C , 10-H ) :   0.9338
B(  0-C , 11-H ) :   0.9358 B(  1-C ,  2-C ) :   0.9517 B(  1-C , 12-H ) :   0.9172
B(  1-C , 13-H ) :   0.9171 B(  2-C ,  3-N ) :   1.6439 B(  2-C ,  8-N ) :   1.1400
B(  3-N ,  4-N ) :   0.9608 B(  4-N ,  5-C ) :   1.0878 B(  4-N , 14-H ) :   0.8615
B(  5-C ,  6-O ) :   1.9154 B(  5-C ,  7-C ) :   1.0096 B(  7-C ,  8-N ) :   1.6338
B(  7-C , 15-H ) :   0.9201

MP2 TOTAL ENERGY:     -433.371948961 Eh
FINAL SINGLE POINT ENERGY      -433.371948960829

DIPOLE MOMENT
-------------
                                X             Y             Z
Electronic contribution:      4.58138      -5.46336      -8.02978
Nuclear contribution   :     -4.96144       6.06148       8.69429
                        -----------------------------------------
Total Dipole Moment    :     -0.38006       0.59813       0.66451
                        -----------------------------------------
Magnitude (a.u.)       :      0.97148
Magnitude (Debye)      :      2.46931

                             ****ORCA TERMINATED NORMALLY****
TOTAL RUN TIME: 0 days 0 hours 16 minutes 44 seconds 84 msec
