                         Program Version 3.0.3 - RELEASE   -
|  1> ! RI-MP2 RIJK def2-TZVP def2-TZVP/C def2-TZVP/JK TIGHTSCF
|  2> % maxcore 2000
|  3> % mp2 density relaxed end
|  4> *xyz 0 1
|  5>  N        0.2841505397     0.7747541406     0.6478269156
|  6>  C       -0.3498476912     0.5374146520    -0.5336897193
|  7>  O       -0.0985359578     1.1193614491    -1.5697600149
|  8>  C       -1.3780555952    -0.4966280867    -0.4499955817
|  9>  C       -2.2368429427    -1.3391585647    -0.4440117880
| 10>  C       -3.2809757190    -2.3589567712    -0.4508985959
| 11>  C       -3.4846164439    -2.9823930908     0.8632548814
| 12>  N       -3.6498192053    -3.4764044216     1.8933254148
| 13>  H        1.0065139328     1.4758752832     0.6708593497
| 14>  H        0.0485349435     0.2739216171     1.4867713296
| 15>  H       -4.2321988628    -1.9227695682    -0.7819496115
| 16>  H       -3.0359261483    -3.1450921787    -1.1765897197
| 17> *
| 18>
| 19>                          ****END OF INPUT****

CARTESIAN COORDINATES (ANGSTROEM)
---------------------------------
  N      0.284151    0.774754    0.647827
  C     -0.349848    0.537415   -0.533690
  O     -0.098536    1.119361   -1.569760
  C     -1.378056   -0.496628   -0.449996
  C     -2.236843   -1.339159   -0.444012
  C     -3.280976   -2.358957   -0.450899
  C     -3.484616   -2.982393    0.863255
  N     -3.649819   -3.476404    1.893325
  H      1.006514    1.475875    0.670859
  H      0.048535    0.273922    1.486771
  H     -4.232199   -1.922770   -0.781950
  H     -3.035926   -3.145092   -1.176590

 Total Charge           Charge          ....    0
 Multiplicity           Mult            ....    1
 Number of Electrons    NEL             ....   56
 Basis Dimension        Dim             ....  272

ORBITAL ENERGIES
----------------

  NO   OCC          E(Eh)            E(eV)
   0   2.0000     -20.541911      -558.9738
   1   2.0000     -15.604296      -424.6145
   2   2.0000     -15.591728      -424.2725
   3   2.0000     -11.393915      -310.0442
   4   2.0000     -11.335677      -308.4594
   5   2.0000     -11.296978      -307.4064
   6   2.0000     -11.286558      -307.1229
   7   2.0000     -11.268972      -306.6443
   8   2.0000      -1.406396       -38.2700
   9   2.0000      -1.241226       -33.7755
  10   2.0000      -1.235117       -33.6093
  11   2.0000      -1.127508       -30.6810
  12   2.0000      -1.039820       -28.2949
  13   2.0000      -0.896961       -24.4076
  14   2.0000      -0.778118       -21.1737
  15   2.0000      -0.749677       -20.3997
  16   2.0000      -0.714880       -19.4529
  17   2.0000      -0.693753       -18.8780
  18   2.0000      -0.672643       -18.3035
  19   2.0000      -0.634914       -17.2769
  20   2.0000      -0.602990       -16.4082
  21   2.0000      -0.577427       -15.7126
  22   2.0000      -0.489626       -13.3234
  23   2.0000      -0.485720       -13.2171
  24   2.0000      -0.470647       -12.8070
  25   2.0000      -0.435151       -11.8411
  26   2.0000      -0.430455       -11.7133
  27   2.0000      -0.425715       -11.5843
  28   0.0000       0.096397         2.6231
  29   0.0000       0.107298         2.9197
  30   0.0000       0.122263         3.3269
  31   0.0000       0.156872         4.2687
  32   0.0000       0.158657         4.3173

MULLIKEN ATOMIC CHARGES
-----------------------
   0 N :   -0.466734
   1 C :    0.226478
   2 O :   -0.313165
   3 C :    0.067279
   4 C :   -0.035249
   5 C :   -0.217412
   6 C :   -0.135519
   7 N :   -0.057408
   8 H :    0.267801
   9 H :    0.272529
  10 H :    0.195700
  11 H :    0.195699
Sum of atomic charges:    0.0000000

LOEWDIN ATOMIC CHARGES
----------------------
   0 N :    0.003849
   1 C :   -0.481251
   2 O :    0.113557
   3 C :   -0.011872
   4 C :   -0.032919
   5 C :   -0.220334
   6 C :   -0.172068
   7 N :    0.071517
   8 H :    0.178458
   9 H :    0.178959
  10 H :    0.186056
  11 H :    0.186047

  Mayer bond orders larger than 0.1
B(  0-N ,  1-C ) :   1.2436 B(  0-N ,  3-C ) :  -0.1048 B(  0-N ,  8-H ) :   0.8573
B(  0-N ,  9-H ) :   0.8648 B(  1-C ,  2-O ) :   2.0328 B(  1-C ,  3-C ) :   0.8776
B(  3-C ,  4-C ) :   2.7159 B(  4-C ,  5-C ) :   0.9981 B(  5-C ,  6-C ) :   0.9327
B(  5-C , 10-H ) :   0.9121 B(  5-C , 11-H ) :   0.9121 B(  6-C ,  7-N ) :   2.8404

MP2 TOTAL ENERGY:     -376.887916330 Eh
FINAL SINGLE POINT ENERGY      -376.887916330140

DIPOLE MOMENT
-------------
                                X             Y             Z
Electronic contribution:     -0.48129      -0.43288      -0.11509
Nuclear contribution   :      0.57781       0.48996       0.23052
                        -----------------------------------------
Total Dipole Moment    :      0.09652       0.05708       0.11543
                        -----------------------------------------
Magnitude (a.u.)       :      0.16093
Magnitude (Debye)      :      0.40905

                             ****ORCA TERMINATED NORMALLY****
TOTAL RUN TIME: 0 days 0 hours 7 minutes 35 seconds 504 msec
