                         Program Version 3.0.3 - RELEASE   -
|  1> ! RI-MP2 RIJK def2-TZVP def2-TZVP/C def2-TZVP/JK TIGHTSCF
|  2> % maxcore 2000
|  3> % mp2 density relaxed end
|  4> *xyz 0 1
|  5>  C       -0.0453312909     1.5610364502     0.0591064458
|  6>  C        0.0081716155     0.0236108253    -0.0091256350
|  7>  C        0.6871694130    -0.4701800749    -1.2029357837
|  8>  C        1.2535593322    -0.8405878913    -2.1993896718
|  9>  C        1.9313641673    -1.3334811215    -3.3910125510
| 10>  C        1.9687606311    -2.8840700597    -3.4266265663
| 11>  C        2.6462451679    -3.3915409484    -4.6171104279
| 12>  N        3.1856667554    -3.7724745878    -5.5653598488
| 13>  H        0.9623622944     1.9849133227     0.0657801177
| 14>  H       -0.5776667801     1.9699091838    -0.8037975377
| 15>  H       -0.5616799915     1.8832638346     0.9680017101
| 16>  H        0.5137632805    -0.3655411531     0.8839094732
| 17>  H       -1.0117944709    -0.3804259955     0.0224173823
| 18>  H        1.4307472148    -0.9697125479    -4.2958212666
| 19>  H        2.9583896458    -0.9526843050    -3.4339020559
| 20>  H        2.4800971222    -3.2625753116    -2.5358540954
| 21>  H        0.9484602732    -3.2796624399    -3.4001919591
| 22> *
| 23>
| 24>                          ****END OF INPUT****

CARTESIAN COORDINATES (ANGSTROEM)
---------------------------------
  C     -0.045331    1.561036    0.059106
  C      0.008172    0.023611   -0.009126
  C      0.687169   -0.470180   -1.202936
  C      1.253559   -0.840588   -2.199390
  C      1.931364   -1.333481   -3.391013
  C      1.968761   -2.884070   -3.426627
  C      2.646245   -3.391541   -4.617110
  N      3.185667   -3.772475   -5.565360
  H      0.962362    1.984913    0.065780
  H     -0.577667    1.969909   -0.803798
  H     -0.561680    1.883264    0.968002
  H      0.513763   -0.365541    0.883909
  H     -1.011794   -0.380426    0.022417
  H      1.430747   -0.969713   -4.295821
  H      2.958390   -0.952684   -3.433902
  H      2.480097   -3.262575   -2.535854
  H      0.948460   -3.279662   -3.400192

 Total Charge           Charge          ....    0
 Multiplicity           Mult            ....    1
 Number of Electrons    NEL             ....   58
 Basis Dimension        Dim             ....  302

ORBITAL ENERGIES
----------------

  NO   OCC          E(Eh)            E(eV)
   0   2.0000     -15.571435      -423.7203
   1   2.0000     -11.289883      -307.2133
   2   2.0000     -11.278558      -306.9052
   3   2.0000     -11.275263      -306.8155
   4   2.0000     -11.259433      -306.3848
   5   2.0000     -11.236316      -305.7557
   6   2.0000     -11.231640      -305.6285
   7   2.0000     -11.231310      -305.6195
   8   2.0000      -1.221291       -33.2330
   9   2.0000      -1.114478       -30.3265
  10   2.0000      -1.078596       -29.3501
  11   2.0000      -1.006369       -27.3847
  12   2.0000      -0.929488       -25.2927
  13   2.0000      -0.871437       -23.7130
  14   2.0000      -0.718714       -19.5572
  15   2.0000      -0.670181       -18.2366
  16   2.0000      -0.669423       -18.2159
  17   2.0000      -0.631988       -17.1973
  18   2.0000      -0.629631       -17.1331
  19   2.0000      -0.583396       -15.8750
  20   2.0000      -0.563645       -15.3376
  21   2.0000      -0.557420       -15.1682
  22   2.0000      -0.552708       -15.0400
  23   2.0000      -0.529506       -14.4086
  24   2.0000      -0.518824       -14.1179
  25   2.0000      -0.463998       -12.6260
  26   2.0000      -0.460291       -12.5252
  27   2.0000      -0.382903       -10.4193
  28   2.0000      -0.380806       -10.3623
  29   0.0000       0.114683         3.1207
  30   0.0000       0.136529         3.7151
  31   0.0000       0.158086         4.3017
  32   0.0000       0.160581         4.3696
  33   0.0000       0.162502         4.4219

MULLIKEN ATOMIC CHARGES
-----------------------
   0 C :   -0.360903
   1 C :   -0.296151
   2 C :    0.083890
   3 C :   -0.009829
   4 C :   -0.423142
   5 C :   -0.063390
   6 C :   -0.199887
   7 N :   -0.057373
   8 H :    0.131295
   9 H :    0.131295
  10 H :    0.134319
  11 H :    0.141820
  12 H :    0.141824
  13 H :    0.162278
  14 H :    0.162284
  15 H :    0.160835
  16 H :    0.160834
Sum of atomic charges:    0.0000000

LOEWDIN ATOMIC CHARGES
----------------------
   0 C :   -0.298095
   1 C :   -0.276822
   2 C :   -0.075203
   3 C :   -0.087497
   4 C :   -0.231475
   5 C :   -0.228407
   6 C :   -0.193865
   7 N :    0.057817
   8 H :    0.124635
   9 H :    0.124635
  10 H :    0.121847
  11 H :    0.153593
  12 H :    0.153591
  13 H :    0.160986
  14 H :    0.160988
  15 H :    0.166637
  16 H :    0.166635

  Mayer bond orders larger than 0.1
B(  0-C ,  1-C ) :   0.9416 B(  0-C ,  8-H ) :   0.9351 B(  0-C ,  9-H ) :   0.9351
B(  0-C , 10-H ) :   0.9388 B(  1-C ,  2-C ) :   0.9347 B(  1-C , 11-H ) :   0.9386
B(  1-C , 12-H ) :   0.9386 B(  2-C ,  3-C ) :   2.6683 B(  2-C ,  4-C ) :  -0.1259
B(  3-C ,  4-C ) :   1.0153 B(  4-C ,  5-C ) :   0.9422 B(  4-C , 13-H ) :   0.9303
B(  4-C , 14-H ) :   0.9303 B(  5-C ,  6-C ) :   0.9158 B(  5-C , 15-H ) :   0.9058
B(  5-C , 16-H ) :   0.9057 B(  6-C ,  7-N ) :   2.8777

MP2 TOTAL ENERGY:     -326.121206956 Eh
FINAL SINGLE POINT ENERGY      -326.121206955820

DIPOLE MOMENT
-------------
                                X             Y             Z
Electronic contribution:      4.58600      -7.49538      -7.98563
Nuclear contribution   :     -5.36992       8.19651       9.36102
                        -----------------------------------------
Total Dipole Moment    :     -0.78392       0.70113       1.37539
                        -----------------------------------------
Magnitude (a.u.)       :      1.73142
Magnitude (Debye)      :      4.40091

                             ****ORCA TERMINATED NORMALLY****
TOTAL RUN TIME: 0 days 0 hours 9 minutes 17 seconds 306 msec
