                         Program Version 3.0.3 - RELEASE   -
|  1> ! RI-MP2 RIJK def2-TZVP def2-TZVP/C def2-TZVP/JK TIGHTSCF
|  2> % maxcore 2000
|  3> % mp2 density relaxed end
|  4> *xyz 0 1
|  5>  C        0.3474172191     1.5353395964    -0.1884411698
|  6>  C       -0.0381170879     0.0622453259     0.0225909199
|  7>  O       -1.4460614644    -0.0595602064     0.1769672959
|  8>  C        0.4143306901    -0.8498783408    -1.1470933724
|  9>  C        1.7308215606    -1.5230245094    -0.6831420661
| 10>  C        1.6764646093    -1.3904872178     0.8142957534
| 11>  C        0.7162463609    -0.5422260929     1.2051267927
| 12>  C        0.3852233121    -0.2176298296     2.5887453869
| 13>  O       -0.5385726483     0.5086705703     2.9077803860
| 14>  H        1.4169678708     1.6444577671    -0.3990899438
| 15>  H       -0.2191497653     1.9398032184    -1.0323477368
| 16>  H        0.1125741274     2.1260655041     0.7018629172
| 17>  H       -1.6622214096     0.3727599738     1.0148439498
| 18>  H       -0.3640220601    -1.6046503022    -1.2849065104
| 19>  H        0.5234515123    -0.3029124556    -2.0863898414
| 20>  H        1.8202842042    -2.5654667192    -1.0079120387
| 21>  H        2.6205273676    -1.0087065505    -1.0737575334
| 22>  H        2.3511381822    -1.9156952917     1.4845612603
| 23>  H        1.0274548488    -0.6902675897     3.3628276506
| 24> *
| 25>
| 26>                          ****END OF INPUT****

CARTESIAN COORDINATES (ANGSTROEM)
---------------------------------
  C      0.347417    1.535340   -0.188441
  C     -0.038117    0.062245    0.022591
  O     -1.446061   -0.059560    0.176967
  C      0.414331   -0.849878   -1.147093
  C      1.730822   -1.523025   -0.683142
  C      1.676465   -1.390487    0.814296
  C      0.716246   -0.542226    1.205127
  C      0.385223   -0.217630    2.588745
  O     -0.538573    0.508671    2.907780
  H      1.416968    1.644458   -0.399090
  H     -0.219150    1.939803   -1.032348
  H      0.112574    2.126066    0.701863
  H     -1.662221    0.372760    1.014844
  H     -0.364022   -1.604650   -1.284907
  H      0.523452   -0.302912   -2.086390
  H      1.820284   -2.565467   -1.007912
  H      2.620527   -1.008707   -1.073758
  H      2.351138   -1.915695    1.484561
  H      1.027455   -0.690268    3.362828

 Total Charge           Charge          ....    0
 Multiplicity           Mult            ....    1
 Number of Electrons    NEL             ....   68
 Basis Dimension        Dim             ....  339

ORBITAL ENERGIES
----------------

  NO   OCC          E(Eh)            E(eV)
   0   2.0000     -20.560962      -559.4922
   1   2.0000     -20.543548      -559.0184
   2   2.0000     -11.341330      -308.6133
   3   2.0000     -11.293871      -307.3218
   4   2.0000     -11.270139      -306.6761
   5   2.0000     -11.246909      -306.0440
   6   2.0000     -11.242044      -305.9116
   7   2.0000     -11.228215      -305.5353
   8   2.0000     -11.215868      -305.1993
   9   2.0000      -1.398126       -38.0449
  10   2.0000      -1.355265       -36.8786
  11   2.0000      -1.154380       -31.4123
  12   2.0000      -1.015883       -27.6436
  13   2.0000      -1.005504       -27.3611
  14   2.0000      -0.912775       -24.8379
  15   2.0000      -0.854036       -23.2395
  16   2.0000      -0.795805       -21.6550
  17   2.0000      -0.749657       -20.3992
  18   2.0000      -0.699799       -19.0425
  19   2.0000      -0.657831       -17.9005
  20   2.0000      -0.655583       -17.8393
  21   2.0000      -0.630964       -17.1694
  22   2.0000      -0.596679       -16.2365
  23   2.0000      -0.579687       -15.7741
  24   2.0000      -0.568822       -15.4784
  25   2.0000      -0.566342       -15.4110
  26   2.0000      -0.529266       -14.4021
  27   2.0000      -0.515756       -14.0344
  28   2.0000      -0.510829       -13.9004
  29   2.0000      -0.504586       -13.7305
  30   2.0000      -0.476092       -12.9551
  31   2.0000      -0.443241       -12.0612
  32   2.0000      -0.421309       -11.4644
  33   2.0000      -0.375271       -10.2116
  34   0.0000       0.076954         2.0940
  35   0.0000       0.131116         3.5679
  36   0.0000       0.151666         4.1270
  37   0.0000       0.167884         4.5684
  38   0.0000       0.175402         4.7729

MULLIKEN ATOMIC CHARGES
-----------------------
   0 C :   -0.456340
   1 C :    0.346426
   2 O :   -0.474448
   3 C :   -0.262433
   4 C :   -0.209812
   5 C :   -0.134718
   6 C :   -0.080245
   7 C :    0.077674
   8 O :   -0.323510
   9 H :    0.124366
  10 H :    0.142615
  11 H :    0.143678
  12 H :    0.332987
  13 H :    0.133726
  14 H :    0.131622
  15 H :    0.137188
  16 H :    0.130268
  17 H :    0.143355
  18 H :    0.097599
Sum of atomic charges:   -0.0000000

LOEWDIN ATOMIC CHARGES
----------------------
   0 C :   -0.269192
   1 C :   -0.350191
   2 O :    0.009928
   3 C :   -0.187659
   4 C :   -0.233407
   5 C :   -0.076402
   6 C :   -0.144896
   7 C :   -0.262895
   8 O :    0.109471
   9 H :    0.127294
  10 H :    0.129542
  11 H :    0.128729
  12 H :    0.178227
  13 H :    0.149391
  14 H :    0.137547
  15 H :    0.142429
  16 H :    0.146980
  17 H :    0.143373
  18 H :    0.121731

  Mayer bond orders larger than 0.1
B(  0-C ,  1-C ) :   0.9063 B(  0-C ,  9-H ) :   0.9269 B(  0-C , 10-H ) :   0.9363
B(  0-C , 11-H ) :   0.9289 B(  1-C ,  2-O ) :   0.9733 B(  1-C ,  3-C ) :   0.8542
B(  1-C ,  6-C ) :   0.8623 B(  2-O , 12-H ) :   0.8194 B(  3-C ,  4-C ) :   0.9591
B(  3-C , 13-H ) :   0.9317 B(  3-C , 14-H ) :   0.9370 B(  4-C ,  5-C ) :   0.9351
B(  4-C , 15-H ) :   0.9289 B(  4-C , 16-H ) :   0.9040 B(  5-C ,  6-C ) :   1.6361
B(  5-C , 17-H ) :   0.9146 B(  6-C ,  7-C ) :   0.9073 B(  7-C ,  8-O ) :   1.8686
B(  7-C , 18-H ) :   0.9809

MP2 TOTAL ENERGY:     -422.352115816 Eh
FINAL SINGLE POINT ENERGY      -422.352115816401

DIPOLE MOMENT
-------------
                                X             Y             Z
Electronic contribution:     -2.95937      -0.80209       5.94591
Nuclear contribution   :      4.23293       0.36217      -6.25312
                        -----------------------------------------
Total Dipole Moment    :      1.27356      -0.43992      -0.30721
                        -----------------------------------------
Magnitude (a.u.)       :      1.38197
Magnitude (Debye)      :      3.51270

                             ****ORCA TERMINATED NORMALLY****
TOTAL RUN TIME: 0 days 0 hours 19 minutes 27 seconds 333 msec
