                         Program Version 3.0.3 - RELEASE   -
|  1> ! RI-MP2 RIJK def2-TZVP def2-TZVP/C def2-TZVP/JK TIGHTSCF
|  2> % maxcore 2000
|  3> % mp2 density relaxed end
|  4> *xyz 0 1
|  5>  O       -0.1277445731    -0.0910170869     0.3091734959
|  6>  C       -0.0666602950     1.1108333681     0.1976001986
|  7>  N        1.0799871453     1.8279168277    -0.0943532559
|  8>  C        1.0327506947     3.2840579262    -0.1105994003
|  9>  C        1.4967632090     3.9270203397    -1.4331256961
| 10>  C        2.9834178161     3.8910929249    -1.6401032759
| 11>  C        3.7977181715     2.8833050787    -1.2891432997
| 12>  C        3.4551104019     1.6023101625    -0.6940408602
| 13>  C        2.2809071950     1.1350890787    -0.2281467384
| 14>  H       -0.9412889327     1.7761614052     0.3213813773
| 15>  H       -0.0038048050     3.5691593856     0.0906973821
| 16>  H        1.6465137270     3.6703987422     0.7103498309
| 17>  H        0.9701702012     3.4390734227    -2.2639606398
| 18>  H        1.1576848290     4.9697422556    -1.4330699321
| 19>  H        3.4280970844     4.7719507764    -2.0947535048
| 20>  H        4.8571643321     3.0063400145    -1.5013453693
| 21>  H        4.2700333793     0.8863795557    -0.6444891110
| 22>  H        2.1889498193     0.1078806323     0.1026662187
| 23> *
| 24>
| 25>                          ****END OF INPUT****

CARTESIAN COORDINATES (ANGSTROEM)
---------------------------------
  O     -0.127745   -0.091017    0.309173
  C     -0.066660    1.110833    0.197600
  N      1.079987    1.827917   -0.094353
  C      1.032751    3.284058   -0.110599
  C      1.496763    3.927020   -1.433126
  C      2.983418    3.891093   -1.640103
  C      3.797718    2.883305   -1.289143
  C      3.455110    1.602310   -0.694041
  C      2.280907    1.135089   -0.228147
  H     -0.941289    1.776161    0.321381
  H     -0.003805    3.569159    0.090697
  H      1.646514    3.670399    0.710350
  H      0.970170    3.439073   -2.263961
  H      1.157685    4.969742   -1.433070
  H      3.428097    4.771951   -2.094754
  H      4.857164    3.006340   -1.501345
  H      4.270033    0.886380   -0.644489
  H      2.188950    0.107881    0.102666

 Total Charge           Charge          ....    0
 Multiplicity           Mult            ....    1
 Number of Electrons    NEL             ....   66
 Basis Dimension        Dim             ....  333

ORBITAL ENERGIES
----------------

  NO   OCC          E(Eh)            E(eV)
   0   2.0000     -20.537964      -558.8664
   1   2.0000     -15.610573      -424.7853
   2   2.0000     -11.360041      -309.1224
   3   2.0000     -11.285842      -307.1034
   4   2.0000     -11.277729      -306.8826
   5   2.0000     -11.244833      -305.9875
   6   2.0000     -11.237186      -305.7794
   7   2.0000     -11.234965      -305.7190
   8   2.0000     -11.229706      -305.5758
   9   2.0000      -1.399896       -38.0931
  10   2.0000      -1.277591       -34.7650
  11   2.0000      -1.101779       -29.9809
  12   2.0000      -1.064553       -28.9679
  13   2.0000      -0.973699       -26.4957
  14   2.0000      -0.919469       -25.0200
  15   2.0000      -0.865212       -23.5436
  16   2.0000      -0.775074       -21.0908
  17   2.0000      -0.735241       -20.0069
  18   2.0000      -0.707408       -19.2496
  19   2.0000      -0.674482       -18.3536
  20   2.0000      -0.660505       -17.9732
  21   2.0000      -0.631555       -17.1855
  22   2.0000      -0.610668       -16.6171
  23   2.0000      -0.598365       -16.2823
  24   2.0000      -0.572518       -15.5790
  25   2.0000      -0.541392       -14.7320
  26   2.0000      -0.535879       -14.5820
  27   2.0000      -0.523547       -14.2464
  28   2.0000      -0.488128       -13.2826
  29   2.0000      -0.468985       -12.7617
  30   2.0000      -0.442828       -12.0500
  31   2.0000      -0.398219       -10.8361
  32   2.0000      -0.299637        -8.1535
  33   0.0000       0.090324         2.4578
  34   0.0000       0.132542         3.6066
  35   0.0000       0.154415         4.2018
  36   0.0000       0.160004         4.3539
  37   0.0000       0.174816         4.7570

MULLIKEN ATOMIC CHARGES
-----------------------
   0 O :   -0.332162
   1 C :    0.153764
   2 N :   -0.052450
   3 C :   -0.187377
   4 C :   -0.168684
   5 C :   -0.173922
   6 C :   -0.145820
   7 C :   -0.143006
   8 C :   -0.115528
   9 H :    0.082579
  10 H :    0.135480
  11 H :    0.145912
  12 H :    0.132856
  13 H :    0.127985
  14 H :    0.125698
  15 H :    0.122058
  16 H :    0.132367
  17 H :    0.160250
Sum of atomic charges:    0.0000000

LOEWDIN ATOMIC CHARGES
----------------------
   0 O :    0.084292
   1 C :   -0.388018
   2 N :    0.194864
   3 C :   -0.236677
   4 C :   -0.250573
   5 C :   -0.172732
   6 C :   -0.178154
   7 C :   -0.185078
   8 C :   -0.178077
   9 H :    0.115679
  10 H :    0.139653
  11 H :    0.144782
  12 H :    0.152261
  13 H :    0.147998
  14 H :    0.143972
  15 H :    0.151674
  16 H :    0.156879
  17 H :    0.157255

  Mayer bond orders larger than 0.1
B(  0-O ,  1-C ) :   1.9041 B(  1-C ,  2-N ) :   1.0688 B(  1-C ,  9-H ) :   0.9270
B(  2-N ,  3-C ) :   0.9078 B(  2-N ,  8-C ) :   1.0214 B(  3-C ,  4-C ) :   0.8952
B(  3-C , 10-H ) :   0.9269 B(  3-C , 11-H ) :   0.9318 B(  4-C ,  5-C ) :   0.9526
B(  4-C , 12-H ) :   0.9131 B(  4-C , 13-H ) :   0.9266 B(  5-C ,  6-C ) :   1.7389
B(  5-C , 14-H ) :   0.9260 B(  6-C ,  7-C ) :   1.0221 B(  6-C , 15-H ) :   0.9258
B(  7-C ,  8-C ) :   1.6382 B(  7-C , 16-H ) :   0.9236 B(  8-C , 17-H ) :   0.9195

MP2 TOTAL ENERGY:     -401.283819095 Eh
FINAL SINGLE POINT ENERGY      -401.283819094726

DIPOLE MOMENT
-------------
                                X             Y             Z
Electronic contribution:     -1.82163      -5.01867       1.64082
Nuclear contribution   :      2.00911       6.39081      -1.78720
                        -----------------------------------------
Total Dipole Moment    :      0.18748       1.37215      -0.14638
                        -----------------------------------------
Magnitude (a.u.)       :      1.39261
Magnitude (Debye)      :      3.53973

                             ****ORCA TERMINATED NORMALLY****
TOTAL RUN TIME: 0 days 0 hours 17 minutes 39 seconds 988 msec
