                         Program Version 3.0.3 - RELEASE   -
|  1> ! RI-MP2 RIJK def2-TZVP def2-TZVP/C def2-TZVP/JK TIGHTSCF
|  2> % maxcore 2000
|  3> % mp2 density relaxed end
|  4> *xyz 0 1
|  5>  C        0.3017693495     1.1767761139     0.2733575052
|  6>  O        0.0454175381    -0.1904801619     0.0571721623
|  7>  C        0.6259823490    -0.6792794940    -1.1334644672
|  8>  C        0.2592632870    -2.1556354833    -1.2938714613
|  9>  C       -1.2607104285    -2.3386501632    -1.4555871234
| 10>  O       -1.6662786919    -3.6894300153    -1.2445472556
| 11>  C        1.0358109846    -2.7611936635    -2.4511238217
| 12>  C        2.1825499049    -3.6738150075    -2.2053555578
| 13>  N        0.9255152959    -4.1916219690    -2.7645028086
| 14>  H        1.3809601089     1.3815117518     0.3547487841
| 15>  H       -0.1045962380     1.8021828719    -0.5372462209
| 16>  H       -0.1823893944     1.4567717751     1.2120301834
| 17>  H        0.2656505314    -0.0993309320    -2.0021519307
| 18>  H        1.7223858798    -0.5652222044    -1.1037752823
| 19>  H        0.5485734390    -2.6631079048    -0.3626551319
| 20>  H       -1.7865633693    -1.6571825988    -0.7763158489
| 21>  H       -1.5614445814    -2.0918533704    -2.4800802375
| 22>  H       -1.6664107767    -3.8452623560    -0.2949115232
| 23>  H        1.0648427278    -2.1329540836    -3.3424428696
| 24>  H        3.0287424265    -3.6925802870    -2.8869364843
| 25>  H        2.4342577667    -3.8986319478    -1.1709483846
| 26>  H        0.3568345210    -4.6411681701    -2.0516610456
| 27> *
| 28>
| 29>                          ****END OF INPUT****

CARTESIAN COORDINATES (ANGSTROEM)
---------------------------------
  C      0.301769    1.176776    0.273358
  O      0.045418   -0.190480    0.057172
  C      0.625982   -0.679279   -1.133464
  C      0.259263   -2.155635   -1.293871
  C     -1.260710   -2.338650   -1.455587
  O     -1.666279   -3.689430   -1.244547
  C      1.035811   -2.761194   -2.451124
  C      2.182550   -3.673815   -2.205356
  N      0.925515   -4.191622   -2.764503
  H      1.380960    1.381512    0.354749
  H     -0.104596    1.802183   -0.537246
  H     -0.182389    1.456772    1.212030
  H      0.265651   -0.099331   -2.002152
  H      1.722386   -0.565222   -1.103775
  H      0.548573   -2.663108   -0.362655
  H     -1.786563   -1.657183   -0.776316
  H     -1.561445   -2.091853   -2.480080
  H     -1.666411   -3.845262   -0.294912
  H      1.064843   -2.132954   -3.342443
  H      3.028742   -3.692580   -2.886936
  H      2.434258   -3.898632   -1.170948
  H      0.356835   -4.641168   -2.051661

 Total Charge           Charge          ....    0
 Multiplicity           Mult            ....    1
 Number of Electrons    NEL             ....   72
 Basis Dimension        Dim             ....  357

ORBITAL ENERGIES
----------------

  NO   OCC          E(Eh)            E(eV)
   0   2.0000     -20.564874      -559.5987
   1   2.0000     -20.557824      -559.4068
   2   2.0000     -15.545712      -423.0203
   3   2.0000     -11.284597      -307.0695
   4   2.0000     -11.278617      -306.9068
   5   2.0000     -11.273620      -306.7708
   6   2.0000     -11.255372      -306.2742
   7   2.0000     -11.248923      -306.0988
   8   2.0000     -11.236417      -305.7585
   9   2.0000      -1.386353       -37.7246
  10   2.0000      -1.360751       -37.0279
  11   2.0000      -1.253526       -34.1102
  12   2.0000      -1.069038       -29.0900
  13   2.0000      -0.950087       -25.8532
  14   2.0000      -0.904693       -24.6180
  15   2.0000      -0.875449       -23.8222
  16   2.0000      -0.843829       -22.9618
  17   2.0000      -0.792581       -21.5672
  18   2.0000      -0.707935       -19.2639
  19   2.0000      -0.681952       -18.5569
  20   2.0000      -0.661274       -17.9942
  21   2.0000      -0.653394       -17.7797
  22   2.0000      -0.636554       -17.3215
  23   2.0000      -0.630577       -17.1589
  24   2.0000      -0.602664       -16.3993
  25   2.0000      -0.582392       -15.8477
  26   2.0000      -0.552405       -15.0317
  27   2.0000      -0.520498       -14.1635
  28   2.0000      -0.514945       -14.0124
  29   2.0000      -0.499934       -13.6039
  30   2.0000      -0.484442       -13.1823
  31   2.0000      -0.477763       -13.0006
  32   2.0000      -0.456427       -12.4200
  33   2.0000      -0.439784       -11.9671
  34   2.0000      -0.420657       -11.4467
  35   2.0000      -0.379186       -10.3182
  36   0.0000       0.133310         3.6276
  37   0.0000       0.136507         3.7145
  38   0.0000       0.161158         4.3853
  39   0.0000       0.164432         4.4744
  40   0.0000       0.187031         5.0894

MULLIKEN ATOMIC CHARGES
-----------------------
   0 C :   -0.218704
   1 O :   -0.306992
   2 C :   -0.100828
   3 C :   -0.086746
   4 C :   -0.039100
   5 O :   -0.483243
   6 C :   -0.045476
   7 C :   -0.190328
   8 N :   -0.349839
   9 H :    0.113659
  10 H :    0.113611
  11 H :    0.140578
  12 H :    0.098929
  13 H :    0.112293
  14 H :    0.088686
  15 H :    0.136496
  16 H :    0.109772
  17 H :    0.317666
  18 H :    0.121591
  19 H :    0.117562
  20 H :    0.121666
  21 H :    0.228747
Sum of atomic charges:   -0.0000000

LOEWDIN ATOMIC CHARGES
----------------------
   0 C :   -0.360289
   1 O :    0.134017
   2 C :   -0.302455
   3 C :   -0.267762
   4 C :   -0.311981
   5 O :   -0.050796
   6 C :   -0.265420
   7 C :   -0.271107
   8 N :   -0.009069
   9 H :    0.102641
  10 H :    0.102046
  11 H :    0.113866
  12 H :    0.123997
  13 H :    0.126740
  14 H :    0.157008
  15 H :    0.123762
  16 H :    0.133044
  17 H :    0.172163
  18 H :    0.143520
  19 H :    0.122270
  20 H :    0.119261
  21 H :    0.164545

  Mayer bond orders larger than 0.1
B(  0-C ,  1-O ) :   0.9138 B(  0-C ,  9-H ) :   0.9364 B(  0-C , 10-H ) :   0.9368
B(  0-C , 11-H ) :   0.9396 B(  1-O ,  2-C ) :   0.9414 B(  2-C ,  3-C ) :   0.9312
B(  2-C , 12-H ) :   0.9179 B(  2-C , 13-H ) :   0.9197 B(  3-C ,  4-C ) :   0.9025
B(  3-C ,  6-C ) :   0.9131 B(  3-C , 14-H ) :   0.9117 B(  4-C ,  5-O ) :   0.9069
B(  4-C , 15-H ) :   0.9392 B(  4-C , 16-H ) :   0.9168 B(  5-O , 17-H ) :   0.8455
B(  6-C ,  7-C ) :   0.9505 B(  6-C ,  8-N ) :   0.9423 B(  6-C , 18-H ) :   0.9036
B(  7-C ,  8-N ) :   0.9375 B(  7-C , 19-H ) :   0.9210 B(  7-C , 20-H ) :   0.9139
B(  8-N , 21-H ) :   0.8655

MP2 TOTAL ENERGY:     -440.718445478 Eh
FINAL SINGLE POINT ENERGY      -440.718445478208

DIPOLE MOMENT
-------------
                                X             Y             Z
Electronic contribution:     -1.93862      -4.42709      -0.69730
Nuclear contribution   :      2.31219       5.43573       1.57068
                        -----------------------------------------
Total Dipole Moment    :      0.37357       1.00864       0.87338
                        -----------------------------------------
Magnitude (a.u.)       :      1.38554
Magnitude (Debye)      :      3.52175

                             ****ORCA TERMINATED NORMALLY****
TOTAL RUN TIME: 0 days 0 hours 16 minutes 20 seconds 112 msec
