                         Program Version 3.0.3 - RELEASE   -
|  1> ! RI-MP2 RIJK def2-TZVP def2-TZVP/C def2-TZVP/JK TIGHTSCF
|  2> % maxcore 2000
|  3> % mp2 density relaxed end
|  4> *xyz 0 1
|  5>  C        0.0524574324     1.5094028579     0.0479864629
|  6>  C        0.0594632906     0.0120453820     0.0144715273
|  7>  C        0.0542086427    -0.8148618818    -1.0912145183
|  8>  O        0.0422808078    -0.5569679922    -2.4274093099
|  9>  N        0.0479611985    -2.1101355110    -0.6922126224
| 10>  C        0.0552357769    -2.1742706571     0.7044898059
| 11>  N        0.0509250692    -3.4289086331     1.3491756758
| 12>  C        0.0635449752    -0.8747428395     1.1427058348
| 13>  O        0.0592180333    -0.5206045065     2.4667230755
| 14>  H        1.0085928788     1.9409208082     0.3755963208
| 15>  H       -0.1605640152     1.9350655731    -0.9397340032
| 16>  H       -0.7259935828     1.9019796189     0.7162356130
| 17>  H        0.1516595155     0.3903245420    -2.5526726533
| 18>  H        0.0591763600    -2.9132316923    -1.2959429598
| 19>  H       -0.7702577235    -3.5495153240     1.9342080618
| 20>  H        0.8596481894    -3.5436187954     1.9521758983
| 21>  H        0.1310213814     0.4361776308     2.5241849706
| 22> *
| 23>
| 24>                          ****END OF INPUT****

CARTESIAN COORDINATES (ANGSTROEM)
---------------------------------
  C      0.052457    1.509403    0.047986
  C      0.059463    0.012045    0.014472
  C      0.054209   -0.814862   -1.091215
  O      0.042281   -0.556968   -2.427409
  N      0.047961   -2.110136   -0.692213
  C      0.055236   -2.174271    0.704490
  N      0.050925   -3.428909    1.349176
  C      0.063545   -0.874743    1.142706
  O      0.059218   -0.520605    2.466723
  H      1.008593    1.940921    0.375596
  H     -0.160564    1.935066   -0.939734
  H     -0.725994    1.901980    0.716236
  H      0.151660    0.390325   -2.552673
  H      0.059176   -2.913232   -1.295943
  H     -0.770258   -3.549515    1.934208
  H      0.859648   -3.543619    1.952176
  H      0.131021    0.436178    2.524185

 Total Charge           Charge          ....    0
 Multiplicity           Mult            ....    1
 Number of Electrons    NEL             ....   68
 Basis Dimension        Dim             ....  327

ORBITAL ENERGIES
----------------

  NO   OCC          E(Eh)            E(eV)
   0   2.0000     -20.596961      -560.4718
   1   2.0000     -20.574790      -559.8685
   2   2.0000     -15.586500      -424.1302
   3   2.0000     -15.549235      -423.1162
   4   2.0000     -11.316717      -307.9435
   5   2.0000     -11.265434      -306.5480
   6   2.0000     -11.257337      -306.3277
   7   2.0000     -11.236652      -305.7648
   8   2.0000     -11.209253      -305.0193
   9   2.0000      -1.417553       -38.5736
  10   2.0000      -1.386633       -37.7322
  11   2.0000      -1.280190       -34.8357
  12   2.0000      -1.169680       -31.8286
  13   2.0000      -1.062151       -28.9026
  14   2.0000      -0.969749       -26.3882
  15   2.0000      -0.920187       -25.0396
  16   2.0000      -0.803730       -21.8706
  17   2.0000      -0.775425       -21.1004
  18   2.0000      -0.728149       -19.8140
  19   2.0000      -0.714731       -19.4488
  20   2.0000      -0.661934       -18.0121
  21   2.0000      -0.628271       -17.0961
  22   2.0000      -0.620293       -16.8790
  23   2.0000      -0.613222       -16.6866
  24   2.0000      -0.607036       -16.5183
  25   2.0000      -0.575962       -15.6727
  26   2.0000      -0.565012       -15.3748
  27   2.0000      -0.558141       -15.1878
  28   2.0000      -0.546491       -14.8708
  29   2.0000      -0.504809       -13.7366
  30   2.0000      -0.502179       -13.6650
  31   2.0000      -0.415670       -11.3110
  32   2.0000      -0.324561        -8.8318
  33   2.0000      -0.265698        -7.2300
  34   0.0000       0.114340         3.1113
  35   0.0000       0.147186         4.0051
  36   0.0000       0.151859         4.1323
  37   0.0000       0.175879         4.7859
  38   0.0000       0.195905         5.3308

MULLIKEN ATOMIC CHARGES
-----------------------
   0 C :   -0.467431
   1 C :   -0.022333
   2 C :    0.180340
   3 O :   -0.431018
   4 N :   -0.255287
   5 C :    0.082516
   6 N :   -0.543503
   7 C :    0.077598
   8 O :   -0.446102
   9 H :    0.156328
  10 H :    0.109325
  11 H :    0.148087
  12 H :    0.333721
  13 H :    0.246980
  14 H :    0.249133
  15 H :    0.249395
  16 H :    0.332251
Sum of atomic charges:    0.0000000

LOEWDIN ATOMIC CHARGES
----------------------
   0 C :   -0.293667
   1 C :   -0.216379
   2 C :   -0.350175
   3 O :    0.057032
   4 N :    0.208249
   5 C :   -0.333435
   6 N :   -0.124165
   7 C :   -0.286426
   8 O :    0.046494
   9 H :    0.127391
  10 H :    0.125364
  11 H :    0.129158
  12 H :    0.194499
  13 H :    0.195198
  14 H :    0.165939
  15 H :    0.166166
  16 H :    0.188756

  Mayer bond orders larger than 0.1
B(  0-C ,  1-C ) :   0.8352 B(  0-C ,  9-H ) :   0.9422 B(  0-C , 10-H ) :   0.9359
B(  0-C , 11-H ) :   0.9476 B(  1-C ,  2-C ) :   1.3917 B(  1-C ,  7-C ) :   1.1099
B(  2-C ,  3-O ) :   1.1089 B(  2-C ,  4-N ) :   1.2024 B(  3-O , 12-H ) :   0.8305
B(  4-N ,  5-C ) :   1.0419 B(  4-N , 13-H ) :   0.8609 B(  5-C ,  6-N ) :   1.1038
B(  5-C ,  7-C ) :   1.5328 B(  6-N , 14-H ) :   0.8923 B(  6-N , 15-H ) :   0.8927
B(  7-C ,  8-O ) :   1.1097 B(  8-O , 16-H ) :   0.8373

MP2 TOTAL ENERGY:     -454.434879446 Eh
FINAL SINGLE POINT ENERGY      -454.434879446492

DIPOLE MOMENT
-------------
                                X             Y             Z
Electronic contribution:     -0.00877      -3.44884      -1.30026
Nuclear contribution   :      0.10954       4.20542       1.23143
                        -----------------------------------------
Total Dipole Moment    :      0.10077       0.75658      -0.06884
                        -----------------------------------------
Magnitude (a.u.)       :      0.76636
Magnitude (Debye)      :      1.94793

                             ****ORCA TERMINATED NORMALLY****
TOTAL RUN TIME: 0 days 0 hours 15 minutes 47 seconds 688 msec
