                         Program Version 3.0.3 - RELEASE   -
|  1> ! RI-MP2 RIJK def2-TZVP def2-TZVP/C def2-TZVP/JK TIGHTSCF
|  2> % maxcore 2000
|  3> % mp2 density relaxed end
|  4> *xyz 0 1
|  5>  C       -0.1544993039     1.5917793060    -0.0067230919
|  6>  C        0.0643997469     0.0863175206     0.0196000265
|  7>  C        1.0845864045    -0.5944647540    -0.9346913512
|  8>  C        2.5108787326     0.0186094383    -0.9019193332
|  9>  C        2.7819449057    -0.6957079520     0.4460053197
| 10>  O        4.0280765362    -1.3011826881     0.6401639612
| 11>  C        2.1061006696     0.0044119117     1.6517037167
| 12>  C        0.7406460438    -0.6065343592     1.2351499419
| 13>  C        1.4926600083    -1.5606551548     0.2368306512
| 14>  H        0.7766645964     2.1467205488     0.1439754212
| 15>  H       -0.5754193546     1.9101524095    -0.9673102594
| 16>  H       -0.8524041597     1.9004281162     0.7799958549
| 17>  H       -0.8977051570    -0.4180704386    -0.1357083705
| 18>  H        0.7156708776    -0.9233736723    -1.9068058242
| 19>  H        3.1334476393    -0.4390294994    -1.6766013987
| 20>  H        2.6201326843     1.1075124188    -0.9515729195
| 21>  H        4.6869608602    -0.6055095381     0.7479840927
| 22>  H        2.4593888048    -0.4626763822     2.5759173869
| 23>  H        2.1927683750     1.0925229317     1.7445278417
| 24>  H        0.0897631404    -0.9453424414     2.0419006292
| 25>  H        1.4579387095    -2.6465462116     0.2252852249
| 26> *
| 27>
| 28>                          ****END OF INPUT****

CARTESIAN COORDINATES (ANGSTROEM)
---------------------------------
  C     -0.154499    1.591779   -0.006723
  C      0.064400    0.086318    0.019600
  C      1.084586   -0.594465   -0.934691
  C      2.510879    0.018609   -0.901919
  C      2.781945   -0.695708    0.446005
  O      4.028077   -1.301183    0.640164
  C      2.106101    0.004412    1.651704
  C      0.740646   -0.606534    1.235150
  C      1.492660   -1.560655    0.236831
  H      0.776665    2.146721    0.143975
  H     -0.575419    1.910152   -0.967310
  H     -0.852404    1.900428    0.779996
  H     -0.897705   -0.418070   -0.135708
  H      0.715671   -0.923374   -1.906806
  H      3.133448   -0.439029   -1.676601
  H      2.620133    1.107512   -0.951573
  H      4.686961   -0.605510    0.747984
  H      2.459389   -0.462676    2.575917
  H      2.192768    1.092523    1.744528
  H      0.089763   -0.945342    2.041901
  H      1.457939   -2.646546    0.225285

 Total Charge           Charge          ....    0
 Multiplicity           Mult            ....    1
 Number of Electrons    NEL             ....   68
 Basis Dimension        Dim             ....  351

ORBITAL ENERGIES
----------------

  NO   OCC          E(Eh)            E(eV)
   0   2.0000     -20.554582      -559.3186
   1   2.0000     -11.279122      -306.9205
   2   2.0000     -11.225322      -305.4565
   3   2.0000     -11.224464      -305.4332
   4   2.0000     -11.224318      -305.4292
   5   2.0000     -11.221257      -305.3459
   6   2.0000     -11.216691      -305.2217
   7   2.0000     -11.216673      -305.2212
   8   2.0000     -11.211135      -305.0705
   9   2.0000      -1.364383       -37.1267
  10   2.0000      -1.190712       -32.4009
  11   2.0000      -1.022570       -27.8255
  12   2.0000      -0.999686       -27.2028
  13   2.0000      -0.935813       -25.4648
  14   2.0000      -0.858297       -23.3555
  15   2.0000      -0.801816       -21.8185
  16   2.0000      -0.775814       -21.1110
  17   2.0000      -0.708599       -19.2820
  18   2.0000      -0.681690       -18.5497
  19   2.0000      -0.632209       -17.2033
  20   2.0000      -0.628983       -17.1155
  21   2.0000      -0.612908       -16.6781
  22   2.0000      -0.574438       -15.6313
  23   2.0000      -0.567082       -15.4311
  24   2.0000      -0.553826       -15.0704
  25   2.0000      -0.552474       -15.0336
  26   2.0000      -0.518015       -14.0959
  27   2.0000      -0.514283       -13.9944
  28   2.0000      -0.447025       -12.1642
  29   2.0000      -0.436000       -11.8642
  30   2.0000      -0.427345       -11.6287
  31   2.0000      -0.425385       -11.5753
  32   2.0000      -0.391566       -10.6551
  33   2.0000      -0.379326       -10.3220
  34   0.0000       0.136952         3.7266
  35   0.0000       0.141177         3.8416
  36   0.0000       0.164464         4.4753
  37   0.0000       0.174370         4.7449
  38   0.0000       0.180515         4.9121

MULLIKEN ATOMIC CHARGES
-----------------------
   0 C :   -0.414677
   1 C :   -0.138516
   2 C :    0.035220
   3 C :   -0.350621
   4 C :    0.305024
   5 O :   -0.459791
   6 C :   -0.350561
   7 C :    0.035226
   8 C :   -0.293057
   9 H :    0.119450
  10 H :    0.132932
  11 H :    0.132933
  12 H :    0.093010
  13 H :    0.120123
  14 H :    0.114667
  15 H :    0.117756
  16 H :    0.314087
  17 H :    0.114656
  18 H :    0.117750
  19 H :    0.120123
  20 H :    0.134266
Sum of atomic charges:    0.0000000

LOEWDIN ATOMIC CHARGES
----------------------
   0 C :   -0.298063
   1 C :   -0.227685
   2 C :   -0.158723
   3 C :   -0.190127
   4 C :   -0.330858
   5 O :    0.009657
   6 C :   -0.190120
   7 C :   -0.158726
   8 C :   -0.089308
   9 H :    0.119444
  10 H :    0.125806
  11 H :    0.125807
  12 H :    0.157527
  13 H :    0.130846
  14 H :    0.143053
  15 H :    0.123404
  16 H :    0.179117
  17 H :    0.143055
  18 H :    0.123402
  19 H :    0.130846
  20 H :    0.131646

  Mayer bond orders larger than 0.1
B(  0-C ,  1-C ) :   0.9008 B(  0-C ,  9-H ) :   0.9351 B(  0-C , 10-H ) :   0.9396
B(  0-C , 11-H ) :   0.9396 B(  1-C ,  2-C ) :   0.9172 B(  1-C ,  7-C ) :   0.9172
B(  1-C , 12-H ) :   0.9204 B(  2-C ,  3-C ) :   0.8469 B(  2-C ,  8-C ) :   0.8907
B(  2-C , 13-H ) :   0.9136 B(  3-C ,  4-C ) :   0.9172 B(  3-C , 14-H ) :   0.9067
B(  3-C , 15-H ) :   0.9189 B(  4-C ,  5-O ) :   1.0268 B(  4-C ,  6-C ) :   0.9172
B(  4-C ,  8-C ) :   0.8867 B(  5-O , 16-H ) :   0.8384 B(  6-C ,  7-C ) :   0.8469
B(  6-C , 17-H ) :   0.9067 B(  6-C , 18-H ) :   0.9189 B(  7-C ,  8-C ) :   0.8907
B(  7-C , 19-H ) :   0.9136 B(  8-C , 20-H ) :   0.8838

MP2 TOTAL ENERGY:     -386.380289311 Eh
FINAL SINGLE POINT ENERGY      -386.380289310602

DIPOLE MOMENT
-------------
                                X             Y             Z
Electronic contribution:      3.87195      -4.70929       0.58766
Nuclear contribution   :     -3.99349       5.23893      -0.60428
                        -----------------------------------------
Total Dipole Moment    :     -0.12154       0.52964      -0.01662
                        -----------------------------------------
Magnitude (a.u.)       :      0.54366
Magnitude (Debye)      :      1.38188

                             ****ORCA TERMINATED NORMALLY****
TOTAL RUN TIME: 0 days 0 hours 19 minutes 45 seconds 296 msec
