                         Program Version 3.0.3 - RELEASE   -
|  1> ! RI-MP2 RIJK def2-TZVP def2-TZVP/C def2-TZVP/JK TIGHTSCF
|  2> % maxcore 2000
|  3> % mp2 density relaxed end
|  4> *xyz 0 1
|  5>  C       -0.2559882087     1.6092349964    -0.0178593408
|  6>  C        0.0034822230     0.1237846477     0.0485874766
|  7>  O       -1.1078243879    -0.6322875645    -0.3974149025
|  8>  C        1.3216512794    -0.5582132111    -0.2594982694
|  9>  C        2.6830136870     0.1439655692    -0.1321347721
| 10>  C        2.9088680446     0.3908654193     1.3608960098
| 11>  N        2.0077311038     1.3975025193     1.9549238497
| 12>  C        1.6962262985    -0.0446084468     2.1065125135
| 13>  C        0.7049119637    -0.6490707499     1.1406242680
| 14>  H        0.5922419356     2.1928113538     0.3312286951
| 15>  H       -0.4859607696     1.8896487353    -1.0553319657
| 16>  H       -1.1261993168     1.8627153288     0.5962627191
| 17>  H       -1.2834943138    -0.3712851191    -1.3087676045
| 18>  H        1.2527623300    -1.4048750864    -0.9345956417
| 19>  H        3.4650395537    -0.5216379940    -0.5121593266
| 20>  H        2.7460079982     1.0755009985    -0.7053650638
| 21>  H        3.9099902831     0.2916529067     1.7693611086
| 22>  H        2.4123554937     1.7413602171     2.8226418665
| 23>  H        1.7591239275    -0.4764458968     3.0996844560
| 24>  H        0.1996392250    -1.5525263335     1.4618518742
| 25> *
| 26>
| 27>                          ****END OF INPUT****

CARTESIAN COORDINATES (ANGSTROEM)
---------------------------------
  C     -0.255988    1.609235   -0.017859
  C      0.003482    0.123785    0.048587
  O     -1.107824   -0.632288   -0.397415
  C      1.321651   -0.558213   -0.259498
  C      2.683014    0.143966   -0.132135
  C      2.908868    0.390865    1.360896
  N      2.007731    1.397503    1.954924
  C      1.696226   -0.044608    2.106513
  C      0.704912   -0.649071    1.140624
  H      0.592242    2.192811    0.331229
  H     -0.485961    1.889649   -1.055332
  H     -1.126199    1.862715    0.596263
  H     -1.283494   -0.371285   -1.308768
  H      1.252762   -1.404875   -0.934596
  H      3.465040   -0.521638   -0.512159
  H      2.746008    1.075501   -0.705365
  H      3.909990    0.291653    1.769361
  H      2.412355    1.741360    2.822642
  H      1.759124   -0.476446    3.099684
  H      0.199639   -1.552526    1.461852

 Total Charge           Charge          ....    0
 Multiplicity           Mult            ....    1
 Number of Electrons    NEL             ....   68
 Basis Dimension        Dim             ....  345

ORBITAL ENERGIES
----------------

  NO   OCC          E(Eh)            E(eV)
   0   2.0000     -20.550771      -559.2149
   1   2.0000     -15.555984      -423.2999
   2   2.0000     -11.283811      -307.0481
   3   2.0000     -11.260135      -306.4039
   4   2.0000     -11.256095      -306.2939
   5   2.0000     -11.227105      -305.5051
   6   2.0000     -11.223285      -305.4011
   7   2.0000     -11.220889      -305.3359
   8   2.0000     -11.201938      -304.8202
   9   2.0000      -1.362342       -37.0712
  10   2.0000      -1.268493       -34.5174
  11   2.0000      -1.127527       -30.6816
  12   2.0000      -0.994817       -27.0703
  13   2.0000      -0.960406       -26.1340
  14   2.0000      -0.903009       -24.5721
  15   2.0000      -0.808028       -21.9876
  16   2.0000      -0.767842       -20.8940
  17   2.0000      -0.731589       -19.9075
  18   2.0000      -0.722758       -19.6672
  19   2.0000      -0.668905       -18.2018
  20   2.0000      -0.618327       -16.8255
  21   2.0000      -0.612195       -16.6587
  22   2.0000      -0.577317       -15.7096
  23   2.0000      -0.566225       -15.4078
  24   2.0000      -0.558472       -15.1968
  25   2.0000      -0.538055       -14.6412
  26   2.0000      -0.517821       -14.0906
  27   2.0000      -0.502099       -13.6628
  28   2.0000      -0.479234       -13.0406
  29   2.0000      -0.469254       -12.7691
  30   2.0000      -0.458845       -12.4858
  31   2.0000      -0.401945       -10.9375
  32   2.0000      -0.374610       -10.1937
  33   2.0000      -0.361287        -9.8311
  34   0.0000       0.134325         3.6552
  35   0.0000       0.145552         3.9607
  36   0.0000       0.166557         4.5322
  37   0.0000       0.177676         4.8348
  38   0.0000       0.183025         4.9804

MULLIKEN ATOMIC CHARGES
-----------------------
   0 C :   -0.381682
   1 C :    0.159369
   2 O :   -0.464336
   3 C :   -0.151291
   4 C :   -0.212637
   5 C :   -0.027928
   6 N :   -0.382455
   7 C :   -0.164428
   8 C :   -0.045207
   9 H :    0.160575
  10 H :    0.100617
  11 H :    0.133346
  12 H :    0.311991
  13 H :    0.126933
  14 H :    0.118642
  15 H :    0.119363
  16 H :    0.126132
  17 H :    0.213071
  18 H :    0.127321
  19 H :    0.132605
Sum of atomic charges:    0.0000000

LOEWDIN ATOMIC CHARGES
----------------------
   0 C :   -0.280106
   1 C :   -0.334453
   2 O :    0.015328
   3 C :   -0.162491
   4 C :   -0.212886
   5 C :   -0.243389
   6 N :    0.003961
   7 C :   -0.224315
   8 C :   -0.147036
   9 H :    0.132585
  10 H :    0.121119
  11 H :    0.130171
  12 H :    0.176331
  13 H :    0.145128
  14 H :    0.145145
  15 H :    0.143384
  16 H :    0.132126
  17 H :    0.166676
  18 H :    0.138154
  19 H :    0.154567

  Mayer bond orders larger than 0.1
B(  0-C ,  1-C ) :   0.9350 B(  0-C ,  9-H ) :   0.9175 B(  0-C , 10-H ) :   0.9166
B(  0-C , 11-H ) :   0.9408 B(  1-C ,  2-O ) :   0.9375 B(  1-C ,  3-C ) :   0.8863
B(  1-C ,  8-C ) :   0.8576 B(  2-O , 12-H ) :   0.8431 B(  3-C ,  4-C ) :   0.9302
B(  3-C ,  8-C ) :   0.8477 B(  3-C , 13-H ) :   0.9280 B(  4-C ,  5-C ) :   0.9603
B(  4-C , 14-H ) :   0.9188 B(  4-C , 15-H ) :   0.9123 B(  5-C ,  6-N ) :   0.9141
B(  5-C ,  7-C ) :   0.9275 B(  5-C , 16-H ) :   0.9214 B(  6-N ,  7-C ) :   0.9567
B(  6-N , 17-H ) :   0.8721 B(  7-C ,  8-C ) :   0.9049 B(  7-C , 18-H ) :   0.9319
B(  8-C , 19-H ) :   0.9244

MP2 TOTAL ENERGY:     -402.424131925 Eh
FINAL SINGLE POINT ENERGY      -402.424131924908

DIPOLE MOMENT
-------------
                                X             Y             Z
Electronic contribution:     -0.88635      -2.22471       1.23218
Nuclear contribution   :      1.63530       2.24998      -1.18858
                        -----------------------------------------
Total Dipole Moment    :      0.74895       0.02527       0.04360
                        -----------------------------------------
Magnitude (a.u.)       :      0.75065
Magnitude (Debye)      :      1.90799

                             ****ORCA TERMINATED NORMALLY****
TOTAL RUN TIME: 0 days 0 hours 21 minutes 54 seconds 695 msec
