                         Program Version 3.0.3 - RELEASE   -
|  1> ! RI-MP2 RIJK def2-TZVP def2-TZVP/C def2-TZVP/JK TIGHTSCF
|  2> % maxcore 2000
|  3> % mp2 density relaxed end
|  4> *xyz 0 1
|  5>  O       -0.2470826904     0.0545677743     0.2764660009
|  6>  C       -0.0317244208     1.2086245758     0.0252711029
|  7>  C        1.3618832913     1.7533435793    -0.2889699921
|  8>  C        1.3373445339     2.8282261734    -1.3219400628
|  9>  N        1.9741646370     2.7293631831    -2.4596270952
| 10>  O        1.6678824490     3.9324441432    -3.1093173040
| 11>  C        0.8750623410     4.6092307319    -2.2812227530
| 12>  N        0.6247119353     4.0026799310    -1.1652134341
| 13>  H       -0.8364935515     1.9737275514     0.0285047259
| 14>  H        1.7457613288     2.1785524100     0.6490936116
| 15>  H        2.0148443114     0.9327726682    -0.5888907090
| 16>  H        0.5270943851     5.5771792283    -2.6110771611
| 17> *
| 18>
| 19>                          ****END OF INPUT****

CARTESIAN COORDINATES (ANGSTROEM)
---------------------------------
  O     -0.247083    0.054568    0.276466
  C     -0.031724    1.208625    0.025271
  C      1.361883    1.753344   -0.288970
  C      1.337345    2.828226   -1.321940
  N      1.974165    2.729363   -2.459627
  O      1.667882    3.932444   -3.109317
  C      0.875062    4.609231   -2.281223
  N      0.624712    4.002680   -1.165213
  H     -0.836494    1.973728    0.028505
  H      1.745761    2.178552    0.649094
  H      2.014844    0.932773   -0.588891
  H      0.527094    5.577179   -2.611077

 Total Charge           Charge          ....    0
 Multiplicity           Mult            ....    1
 Number of Electrons    NEL             ....   58
 Basis Dimension        Dim             ....  272

ORBITAL ENERGIES
----------------

  NO   OCC          E(Eh)            E(eV)
   0   2.0000     -20.679312      -562.7127
   1   2.0000     -20.572258      -559.7996
   2   2.0000     -15.646352      -425.7589
   3   2.0000     -15.597944      -424.4416
   4   2.0000     -11.380264      -309.6727
   5   2.0000     -11.350002      -308.8492
   6   2.0000     -11.339623      -308.5668
   7   2.0000     -11.273774      -306.7750
   8   2.0000      -1.542193       -41.9652
   9   2.0000      -1.412607       -38.4390
  10   2.0000      -1.279483       -34.8165
  11   2.0000      -1.187689       -32.3186
  12   2.0000      -1.055495       -28.7215
  13   2.0000      -0.891875       -24.2691
  14   2.0000      -0.854391       -23.2492
  15   2.0000      -0.812969       -22.1220
  16   2.0000      -0.759092       -20.6559
  17   2.0000      -0.704090       -19.1593
  18   2.0000      -0.676875       -18.4187
  19   2.0000      -0.655964       -17.8497
  20   2.0000      -0.641474       -17.4554
  21   2.0000      -0.606783       -16.5114
  22   2.0000      -0.580386       -15.7931
  23   2.0000      -0.544732       -14.8229
  24   2.0000      -0.524877       -14.2826
  25   2.0000      -0.493057       -13.4168
  26   2.0000      -0.486271       -13.2321
  27   2.0000      -0.447575       -12.1791
  28   2.0000      -0.415493       -11.3061
  29   0.0000       0.097266         2.6467
  30   0.0000       0.115799         3.1511
  31   0.0000       0.146028         3.9736
  32   0.0000       0.155133         4.2214
  33   0.0000       0.178723         4.8633

MULLIKEN ATOMIC CHARGES
-----------------------
   0 O :   -0.250944
   1 C :    0.081770
   2 C :   -0.165103
   3 C :    0.126036
   4 N :   -0.111483
   5 O :   -0.088792
   6 C :    0.126776
   7 N :   -0.317618
   8 H :    0.109049
   9 H :    0.153963
  10 H :    0.158480
  11 H :    0.177867
Sum of atomic charges:    0.0000000

LOEWDIN ATOMIC CHARGES
----------------------
   0 O :    0.145593
   1 C :   -0.278665
   2 C :   -0.217280
   3 C :   -0.358770
   4 N :    0.063617
   5 O :    0.280011
   6 C :   -0.336856
   7 N :    0.109412
   8 H :    0.118348
   9 H :    0.171123
  10 H :    0.162478
  11 H :    0.140988

  Mayer bond orders larger than 0.1
B(  0-O ,  1-C ) :   1.9950 B(  1-C ,  2-C ) :   0.8638 B(  1-C ,  8-H ) :   0.9292
B(  2-C ,  3-C ) :   0.8659 B(  2-C ,  9-H ) :   0.9080 B(  2-C , 10-H ) :   0.9133
B(  3-C ,  4-N ) :   1.6487 B(  3-C ,  7-N ) :   1.1702 B(  4-N ,  5-O ) :   0.8845
B(  5-O ,  6-C ) :   1.1595 B(  6-C ,  7-N ) :   1.5967 B(  6-C , 11-H ) :   0.9152

MP2 TOTAL ENERGY:     -413.992164600 Eh
FINAL SINGLE POINT ENERGY      -413.992164600295

DIPOLE MOMENT
-------------
                                X             Y             Z
Electronic contribution:      0.35826       1.01784      -2.51978
Nuclear contribution   :     -0.28576       0.15834       2.48165
                        -----------------------------------------
Total Dipole Moment    :      0.07251       1.17618      -0.03813
                        -----------------------------------------
Magnitude (a.u.)       :      1.17903
Magnitude (Debye)      :      2.99686

                             ****ORCA TERMINATED NORMALLY****
TOTAL RUN TIME: 0 days 0 hours 8 minutes 54 seconds 230 msec
