                         Program Version 3.0.3 - RELEASE   -
|  1> ! RI-MP2 RIJK def2-TZVP def2-TZVP/C def2-TZVP/JK TIGHTSCF
|  2> % maxcore 2000
|  3> % mp2 density relaxed end
|  4> *xyz 0 1
|  5>  C        0.0838010978     1.5148060722    -0.1018313656
|  6>  C        0.0329349992     0.0609610323    -0.0359503046
|  7>  C       -0.0071530519    -1.1419754002     0.0115962801
|  8>  C       -0.0633528263    -2.5938499536     0.0923459489
|  9>  C        0.5994266600    -3.1891844152     1.3693275794
| 10>  C        0.0645880554    -4.6251273413     1.4318456103
| 11>  C       -1.3285567499    -4.5598645782     0.7909862540
| 12>  O       -2.1535511720    -5.4354244695     0.8067547363
| 13>  C       -1.4901231940    -3.1880548135     0.1284990425
| 14>  H        1.1177734160     1.8763351097    -0.1276037210
| 15>  H       -0.4201740018     1.8904502426    -0.9992558913
| 16>  H       -0.4042612390     1.9708376835     0.7666082201
| 17>  H        0.4557885016    -3.0179087941    -0.7790287954
| 18>  H        1.6887312218    -3.1250065246     1.3304942876
| 19>  H        0.2661433725    -2.6159936322     2.2409437169
| 20>  H        0.6724388091    -5.3065325968     0.8218292408
| 21>  H        0.0119644715    -5.0571653013     2.4338101659
| 22>  H       -2.1359590635    -2.5777483576     0.7728499389
| 23>  H       -1.9800105966    -3.2649129826    -0.8440489439
| 24> *
| 25>
| 26>                          ****END OF INPUT****

CARTESIAN COORDINATES (ANGSTROEM)
---------------------------------
  C      0.083801    1.514806   -0.101831
  C      0.032935    0.060961   -0.035950
  C     -0.007153   -1.141975    0.011596
  C     -0.063353   -2.593850    0.092346
  C      0.599427   -3.189184    1.369328
  C      0.064588   -4.625127    1.431846
  C     -1.328557   -4.559865    0.790986
  O     -2.153551   -5.435424    0.806755
  C     -1.490123   -3.188055    0.128499
  H      1.117773    1.876335   -0.127604
  H     -0.420174    1.890450   -0.999256
  H     -0.404261    1.970838    0.766608
  H      0.455789   -3.017909   -0.779029
  H      1.688731   -3.125007    1.330494
  H      0.266143   -2.615994    2.240944
  H      0.672439   -5.306533    0.821829
  H      0.011964   -5.057165    2.433810
  H     -2.135959   -2.577748    0.772850
  H     -1.980011   -3.264913   -0.844049

 Total Charge           Charge          ....    0
 Multiplicity           Mult            ....    1
 Number of Electrons    NEL             ....   66
 Basis Dimension        Dim             ....  339

ORBITAL ENERGIES
----------------

  NO   OCC          E(Eh)            E(eV)
   0   2.0000     -20.544953      -559.0566
   1   2.0000     -11.330551      -308.3200
   2   2.0000     -11.266590      -306.5795
   3   2.0000     -11.250529      -306.1424
   4   2.0000     -11.242387      -305.9209
   5   2.0000     -11.241667      -305.9013
   6   2.0000     -11.240055      -305.8574
   7   2.0000     -11.229271      -305.5640
   8   2.0000     -11.222454      -305.3785
   9   2.0000      -1.389691       -37.8154
  10   2.0000      -1.145312       -31.1655
  11   2.0000      -1.060551       -28.8591
  12   2.0000      -1.005421       -27.3589
  13   2.0000      -0.971644       -26.4398
  14   2.0000      -0.925884       -25.1946
  15   2.0000      -0.827484       -22.5170
  16   2.0000      -0.739197       -20.1146
  17   2.0000      -0.696759       -18.9598
  18   2.0000      -0.673791       -18.3348
  19   2.0000      -0.636830       -17.3290
  20   2.0000      -0.605290       -16.4708
  21   2.0000      -0.603512       -16.4224
  22   2.0000      -0.590702       -16.0738
  23   2.0000      -0.589384       -16.0379
  24   2.0000      -0.580692       -15.8014
  25   2.0000      -0.571098       -15.5404
  26   2.0000      -0.525927       -14.3112
  27   2.0000      -0.514026       -13.9874
  28   2.0000      -0.496165       -13.5013
  29   2.0000      -0.482437       -13.1278
  30   2.0000      -0.405974       -11.0471
  31   2.0000      -0.372693       -10.1415
  32   2.0000      -0.368370       -10.0239
  33   0.0000       0.121677         3.3110
  34   0.0000       0.130548         3.5524
  35   0.0000       0.140388         3.8201
  36   0.0000       0.166692         4.5359
  37   0.0000       0.169416         4.6100

MULLIKEN ATOMIC CHARGES
-----------------------
   0 C :   -0.483938
   1 C :    0.083366
   2 C :   -0.007963
   3 C :   -0.255471
   4 C :   -0.229420
   5 C :   -0.203690
   6 C :    0.135246
   7 O :   -0.264245
   8 C :   -0.208717
   9 H :    0.162813
  10 H :    0.163465
  11 H :    0.162275
  12 H :    0.120269
  13 H :    0.132573
  14 H :    0.124861
  15 H :    0.134095
  16 H :    0.146418
  17 H :    0.139844
  18 H :    0.148220
Sum of atomic charges:    0.0000000

LOEWDIN ATOMIC CHARGES
----------------------
   0 C :   -0.295365
   1 C :   -0.100474
   2 C :   -0.069418
   3 C :   -0.234050
   4 C :   -0.214465
   5 C :   -0.227458
   6 C :   -0.311867
   7 O :    0.151995
   8 C :   -0.187687
   9 H :    0.140984
  10 H :    0.141194
  11 H :    0.140716
  12 H :    0.170514
  13 H :    0.137731
  14 H :    0.144274
  15 H :    0.155463
  16 H :    0.147638
  17 H :    0.161374
  18 H :    0.148901

  Mayer bond orders larger than 0.1
B(  0-C ,  1-C ) :   0.8306 B(  0-C ,  9-H ) :   0.9498 B(  0-C , 10-H ) :   0.9500
B(  0-C , 11-H ) :   0.9471 B(  1-C ,  2-C ) :   2.6704 B(  1-C ,  3-C ) :  -0.1381
B(  2-C ,  3-C ) :   1.0868 B(  3-C ,  4-C ) :   0.9033 B(  3-C ,  8-C ) :   0.9145
B(  3-C , 12-H ) :   0.9088 B(  4-C ,  5-C ) :   0.9202 B(  4-C , 13-H ) :   0.9216
B(  4-C , 14-H ) :   0.9265 B(  5-C ,  6-C ) :   0.8952 B(  5-C ,  8-C ) :  -0.1212
B(  5-C , 15-H ) :   0.9074 B(  5-C , 16-H ) :   0.9136 B(  6-C ,  7-O ) :   2.0617
B(  6-C ,  8-C ) :   0.8886 B(  8-C , 17-H ) :   0.9000 B(  8-C , 18-H ) :   0.9116

MP2 TOTAL ENERGY:     -385.214793045 Eh
FINAL SINGLE POINT ENERGY      -385.214793044805

DIPOLE MOMENT
-------------
                                X             Y             Z
Electronic contribution:     -3.16489      -5.50754      -0.44160
Nuclear contribution   :      3.93992       6.43257       0.44705
                        -----------------------------------------
Total Dipole Moment    :      0.77503       0.92502       0.00545
                        -----------------------------------------
Magnitude (a.u.)       :      1.20680
Magnitude (Debye)      :      3.06745

                             ****ORCA TERMINATED NORMALLY****
TOTAL RUN TIME: 0 days 0 hours 18 minutes 11 seconds 656 msec
