                         Program Version 3.0.3 - RELEASE   -
|  1> ! RI-MP2 RIJK def2-TZVP def2-TZVP/C def2-TZVP/JK TIGHTSCF
|  2> % maxcore 2000
|  3> % mp2 density relaxed end
|  4> *xyz 0 1
|  5>  C       -0.0606444936     1.4465326749    -0.0217821181
|  6>  C        0.0653001837    -0.0621450598    -0.0537868293
|  7>  C        0.7649104388    -0.6778679434    -1.2590654093
|  8>  C        1.4370852860    -0.6595188468     0.1131184682
|  9>  O        2.5435984486     0.0833749112     0.4818829753
| 10>  C        1.3678980999    -2.1962270917     0.2028524262
| 11>  C        0.6571915223    -2.1830625630    -1.1658148435
| 12>  C       -0.3104808049    -3.1056089410    -1.7605239662
| 13>  O        1.0545213516    -3.0443927901    -2.2147291979
| 14>  H        0.8357757231     1.9253934290    -0.4242846978
| 15>  H       -0.9217430337     1.7813504658    -0.6089619390
| 16>  H       -0.1990818262     1.8084021538     1.0035119507
| 17>  H       -0.7877756947    -0.5971591918     0.3652890473
| 18>  H        0.9796869732    -0.1069838581    -2.1541034499
| 19>  H        2.4451219898     0.3414539327     1.4054793647
| 20>  H        2.3582930745    -2.6480458723     0.1050377993
| 21>  H        0.8417885932    -2.6323202417     1.0588288049
| 22>  H       -0.5831232373    -4.0229367854    -1.2399626561
| 23>  H       -1.0523114443    -2.7343874523    -2.4666888094
| 24> *
| 25>
| 26>                          ****END OF INPUT****

CARTESIAN COORDINATES (ANGSTROEM)
---------------------------------
  C     -0.060644    1.446533   -0.021782
  C      0.065300   -0.062145   -0.053787
  C      0.764910   -0.677868   -1.259065
  C      1.437085   -0.659519    0.113118
  O      2.543598    0.083375    0.481883
  C      1.367898   -2.196227    0.202852
  C      0.657192   -2.183063   -1.165815
  C     -0.310481   -3.105609   -1.760524
  O      1.054521   -3.044393   -2.214729
  H      0.835776    1.925393   -0.424285
  H     -0.921743    1.781350   -0.608962
  H     -0.199082    1.808402    1.003512
  H     -0.787776   -0.597159    0.365289
  H      0.979687   -0.106984   -2.154103
  H      2.445122    0.341454    1.405479
  H      2.358293   -2.648046    0.105038
  H      0.841789   -2.632320    1.058829
  H     -0.583123   -4.022937   -1.239963
  H     -1.052311   -2.734387   -2.466689

 Total Charge           Charge          ....    0
 Multiplicity           Mult            ....    1
 Number of Electrons    NEL             ....   68
 Basis Dimension        Dim             ....  339

ORBITAL ENERGIES
----------------

  NO   OCC          E(Eh)            E(eV)
   0   2.0000     -20.573252      -559.8266
   1   2.0000     -20.563927      -559.5729
   2   2.0000     -11.294817      -307.3476
   3   2.0000     -11.294785      -307.3467
   4   2.0000     -11.277830      -306.8854
   5   2.0000     -11.243469      -305.9503
   6   2.0000     -11.233739      -305.6856
   7   2.0000     -11.232366      -305.6482
   8   2.0000     -11.225198      -305.4532
   9   2.0000      -1.409756       -38.3614
  10   2.0000      -1.384575       -37.6762
  11   2.0000      -1.187518       -32.3140
  12   2.0000      -1.022723       -27.8297
  13   2.0000      -0.929276       -25.2869
  14   2.0000      -0.914687       -24.8899
  15   2.0000      -0.856784       -23.3143
  16   2.0000      -0.793613       -21.5953
  17   2.0000      -0.739661       -20.1272
  18   2.0000      -0.698516       -19.0076
  19   2.0000      -0.684725       -18.6323
  20   2.0000      -0.662094       -18.0165
  21   2.0000      -0.619034       -16.8448
  22   2.0000      -0.607934       -16.5427
  23   2.0000      -0.591902       -16.1065
  24   2.0000      -0.569387       -15.4938
  25   2.0000      -0.541995       -14.7484
  26   2.0000      -0.532429       -14.4881
  27   2.0000      -0.522136       -14.2080
  28   2.0000      -0.507761       -13.8169
  29   2.0000      -0.493993       -13.4422
  30   2.0000      -0.438812       -11.9407
  31   2.0000      -0.429668       -11.6919
  32   2.0000      -0.395836       -10.7712
  33   2.0000      -0.375021       -10.2049
  34   0.0000       0.124488         3.3875
  35   0.0000       0.154510         4.2044
  36   0.0000       0.165011         4.4902
  37   0.0000       0.171275         4.6606
  38   0.0000       0.183166         4.9842

MULLIKEN ATOMIC CHARGES
-----------------------
   0 C :   -0.457088
   1 C :   -0.073845
   2 C :   -0.169376
   3 C :    0.139220
   4 O :   -0.454772
   5 C :   -0.149306
   6 C :    0.096727
   7 C :   -0.090825
   8 O :   -0.330030
   9 H :    0.158022
  10 H :    0.139909
  11 H :    0.131944
  12 H :    0.117237
  13 H :    0.147564
  14 H :    0.327016
  15 H :    0.119436
  16 H :    0.117580
  17 H :    0.113439
  18 H :    0.117146
Sum of atomic charges:   -0.0000000

LOEWDIN ATOMIC CHARGES
----------------------
   0 C :   -0.290780
   1 C :   -0.198060
   2 C :   -0.105399
   3 C :   -0.309175
   4 O :    0.035640
   5 C :   -0.154517
   6 C :   -0.297814
   7 C :   -0.239173
   8 O :    0.169141
   9 H :    0.133550
  10 H :    0.127410
  11 H :    0.124638
  12 H :    0.146119
  13 H :    0.147845
  14 H :    0.187875
  15 H :    0.150765
  16 H :    0.129774
  17 H :    0.120443
  18 H :    0.121719

  Mayer bond orders larger than 0.1
B(  0-C ,  1-C ) :   0.8634 B(  0-C ,  9-H ) :   0.9331 B(  0-C , 10-H ) :   0.9422
B(  0-C , 11-H ) :   0.9403 B(  1-C ,  2-C ) :   0.8229 B(  1-C ,  3-C ) :   0.8927
B(  1-C , 12-H ) :   0.9050 B(  2-C ,  3-C ) :   0.8553 B(  2-C ,  6-C ) :   0.8900
B(  2-C , 13-H ) :   0.8937 B(  3-C ,  4-O ) :   1.0287 B(  3-C ,  5-C ) :   0.9900
B(  4-O , 14-H ) :   0.8350 B(  5-C ,  6-C ) :   0.9553 B(  5-C , 15-H ) :   0.8918
B(  5-C , 16-H ) :   0.9061 B(  6-C ,  7-C ) :   0.9902 B(  6-C ,  8-O ) :   0.9063
B(  7-C ,  8-O ) :   0.8977 B(  7-C , 17-H ) :   0.9129 B(  7-C , 18-H ) :   0.9099

MP2 TOTAL ENERGY:     -422.261641890 Eh
FINAL SINGLE POINT ENERGY      -422.261641889868

DIPOLE MOMENT
-------------
                                X             Y             Z
Electronic contribution:      3.55041      -3.85249      -2.12275
Nuclear contribution   :     -4.37495       4.21316       3.02664
                        -----------------------------------------
Total Dipole Moment    :     -0.82453       0.36067       0.90389
                        -----------------------------------------
Magnitude (a.u.)       :      1.27552
Magnitude (Debye)      :      3.24211

                             ****ORCA TERMINATED NORMALLY****
TOTAL RUN TIME: 0 days 0 hours 16 minutes 10 seconds 63 msec
