                         Program Version 3.0.3 - RELEASE   -
|  1> ! RI-MP2 RIJK def2-TZVP def2-TZVP/C def2-TZVP/JK TIGHTSCF
|  2> % maxcore 2000
|  3> % mp2 density relaxed end
|  4> *xyz 0 1
|  5>  C        0.0633468047     1.5086552681    -0.1876094298
|  6>  C        0.0025326133     0.0030665769    -0.0285448983
|  7>  C        1.2962481484    -0.7950467923    -0.0837098035
|  8>  C        0.5864004835    -0.6280691508     1.2261548246
|  9>  C       -1.1947951435    -0.6450125036    -0.5949469476
| 10>  N       -2.1772498571     0.0067722815    -1.2128169896
| 11>  N       -2.9926844578    -0.9950714324    -1.5259688079
| 12>  N       -2.5754368336    -2.1907003123    -1.1452513743
| 13>  N       -1.4313928683    -1.9881929324    -0.5498710354
| 14>  H        0.9815692143     1.8989001062     0.2603150352
| 15>  H        0.0480631207     1.7973738805    -1.2432066591
| 16>  H       -0.7880931532     1.9941205850     0.2994901914
| 17>  H        1.2581055136    -1.7694598684    -0.5560031177
| 18>  H        2.2079140995    -0.2334459044    -0.2570122291
| 19>  H        1.0051839483     0.0494824736     1.9624330022
| 20>  H        0.0718177492    -1.4904001659     1.6330668188
| 21>  H       -3.8636478821    -0.8587375092    -2.0163774098
| 22> *
| 23>
| 24>                          ****END OF INPUT****

CARTESIAN COORDINATES (ANGSTROEM)
---------------------------------
  C      0.063347    1.508655   -0.187609
  C      0.002533    0.003067   -0.028545
  C      1.296248   -0.795047   -0.083710
  C      0.586400   -0.628069    1.226155
  C     -1.194795   -0.645013   -0.594947
  N     -2.177250    0.006772   -1.212817
  N     -2.992684   -0.995071   -1.525969
  N     -2.575437   -2.190700   -1.145251
  N     -1.431393   -1.988193   -0.549871
  H      0.981569    1.898900    0.260315
  H      0.048063    1.797374   -1.243207
  H     -0.788093    1.994121    0.299490
  H      1.258106   -1.769460   -0.556003
  H      2.207914   -0.233446   -0.257012
  H      1.005184    0.049482    1.962433
  H      0.071818   -1.490400    1.633067
  H     -3.863648   -0.858738   -2.016377

 Total Charge           Charge          ....    0
 Multiplicity           Mult            ....    1
 Number of Electrons    NEL             ....   66
 Basis Dimension        Dim             ....  327

ORBITAL ENERGIES
----------------

  NO   OCC          E(Eh)            E(eV)
   0   2.0000     -15.696271      -427.1172
   1   2.0000     -15.671690      -426.4484
   2   2.0000     -15.618031      -424.9882
   3   2.0000     -15.603192      -424.5844
   4   2.0000     -11.303714      -307.5897
   5   2.0000     -11.254996      -306.2640
   6   2.0000     -11.232777      -305.6594
   7   2.0000     -11.232087      -305.6406
   8   2.0000     -11.222662      -305.3842
   9   2.0000      -1.497058       -40.7370
  10   2.0000      -1.257386       -34.2152
  11   2.0000      -1.199996       -32.6535
  12   2.0000      -1.140756       -31.0415
  13   2.0000      -0.976575       -26.5740
  14   2.0000      -0.917231       -24.9591
  15   2.0000      -0.886703       -24.1284
  16   2.0000      -0.830360       -22.5952
  17   2.0000      -0.790928       -21.5222
  18   2.0000      -0.740068       -20.1383
  19   2.0000      -0.679746       -18.4968
  20   2.0000      -0.672852       -18.3092
  21   2.0000      -0.623496       -16.9662
  22   2.0000      -0.582222       -15.8431
  23   2.0000      -0.574405       -15.6304
  24   2.0000      -0.551419       -15.0049
  25   2.0000      -0.523763       -14.2523
  26   2.0000      -0.522886       -14.2284
  27   2.0000      -0.494521       -13.4566
  28   2.0000      -0.465935       -12.6787
  29   2.0000      -0.453073       -12.3288
  30   2.0000      -0.440321       -11.9817
  31   2.0000      -0.431171       -11.7328
  32   2.0000      -0.364957        -9.9310
  33   0.0000       0.122898         3.3442
  34   0.0000       0.129539         3.5249
  35   0.0000       0.149091         4.0570
  36   0.0000       0.178027         4.8444
  37   0.0000       0.181303         4.9335

MULLIKEN ATOMIC CHARGES
-----------------------
   0 C :   -0.392784
   1 C :    0.077294
   2 C :   -0.273962
   3 C :   -0.273903
   4 C :    0.062273
   5 N :   -0.207202
   6 N :    0.021402
   7 N :   -0.130678
   8 N :   -0.142535
   9 H :    0.130848
  10 H :    0.139431
  11 H :    0.139383
  12 H :    0.153235
  13 H :    0.134013
  14 H :    0.134006
  15 H :    0.153297
  16 H :    0.275882
Sum of atomic charges:    0.0000000

LOEWDIN ATOMIC CHARGES
----------------------
   0 C :   -0.256983
   1 C :   -0.245662
   2 C :   -0.191508
   3 C :   -0.191523
   4 C :   -0.325781
   5 N :    0.050373
   6 N :    0.056644
   7 N :   -0.055309
   8 N :    0.025854
   9 H :    0.129481
  10 H :    0.130878
  11 H :    0.130872
  12 H :    0.141055
  13 H :    0.134754
  14 H :    0.134759
  15 H :    0.141072
  16 H :    0.191025

  Mayer bond orders larger than 0.1
B(  0-C ,  1-C ) :   0.9348 B(  0-C ,  9-H ) :   0.9285 B(  0-C , 10-H ) :   0.9338
B(  0-C , 11-H ) :   0.9339 B(  1-C ,  2-C ) :   0.8416 B(  1-C ,  3-C ) :   0.8417
B(  1-C ,  4-C ) :   0.9790 B(  2-C ,  3-C ) :   0.9123 B(  2-C , 12-H ) :   0.9199
B(  2-C , 13-H ) :   0.9284 B(  3-C , 14-H ) :   0.9284 B(  3-C , 15-H ) :   0.9199
B(  4-C ,  5-N ) :   1.5229 B(  4-C ,  8-N ) :   1.3919 B(  5-N ,  6-N ) :   1.1050
B(  5-N ,  7-N ) :   0.1151 B(  6-N ,  7-N ) :   1.1243 B(  6-N , 16-H ) :   0.8647
B(  7-N ,  8-N ) :   1.2679

MP2 TOTAL ENERGY:     -413.469221184 Eh
FINAL SINGLE POINT ENERGY      -413.469221183719

DIPOLE MOMENT
-------------
                                X             Y             Z
Electronic contribution:     -8.24120      -5.20398      -3.80285
Nuclear contribution   :      8.00198       5.98241       3.57249
                        -----------------------------------------
Total Dipole Moment    :     -0.23922       0.77844      -0.23036
                        -----------------------------------------
Magnitude (a.u.)       :      0.84632
Magnitude (Debye)      :      2.15118

                             ****ORCA TERMINATED NORMALLY****
TOTAL RUN TIME: 0 days 0 hours 17 minutes 44 seconds 827 msec
