                         Program Version 3.0.3 - RELEASE   -
|  1> ! RI-MP2 RIJK def2-TZVP def2-TZVP/C def2-TZVP/JK TIGHTSCF
|  2> % maxcore 2000
|  3> % mp2 density relaxed end
|  4> *xyz 0 1
|  5>  C        1.0149314840     2.0408553032     2.9981796095
|  6>  C        0.5213951268     0.6700049871     2.5817003050
|  7>  O        0.0213771363     0.5759083176     1.2080347646
|  8>  C        0.7239516335    -0.6569848536     1.0251184624
|  9>  C        2.2006685230    -0.4374321491     1.0257875264
| 10>  C        2.8500456744     0.7895300387     0.3969048287
| 11>  C        4.0302291178     1.2646583327     1.1104104296
| 12>  C        4.9993413177     1.6441871930     1.7125699872
| 13>  C        1.4530321830    -0.5199984338     2.3484002385
| 14>  H        0.2258464093     2.7834355406     2.8395832517
| 15>  H        1.2527564288     2.0287684758     4.0674481696
| 16>  H        1.9102621117     2.3540017370     2.4596939740
| 17>  H       -0.2946595097     0.3595632536     3.2488519583
| 18>  H        0.1915057274    -1.4749988639     0.5526163686
| 19>  H        2.7570293749    -1.3581711460     0.8605389959
| 20>  H        3.1273911934     0.5402536018    -0.6357593286
| 21>  H        2.1039267572     1.5871772632     0.3250214842
| 22>  H        5.8579763873     1.9850303805     2.2357182250
| 23>  H        1.6987313834    -1.2671360486     3.0911750395
| 24> *
| 25>
| 26>                          ****END OF INPUT****

CARTESIAN COORDINATES (ANGSTROEM)
---------------------------------
  C      1.014931    2.040855    2.998180
  C      0.521395    0.670005    2.581700
  O      0.021377    0.575908    1.208035
  C      0.723952   -0.656985    1.025118
  C      2.200669   -0.437432    1.025788
  C      2.850046    0.789530    0.396905
  C      4.030229    1.264658    1.110410
  C      4.999341    1.644187    1.712570
  C      1.453032   -0.519998    2.348400
  H      0.225846    2.783436    2.839583
  H      1.252756    2.028768    4.067448
  H      1.910262    2.354002    2.459694
  H     -0.294660    0.359563    3.248852
  H      0.191506   -1.474999    0.552616
  H      2.757029   -1.358171    0.860539
  H      3.127391    0.540254   -0.635759
  H      2.103927    1.587177    0.325021
  H      5.857976    1.985030    2.235718
  H      1.698731   -1.267136    3.091175

 Total Charge           Charge          ....    0
 Multiplicity           Mult            ....    1
 Number of Electrons    NEL             ....   66
 Basis Dimension        Dim             ....  339

ORBITAL ENERGIES
----------------

  NO   OCC          E(Eh)            E(eV)
   0   2.0000     -20.554785      -559.3241
   1   2.0000     -11.291641      -307.2612
   2   2.0000     -11.290037      -307.2175
   3   2.0000     -11.252424      -306.1940
   4   2.0000     -11.249290      -306.1087
   5   2.0000     -11.240719      -305.8755
   6   2.0000     -11.232539      -305.6529
   7   2.0000     -11.218312      -305.2658
   8   2.0000     -11.215468      -305.1884
   9   2.0000      -1.392776       -37.8994
  10   2.0000      -1.133221       -30.8365
  11   2.0000      -1.054513       -28.6948
  12   2.0000      -1.021699       -27.8018
  13   2.0000      -0.967826       -26.3359
  14   2.0000      -0.878752       -23.9120
  15   2.0000      -0.795999       -21.6602
  16   2.0000      -0.746082       -20.3019
  17   2.0000      -0.724930       -19.7263
  18   2.0000      -0.711407       -19.3584
  19   2.0000      -0.641414       -17.4538
  20   2.0000      -0.634180       -17.2569
  21   2.0000      -0.618413       -16.8279
  22   2.0000      -0.600170       -16.3315
  23   2.0000      -0.582847       -15.8601
  24   2.0000      -0.555732       -15.1222
  25   2.0000      -0.524832       -14.2814
  26   2.0000      -0.511282       -13.9127
  27   2.0000      -0.490039       -13.3346
  28   2.0000      -0.469801       -12.7839
  29   2.0000      -0.404372       -11.0035
  30   2.0000      -0.400364       -10.8945
  31   2.0000      -0.383547       -10.4368
  32   2.0000      -0.370136       -10.0719
  33   0.0000       0.138808         3.7771
  34   0.0000       0.152707         4.1554
  35   0.0000       0.162181         4.4132
  36   0.0000       0.171072         4.6551
  37   0.0000       0.180593         4.9142

MULLIKEN ATOMIC CHARGES
-----------------------
   0 C :   -0.398114
   1 C :    0.098583
   2 O :   -0.344735
   3 C :    0.066248
   4 C :   -0.097465
   5 C :   -0.337864
   6 C :   -0.027216
   7 C :   -0.185313
   8 C :   -0.192654
   9 H :    0.138531
  10 H :    0.128876
  11 H :    0.145620
  12 H :    0.094551
  13 H :    0.133790
  14 H :    0.122397
  15 H :    0.145486
  16 H :    0.183452
  17 H :    0.186747
  18 H :    0.139080
Sum of atomic charges:    0.0000000

LOEWDIN ATOMIC CHARGES
----------------------
   0 C :   -0.290164
   1 C :   -0.273366
   2 O :    0.159370
   3 C :   -0.226666
   4 C :   -0.181561
   5 C :   -0.230517
   6 C :   -0.111887
   7 C :   -0.111256
   8 C :   -0.156290
   9 H :    0.130668
  10 H :    0.131605
  11 H :    0.129929
  12 H :    0.144699
  13 H :    0.130217
  14 H :    0.164182
  15 H :    0.161463
  16 H :    0.165162
  17 H :    0.125534
  18 H :    0.138877

  Mayer bond orders larger than 0.1
B(  0-C ,  1-C ) :   0.9339 B(  0-C ,  9-H ) :   0.9288 B(  0-C , 10-H ) :   0.9273
B(  0-C , 11-H ) :   0.9334 B(  1-C ,  2-O ) :   0.9006 B(  1-C ,  8-C ) :   0.9234
B(  1-C , 12-H ) :   0.9156 B(  2-O ,  3-C ) :   0.9454 B(  3-C ,  4-C ) :   0.8666
B(  3-C ,  8-C ) :   0.8751 B(  3-C , 13-H ) :   0.9212 B(  4-C ,  5-C ) :   0.8683
B(  4-C ,  8-C ) :   0.8922 B(  4-C , 14-H ) :   0.9200 B(  5-C ,  6-C ) :   1.0768
B(  5-C , 15-H ) :   0.9231 B(  5-C , 16-H ) :   0.9235 B(  6-C ,  7-C ) :   2.6080
B(  7-C , 17-H ) :   0.9087 B(  8-C , 18-H ) :   0.9185

MP2 TOTAL ENERGY:     -385.123571722 Eh
FINAL SINGLE POINT ENERGY      -385.123571721851

DIPOLE MOMENT
-------------
                                X             Y             Z
Electronic contribution:      0.40421      -1.80213      -2.36360
Nuclear contribution   :     -0.25770       1.35768       2.72844
                        -----------------------------------------
Total Dipole Moment    :      0.14651      -0.44445       0.36483
                        -----------------------------------------
Magnitude (a.u.)       :      0.59338
Magnitude (Debye)      :      1.50826

                             ****ORCA TERMINATED NORMALLY****
TOTAL RUN TIME: 0 days 0 hours 18 minutes 57 seconds 420 msec
