                         Program Version 3.0.3 - RELEASE   -
|  1> ! RI-MP2 RIJK def2-TZVP def2-TZVP/C def2-TZVP/JK TIGHTSCF
|  2> % maxcore 2000
|  3> % mp2 density relaxed end
|  4> *xyz 0 1
|  5>  C        0.1504370405     1.3078197169    -0.4680864422
|  6>  C        0.1013641627    -0.0880579810     0.0994598012
|  7>  O        1.3445418778    -0.7832805034     0.2631639777
|  8>  C        0.5631638331    -0.5016806651     1.4408855282
|  9>  C        1.1799958226     0.4833342185     2.4115081008
| 10>  C       -0.0658024338    -1.7397429619     2.0651975817
| 11>  C        0.9500163560    -2.6623509146     2.7517013668
| 12>  C        0.3188589257    -3.9589196250     3.2411188563
| 13>  O        1.3272470970    -4.7197144787     3.8887956389
| 14>  H        0.9359641116     1.9135094199    -0.0132585561
| 15>  H        0.3424488288     1.2648099662    -1.5455499124
| 16>  H       -0.8108170426     1.8126969370    -0.3212146347
| 17>  H       -0.6822811864    -0.7085325620    -0.3439020207
| 18>  H        1.6258628673     1.3343439132     1.8957120858
| 19>  H        0.4249792357     0.8566687244     3.1121958936
| 20>  H        1.9693270909     0.0025133910     2.9972567244
| 21>  H       -0.8356431996    -1.4264920265     2.7837358342
| 22>  H       -0.5803615106    -2.2988818259     1.2749631360
| 23>  H        1.7557213930    -2.9026257734     2.0495306298
| 24>  H        1.4123029395    -2.1655999725     3.6118541270
| 25>  H       -0.5125146637    -3.7321900410     3.9300731290
| 26>  H       -0.1098367146    -4.5089361247     2.3870602404
| 27>  H        0.9382998890    -5.5499374213     4.1784418243
| 28> *
| 29>
| 30>                          ****END OF INPUT****

CARTESIAN COORDINATES (ANGSTROEM)
---------------------------------
  C      0.150437    1.307820   -0.468086
  C      0.101364   -0.088058    0.099460
  O      1.344542   -0.783281    0.263164
  C      0.563164   -0.501681    1.440886
  C      1.179996    0.483334    2.411508
  C     -0.065802   -1.739743    2.065198
  C      0.950016   -2.662351    2.751701
  C      0.318859   -3.958920    3.241119
  O      1.327247   -4.719714    3.888796
  H      0.935964    1.913509   -0.013259
  H      0.342449    1.264810   -1.545550
  H     -0.810817    1.812697   -0.321215
  H     -0.682281   -0.708533   -0.343902
  H      1.625863    1.334344    1.895712
  H      0.424979    0.856669    3.112196
  H      1.969327    0.002513    2.997257
  H     -0.835643   -1.426492    2.783736
  H     -0.580362   -2.298882    1.274963
  H      1.755721   -2.902626    2.049531
  H      1.412303   -2.165600    3.611854
  H     -0.512515   -3.732190    3.930073
  H     -0.109837   -4.508936    2.387060
  H      0.938300   -5.549937    4.178442

 Total Charge           Charge          ....    0
 Multiplicity           Mult            ....    1
 Number of Electrons    NEL             ....   72
 Basis Dimension        Dim             ....  363

ORBITAL ENERGIES
----------------

  NO   OCC          E(Eh)            E(eV)
   0   2.0000     -20.553511      -559.2895
   1   2.0000     -20.552995      -559.2754
   2   2.0000     -11.286341      -307.1169
   3   2.0000     -11.280200      -306.9498
   4   2.0000     -11.273771      -306.7749
   5   2.0000     -11.226938      -305.5005
   6   2.0000     -11.222922      -305.3912
   7   2.0000     -11.220386      -305.3222
   8   2.0000     -11.215895      -305.2000
   9   2.0000      -1.399528       -38.0831
  10   2.0000      -1.356979       -36.9253
  11   2.0000      -1.072028       -29.1714
  12   2.0000      -1.012489       -27.5512
  13   2.0000      -0.996180       -27.1074
  14   2.0000      -0.928780       -25.2734
  15   2.0000      -0.852779       -23.2053
  16   2.0000      -0.801785       -21.8177
  17   2.0000      -0.756104       -20.5746
  18   2.0000      -0.693892       -18.8818
  19   2.0000      -0.671415       -18.2701
  20   2.0000      -0.658294       -17.9131
  21   2.0000      -0.628761       -17.1095
  22   2.0000      -0.595095       -16.1934
  23   2.0000      -0.585148       -15.9227
  24   2.0000      -0.572541       -15.5796
  25   2.0000      -0.564326       -15.3561
  26   2.0000      -0.544841       -14.8259
  27   2.0000      -0.542957       -14.7746
  28   2.0000      -0.516486       -14.0543
  29   2.0000      -0.501950       -13.6588
  30   2.0000      -0.495944       -13.4953
  31   2.0000      -0.480914       -13.0863
  32   2.0000      -0.471209       -12.8222
  33   2.0000      -0.441263       -12.0074
  34   2.0000      -0.431204       -11.7336
  35   2.0000      -0.405886       -11.0447
  36   0.0000       0.133744         3.6393
  37   0.0000       0.142017         3.8645
  38   0.0000       0.162217         4.4141
  39   0.0000       0.163752         4.4559
  40   0.0000       0.182846         4.9755

MULLIKEN ATOMIC CHARGES
-----------------------
   0 C :   -0.380701
   1 C :    0.038497
   2 O :   -0.356905
   3 C :    0.222447
   4 C :   -0.429122
   5 C :   -0.236280
   6 C :   -0.201906
   7 C :   -0.069751
   8 O :   -0.464685
   9 H :    0.130014
  10 H :    0.140568
  11 H :    0.126729
  12 H :    0.098391
  13 H :    0.131813
  14 H :    0.130901
  15 H :    0.151625
  16 H :    0.111389
  17 H :    0.114772
  18 H :    0.134004
  19 H :    0.112032
  20 H :    0.086680
  21 H :    0.094913
  22 H :    0.314574
Sum of atomic charges:   -0.0000000

LOEWDIN ATOMIC CHARGES
----------------------
   0 C :   -0.294949
   1 C :   -0.277549
   2 O :    0.172003
   3 C :   -0.324958
   4 C :   -0.264507
   5 C :   -0.225894
   6 C :   -0.263836
   7 C :   -0.354213
   8 O :   -0.051927
   9 H :    0.125399
  10 H :    0.130445
  11 H :    0.129705
  12 H :    0.135932
  13 H :    0.127520
  14 H :    0.131435
  15 H :    0.131934
  16 H :    0.143404
  17 H :    0.146146
  18 H :    0.146628
  19 H :    0.138923
  20 H :    0.112847
  21 H :    0.114255
  22 H :    0.171259

  Mayer bond orders larger than 0.1
B(  0-C ,  1-C ) :   0.8876 B(  0-C ,  9-H ) :   0.9431 B(  0-C , 10-H ) :   0.9360
B(  0-C , 11-H ) :   0.9249 B(  1-C ,  2-O ) :   0.9038 B(  1-C ,  3-C ) :   0.9801
B(  1-C , 12-H ) :   0.9013 B(  2-O ,  3-C ) :   0.8305 B(  3-C ,  4-C ) :   0.8899
B(  3-C ,  5-C ) :   0.8945 B(  4-C , 13-H ) :   0.9393 B(  4-C , 14-H ) :   0.9333
B(  4-C , 15-H ) :   0.9395 B(  5-C ,  6-C ) :   0.9192 B(  5-C , 16-H ) :   0.9218
B(  5-C , 17-H ) :   0.9287 B(  6-C ,  7-C ) :   0.9381 B(  6-C ,  8-O ) :  -0.1035
B(  6-C , 18-H ) :   0.9235 B(  6-C , 19-H ) :   0.9229 B(  7-C ,  8-O ) :   1.0290
B(  7-C , 20-H ) :   0.9281 B(  7-C , 21-H ) :   0.9364 B(  8-O , 22-H ) :   0.8500

MP2 TOTAL ENERGY:     -424.710883084 Eh
FINAL SINGLE POINT ENERGY      -424.710883084222

DIPOLE MOMENT
-------------
                                X             Y             Z
Electronic contribution:      2.12995      -3.89737      -0.82162
Nuclear contribution   :     -3.25517       4.04568       1.06684
                        -----------------------------------------
Total Dipole Moment    :     -1.12522       0.14830       0.24523
                        -----------------------------------------
Magnitude (a.u.)       :      1.16114
Magnitude (Debye)      :      2.95140

                             ****ORCA TERMINATED NORMALLY****
TOTAL RUN TIME: 0 days 0 hours 16 minutes 48 seconds 812 msec
