                         Program Version 3.0.3 - RELEASE   -
|  1> ! RI-MP2 RIJK def2-TZVP def2-TZVP/C def2-TZVP/JK TIGHTSCF
|  2> % maxcore 2000
|  3> % mp2 density relaxed end
|  4> *xyz 0 1
|  5>  C       -0.0879011122     1.4513183981     0.0739528061
|  6>  N       -0.0158637011     0.0132618282    -0.1453816301
|  7>  C       -1.1316478204    -0.7664363082    -0.0449584003
|  8>  C       -1.3157632974    -2.1234294891     0.0591916763
|  9>  C       -2.7241493681    -2.2484396705     0.0515774385
| 10>  N       -3.3534939447    -1.1031237441    -0.0413242599
| 11>  O       -2.3139308147    -0.1394191713    -0.1000448534
| 12>  H        0.8852183833     1.8867279574    -0.1615709199
| 13>  H       -0.8320078807     1.8859526511    -0.5962125449
| 14>  H       -0.3582587797     1.7183257041     1.1047727292
| 15>  H        0.8296545738    -0.4377481563     0.1652026647
| 16>  H       -0.5680520507    -2.8950483931     0.1215005858
| 17>  H       -3.3127881674    -3.1541481562     0.1122265480
| 18> *
| 19>
| 20>                          ****END OF INPUT****

CARTESIAN COORDINATES (ANGSTROEM)
---------------------------------
  C     -0.087901    1.451318    0.073953
  N     -0.015864    0.013262   -0.145382
  C     -1.131648   -0.766436   -0.044958
  C     -1.315763   -2.123429    0.059192
  C     -2.724149   -2.248440    0.051577
  N     -3.353494   -1.103124   -0.041324
  O     -2.313931   -0.139419   -0.100045
  H      0.885218    1.886728   -0.161571
  H     -0.832008    1.885953   -0.596213
  H     -0.358259    1.718326    1.104773
  H      0.829655   -0.437748    0.165203
  H     -0.568052   -2.895048    0.121501
  H     -3.312788   -3.154148    0.112227

 Total Charge           Charge          ....    0
 Multiplicity           Mult            ....    1
 Number of Electrons    NEL             ....   52
 Basis Dimension        Dim             ....  253

ORBITAL ENERGIES
----------------

  NO   OCC          E(Eh)            E(eV)
   0   2.0000     -20.629456      -561.3560
   1   2.0000     -15.599972      -424.4968
   2   2.0000     -15.594901      -424.3588
   3   2.0000     -11.352370      -308.9137
   4   2.0000     -11.273638      -306.7713
   5   2.0000     -11.270811      -306.6944
   6   2.0000     -11.216038      -305.2039
   7   2.0000      -1.480909       -40.2976
   8   2.0000      -1.260149       -34.2904
   9   2.0000      -1.149753       -31.2864
  10   2.0000      -1.049615       -28.5615
  11   2.0000      -0.943427       -25.6720
  12   2.0000      -0.829782       -22.5795
  13   2.0000      -0.793371       -21.5887
  14   2.0000      -0.737595       -20.0710
  15   2.0000      -0.669984       -18.2312
  16   2.0000      -0.658403       -17.9160
  17   2.0000      -0.621785       -16.9196
  18   2.0000      -0.604892       -16.4600
  19   2.0000      -0.579015       -15.7558
  20   2.0000      -0.562695       -15.3117
  21   2.0000      -0.547833       -14.9073
  22   2.0000      -0.468870       -12.7586
  23   2.0000      -0.464438       -12.6380
  24   2.0000      -0.424629       -11.5548
  25   2.0000      -0.316223        -8.6049
  26   0.0000       0.125903         3.4260
  27   0.0000       0.146313         3.9814
  28   0.0000       0.162248         4.4150
  29   0.0000       0.176582         4.8050
  30   0.0000       0.198133         5.3915

MULLIKEN ATOMIC CHARGES
-----------------------
   0 C :   -0.276254
   1 N :   -0.350964
   2 C :    0.296217
   3 C :   -0.281240
   4 C :   -0.062328
   5 N :   -0.153947
   6 O :   -0.135377
   7 H :    0.140880
   8 H :    0.158538
   9 H :    0.135724
  10 H :    0.242660
  11 H :    0.144683
  12 H :    0.141409
Sum of atomic charges:   -0.0000000

LOEWDIN ATOMIC CHARGES
----------------------
   0 C :   -0.315983
   1 N :    0.057797
   2 C :   -0.363735
   3 C :   -0.216453
   4 C :   -0.285063
   5 N :    0.017904
   6 O :    0.274345
   7 H :    0.119761
   8 H :    0.125974
   9 H :    0.112096
  10 H :    0.190481
  11 H :    0.142103
  12 H :    0.140773

  Mayer bond orders larger than 0.1
B(  0-C ,  1-N ) :   0.8863 B(  0-C ,  7-H ) :   0.9332 B(  0-C ,  8-H ) :   0.9323
B(  0-C ,  9-H ) :   0.9339 B(  1-N ,  2-C ) :   1.1382 B(  1-N , 10-H ) :   0.8756
B(  2-C ,  3-C ) :   1.4369 B(  2-C ,  6-O ) :   1.1263 B(  3-C ,  4-C ) :   1.2487
B(  3-C , 11-H ) :   0.9145 B(  4-C ,  5-N ) :   1.6124 B(  4-C , 12-H ) :   0.9278
B(  5-N ,  6-O ) :   0.8424

MP2 TOTAL ENERGY:     -340.050561892 Eh
FINAL SINGLE POINT ENERGY      -340.050561892079

DIPOLE MOMENT
-------------
                                X             Y             Z
Electronic contribution:     -3.94521      -2.74160      -0.51957
Nuclear contribution   :      5.48898       2.67653       0.80020
                        -----------------------------------------
Total Dipole Moment    :      1.54377      -0.06507       0.28062
                        -----------------------------------------
Magnitude (a.u.)       :      1.57042
Magnitude (Debye)      :      3.99168

                             ****ORCA TERMINATED NORMALLY****
TOTAL RUN TIME: 0 days 0 hours 7 minutes 7 seconds 102 msec
