                         Program Version 3.0.3 - RELEASE   -
|  1> ! RI-MP2 RIJK def2-TZVP def2-TZVP/C def2-TZVP/JK TIGHTSCF
|  2> % maxcore 2000
|  3> % mp2 density relaxed end
|  4> *xyz 0 1
|  5>  C       -0.3438997212     1.3848770989    -0.3159733733
|  6>  C       -0.0155450539    -0.1049088971    -0.1617677891
|  7>  C        0.8882268750    -0.6286049927    -1.2583180542
|  8>  C        0.9494510845    -2.0989685746    -1.5835947171
|  9>  N        0.3665955850    -1.1477505389    -2.5037649460
| 10>  C       -0.9297119907    -1.1049139352    -2.9935155867
| 11>  C       -1.3905429819    -2.3967769413    -3.6456030340
| 12>  O       -1.6085277343    -0.0991893963    -2.9673841925
| 13>  H        0.5699931204     1.9895200908    -0.3191718624
| 14>  H       -0.8775344601     1.5559274163    -1.2528566375
| 15>  H       -0.9674465859     1.7322878453     0.5133607004
| 16>  H        0.4886365328    -0.2805700647     0.7976998430
| 17>  H       -0.9405183803    -0.6922996985    -0.1435980909
| 18>  H        1.8137948988    -0.0659292956    -1.3839443985
| 19>  H        1.8862861360    -2.5598150919    -1.8880081586
| 20>  H        0.2752017936    -2.7543564786    -1.0346274700
| 21>  H       -1.7140437306    -3.1074064107    -2.8763729506
| 22>  H       -2.2380374041    -2.1826261760    -4.2967855133
| 23>  H       -0.5841741633    -2.8682185492    -4.2129193786
| 24> *
| 25>
| 26>                          ****END OF INPUT****

CARTESIAN COORDINATES (ANGSTROEM)
---------------------------------
  C     -0.343900    1.384877   -0.315973
  C     -0.015545   -0.104909   -0.161768
  C      0.888227   -0.628605   -1.258318
  C      0.949451   -2.098969   -1.583595
  N      0.366596   -1.147751   -2.503765
  C     -0.929712   -1.104914   -2.993516
  C     -1.390543   -2.396777   -3.645603
  O     -1.608528   -0.099189   -2.967384
  H      0.569993    1.989520   -0.319172
  H     -0.877534    1.555927   -1.252857
  H     -0.967447    1.732288    0.513361
  H      0.488637   -0.280570    0.797700
  H     -0.940518   -0.692300   -0.143598
  H      1.813795   -0.065929   -1.383944
  H      1.886286   -2.559815   -1.888008
  H      0.275202   -2.754356   -1.034627
  H     -1.714044   -3.107406   -2.876373
  H     -2.238037   -2.182626   -4.296786
  H     -0.584174   -2.868219   -4.212919

 Total Charge           Charge          ....    0
 Multiplicity           Mult            ....    1
 Number of Electrons    NEL             ....   62
 Basis Dimension        Dim             ....  314

ORBITAL ENERGIES
----------------

  NO   OCC          E(Eh)            E(eV)
   0   2.0000     -20.524554      -558.5015
   1   2.0000     -15.580114      -423.9565
   2   2.0000     -11.352024      -308.9043
   3   2.0000     -11.278695      -306.9089
   4   2.0000     -11.276936      -306.8610
   5   2.0000     -11.234675      -305.7110
   6   2.0000     -11.230783      -305.6052
   7   2.0000     -11.206002      -304.9308
   8   2.0000      -1.387477       -37.7552
   9   2.0000      -1.290053       -35.1041
  10   2.0000      -1.054978       -28.7074
  11   2.0000      -1.016202       -27.6523
  12   2.0000      -0.945645       -25.7323
  13   2.0000      -0.877063       -23.8661
  14   2.0000      -0.820632       -22.3305
  15   2.0000      -0.729350       -19.8466
  16   2.0000      -0.683214       -18.5912
  17   2.0000      -0.676169       -18.3995
  18   2.0000      -0.631182       -17.1753
  19   2.0000      -0.602036       -16.3822
  20   2.0000      -0.597151       -16.2493
  21   2.0000      -0.575295       -15.6546
  22   2.0000      -0.563182       -15.3250
  23   2.0000      -0.537247       -14.6192
  24   2.0000      -0.513519       -13.9736
  25   2.0000      -0.507891       -13.8204
  26   2.0000      -0.491807       -13.3828
  27   2.0000      -0.479556       -13.0494
  28   2.0000      -0.468840       -12.7578
  29   2.0000      -0.416582       -11.3358
  30   2.0000      -0.387573       -10.5464
  31   0.0000       0.131063         3.5664
  32   0.0000       0.149063         4.0562
  33   0.0000       0.161078         4.3832
  34   0.0000       0.168507         4.5853
  35   0.0000       0.175693         4.7809

MULLIKEN ATOMIC CHARGES
-----------------------
   0 C :   -0.406970
   1 C :   -0.201269
   2 C :   -0.014859
   3 C :   -0.181420
   4 N :   -0.180160
   5 C :    0.242180
   6 C :   -0.395161
   7 O :   -0.339733
   8 H :    0.115619
   9 H :    0.169440
  10 H :    0.127412
  11 H :    0.118447
  12 H :    0.111894
  13 H :    0.124882
  14 H :    0.135027
  15 H :    0.133573
  16 H :    0.135426
  17 H :    0.157872
  18 H :    0.147800
Sum of atomic charges:   -0.0000000

LOEWDIN ATOMIC CHARGES
----------------------
   0 C :   -0.314471
   1 C :   -0.274609
   2 C :   -0.227632
   3 C :   -0.219015
   4 N :    0.192025
   5 C :   -0.453550
   6 C :   -0.275604
   7 O :    0.111151
   8 H :    0.119160
   9 H :    0.129524
  10 H :    0.120685
  11 H :    0.142116
  12 H :    0.142932
  13 H :    0.147144
  14 H :    0.126061
  15 H :    0.129023
  16 H :    0.134933
  17 H :    0.136121
  18 H :    0.134005

  Mayer bond orders larger than 0.1
B(  0-C ,  1-C ) :   0.9232 B(  0-C ,  8-H ) :   0.9365 B(  0-C ,  9-H ) :   0.9283
B(  0-C , 10-H ) :   0.9379 B(  1-C ,  2-C ) :   0.9376 B(  1-C , 11-H ) :   0.9292
B(  1-C , 12-H ) :   0.9269 B(  2-C ,  3-C ) :   0.9072 B(  2-C ,  4-N ) :   0.8851
B(  2-C , 13-H ) :   0.9113 B(  3-C ,  4-N ) :   0.8619 B(  3-C , 14-H ) :   0.9209
B(  3-C , 15-H ) :   0.9207 B(  4-N ,  5-C ) :   1.0557 B(  5-C ,  6-C ) :   0.9172
B(  5-C ,  7-O ) :   1.9413 B(  6-C , 16-H ) :   0.9098 B(  6-C , 17-H ) :   0.9359
B(  6-C , 18-H ) :   0.9263

MP2 TOTAL ENERGY:     -364.444848965 Eh
FINAL SINGLE POINT ENERGY      -364.444848965315

DIPOLE MOMENT
-------------
                                X             Y             Z
Electronic contribution:     -0.22517      -0.21136      -4.22256
Nuclear contribution   :      0.84907      -0.77390       4.79580
                        -----------------------------------------
Total Dipole Moment    :      0.62390      -0.98526       0.57324
                        -----------------------------------------
Magnitude (a.u.)       :      1.29946
Magnitude (Debye)      :      3.30296

                             ****ORCA TERMINATED NORMALLY****
TOTAL RUN TIME: 0 days 0 hours 14 minutes 1 seconds 14 msec
