                         Program Version 3.0.3 - RELEASE   -
|  1> ! RI-MP2 RIJK def2-TZVP def2-TZVP/C def2-TZVP/JK TIGHTSCF
|  2> % maxcore 2000
|  3> % mp2 density relaxed end
|  4> *xyz 0 1
|  5>  C        0.0246894983     1.5261453763    -0.0080311943
|  6>  C        0.0144263797     0.0275861474     0.0134472648
|  7>  C       -0.0144347432    -0.8126564756    -1.0908312365
|  8>  N       -0.0150395869    -2.0975094439    -0.6619232943
|  9>  C        0.0133557857    -2.1263322264     0.7149484995
| 10>  C        0.0185563024    -3.3998506548     1.3914755029
| 11>  O       -0.0008391618    -4.4723010184     0.8088855446
| 12>  C        0.0321864445    -0.8045845813     1.1645701200
| 13>  C        0.0647765405    -0.3300623013     2.5851135976
| 14>  H        0.9183645109     1.9348184809     0.4788896716
| 15>  H        0.0060993760     1.9065904016    -1.0331843334
| 16>  H       -0.8420410961     1.9474092976     0.5154876668
| 17>  H       -0.0345651872    -0.5694581774    -2.1424978111
| 18>  H       -0.0314799774    -2.9407315019    -1.2122926023
| 19>  H        0.0418091640    -3.3498534025     2.4992463978
| 20>  H        0.9532307148     0.2824866841     2.7800305877
| 21>  H       -0.8060428209     0.2951202289     2.8161601998
| 22>  H        0.0734077468    -1.1594128234     3.2958601889
| 23> *
| 24>
| 25>                          ****END OF INPUT****

CARTESIAN COORDINATES (ANGSTROEM)
---------------------------------
  C      0.024689    1.526145   -0.008031
  C      0.014426    0.027586    0.013447
  C     -0.014435   -0.812656   -1.090831
  N     -0.015040   -2.097509   -0.661923
  C      0.013356   -2.126332    0.714948
  C      0.018556   -3.399851    1.391476
  O     -0.000839   -4.472301    0.808886
  C      0.032186   -0.804585    1.164570
  C      0.064777   -0.330062    2.585114
  H      0.918365    1.934818    0.478890
  H      0.006099    1.906590   -1.033184
  H     -0.842041    1.947409    0.515488
  H     -0.034565   -0.569458   -2.142498
  H     -0.031480   -2.940732   -1.212293
  H      0.041809   -3.349853    2.499246
  H      0.953231    0.282487    2.780031
  H     -0.806043    0.295120    2.816160
  H      0.073408   -1.159413    3.295860

 Total Charge           Charge          ....    0
 Multiplicity           Mult            ....    1
 Number of Electrons    NEL             ....   66
 Basis Dimension        Dim             ....  333

ORBITAL ENERGIES
----------------

  NO   OCC          E(Eh)            E(eV)
   0   2.0000     -20.539472      -558.9074
   1   2.0000     -15.610954      -424.7956
   2   2.0000     -11.327886      -308.2475
   3   2.0000     -11.274089      -306.7836
   4   2.0000     -11.254972      -306.2634
   5   2.0000     -11.246392      -306.0299
   6   2.0000     -11.235376      -305.7301
   7   2.0000     -11.229367      -305.5666
   8   2.0000     -11.227123      -305.5055
   9   2.0000      -1.377969       -37.4965
  10   2.0000      -1.303224       -35.4625
  11   2.0000      -1.094171       -29.7739
  12   2.0000      -1.038197       -28.2508
  13   2.0000      -0.964397       -26.2426
  14   2.0000      -0.943234       -25.6667
  15   2.0000      -0.864016       -23.5111
  16   2.0000      -0.766090       -20.8464
  17   2.0000      -0.750027       -20.4093
  18   2.0000      -0.719600       -19.5813
  19   2.0000      -0.650823       -17.7098
  20   2.0000      -0.619019       -16.8444
  21   2.0000      -0.613453       -16.6929
  22   2.0000      -0.599885       -16.3237
  23   2.0000      -0.566161       -15.4060
  24   2.0000      -0.564294       -15.3552
  25   2.0000      -0.562347       -15.3022
  26   2.0000      -0.560259       -15.2454
  27   2.0000      -0.530276       -14.4295
  28   2.0000      -0.513468       -13.9722
  29   2.0000      -0.506198       -13.7744
  30   2.0000      -0.424939       -11.5632
  31   2.0000      -0.344017        -9.3612
  32   2.0000      -0.308673        -8.3994
  33   0.0000       0.087680         2.3859
  34   0.0000       0.128270         3.4904
  35   0.0000       0.148792         4.0488
  36   0.0000       0.164009         4.4629
  37   0.0000       0.183973         5.0062

MULLIKEN ATOMIC CHARGES
-----------------------
   0 C :   -0.418234
   1 C :    0.039505
   2 C :   -0.092315
   3 N :   -0.238996
   4 C :    0.115963
   5 C :    0.068749
   6 O :   -0.333680
   7 C :   -0.057912
   8 C :   -0.419385
   9 H :    0.142804
  10 H :    0.137872
  11 H :    0.142798
  12 H :    0.144900
  13 H :    0.260490
  14 H :    0.083175
  15 H :    0.146032
  16 H :    0.146031
  17 H :    0.132204
Sum of atomic charges:    0.0000000

LOEWDIN ATOMIC CHARGES
----------------------
   0 C :   -0.270282
   1 C :   -0.181010
   2 C :   -0.190034
   3 N :    0.229846
   4 C :   -0.220474
   5 C :   -0.292505
   6 O :    0.086048
   7 C :   -0.141482
   8 C :   -0.265455
   9 H :    0.130878
  10 H :    0.131379
  11 H :    0.130876
  12 H :    0.137168
  13 H :    0.201779
  14 H :    0.118557
  15 H :    0.133196
  16 H :    0.133197
  17 H :    0.128320

  Mayer bond orders larger than 0.1
B(  0-C ,  1-C ) :   0.8500 B(  0-C ,  9-H ) :   0.9407 B(  0-C , 10-H ) :   0.9480
B(  0-C , 11-H ) :   0.9407 B(  1-C ,  2-C ) :   1.4213 B(  1-C ,  7-C ) :   1.3373
B(  2-C ,  3-N ) :   1.1836 B(  2-C , 12-H ) :   0.9153 B(  3-N ,  4-C ) :   1.1144
B(  3-N , 13-H ) :   0.8550 B(  4-C ,  5-C ) :   0.9024 B(  4-C ,  7-C ) :   1.3377
B(  4-C , 14-H ) :  -0.1286 B(  5-C ,  6-O ) :   1.9106 B(  5-C , 14-H ) :   1.0057
B(  7-C ,  8-C ) :   0.8506 B(  8-C , 15-H ) :   0.9420 B(  8-C , 16-H ) :   0.9420
B(  8-C , 17-H ) :   0.9476

MP2 TOTAL ENERGY:     -401.317525063 Eh
FINAL SINGLE POINT ENERGY      -401.317525062997

DIPOLE MOMENT
-------------
                                X             Y             Z
Electronic contribution:     -0.12778      -9.21003      -3.00995
Nuclear contribution   :      0.13078      10.30913       2.76730
                        -----------------------------------------
Total Dipole Moment    :      0.00300       1.09909      -0.24266
                        -----------------------------------------
Magnitude (a.u.)       :      1.12556
Magnitude (Debye)      :      2.86095

                             ****ORCA TERMINATED NORMALLY****
TOTAL RUN TIME: 0 days 0 hours 18 minutes 13 seconds 625 msec
