                         Program Version 3.0.3 - RELEASE   -
|  1> ! RI-MP2 RIJK def2-TZVP def2-TZVP/C def2-TZVP/JK TIGHTSCF
|  2> % maxcore 2000
|  3> % mp2 density relaxed end
|  4> *xyz 0 1
|  5>  C       -0.3215909755     1.4547472348    -0.1667124082
|  6>  C        0.1936931985     0.0257813665     0.0476874038
|  7>  C        0.9367199081    -0.5286040346    -1.1374927189
|  8>  C        2.0793888904     0.1530089976    -1.8824883795
|  9>  C        1.6731281750    -0.7702848217    -3.0410988134
| 10>  C        2.0148714836    -2.1945925317    -2.5806792427
| 11>  C        0.8995784038    -1.9723349977    -1.5676505616
| 12>  C        0.1243446965    -3.0566794653    -0.8816629459
| 13>  N        0.2428547867    -0.9150596049    -2.4278128670
| 14>  H        0.5000898916     2.1642024917    -0.3072435343
| 15>  H       -0.9624394365     1.5007587961    -1.0521488440
| 16>  H       -0.9033284641     1.7909831089     0.6967502022
| 17>  H        0.8570275581    -0.0048929342     0.9231664630
| 18>  H       -0.6527241704    -0.6274974494     0.2830670492
| 19>  H        1.8357023743     1.1968681423    -2.0965502337
| 20>  H        3.1008231723     0.0844784079    -1.4910017937
| 21>  H        1.7784027054    -0.4631867673    -4.0798331642
| 22>  H        1.7122134666    -2.9435487863    -3.3186484338
| 23>  H        3.0336465896    -2.4049215723    -2.2358737997
| 24>  H        0.7238203739    -3.5276295269    -0.0937168393
| 25>  H       -0.7938232080    -2.6762281423    -0.4274794392
| 26>  H       -0.1593386998    -3.8337986611    -1.5994179290
| 27> *
| 28>
| 29>                          ****END OF INPUT****

CARTESIAN COORDINATES (ANGSTROEM)
---------------------------------
  C     -0.321591    1.454747   -0.166712
  C      0.193693    0.025781    0.047687
  C      0.936720   -0.528604   -1.137493
  C      2.079389    0.153009   -1.882488
  C      1.673128   -0.770285   -3.041099
  C      2.014871   -2.194593   -2.580679
  C      0.899578   -1.972335   -1.567651
  C      0.124345   -3.056679   -0.881663
  N      0.242855   -0.915060   -2.427813
  H      0.500090    2.164202   -0.307244
  H     -0.962439    1.500759   -1.052149
  H     -0.903328    1.790983    0.696750
  H      0.857028   -0.004893    0.923166
  H     -0.652724   -0.627497    0.283067
  H      1.835702    1.196868   -2.096550
  H      3.100823    0.084478   -1.491002
  H      1.778403   -0.463187   -4.079833
  H      1.712213   -2.943549   -3.318648
  H      3.033647   -2.404922   -2.235874
  H      0.723820   -3.527630   -0.093717
  H     -0.793823   -2.676228   -0.427479
  H     -0.159339   -3.833799   -1.599418

 Total Charge           Charge          ....    0
 Multiplicity           Mult            ....    1
 Number of Electrons    NEL             ....   68
 Basis Dimension        Dim             ....  357

ORBITAL ENERGIES
----------------

  NO   OCC          E(Eh)            E(eV)
   0   2.0000     -15.547827      -423.0779
   1   2.0000     -11.261795      -306.4490
   2   2.0000     -11.260058      -306.4018
   3   2.0000     -11.259748      -306.3933
   4   2.0000     -11.225600      -305.4641
   5   2.0000     -11.225425      -305.4593
   6   2.0000     -11.224576      -305.4362
   7   2.0000     -11.219722      -305.3041
   8   2.0000     -11.210884      -305.0637
   9   2.0000      -1.307569       -35.5808
  10   2.0000      -1.049246       -28.5514
  11   2.0000      -1.020391       -27.7662
  12   2.0000      -0.984291       -26.7839
  13   2.0000      -0.949388       -25.8342
  14   2.0000      -0.885614       -24.0988
  15   2.0000      -0.828985       -22.5578
  16   2.0000      -0.721895       -19.6438
  17   2.0000      -0.704296       -19.1649
  18   2.0000      -0.667718       -18.1695
  19   2.0000      -0.639780       -17.4093
  20   2.0000      -0.604609       -16.4522
  21   2.0000      -0.594964       -16.1898
  22   2.0000      -0.570090       -15.5129
  23   2.0000      -0.561233       -15.2719
  24   2.0000      -0.552999       -15.0479
  25   2.0000      -0.530662       -14.4401
  26   2.0000      -0.516950       -14.0669
  27   2.0000      -0.503723       -13.7070
  28   2.0000      -0.491033       -13.3617
  29   2.0000      -0.477822       -13.0022
  30   2.0000      -0.441674       -12.0186
  31   2.0000      -0.412407       -11.2222
  32   2.0000      -0.391474       -10.6525
  33   2.0000      -0.361113        -9.8264
  34   0.0000       0.138447         3.7673
  35   0.0000       0.153499         4.1769
  36   0.0000       0.161466         4.3937
  37   0.0000       0.178725         4.8634
  38   0.0000       0.190004         5.1703

MULLIKEN ATOMIC CHARGES
-----------------------
   0 C :   -0.421679
   1 C :   -0.188857
   2 C :    0.066605
   3 C :   -0.195168
   4 C :   -0.059859
   5 C :   -0.172248
   6 C :    0.016318
   7 C :   -0.415476
   8 N :   -0.243550
   9 H :    0.124345
  10 H :    0.145952
  11 H :    0.133510
  12 H :    0.113771
  13 H :    0.105945
  14 H :    0.120750
  15 H :    0.110394
  16 H :    0.131968
  17 H :    0.111623
  18 H :    0.108723
  19 H :    0.135755
  20 H :    0.136581
  21 H :    0.134596
Sum of atomic charges:   -0.0000000

LOEWDIN ATOMIC CHARGES
----------------------
   0 C :   -0.311485
   1 C :   -0.252745
   2 C :   -0.225686
   3 C :   -0.189253
   4 C :   -0.189667
   5 C :   -0.191312
   6 C :   -0.249589
   7 C :   -0.270048
   8 N :    0.164418
   9 H :    0.118956
  10 H :    0.127470
  11 H :    0.120745
  12 H :    0.144581
  13 H :    0.144331
  14 H :    0.142428
  15 H :    0.127813
  16 H :    0.126811
  17 H :    0.142304
  18 H :    0.127602
  19 H :    0.131313
  20 H :    0.130156
  21 H :    0.130857

  Mayer bond orders larger than 0.1
B(  0-C ,  1-C ) :   0.9164 B(  0-C ,  9-H ) :   0.9393 B(  0-C , 10-H ) :   0.9362
B(  0-C , 11-H ) :   0.9393 B(  1-C ,  2-C ) :   0.8948 B(  1-C , 12-H ) :   0.9352
B(  1-C , 13-H ) :   0.9288 B(  2-C ,  3-C ) :   0.9229 B(  2-C ,  6-C ) :   0.8915
B(  2-C ,  8-N ) :   0.8105 B(  3-C ,  4-C ) :   0.9418 B(  3-C , 14-H ) :   0.9201
B(  3-C , 15-H ) :   0.9066 B(  4-C ,  5-C ) :   0.9459 B(  4-C ,  8-N ) :   0.9365
B(  4-C , 16-H ) :   0.9051 B(  5-C ,  6-C ) :   0.9361 B(  5-C , 17-H ) :   0.9144
B(  5-C , 18-H ) :   0.9035 B(  6-C ,  7-C ) :   0.8579 B(  6-C ,  8-N ) :   0.9124
B(  7-C , 19-H ) :   0.9405 B(  7-C , 20-H ) :   0.9406 B(  7-C , 21-H ) :   0.9344

MP2 TOTAL ENERGY:     -366.512734891 Eh
FINAL SINGLE POINT ENERGY      -366.512734891430

DIPOLE MOMENT
-------------
                                X             Y             Z
Electronic contribution:      1.49598      -1.41007      -3.93998
Nuclear contribution   :     -0.93441       1.29025       4.28347
                        -----------------------------------------
Total Dipole Moment    :      0.56157      -0.11982       0.34349
                        -----------------------------------------
Magnitude (a.u.)       :      0.66911
Magnitude (Debye)      :      1.70075

                             ****ORCA TERMINATED NORMALLY****
TOTAL RUN TIME: 0 days 0 hours 22 minutes 8 seconds 191 msec
