                         Program Version 3.0.3 - RELEASE   -
|  1> ! RI-MP2 RIJK def2-TZVP def2-TZVP/C def2-TZVP/JK TIGHTSCF
|  2> % maxcore 2000
|  3> % mp2 density relaxed end
|  4> *xyz 0 1
|  5>  C       -0.0186888671     1.5338592596     0.0202313557
|  6>  C       -0.0311692367    -0.0032373378    -0.0394142467
|  7>  C       -1.4844286061    -0.5345839632    -0.0383276821
|  8>  O       -2.2314073416    -0.0806968188     1.0642400867
|  9>  C        0.7954028610    -0.5528819370    -1.2260697662
| 10>  C        1.9732826081    -1.2437261402    -0.5896605062
| 11>  C        1.9221837322    -1.2471633953     0.7486413315
| 12>  C        0.6924721388    -0.5704124914     1.1983249233
| 13>  O        0.2747056473    -0.4877347516     2.3392685865
| 14>  H        1.0051461685     1.9209569001     0.0485796350
| 15>  H       -0.5173280253     1.9500767071    -0.8616475757
| 16>  H       -0.5494712167     1.8815329018     0.9080961014
| 17>  H       -1.9981629714    -0.1816982046    -0.9411497280
| 18>  H       -1.4592866867    -1.6377023230    -0.0880137891
| 19>  H       -1.6843278605    -0.2353097239     1.8496766782
| 20>  H        0.2225109365    -1.2648024236    -1.8364117428
| 21>  H        1.1193322822     0.2391123519    -1.9114921196
| 22>  H        2.7605968714    -1.6957800952    -1.1842398728
| 23>  H        2.6317225161    -1.6932198249     1.4333652708
| 24> *
| 25>
| 26>                          ****END OF INPUT****

CARTESIAN COORDINATES (ANGSTROEM)
---------------------------------
  C     -0.018689    1.533859    0.020231
  C     -0.031169   -0.003237   -0.039414
  C     -1.484429   -0.534584   -0.038328
  O     -2.231407   -0.080697    1.064240
  C      0.795403   -0.552882   -1.226070
  C      1.973283   -1.243726   -0.589661
  C      1.922184   -1.247163    0.748641
  C      0.692472   -0.570412    1.198325
  O      0.274706   -0.487735    2.339269
  H      1.005146    1.920957    0.048580
  H     -0.517328    1.950077   -0.861648
  H     -0.549471    1.881533    0.908096
  H     -1.998163   -0.181698   -0.941150
  H     -1.459287   -1.637702   -0.088014
  H     -1.684328   -0.235310    1.849677
  H      0.222511   -1.264802   -1.836412
  H      1.119332    0.239112   -1.911492
  H      2.760597   -1.695780   -1.184240
  H      2.631723   -1.693220    1.433365

 Total Charge           Charge          ....    0
 Multiplicity           Mult            ....    1
 Number of Electrons    NEL             ....   68
 Basis Dimension        Dim             ....  339

ORBITAL ENERGIES
----------------

  NO   OCC          E(Eh)            E(eV)
   0   2.0000     -20.549907      -559.1914
   1   2.0000     -20.541793      -558.9706
   2   2.0000     -11.335941      -308.4666
   3   2.0000     -11.281195      -306.9769
   4   2.0000     -11.279636      -306.9345
   5   2.0000     -11.254855      -306.2602
   6   2.0000     -11.254146      -306.2409
   7   2.0000     -11.247770      -306.0674
   8   2.0000     -11.225977      -305.4744
   9   2.0000      -1.394042       -37.9338
  10   2.0000      -1.351249       -36.7693
  11   2.0000      -1.166425       -31.7400
  12   2.0000      -1.053809       -28.6756
  13   2.0000      -0.961089       -26.1526
  14   2.0000      -0.930778       -25.3278
  15   2.0000      -0.876679       -23.8557
  16   2.0000      -0.791022       -21.5248
  17   2.0000      -0.729736       -19.8571
  18   2.0000      -0.694677       -18.9031
  19   2.0000      -0.679146       -18.4805
  20   2.0000      -0.634386       -17.2625
  21   2.0000      -0.623038       -16.9537
  22   2.0000      -0.610827       -16.6215
  23   2.0000      -0.597834       -16.2679
  24   2.0000      -0.582734       -15.8570
  25   2.0000      -0.552125       -15.0241
  26   2.0000      -0.546668       -14.8756
  27   2.0000      -0.539338       -14.6761
  28   2.0000      -0.528390       -14.3782
  29   2.0000      -0.502188       -13.6652
  30   2.0000      -0.475996       -12.9525
  31   2.0000      -0.432781       -11.7766
  32   2.0000      -0.404790       -11.0149
  33   2.0000      -0.392095       -10.6694
  34   0.0000       0.083707         2.2778
  35   0.0000       0.128734         3.5030
  36   0.0000       0.154612         4.2072
  37   0.0000       0.171058         4.6547
  38   0.0000       0.177939         4.8420

MULLIKEN ATOMIC CHARGES
-----------------------
   0 C :   -0.430077
   1 C :    0.067059
   2 C :   -0.038885
   3 O :   -0.476523
   4 C :   -0.231103
   5 C :   -0.128962
   6 C :   -0.207542
   7 C :    0.236857
   8 O :   -0.343331
   9 H :    0.137582
  10 H :    0.134826
  11 H :    0.154868
  12 H :    0.112191
  13 H :    0.101909
  14 H :    0.334585
  15 H :    0.141520
  16 H :    0.143600
  17 H :    0.144399
  18 H :    0.147027
Sum of atomic charges:   -0.0000000

LOEWDIN ATOMIC CHARGES
----------------------
   0 C :   -0.256887
   1 C :   -0.261403
   2 C :   -0.310226
   3 O :   -0.034161
   4 C :   -0.190609
   5 C :   -0.094660
   6 C :   -0.117367
   7 C :   -0.278530
   8 O :    0.127701
   9 H :    0.128499
  10 H :    0.129080
  11 H :    0.134786
  12 H :    0.131731
  13 H :    0.122938
  14 H :    0.176633
  15 H :    0.152758
  16 H :    0.150182
  17 H :    0.142238
  18 H :    0.147296

  Mayer bond orders larger than 0.1
B(  0-C ,  1-C ) :   0.8952 B(  0-C ,  9-H ) :   0.9301 B(  0-C , 10-H ) :   0.9335
B(  0-C , 11-H ) :   0.9258 B(  1-C ,  2-C ) :   0.9111 B(  1-C ,  4-C ) :   0.8735
B(  1-C ,  7-C ) :   0.8630 B(  2-C ,  3-O ) :   0.9635 B(  2-C , 12-H ) :   0.9279
B(  2-C , 13-H ) :   0.9158 B(  3-O , 14-H ) :   0.8092 B(  4-C ,  5-C ) :   0.9488
B(  4-C , 15-H ) :   0.9069 B(  4-C , 16-H ) :   0.9124 B(  5-C ,  6-C ) :   1.6788
B(  5-C , 17-H ) :   0.9210 B(  6-C ,  7-C ) :   1.0296 B(  6-C , 18-H ) :   0.9184
B(  7-C ,  8-O ) :   1.8563

MP2 TOTAL ENERGY:     -422.356833067 Eh
FINAL SINGLE POINT ENERGY      -422.356833067394

DIPOLE MOMENT
-------------
                                X             Y             Z
Electronic contribution:      0.93885      -2.69913       5.05457
Nuclear contribution   :      0.17857       2.39739      -6.30725
                        -----------------------------------------
Total Dipole Moment    :      1.11742      -0.30174      -1.25269
                        -----------------------------------------
Magnitude (a.u.)       :      1.70555
Magnitude (Debye)      :      4.33517

                             ****ORCA TERMINATED NORMALLY****
TOTAL RUN TIME: 0 days 0 hours 19 minutes 11 seconds 405 msec
