                         Program Version 3.0.3 - RELEASE   -
|  1> ! RI-MP2 RIJK def2-TZVP def2-TZVP/C def2-TZVP/JK TIGHTSCF
|  2> % maxcore 2000
|  3> % mp2 density relaxed end
|  4> *xyz 0 1
|  5>  C        0.1014006891     1.5916790071     0.0265606861
|  6>  C        0.0049434765     0.0658098880     0.0297813126
|  7>  C        0.6387572506    -0.6192674734    -1.2067692050
|  8>  C        1.1628643021    -1.9665419115    -0.7019444338
|  9>  O        1.2784749332    -2.9833556514    -1.3395546470
| 10>  C        1.4180791209    -1.8366767433     0.7799250550
| 11>  C        1.6323965811    -3.0700300603     1.6094891355
| 12>  N        2.1848007092    -0.5755975098     1.0452642207
| 13>  C        0.7242657745    -0.5881913703     1.2091851956
| 14>  H        1.1502816140     1.9042284141     0.0236175821
| 15>  H       -0.3854725996     2.0170847667    -0.8568161909
| 16>  H       -0.3797408679     2.0219219433     0.9117500084
| 17>  H       -1.0511136238    -0.2290850222     0.0872822619
| 18>  H       -0.0506296508    -0.7613621908    -2.0408989369
| 19>  H        1.4940238506    -0.0398745744    -1.5724720089
| 20>  H        2.5507063537    -3.5834138933     1.3076785857
| 21>  H        1.7057746005    -2.8226960508     2.6734555047
| 22>  H        0.8068069052    -3.7755302079     1.4765092752
| 23>  H        2.6266388984    -0.6777919449     1.9573346343
| 24>  H        0.3062072924    -0.5044045647     2.2085709744
| 25> *
| 26>
| 27>                          ****END OF INPUT****

CARTESIAN COORDINATES (ANGSTROEM)
---------------------------------
  C      0.101401    1.591679    0.026561
  C      0.004943    0.065810    0.029781
  C      0.638757   -0.619267   -1.206769
  C      1.162864   -1.966542   -0.701944
  O      1.278475   -2.983356   -1.339555
  C      1.418079   -1.836677    0.779925
  C      1.632397   -3.070030    1.609489
  N      2.184801   -0.575598    1.045264
  C      0.724266   -0.588191    1.209185
  H      1.150282    1.904228    0.023618
  H     -0.385473    2.017085   -0.856816
  H     -0.379741    2.021922    0.911750
  H     -1.051114   -0.229085    0.087282
  H     -0.050630   -0.761362   -2.040899
  H      1.494024   -0.039875   -1.572472
  H      2.550706   -3.583414    1.307679
  H      1.705775   -2.822696    2.673456
  H      0.806807   -3.775530    1.476509
  H      2.626639   -0.677792    1.957335
  H      0.306207   -0.504405    2.208571

 Total Charge           Charge          ....    0
 Multiplicity           Mult            ....    1
 Number of Electrons    NEL             ....   68
 Basis Dimension        Dim             ....  345

ORBITAL ENERGIES
----------------

  NO   OCC          E(Eh)            E(eV)
   0   2.0000     -20.543829      -559.0260
   1   2.0000     -15.574630      -423.8072
   2   2.0000     -11.325892      -308.1932
   3   2.0000     -11.275014      -306.8087
   4   2.0000     -11.273833      -306.7766
   5   2.0000     -11.245477      -306.0050
   6   2.0000     -11.232583      -305.6541
   7   2.0000     -11.231818      -305.6333
   8   2.0000     -11.221032      -305.3398
   9   2.0000      -1.387901       -37.7667
  10   2.0000      -1.286752       -35.0143
  11   2.0000      -1.088552       -29.6210
  12   2.0000      -1.013376       -27.5754
  13   2.0000      -0.975652       -26.5488
  14   2.0000      -0.907378       -24.6910
  15   2.0000      -0.868010       -23.6197
  16   2.0000      -0.774151       -21.0657
  17   2.0000      -0.721698       -19.6384
  18   2.0000      -0.700736       -19.0680
  19   2.0000      -0.651858       -17.7380
  20   2.0000      -0.629949       -17.1418
  21   2.0000      -0.606482       -16.5032
  22   2.0000      -0.596041       -16.2191
  23   2.0000      -0.575325       -15.6554
  24   2.0000      -0.568410       -15.4672
  25   2.0000      -0.551438       -15.0054
  26   2.0000      -0.523651       -14.2493
  27   2.0000      -0.520202       -14.1554
  28   2.0000      -0.504847       -13.7376
  29   2.0000      -0.488967       -13.3055
  30   2.0000      -0.470405       -12.8004
  31   2.0000      -0.465437       -12.6652
  32   2.0000      -0.415257       -11.2997
  33   2.0000      -0.375390       -10.2149
  34   0.0000       0.124497         3.3877
  35   0.0000       0.138029         3.7559
  36   0.0000       0.148723         4.0470
  37   0.0000       0.164442         4.4747
  38   0.0000       0.167303         4.5526

MULLIKEN ATOMIC CHARGES
-----------------------
   0 C :   -0.446480
   1 C :   -0.023017
   2 C :   -0.204905
   3 C :    0.109227
   4 O :   -0.272596
   5 C :    0.123331
   6 C :   -0.379906
   7 N :   -0.396656
   8 C :   -0.073354
   9 H :    0.147480
  10 H :    0.136743
  11 H :    0.128071
  12 H :    0.097945
  13 H :    0.138859
  14 H :    0.136105
  15 H :    0.151798
  16 H :    0.126079
  17 H :    0.143484
  18 H :    0.219179
  19 H :    0.138613
Sum of atomic charges:   -0.0000000

LOEWDIN ATOMIC CHARGES
----------------------
   0 C :   -0.292117
   1 C :   -0.249260
   2 C :   -0.189357
   3 C :   -0.276896
   4 O :    0.156981
   5 C :   -0.261115
   6 C :   -0.268205
   7 N :    0.035580
   8 C :   -0.208564
   9 H :    0.129430
  10 H :    0.124836
  11 H :    0.122937
  12 H :    0.155738
  13 H :    0.145642
  14 H :    0.160214
  15 H :    0.136749
  16 H :    0.128017
  17 H :    0.137680
  18 H :    0.172126
  19 H :    0.139583

  Mayer bond orders larger than 0.1
B(  0-C ,  1-C ) :   0.8853 B(  0-C ,  9-H ) :   0.9374 B(  0-C , 10-H ) :   0.9395
B(  0-C , 11-H ) :   0.9389 B(  1-C ,  2-C ) :   0.9280 B(  1-C ,  8-C ) :   0.8949
B(  1-C , 12-H ) :   0.9274 B(  2-C ,  3-C ) :   0.9440 B(  2-C ,  5-C ) :  -0.1332
B(  2-C , 13-H ) :   0.9141 B(  2-C , 14-H ) :   0.8913 B(  3-C ,  4-O ) :   2.0570
B(  3-C ,  5-C ) :   0.9037 B(  5-C ,  6-C ) :   0.9095 B(  5-C ,  7-N ) :   0.8308
B(  5-C ,  8-C ) :   0.8362 B(  6-C , 15-H ) :   0.9388 B(  6-C , 16-H ) :   0.9356
B(  6-C , 17-H ) :   0.9195 B(  7-N ,  8-C ) :   1.0015 B(  7-N , 18-H ) :   0.8666
B(  8-C , 19-H ) :   0.9119

MP2 TOTAL ENERGY:     -402.476319656 Eh
FINAL SINGLE POINT ENERGY      -402.476319656164

DIPOLE MOMENT
-------------
                                X             Y             Z
Electronic contribution:      1.88629      -4.84301      -3.00746
Nuclear contribution   :     -2.32477       5.41999       4.09418
                        -----------------------------------------
Total Dipole Moment    :     -0.43848       0.57699       1.08672
                        -----------------------------------------
Magnitude (a.u.)       :      1.30619
Magnitude (Debye)      :      3.32008

                             ****ORCA TERMINATED NORMALLY****
TOTAL RUN TIME: 0 days 0 hours 21 minutes 2 seconds 970 msec
