                         Program Version 3.0.3 - RELEASE   -
|  1> ! RI-MP2 RIJK def2-TZVP def2-TZVP/C def2-TZVP/JK TIGHTSCF
|  2> % maxcore 2000
|  3> % mp2 density relaxed end
|  4> *xyz 0 1
|  5>  C       -0.2182650778     1.5594150581    -0.0806910055
|  6>  C        0.0734592857     0.0744673951    -0.0520394788
|  7>  O        1.0482459597    -0.2673858351    -1.0482832735
|  8>  C        1.8570853440    -1.2555581815    -0.5993059295
|  9>  O        2.6553184383    -1.8464216424    -1.2446379062
| 10>  O        1.6183996597    -1.4891238514     0.7324125614
| 11>  C        0.7224355774    -0.5028452125     1.2374029476
| 12>  C        1.4561187026     0.4872143277     2.0419030653
| 13>  N        2.0074140078     1.2749151220     2.6814183794
| 14>  H        0.6882742040     2.1407334979     0.1013104449
| 15>  H       -0.6268831173     1.8345080170    -1.0555923322
| 16>  H       -0.9567882484     1.8127038296     0.6858161984
| 17>  H       -0.8345416112    -0.5027444720    -0.2627227238
| 18>  H       -0.0144754345    -0.9954648425     1.8761625925
| 19> *
| 20>
| 21>                          ****END OF INPUT****

CARTESIAN COORDINATES (ANGSTROEM)
---------------------------------
  C     -0.218265    1.559415   -0.080691
  C      0.073459    0.074467   -0.052039
  O      1.048246   -0.267386   -1.048283
  C      1.857085   -1.255558   -0.599306
  O      2.655318   -1.846422   -1.244638
  O      1.618400   -1.489124    0.732413
  C      0.722436   -0.502845    1.237403
  C      1.456119    0.487214    2.041903
  N      2.007414    1.274915    2.681418
  H      0.688274    2.140733    0.101310
  H     -0.626883    1.834508   -1.055592
  H     -0.956788    1.812704    0.685816
  H     -0.834542   -0.502744   -0.262723
  H     -0.014475   -0.995465    1.876163

 Total Charge           Charge          ....    0
 Multiplicity           Mult            ....    1
 Number of Electrons    NEL             ....   66
 Basis Dimension        Dim             ....  309

ORBITAL ENERGIES
----------------

  NO   OCC          E(Eh)            E(eV)
   0   2.0000     -20.653530      -562.0111
   1   2.0000     -20.644908      -561.7765
   2   2.0000     -20.566951      -559.6552
   3   2.0000     -15.607679      -424.7065
   4   2.0000     -11.456123      -311.7370
   5   2.0000     -11.385946      -309.8273
   6   2.0000     -11.357227      -309.0459
   7   2.0000     -11.302991      -307.5700
   8   2.0000     -11.262726      -306.4744
   9   2.0000      -1.549746       -42.1707
  10   2.0000      -1.424874       -38.7728
  11   2.0000      -1.412451       -38.4347
  12   2.0000      -1.251447       -34.0536
  13   2.0000      -1.122353       -30.5408
  14   2.0000      -1.022729       -27.8299
  15   2.0000      -0.908287       -24.7158
  16   2.0000      -0.867967       -23.6186
  17   2.0000      -0.809334       -22.0231
  18   2.0000      -0.762632       -20.7523
  19   2.0000      -0.710920       -19.3451
  20   2.0000      -0.693398       -18.8683
  21   2.0000      -0.665846       -18.1186
  22   2.0000      -0.651373       -17.7248
  23   2.0000      -0.606811       -16.5122
  24   2.0000      -0.597648       -16.2628
  25   2.0000      -0.592455       -16.1215
  26   2.0000      -0.578629       -15.7453
  27   2.0000      -0.555684       -15.1209
  28   2.0000      -0.520696       -14.1688
  29   2.0000      -0.512745       -13.9525
  30   2.0000      -0.496319       -13.5055
  31   2.0000      -0.491520       -13.3749
  32   2.0000      -0.485748       -13.2179
  33   0.0000       0.099848         2.7170
  34   0.0000       0.121970         3.3190
  35   0.0000       0.141848         3.8599
  36   0.0000       0.155070         4.2197
  37   0.0000       0.161303         4.3893

MULLIKEN ATOMIC CHARGES
-----------------------
   0 C :   -0.378060
   1 C :    0.026191
   2 O :   -0.233908
   3 C :    0.360214
   4 O :   -0.254081
   5 O :   -0.239576
   6 C :    0.211997
   7 C :   -0.212230
   8 N :   -0.035056
   9 H :    0.160273
  10 H :    0.161264
  11 H :    0.145478
  12 H :    0.124755
  13 H :    0.162738
Sum of atomic charges:   -0.0000000

LOEWDIN ATOMIC CHARGES
----------------------
   0 C :   -0.274134
   1 C :   -0.273622
   2 O :    0.279772
   3 C :   -0.587934
   4 O :    0.162111
   5 O :    0.277256
   6 C :   -0.257141
   7 C :   -0.159936
   8 N :    0.095077
   9 H :    0.139498
  10 H :    0.137647
  11 H :    0.138790
  12 H :    0.150846
  13 H :    0.171769

  Mayer bond orders larger than 0.1
B(  0-C ,  1-C ) :   0.9404 B(  0-C ,  9-H ) :   0.9143 B(  0-C , 10-H ) :   0.9292
B(  0-C , 11-H ) :   0.9263 B(  1-C ,  2-O ) :   0.8983 B(  1-C ,  6-C ) :   0.8878
B(  1-C , 12-H ) :   0.9393 B(  2-O ,  3-C ) :   1.0916 B(  3-C ,  4-O ) :   2.0857
B(  3-C ,  5-O ) :   1.0461 B(  5-O ,  6-C ) :   0.9026 B(  6-C ,  7-C ) :   0.8920
B(  6-C , 13-H ) :   0.9079 B(  7-C ,  8-N ) :   2.8204

MP2 TOTAL ENERGY:     -473.131199594 Eh
FINAL SINGLE POINT ENERGY      -473.131199593963

DIPOLE MOMENT
-------------
                                X             Y             Z
Electronic contribution:      5.41319      -4.84067       0.56778
Nuclear contribution   :     -7.44905       5.13848      -0.40793
                        -----------------------------------------
Total Dipole Moment    :     -2.03586       0.29781       0.15984
                        -----------------------------------------
Magnitude (a.u.)       :      2.06373
Magnitude (Debye)      :      5.24558

                             ****ORCA TERMINATED NORMALLY****
TOTAL RUN TIME: 0 days 0 hours 14 minutes 44 seconds 853 msec
