                         Program Version 3.0.3 - RELEASE   -
|  1> ! RI-MP2 RIJK def2-TZVP def2-TZVP/C def2-TZVP/JK TIGHTSCF
|  2> % maxcore 2000
|  3> % mp2 density relaxed end
|  4> *xyz 0 1
|  5>  C       -0.3957601281     1.4778498063    -0.0035883660
|  6>  O       -0.0798049112     0.1142374723    -0.2094271925
|  7>  C       -1.1840243676    -0.7675142587    -0.0536830258
|  8>  C       -0.7016244160    -2.1428966206    -0.5403244496
|  9>  N       -0.2329731867    -2.0723565627    -1.9076454996
| 10>  C       -0.8024614637    -2.7713836182    -2.9259880021
| 11>  O       -1.7091874800    -3.5683716326    -2.8100353111
| 12>  C       -1.6606393232    -0.8334520730     1.3314297294
| 13>  C       -2.0409905406    -0.9053497055     2.4692465354
| 14>  H        0.5211866963     2.0453511607    -0.1762862843
| 15>  H       -1.1691506383     1.8216430651    -0.7070137385
| 16>  H       -0.7460826509     1.6604034619     1.0204170626
| 17>  H       -2.0113261687    -0.4356191310    -0.7029417326
| 18>  H        0.0974478171    -2.4845282815     0.1267263124
| 19>  H       -1.5185023986    -2.8649019765    -0.5088685776
| 20>  H        0.4688080416    -1.3801130926    -2.1172223282
| 21>  H       -0.3272297084    -2.5340782285    -3.8984051898
| 22>  H       -2.3850287329    -0.9665185449     3.4725391280
| 23> *
| 24>
| 25>                          ****END OF INPUT****

CARTESIAN COORDINATES (ANGSTROEM)
---------------------------------
  C     -0.395760    1.477850   -0.003588
  O     -0.079805    0.114237   -0.209427
  C     -1.184024   -0.767514   -0.053683
  C     -0.701624   -2.142897   -0.540324
  N     -0.232973   -2.072357   -1.907645
  C     -0.802461   -2.771384   -2.925988
  O     -1.709187   -3.568372   -2.810035
  C     -1.660639   -0.833452    1.331430
  C     -2.040991   -0.905350    2.469247
  H      0.521187    2.045351   -0.176286
  H     -1.169151    1.821643   -0.707014
  H     -0.746083    1.660403    1.020417
  H     -2.011326   -0.435619   -0.702942
  H      0.097448   -2.484528    0.126726
  H     -1.518502   -2.864902   -0.508869
  H      0.468808   -1.380113   -2.117222
  H     -0.327230   -2.534078   -3.898405
  H     -2.385029   -0.966519    3.472539

 Total Charge           Charge          ....    0
 Multiplicity           Mult            ....    1
 Number of Electrons    NEL             ....   68
 Basis Dimension        Dim             ....  333

ORBITAL ENERGIES
----------------

  NO   OCC          E(Eh)            E(eV)
   0   2.0000     -20.578627      -559.9729
   1   2.0000     -20.522215      -558.4378
   2   2.0000     -15.589290      -424.2062
   3   2.0000     -11.349569      -308.8375
   4   2.0000     -11.321893      -308.0844
   5   2.0000     -11.282999      -307.0260
   6   2.0000     -11.274219      -306.7871
   7   2.0000     -11.244756      -305.9854
   8   2.0000     -11.239661      -305.8467
   9   2.0000      -1.399456       -38.0811
  10   2.0000      -1.382722       -37.6258
  11   2.0000      -1.238389       -33.6983
  12   2.0000      -1.079459       -29.3736
  13   2.0000      -1.012011       -27.5382
  14   2.0000      -0.936092       -25.4724
  15   2.0000      -0.890955       -24.2441
  16   2.0000      -0.805608       -21.9217
  17   2.0000      -0.747009       -20.3272
  18   2.0000      -0.743802       -20.2399
  19   2.0000      -0.697298       -18.9744
  20   2.0000      -0.682580       -18.5739
  21   2.0000      -0.656280       -17.8583
  22   2.0000      -0.639824       -17.4105
  23   2.0000      -0.618056       -16.8182
  24   2.0000      -0.585666       -15.9368
  25   2.0000      -0.573674       -15.6105
  26   2.0000      -0.542525       -14.7628
  27   2.0000      -0.530843       -14.4450
  28   2.0000      -0.509158       -13.8549
  29   2.0000      -0.456289       -12.4163
  30   2.0000      -0.433634       -11.7998
  31   2.0000      -0.416062       -11.3216
  32   2.0000      -0.406233       -11.0542
  33   2.0000      -0.389618       -10.6020
  34   0.0000       0.132082         3.5941
  35   0.0000       0.146576         3.9885
  36   0.0000       0.158257         4.3064
  37   0.0000       0.160651         4.3715
  38   0.0000       0.166246         4.5238

MULLIKEN ATOMIC CHARGES
-----------------------
   0 C :   -0.224581
   1 O :   -0.320150
   2 C :   -0.036856
   3 C :   -0.085440
   4 N :   -0.319772
   5 C :    0.192537
   6 O :   -0.368751
   7 C :   -0.041243
   8 C :   -0.146574
   9 H :    0.141769
  10 H :    0.115752
  11 H :    0.136775
  12 H :    0.120485
  13 H :    0.138203
  14 H :    0.170902
  15 H :    0.250691
  16 H :    0.079713
  17 H :    0.196539
Sum of atomic charges:   -0.0000000

LOEWDIN ATOMIC CHARGES
----------------------
   0 C :   -0.345590
   1 O :    0.155502
   2 C :   -0.322149
   3 C :   -0.238016
   4 N :    0.088472
   5 C :   -0.438023
   6 O :    0.052575
   7 C :   -0.088604
   8 C :   -0.077879
   9 H :    0.114972
  10 H :    0.104156
  11 H :    0.110783
  12 H :    0.156844
  13 H :    0.143250
  14 H :    0.156442
  15 H :    0.187740
  16 H :    0.109792
  17 H :    0.129735

  Mayer bond orders larger than 0.1
B(  0-C ,  1-O ) :   0.9026 B(  0-C ,  9-H ) :   0.9377 B(  0-C , 10-H ) :   0.9306
B(  0-C , 11-H ) :   0.9356 B(  1-O ,  2-C ) :   0.9549 B(  2-C ,  3-C ) :   0.9270
B(  2-C ,  7-C ) :   1.0288 B(  2-C , 12-H ) :   0.9825 B(  3-C ,  4-N ) :   0.8243
B(  3-C , 13-H ) :   0.9223 B(  3-C , 14-H ) :   0.9174 B(  4-N ,  5-C ) :   1.1584
B(  4-N , 15-H ) :   0.8642 B(  5-C ,  6-O ) :   1.8872 B(  5-C , 16-H ) :   0.9306
B(  7-C ,  8-C ) :   2.6497 B(  8-C , 17-H ) :   0.8915

MP2 TOTAL ENERGY:     -438.332873191 Eh
FINAL SINGLE POINT ENERGY      -438.332873191177

DIPOLE MOMENT
-------------
                                X             Y             Z
Electronic contribution:     -0.82143      -4.52802      -1.17385
Nuclear contribution   :      1.37597       5.84314       1.68572
                        -----------------------------------------
Total Dipole Moment    :      0.55454       1.31512       0.51186
                        -----------------------------------------
Magnitude (a.u.)       :      1.51627
Magnitude (Debye)      :      3.85404

                             ****ORCA TERMINATED NORMALLY****
TOTAL RUN TIME: 0 days 0 hours 15 minutes 14 seconds 555 msec
