                         Program Version 3.0.3 - RELEASE   -
|  1> ! RI-MP2 RIJK def2-TZVP def2-TZVP/C def2-TZVP/JK TIGHTSCF
|  2> % maxcore 2000
|  3> % mp2 density relaxed end
|  4> *xyz 0 1
|  5>  N       -0.1095283877     1.3463806823    -0.0915642884
|  6>  C        0.2291490587     0.0023999026    -0.0365403762
|  7>  O        1.3607542272    -0.3943514711     0.0787537644
|  8>  N       -0.9239632212    -0.8002655975    -0.0681183539
|  9>  C       -0.9669305687    -2.1784092639    -0.1005844019
| 10>  N        0.0344429751    -2.9355479811    -0.2797951927
| 11>  N       -2.2989122216    -2.6772490129     0.0742866513
| 12>  C       -3.4795992894    -2.0070703161     0.2343634179
| 13>  O       -3.6283587530    -0.8003274509     0.2636008579
| 14>  H        0.6881615768     1.9466912169    -0.2318950981
| 15>  H       -0.9412375431     1.6204514437    -0.5919307429
| 16>  H       -1.8269580131    -0.3538433270     0.0657465007
| 17>  H       -0.2268790636    -3.9193492790    -0.2675925693
| 18>  H       -2.3609054000    -3.6841343489     0.0572405682
| 19>  H       -4.3282638664    -2.7061531172     0.3379395429
| 20> *
| 21>
| 22>                          ****END OF INPUT****

CARTESIAN COORDINATES (ANGSTROEM)
---------------------------------
  N     -0.109528    1.346381   -0.091564
  C      0.229149    0.002400   -0.036540
  O      1.360754   -0.394351    0.078754
  N     -0.923963   -0.800266   -0.068118
  C     -0.966931   -2.178409   -0.100584
  N      0.034443   -2.935548   -0.279795
  N     -2.298912   -2.677249    0.074287
  C     -3.479599   -2.007070    0.234363
  O     -3.628359   -0.800327    0.263601
  H      0.688162    1.946691   -0.231895
  H     -0.941238    1.620451   -0.591931
  H     -1.826958   -0.353843    0.065747
  H     -0.226879   -3.919349   -0.267593
  H     -2.360905   -3.684134    0.057241
  H     -4.328264   -2.706153    0.337940

 Total Charge           Charge          ....    0
 Multiplicity           Mult            ....    1
 Number of Electrons    NEL             ....   68
 Basis Dimension        Dim             ....  315

ORBITAL ENERGIES
----------------

  NO   OCC          E(Eh)            E(eV)
   0   2.0000     -20.573488      -559.8331
   1   2.0000     -20.515798      -558.2632
   2   2.0000     -15.642290      -425.6483
   3   2.0000     -15.601390      -424.5354
   4   2.0000     -15.581495      -423.9940
   5   2.0000     -15.537764      -422.8041
   6   2.0000     -11.400135      -310.2134
   7   2.0000     -11.385046      -309.8028
   8   2.0000     -11.380015      -309.6660
   9   2.0000      -1.435396       -39.0591
  10   2.0000      -1.400632       -38.1131
  11   2.0000      -1.327009       -36.1098
  12   2.0000      -1.246167       -33.9099
  13   2.0000      -1.206398       -32.8277
  14   2.0000      -1.169347       -31.8195
  15   2.0000      -0.935208       -25.4483
  16   2.0000      -0.873686       -23.7742
  17   2.0000      -0.796241       -21.6668
  18   2.0000      -0.776696       -21.1350
  19   2.0000      -0.740268       -20.1437
  20   2.0000      -0.724657       -19.7189
  21   2.0000      -0.684916       -18.6375
  22   2.0000      -0.654545       -17.8111
  23   2.0000      -0.649995       -17.6873
  24   2.0000      -0.633147       -17.2288
  25   2.0000      -0.614987       -16.7346
  26   2.0000      -0.602272       -16.3887
  27   2.0000      -0.536352       -14.5949
  28   2.0000      -0.487800       -13.2737
  29   2.0000      -0.468906       -12.7596
  30   2.0000      -0.451197       -12.2777
  31   2.0000      -0.427476       -11.6322
  32   2.0000      -0.420003       -11.4289
  33   2.0000      -0.381095       -10.3701
  34   0.0000       0.105388         2.8677
  35   0.0000       0.113716         3.0944
  36   0.0000       0.132113         3.5950
  37   0.0000       0.158422         4.3109
  38   0.0000       0.182985         4.9793

MULLIKEN ATOMIC CHARGES
-----------------------
   0 N :   -0.526740
   1 C :    0.377887
   2 O :   -0.314125
   3 N :   -0.321811
   4 C :    0.232258
   5 N :   -0.325195
   6 N :   -0.303334
   7 C :    0.215288
   8 O :   -0.375301
   9 H :    0.266130
  10 H :    0.255722
  11 H :    0.262133
  12 H :    0.196737
  13 H :    0.245376
  14 H :    0.114975
Sum of atomic charges:   -0.0000000

LOEWDIN ATOMIC CHARGES
----------------------
   0 N :   -0.060617
   1 C :   -0.539898
   2 O :    0.114252
   3 N :    0.140401
   4 C :   -0.408528
   5 N :   -0.050311
   6 N :    0.123405
   7 C :   -0.399910
   8 O :    0.063687
   9 H :    0.176789
  10 H :    0.167730
  11 H :    0.193181
  12 H :    0.159230
  13 H :    0.198662
  14 H :    0.121927

  Mayer bond orders larger than 0.1
B(  0-N ,  1-C ) :   1.0980 B(  0-N ,  9-H ) :   0.8681 B(  0-N , 10-H ) :   0.8671
B(  1-C ,  2-O ) :   2.0283 B(  1-C ,  3-N ) :   0.9739 B(  3-N ,  4-C ) :   1.0805
B(  3-N , 11-H ) :   0.8148 B(  4-C ,  5-N ) :   2.0023 B(  4-C ,  6-N ) :   0.9493
B(  5-N , 12-H ) :   0.8511 B(  6-N ,  7-C ) :   1.1305 B(  6-N , 13-H ) :   0.8666
B(  7-C ,  8-O ) :   1.8116 B(  7-C , 14-H ) :   0.9240

MP2 TOTAL ENERGY:     -486.567132316 Eh
FINAL SINGLE POINT ENERGY      -486.567132316343

DIPOLE MOMENT
-------------
                                X             Y             Z
Electronic contribution:      0.53812      -0.30071       0.30239
Nuclear contribution   :     -2.28308      -0.26404      -0.62752
                        -----------------------------------------
Total Dipole Moment    :     -1.74496      -0.56475      -0.32512
                        -----------------------------------------
Magnitude (a.u.)       :      1.86267
Magnitude (Debye)      :      4.73453

                             ****ORCA TERMINATED NORMALLY****
TOTAL RUN TIME: 0 days 0 hours 12 minutes 46 seconds 868 msec
