                         Program Version 3.0.3 - RELEASE   -
|  1> ! RI-MP2 RIJK def2-TZVP def2-TZVP/C def2-TZVP/JK TIGHTSCF
|  2> % maxcore 2000
|  3> % mp2 density relaxed end
|  4> *xyz 0 1
|  5>  C        0.0136748199     1.3858296268    -0.0023757878
|  6>  N        0.0426590326    -0.0649925045    -0.0173602690
|  7>  C       -1.0838537971    -0.6492784986     0.0380095720
|  8>  N       -2.3909256856    -0.1729619166     0.1409807386
|  9>  N       -3.3407488650    -1.2120838922     0.0219446017
| 10>  C       -2.6136761612    -2.2763538031     0.0107681139
| 11>  O       -3.0540363968    -3.5365640803    -0.0221739866
| 12>  N       -1.2707829910    -2.0359411229     0.0528009546
| 13>  H        1.0372929515     1.7682367809     0.0216169727
| 14>  H       -0.4686506425     1.8131197717    -0.8987451850
| 15>  H       -0.5153763098     1.7916025405     0.8752730581
| 16>  H       -2.6581881933     0.7059333930    -0.2715992521
| 17>  H       -4.0197827441    -3.4997717238    -0.0309422013
| 18>  H       -0.5256941476    -2.7076742010     0.0004035202
| 19> *
| 20>
| 21>                          ****END OF INPUT****

CARTESIAN COORDINATES (ANGSTROEM)
---------------------------------
  C      0.013675    1.385830   -0.002376
  N      0.042659   -0.064993   -0.017360
  C     -1.083854   -0.649278    0.038010
  N     -2.390926   -0.172962    0.140981
  N     -3.340749   -1.212084    0.021945
  C     -2.613676   -2.276354    0.010768
  O     -3.054036   -3.536564   -0.022174
  N     -1.270783   -2.035941    0.052801
  H      1.037293    1.768237    0.021617
  H     -0.468651    1.813120   -0.898745
  H     -0.515376    1.791603    0.875273
  H     -2.658188    0.705933   -0.271599
  H     -4.019783   -3.499772   -0.030942
  H     -0.525694   -2.707674    0.000404

 Total Charge           Charge          ....    0
 Multiplicity           Mult            ....    1
 Number of Electrons    NEL             ....   60
 Basis Dimension        Dim             ....  284

ORBITAL ENERGIES
----------------

  NO   OCC          E(Eh)            E(eV)
   0   2.0000     -20.634716      -561.4992
   1   2.0000     -15.619479      -425.0276
   2   2.0000     -15.614806      -424.9005
   3   2.0000     -15.585187      -424.0945
   4   2.0000     -15.519572      -422.3090
   5   2.0000     -11.390444      -309.9497
   6   2.0000     -11.353344      -308.9402
   7   2.0000     -11.240739      -305.8761
   8   2.0000      -1.475010       -40.1371
   9   2.0000      -1.388748       -37.7898
  10   2.0000      -1.238035       -33.6887
  11   2.0000      -1.209277       -32.9061
  12   2.0000      -1.088629       -29.6231
  13   2.0000      -0.938507       -25.5381
  14   2.0000      -0.870082       -23.6761
  15   2.0000      -0.856059       -23.2946
  16   2.0000      -0.751209       -20.4414
  17   2.0000      -0.722290       -19.6545
  18   2.0000      -0.691018       -18.8036
  19   2.0000      -0.668829       -18.1998
  20   2.0000      -0.640181       -17.4202
  21   2.0000      -0.607968       -16.5436
  22   2.0000      -0.598273       -16.2798
  23   2.0000      -0.559037       -15.2122
  24   2.0000      -0.549190       -14.9442
  25   2.0000      -0.500105       -13.6086
  26   2.0000      -0.478735       -13.0271
  27   2.0000      -0.426020       -11.5926
  28   2.0000      -0.402536       -10.9536
  29   2.0000      -0.314725        -8.5641
  30   0.0000       0.129166         3.5148
  31   0.0000       0.136613         3.7174
  32   0.0000       0.154274         4.1980
  33   0.0000       0.192576         5.2403
  34   0.0000       0.197219         5.3666

MULLIKEN ATOMIC CHARGES
-----------------------
   0 C :   -0.321894
   1 N :   -0.289152
   2 C :    0.225258
   3 N :   -0.238396
   4 N :   -0.260201
   5 C :    0.333381
   6 O :   -0.414611
   7 N :   -0.309733
   8 H :    0.145284
   9 H :    0.115720
  10 H :    0.126381
  11 H :    0.260150
  12 H :    0.357591
  13 H :    0.270222
Sum of atomic charges:   -0.0000000

LOEWDIN ATOMIC CHARGES
----------------------
   0 C :   -0.352907
   1 N :    0.010845
   2 C :   -0.420623
   3 N :    0.067701
   4 N :   -0.001755
   5 C :   -0.508851
   6 O :    0.097133
   7 N :    0.182989
   8 H :    0.116476
   9 H :    0.104215
  10 H :    0.107702
  11 H :    0.183261
  12 H :    0.212549
  13 H :    0.201266

  Mayer bond orders larger than 0.1
B(  0-C ,  1-N ) :   0.9019 B(  0-C ,  8-H ) :   0.9481 B(  0-C ,  9-H ) :   0.9272
B(  0-C , 10-H ) :   0.9282 B(  1-N ,  2-C ) :   1.9141 B(  2-C ,  3-N ) :   1.1049
B(  2-C ,  7-N ) :   1.0134 B(  3-N ,  4-N ) :   0.8988 B(  3-N , 11-H ) :   0.8642
B(  4-N ,  5-C ) :   1.7177 B(  5-C ,  6-O ) :   1.1363 B(  5-C ,  7-N ) :   1.1285
B(  6-O , 12-H ) :   0.8096 B(  7-N , 13-H ) :   0.8553

MP2 TOTAL ENERGY:     -411.380634731 Eh
FINAL SINGLE POINT ENERGY      -411.380634730946

DIPOLE MOMENT
-------------
                                X             Y             Z
Electronic contribution:     -3.59257      -6.25673       0.17599
Nuclear contribution   :      3.02975       5.96662      -0.41724
                        -----------------------------------------
Total Dipole Moment    :     -0.56282      -0.29012      -0.24125
                        -----------------------------------------
Magnitude (a.u.)       :      0.67760
Magnitude (Debye)      :      1.72232

                             ****ORCA TERMINATED NORMALLY****
TOTAL RUN TIME: 0 days 0 hours 9 minutes 57 seconds 336 msec
