                         Program Version 3.0.3 - RELEASE   -
|  1> ! RI-MP2 RIJK def2-TZVP def2-TZVP/C def2-TZVP/JK TIGHTSCF
|  2> % maxcore 2000
|  3> % mp2 density relaxed end
|  4> *xyz 0 1
|  5>  C        0.0907415171     1.4971967825    -0.0466056678
|  6>  C       -0.0162351115    -0.0101102182     0.1927645003
|  7>  O        0.4245678319    -0.3628795322     1.4970091114
|  8>  C       -1.4416035738    -0.5364171216    -0.0272698209
|  9>  C       -1.5757372858    -2.0771660248     0.0273520520
| 10>  C       -2.8213244671    -2.3143139510     0.8774935650
| 11>  C       -2.6879644151    -2.0631105354     2.3686839472
| 12>  C       -3.1885950269    -0.9800630765     1.4514442552
| 13>  O       -2.2512708441    -0.0128723396     1.0454634095
| 14>  H        1.1052496529     1.8392573537     0.1733738572
| 15>  H       -0.1447216216     1.7489667593    -1.0863672842
| 16>  H       -0.6084236610     2.0371455053     0.5997048264
| 17>  H        0.6512864349    -0.5372411174    -0.4999268721
| 18>  H       -0.2611438600    -0.0283473128     2.0900920479
| 19>  H       -1.8334436457    -0.1519733030    -0.9807483615
| 20>  H       -1.6936037867    -2.4928820396    -0.9768226209
| 21>  H       -0.6832499272    -2.5220950987     0.4766899501
| 22>  H       -3.5767357192    -3.0070819031     0.5270628969
| 23>  H       -3.4028184983    -2.5432460617     3.0289448056
| 24>  H       -1.6872999545    -1.9534407945     2.7737666347
| 25>  H       -4.2048753382    -0.6058123507     1.5175097980
| 26> *
| 27>
| 28>                          ****END OF INPUT****

CARTESIAN COORDINATES (ANGSTROEM)
---------------------------------
  C      0.090742    1.497197   -0.046606
  C     -0.016235   -0.010110    0.192765
  O      0.424568   -0.362880    1.497009
  C     -1.441604   -0.536417   -0.027270
  C     -1.575737   -2.077166    0.027352
  C     -2.821324   -2.314314    0.877494
  C     -2.687964   -2.063111    2.368684
  C     -3.188595   -0.980063    1.451444
  O     -2.251271   -0.012872    1.045463
  H      1.105250    1.839257    0.173374
  H     -0.144722    1.748967   -1.086367
  H     -0.608424    2.037146    0.599705
  H      0.651286   -0.537241   -0.499927
  H     -0.261144   -0.028347    2.090092
  H     -1.833444   -0.151973   -0.980748
  H     -1.693604   -2.492882   -0.976823
  H     -0.683250   -2.522095    0.476690
  H     -3.576736   -3.007082    0.527063
  H     -3.402818   -2.543246    3.028945
  H     -1.687300   -1.953441    2.773767
  H     -4.204875   -0.605812    1.517510

 Total Charge           Charge          ....    0
 Multiplicity           Mult            ....    1
 Number of Electrons    NEL             ....   70
 Basis Dimension        Dim             ....  351

ORBITAL ENERGIES
----------------

  NO   OCC          E(Eh)            E(eV)
   0   2.0000     -20.560412      -559.4773
   1   2.0000     -20.546147      -559.0891
   2   2.0000     -11.281679      -306.9901
   3   2.0000     -11.281603      -306.9880
   4   2.0000     -11.277009      -306.8630
   5   2.0000     -11.235318      -305.7285
   6   2.0000     -11.228676      -305.5478
   7   2.0000     -11.227846      -305.5252
   8   2.0000     -11.210815      -305.0618
   9   2.0000      -1.392685       -37.8969
  10   2.0000      -1.350251       -36.7422
  11   2.0000      -1.135842       -30.9078
  12   2.0000      -1.052469       -28.6391
  13   2.0000      -0.990432       -26.9510
  14   2.0000      -0.883339       -24.0369
  15   2.0000      -0.827056       -22.5053
  16   2.0000      -0.793506       -21.5924
  17   2.0000      -0.777507       -21.1570
  18   2.0000      -0.710046       -19.3213
  19   2.0000      -0.684206       -18.6182
  20   2.0000      -0.643547       -17.5118
  21   2.0000      -0.619546       -16.8587
  22   2.0000      -0.604478       -16.4487
  23   2.0000      -0.585494       -15.9321
  24   2.0000      -0.582334       -15.8461
  25   2.0000      -0.549082       -14.9413
  26   2.0000      -0.546099       -14.8601
  27   2.0000      -0.524819       -14.2810
  28   2.0000      -0.512844       -13.9552
  29   2.0000      -0.508108       -13.8263
  30   2.0000      -0.478790       -13.0285
  31   2.0000      -0.453652       -12.3445
  32   2.0000      -0.431390       -11.7387
  33   2.0000      -0.409068       -11.1313
  34   2.0000      -0.386384       -10.5140
  35   0.0000       0.140794         3.8312
  36   0.0000       0.158004         4.2995
  37   0.0000       0.167802         4.5661
  38   0.0000       0.171326         4.6620
  39   0.0000       0.187383         5.0989

MULLIKEN ATOMIC CHARGES
-----------------------
   0 C :   -0.393164
   1 C :    0.110252
   2 O :   -0.481258
   3 C :   -0.017078
   4 C :   -0.173819
   5 C :   -0.133476
   6 C :   -0.319390
   7 C :    0.076725
   8 O :   -0.350758
   9 H :    0.142069
  10 H :    0.117691
  11 H :    0.137150
  12 H :    0.096916
  13 H :    0.322696
  14 H :    0.088674
  15 H :    0.127101
  16 H :    0.124688
  17 H :    0.131248
  18 H :    0.129673
  19 H :    0.143004
  20 H :    0.121055
Sum of atomic charges:   -0.0000000

LOEWDIN ATOMIC CHARGES
----------------------
   0 C :   -0.301579
   1 C :   -0.360764
   2 O :   -0.018908
   3 C :   -0.272636
   4 C :   -0.212598
   5 C :   -0.204674
   6 C :   -0.209436
   7 C :   -0.280926
   8 O :    0.186537
   9 H :    0.125573
  10 H :    0.123865
  11 H :    0.126774
  12 H :    0.146617
  13 H :    0.175797
  14 H :    0.140466
  15 H :    0.140556
  16 H :    0.147490
  17 H :    0.143070
  18 H :    0.134130
  19 H :    0.136516
  20 H :    0.134130

  Mayer bond orders larger than 0.1
B(  0-C ,  1-C ) :   0.9306 B(  0-C ,  9-H ) :   0.9417 B(  0-C , 10-H ) :   0.9303
B(  0-C , 11-H ) :   0.9268 B(  1-C ,  2-O ) :   0.9088 B(  1-C ,  3-C ) :   0.9163
B(  1-C , 12-H ) :   0.9267 B(  2-O , 13-H ) :   0.8247 B(  3-C ,  4-C ) :   0.9458
B(  3-C ,  8-O ) :   0.9204 B(  3-C , 14-H ) :   0.9145 B(  4-C ,  5-C ) :   0.9522
B(  4-C , 15-H ) :   0.9227 B(  4-C , 16-H ) :   0.9042 B(  5-C ,  6-C ) :   0.8808
B(  5-C ,  7-C ) :   0.8790 B(  5-C , 17-H ) :   0.9231 B(  6-C ,  7-C ) :   0.8769
B(  6-C , 18-H ) :   0.9230 B(  6-C , 19-H ) :   0.9169 B(  7-C ,  8-O ) :   0.9280
B(  7-C , 20-H ) :   0.9439

MP2 TOTAL ENERGY:     -423.515129088 Eh
FINAL SINGLE POINT ENERGY      -423.515129087821

DIPOLE MOMENT
-------------
                                X             Y             Z
Electronic contribution:     -1.58498      -0.67156       1.74532
Nuclear contribution   :      0.98101       0.40315      -2.17622
                        -----------------------------------------
Total Dipole Moment    :     -0.60397      -0.26841      -0.43090
                        -----------------------------------------
Magnitude (a.u.)       :      0.78899
Magnitude (Debye)      :      2.00545

                             ****ORCA TERMINATED NORMALLY****
TOTAL RUN TIME: 0 days 0 hours 19 minutes 30 seconds 204 msec
