                         Program Version 3.0.3 - RELEASE   -
|  1> ! RI-MP2 RIJK def2-TZVP def2-TZVP/C def2-TZVP/JK TIGHTSCF
|  2> % maxcore 2000
|  3> % mp2 density relaxed end
|  4> *xyz 0 1
|  5>  O        0.0500566024    -0.0549488015    -0.1640475881
|  6>  C        0.0350208296     1.1499991506    -0.0751359942
|  7>  N       -1.0722324742     1.9470064011     0.0896089951
|  8>  C       -0.8306720065     3.3888896884     0.1046166224
|  9>  C       -1.3912410581     4.0614503982     1.2739567918
| 10>  C       -1.8730726586     4.6228995429     2.2196570011
| 11>  C        0.7022540429     3.4613066436     0.0230572927
| 12>  O        1.3521343857     2.8264129818     1.1101947452
| 13>  C        1.2196550987     2.0983655552    -0.1272382674
| 14>  H       -1.9614545832     1.5508079521     0.3504562820
| 15>  H       -1.2438148556     3.8529915972    -0.8033856727
| 16>  H       -2.2868139752     5.1158884534     3.0649264500
| 17>  H        1.1733407338     4.3499269395    -0.3835975063
| 18>  H        2.1357065883     1.8182334673    -0.6341055216
| 19> *
| 20>
| 21>                          ****END OF INPUT****

CARTESIAN COORDINATES (ANGSTROEM)
---------------------------------
  O      0.050057   -0.054949   -0.164048
  C      0.035021    1.149999   -0.075136
  N     -1.072232    1.947006    0.089609
  C     -0.830672    3.388890    0.104617
  C     -1.391241    4.061450    1.273957
  C     -1.873073    4.622900    2.219657
  C      0.702254    3.461307    0.023057
  O      1.352134    2.826413    1.110195
  C      1.219655    2.098366   -0.127238
  H     -1.961455    1.550808    0.350456
  H     -1.243815    3.852992   -0.803386
  H     -2.286814    5.115888    3.064926
  H      1.173341    4.349927   -0.383598
  H      2.135707    1.818233   -0.634106

 Total Charge           Charge          ....    0
 Multiplicity           Mult            ....    1
 Number of Electrons    NEL             ....   64
 Basis Dimension        Dim             ....  309

ORBITAL ENERGIES
----------------

  NO   OCC          E(Eh)            E(eV)
   0   2.0000     -20.602723      -560.6286
   1   2.0000     -20.536774      -558.8340
   2   2.0000     -15.600889      -424.5218
   3   2.0000     -11.367059      -309.3134
   4   2.0000     -11.330108      -308.3079
   5   2.0000     -11.325295      -308.1769
   6   2.0000     -11.316562      -307.9393
   7   2.0000     -11.253923      -306.2348
   8   2.0000     -11.247188      -306.0515
   9   2.0000      -1.455749       -39.6129
  10   2.0000      -1.394779       -37.9539
  11   2.0000      -1.263655       -34.3858
  12   2.0000      -1.077563       -29.3220
  13   2.0000      -1.006707       -27.3939
  14   2.0000      -0.983675       -26.7672
  15   2.0000      -0.866255       -23.5720
  16   2.0000      -0.822563       -22.3831
  17   2.0000      -0.757738       -20.6191
  18   2.0000      -0.733693       -19.9648
  19   2.0000      -0.695775       -18.9330
  20   2.0000      -0.676784       -18.4162
  21   2.0000      -0.657993       -17.9049
  22   2.0000      -0.636407       -17.3175
  23   2.0000      -0.602167       -16.3858
  24   2.0000      -0.598593       -16.2885
  25   2.0000      -0.544015       -14.8034
  26   2.0000      -0.499197       -13.5838
  27   2.0000      -0.484690       -13.1891
  28   2.0000      -0.429120       -11.6770
  29   2.0000      -0.426284       -11.5998
  30   2.0000      -0.413151       -11.2424
  31   2.0000      -0.402107       -10.9419
  32   0.0000       0.123885         3.3711
  33   0.0000       0.141450         3.8490
  34   0.0000       0.150142         4.0856
  35   0.0000       0.157410         4.2833
  36   0.0000       0.163876         4.4593

MULLIKEN ATOMIC CHARGES
-----------------------
   0 O :   -0.319965
   1 C :    0.200621
   2 N :   -0.306644
   3 C :   -0.016897
   4 C :   -0.078250
   5 C :   -0.118676
   6 C :    0.020286
   7 O :   -0.303183
   8 C :    0.026837
   9 H :    0.251968
  10 H :    0.136172
  11 H :    0.201176
  12 H :    0.153151
  13 H :    0.153404
Sum of atomic charges:    0.0000000

LOEWDIN ATOMIC CHARGES
----------------------
   0 O :    0.108419
   1 C :   -0.431004
   2 N :    0.157361
   3 C :   -0.240139
   4 C :   -0.085421
   5 C :   -0.069925
   6 C :   -0.224891
   7 O :    0.202065
   8 C :   -0.196196
   9 H :    0.190866
  10 H :    0.169062
  11 H :    0.131083
  12 H :    0.143393
  13 H :    0.145325

  Mayer bond orders larger than 0.1
B(  0-O ,  1-C ) :   1.9920 B(  1-C ,  2-N ) :   1.1764 B(  1-C ,  8-C ) :   0.8950
B(  2-N ,  3-C ) :   0.8764 B(  2-N ,  9-H ) :   0.8631 B(  3-C ,  4-C ) :   1.1158
B(  3-C ,  6-C ) :   0.8962 B(  3-C , 10-H ) :   0.9331 B(  4-C ,  5-C ) :   2.6062
B(  5-C , 11-H ) :   0.8915 B(  6-C ,  7-O ) :   0.9463 B(  6-C ,  8-C ) :   0.9381
B(  6-C , 12-H ) :   0.9178 B(  7-O ,  8-C ) :   0.8536 B(  8-C , 13-H ) :   0.9230

MP2 TOTAL ENERGY:     -435.929773631 Eh
FINAL SINGLE POINT ENERGY      -435.929773631444

DIPOLE MOMENT
-------------
                                X             Y             Z
Electronic contribution:      0.73312      -2.23816       0.33409
Nuclear contribution   :     -1.24760       3.65271      -0.75713
                        -----------------------------------------
Total Dipole Moment    :     -0.51448       1.41455      -0.42305
                        -----------------------------------------
Magnitude (a.u.)       :      1.56353
Magnitude (Debye)      :      3.97417

                             ****ORCA TERMINATED NORMALLY****
TOTAL RUN TIME: 0 days 0 hours 15 minutes 30 seconds 61 msec
