                         Program Version 3.0.3 - RELEASE   -
|  1> ! RI-MP2 RIJK def2-TZVP def2-TZVP/C def2-TZVP/JK TIGHTSCF
|  2> % maxcore 2000
|  3> % mp2 density relaxed end
|  4> *xyz 0 1
|  5>  C        0.2238171468     1.5293304865     0.1692228460
|  6>  C       -0.0941572672     0.0277400431     0.0519330531
|  7>  C       -1.5997299052    -0.1764413333     0.0147642000
|  8>  O       -2.2302693939    -0.7985724203     0.8281791731
|  9>  C        0.5307824316    -0.5544668796    -1.2100755676
| 10>  C        1.9020662802    -1.1424629540    -1.1958644079
| 11>  C        0.7066521112    -2.0564712139    -1.4430031833
| 12>  C        0.3531768720    -3.0631227860    -0.4123369418
| 13>  O       -0.0901657770    -4.1551797810    -0.6669525309
| 14>  H        1.3053785674     1.6910361254     0.1549336345
| 15>  H       -0.2092275151     2.0901824238    -0.6668284088
| 16>  H       -0.1751892010     1.9452592251     1.0987105592
| 17>  H        0.2739710568    -0.4953915753     0.9391304213
| 18>  H       -2.1024511801     0.3108538133    -0.8551918053
| 19>  H        0.2560738312    -0.0156873800    -2.1143741235
| 20>  H        2.5725057762    -0.9640545199    -2.0284228988
| 21>  H        2.3958741502    -1.2379956303    -0.2331687491
| 22>  H        0.5478458793    -2.4104423539    -2.4558363380
| 23>  H        0.5476929166    -2.7549606697     0.6395058378
| 24> *
| 25>
| 26>                          ****END OF INPUT****

CARTESIAN COORDINATES (ANGSTROEM)
---------------------------------
  C      0.223817    1.529330    0.169223
  C     -0.094157    0.027740    0.051933
  C     -1.599730   -0.176441    0.014764
  O     -2.230269   -0.798572    0.828179
  C      0.530782   -0.554467   -1.210076
  C      1.902066   -1.142463   -1.195864
  C      0.706652   -2.056471   -1.443003
  C      0.353177   -3.063123   -0.412337
  O     -0.090166   -4.155180   -0.666953
  H      1.305379    1.691036    0.154934
  H     -0.209228    2.090182   -0.666828
  H     -0.175189    1.945259    1.098711
  H      0.273971   -0.495392    0.939130
  H     -2.102451    0.310854   -0.855192
  H      0.256074   -0.015687   -2.114374
  H      2.572506   -0.964055   -2.028423
  H      2.395874   -1.237996   -0.233169
  H      0.547846   -2.410442   -2.455836
  H      0.547693   -2.754961    0.639506

 Total Charge           Charge          ....    0
 Multiplicity           Mult            ....    1
 Number of Electrons    NEL             ....   68
 Basis Dimension        Dim             ....  339

ORBITAL ENERGIES
----------------

  NO   OCC          E(Eh)            E(eV)
   0   2.0000     -20.566385      -559.6398
   1   2.0000     -20.551431      -559.2329
   2   2.0000     -11.339171      -308.5545
   3   2.0000     -11.333055      -308.3881
   4   2.0000     -11.273703      -306.7731
   5   2.0000     -11.265323      -306.5450
   6   2.0000     -11.262547      -306.4695
   7   2.0000     -11.258931      -306.3711
   8   2.0000     -11.246436      -306.0311
   9   2.0000      -1.405483       -38.2451
  10   2.0000      -1.391239       -37.8575
  11   2.0000      -1.188569       -32.3426
  12   2.0000      -1.079410       -29.3723
  13   2.0000      -0.926163       -25.2022
  14   2.0000      -0.919153       -25.0114
  15   2.0000      -0.840543       -22.8723
  16   2.0000      -0.816010       -22.2048
  17   2.0000      -0.770794       -20.9744
  18   2.0000      -0.701513       -19.0891
  19   2.0000      -0.687600       -18.7106
  20   2.0000      -0.657860       -17.9013
  21   2.0000      -0.641775       -17.4636
  22   2.0000      -0.629044       -17.1172
  23   2.0000      -0.591717       -16.1014
  24   2.0000      -0.587895       -15.9974
  25   2.0000      -0.566686       -15.4203
  26   2.0000      -0.554541       -15.0898
  27   2.0000      -0.539765       -14.6878
  28   2.0000      -0.521711       -14.1965
  29   2.0000      -0.508232       -13.8297
  30   2.0000      -0.475550       -12.9404
  31   2.0000      -0.430218       -11.7068
  32   2.0000      -0.425771       -11.5858
  33   2.0000      -0.410962       -11.1828
  34   0.0000       0.116215         3.1624
  35   0.0000       0.125179         3.4063
  36   0.0000       0.132202         3.5974
  37   0.0000       0.140673         3.8279
  38   0.0000       0.155652         4.2355

MULLIKEN ATOMIC CHARGES
-----------------------
   0 C :   -0.416865
   1 C :    0.004988
   2 C :    0.103427
   3 O :   -0.251718
   4 C :   -0.165602
   5 C :   -0.283927
   6 C :   -0.031643
   7 C :    0.061292
   8 O :   -0.265050
   9 H :    0.147372
  10 H :    0.131305
  11 H :    0.153765
  12 H :    0.089771
  13 H :    0.073517
  14 H :    0.136649
  15 H :    0.150619
  16 H :    0.142583
  17 H :    0.139525
  18 H :    0.079991
Sum of atomic charges:    0.0000000

LOEWDIN ATOMIC CHARGES
----------------------
   0 C :   -0.276664
   1 C :   -0.265504
   2 C :   -0.268417
   3 O :    0.144299
   4 C :   -0.178303
   5 C :   -0.184475
   6 C :   -0.188719
   7 C :   -0.290090
   8 O :    0.132637
   9 H :    0.130847
  10 H :    0.127264
  11 H :    0.129930
  12 H :    0.159428
  13 H :    0.114236
  14 H :    0.159192
  15 H :    0.138858
  16 H :    0.142379
  17 H :    0.157364
  18 H :    0.115739

  Mayer bond orders larger than 0.1
B(  0-C ,  1-C ) :   0.9067 B(  0-C ,  9-H ) :   0.9340 B(  0-C , 10-H ) :   0.9255
B(  0-C , 11-H ) :   0.9377 B(  1-C ,  2-C ) :   0.8600 B(  1-C ,  4-C ) :   0.9141
B(  1-C , 12-H ) :   0.9014 B(  2-C ,  3-O ) :   1.9987 B(  2-C , 13-H ) :   0.9250
B(  4-C ,  5-C ) :   0.9001 B(  4-C ,  6-C ) :   0.8047 B(  4-C , 14-H ) :   0.9091
B(  5-C ,  6-C ) :   0.8373 B(  5-C , 15-H ) :   0.9253 B(  5-C , 16-H ) :   0.9204
B(  6-C ,  7-C ) :   0.8901 B(  6-C , 17-H ) :   0.9186 B(  7-C ,  8-O ) :   1.9872
B(  7-C , 18-H ) :   0.9549

MP2 TOTAL ENERGY:     -422.318659604 Eh
FINAL SINGLE POINT ENERGY      -422.318659603842

DIPOLE MOMENT
-------------
                                X             Y             Z
Electronic contribution:     -4.44112      -7.47496       0.79552
Nuclear contribution   :      5.59375       9.12113      -1.34814
                        -----------------------------------------
Total Dipole Moment    :      1.15263       1.64617      -0.55262
                        -----------------------------------------
Magnitude (a.u.)       :      2.08418
Magnitude (Debye)      :      5.29757

                             ****ORCA TERMINATED NORMALLY****
TOTAL RUN TIME: 0 days 0 hours 17 minutes 24 seconds 609 msec
