                         Program Version 3.0.3 - RELEASE   -
|  1> ! RI-MP2 RIJK def2-TZVP def2-TZVP/C def2-TZVP/JK TIGHTSCF
|  2> % maxcore 2000
|  3> % mp2 density relaxed end
|  4> *xyz 0 1
|  5>  O       -0.0249798497    -0.0116044641    -0.2633539397
|  6>  C        0.0090402702     1.1572272552     0.0042158347
|  7>  O       -1.1326969772     1.8239795258     0.3497479160
|  8>  C       -1.0042515922     3.1961715419     0.6689902814
|  9>  C        0.0067486304     4.0523342720    -0.0567610909
| 10>  C        1.0036696940     3.2544375970    -0.8779714423
| 11>  C        1.2411225266     2.0466917554     0.0530287260
| 12>  N        1.3268875844     2.6864783112     1.3858668391
| 13>  C        0.2462934386     3.6521831736     1.3866244634
| 14>  H       -1.9744130155     3.6063524762     0.9194613892
| 15>  H       -0.2580261565     5.0631936245    -0.3403011303
| 16>  H        0.6308471921     2.9517170733    -1.8601076208
| 17>  H        1.9326254447     3.8163477266    -1.0102020016
| 18>  H        2.1285323617     1.4570666780    -0.1744848480
| 19>  H        1.2196212663     1.9990385230     2.1280791934
| 20>  H        0.2061321221     4.3404484004     2.2221195405
| 21> *
| 22>
| 23>                          ****END OF INPUT****

CARTESIAN COORDINATES (ANGSTROEM)
---------------------------------
  O     -0.024980   -0.011604   -0.263354
  C      0.009040    1.157227    0.004216
  O     -1.132697    1.823980    0.349748
  C     -1.004252    3.196172    0.668990
  C      0.006749    4.052334   -0.056761
  C      1.003670    3.254438   -0.877971
  C      1.241123    2.046692    0.053029
  N      1.326888    2.686478    1.385867
  C      0.246293    3.652183    1.386624
  H     -1.974413    3.606352    0.919461
  H     -0.258026    5.063194   -0.340301
  H      0.630847    2.951717   -1.860108
  H      1.932625    3.816348   -1.010202
  H      2.128532    1.457067   -0.174485
  H      1.219621    1.999039    2.128079
  H      0.206132    4.340448    2.222120

 Total Charge           Charge          ....    0
 Multiplicity           Mult            ....    1
 Number of Electrons    NEL             ....   66
 Basis Dimension        Dim             ....  321

ORBITAL ENERGIES
----------------

  NO   OCC          E(Eh)            E(eV)
   0   2.0000     -20.607803      -560.7668
   1   2.0000     -20.543048      -559.0048
   2   2.0000     -15.578981      -423.9256
   3   2.0000     -11.378428      -309.6228
   4   2.0000     -11.307972      -307.7056
   5   2.0000     -11.288560      -307.1773
   6   2.0000     -11.280487      -306.9577
   7   2.0000     -11.255488      -306.2774
   8   2.0000     -11.254692      -306.2557
   9   2.0000      -1.463366       -39.8202
  10   2.0000      -1.370006       -37.2797
  11   2.0000      -1.270734       -34.5784
  12   2.0000      -1.121767       -30.5248
  13   2.0000      -1.050920       -28.5970
  14   2.0000      -0.905836       -24.6491
  15   2.0000      -0.885409       -24.0932
  16   2.0000      -0.804080       -21.8801
  17   2.0000      -0.749393       -20.3920
  18   2.0000      -0.743751       -20.2385
  19   2.0000      -0.699892       -19.0450
  20   2.0000      -0.665865       -18.1191
  21   2.0000      -0.661379       -17.9970
  22   2.0000      -0.632380       -17.2079
  23   2.0000      -0.590322       -16.0635
  24   2.0000      -0.565694       -15.3933
  25   2.0000      -0.559581       -15.2270
  26   2.0000      -0.544859       -14.8264
  27   2.0000      -0.528725       -14.3873
  28   2.0000      -0.504886       -13.7387
  29   2.0000      -0.491504       -13.3745
  30   2.0000      -0.448396       -12.2015
  31   2.0000      -0.412852       -11.2343
  32   2.0000      -0.370469       -10.0810
  33   0.0000       0.129129         3.5138
  34   0.0000       0.148243         4.0339
  35   0.0000       0.154223         4.1966
  36   0.0000       0.174488         4.7481
  37   0.0000       0.181467         4.9380

MULLIKEN ATOMIC CHARGES
-----------------------
   0 O :   -0.277362
   1 C :    0.148090
   2 O :   -0.205357
   3 C :    0.043161
   4 C :   -0.178190
   5 C :   -0.237798
   6 C :    0.054593
   7 N :   -0.326610
   8 C :   -0.092257
   9 H :    0.140340
  10 H :    0.143795
  11 H :    0.143748
  12 H :    0.131995
  13 H :    0.146765
  14 H :    0.225013
  15 H :    0.140074
Sum of atomic charges:   -0.0000000

LOEWDIN ATOMIC CHARGES
----------------------
   0 O :    0.137315
   1 C :   -0.455970
   2 O :    0.289792
   3 C :   -0.239143
   4 C :   -0.182072
   5 C :   -0.193958
   6 C :   -0.247085
   7 N :    0.053925
   8 C :   -0.236761
   9 H :    0.146382
  10 H :    0.148899
  11 H :    0.148875
  12 H :    0.150573
  13 H :    0.157549
  14 H :    0.178889
  15 H :    0.142790

  Mayer bond orders larger than 0.1
B(  0-O ,  1-C ) :   2.0416 B(  1-C ,  2-O ) :   1.1252 B(  1-C ,  6-C ) :   0.9544
B(  2-O ,  3-C ) :   0.9097 B(  3-C ,  4-C ) :   0.8628 B(  3-C ,  8-C ) :   0.8781
B(  3-C ,  9-H ) :   0.9387 B(  4-C ,  5-C ) :   0.9613 B(  4-C ,  8-C ) :   0.8613
B(  4-C , 10-H ) :   0.9149 B(  5-C ,  6-C ) :   0.8981 B(  5-C , 11-H ) :   0.9272
B(  5-C , 12-H ) :   0.9050 B(  6-C ,  7-N ) :   0.9349 B(  6-C , 13-H ) :   0.9005
B(  7-N ,  8-C ) :   1.0117 B(  7-N , 14-H ) :   0.8751 B(  8-C , 15-H ) :   0.9243

MP2 TOTAL ENERGY:     -437.192610103 Eh
FINAL SINGLE POINT ENERGY      -437.192610103252

DIPOLE MOMENT
-------------
                                X             Y             Z
Electronic contribution:     -2.26742      -4.59226       0.43556
Nuclear contribution   :      2.47297       6.08662      -0.16712
                        -----------------------------------------
Total Dipole Moment    :      0.20555       1.49436       0.26845
                        -----------------------------------------
Magnitude (a.u.)       :      1.53213
Magnitude (Debye)      :      3.89436

                             ****ORCA TERMINATED NORMALLY****
TOTAL RUN TIME: 0 days 0 hours 18 minutes 12 seconds 217 msec
