                         Program Version 3.0.3 - RELEASE   -
|  1> ! RI-MP2 RIJK def2-TZVP def2-TZVP/C def2-TZVP/JK TIGHTSCF
|  2> % maxcore 2000
|  3> % mp2 density relaxed end
|  4> *xyz 0 1
|  5>  C       -0.0474132801     1.4913371799     0.1812164752
|  6>  C        1.3281979169     2.0850212667     0.0044070910
|  7>  C        1.8591309347     2.3788033018    -1.1822135704
|  8>  C        1.1498370405     2.1537487081    -2.4945747664
|  9>  C        1.3069952789     0.7201471311    -2.9690329839
| 10>  C        0.9859604597    -0.4248932024    -2.3409799545
| 11>  C        0.4024247845    -0.7476768921    -1.0371401476
| 12>  C       -0.0250898313    -0.0167781306     0.0076821275
| 13>  H       -0.4280131664     1.7237215071     1.1800274609
| 14>  H       -0.7590430941     1.9345694500    -0.5245265788
| 15>  H        1.9289727419     2.2014168060     0.9032236111
| 16>  H        2.8863729039     2.7311834991    -1.2365481982
| 17>  H        0.0855778603     2.4017724396    -2.4122473181
| 18>  H        1.5577016237     2.8224566061    -3.2580911606
| 19>  H        1.7536080942     0.6087872492    -3.9548720585
| 20>  H        1.2063596856    -1.3240547214    -2.9143868630
| 21>  H        0.3038443045    -1.8232267224    -0.8980842120
| 22>  H       -0.4002206075    -0.5826890858     0.8578372062
| 23> *
| 24>
| 25>                          ****END OF INPUT****

CARTESIAN COORDINATES (ANGSTROEM)
---------------------------------
  C     -0.047413    1.491337    0.181216
  C      1.328198    2.085021    0.004407
  C      1.859131    2.378803   -1.182214
  C      1.149837    2.153749   -2.494575
  C      1.306995    0.720147   -2.969033
  C      0.985960   -0.424893   -2.340980
  C      0.402425   -0.747677   -1.037140
  C     -0.025090   -0.016778    0.007682
  H     -0.428013    1.723722    1.180027
  H     -0.759043    1.934569   -0.524527
  H      1.928973    2.201417    0.903224
  H      2.886373    2.731183   -1.236548
  H      0.085578    2.401772   -2.412247
  H      1.557702    2.822457   -3.258091
  H      1.753608    0.608787   -3.954872
  H      1.206360   -1.324055   -2.914387
  H      0.303844   -1.823227   -0.898084
  H     -0.400221   -0.582689    0.857837

 Total Charge           Charge          ....    0
 Multiplicity           Mult            ....    1
 Number of Electrons    NEL             ....   58
 Basis Dimension        Dim             ....  308

ORBITAL ENERGIES
----------------

  NO   OCC          E(Eh)            E(eV)
   0   2.0000     -11.234683      -305.7113
   1   2.0000     -11.234682      -305.7112
   2   2.0000     -11.231008      -305.6113
   3   2.0000     -11.231004      -305.6112
   4   2.0000     -11.228136      -305.5331
   5   2.0000     -11.227339      -305.5114
   6   2.0000     -11.224910      -305.4453
   7   2.0000     -11.223192      -305.3986
   8   2.0000      -1.118666       -30.4405
   9   2.0000      -1.052908       -28.6511
  10   2.0000      -1.050681       -28.5905
  11   2.0000      -0.930669       -25.3248
  12   2.0000      -0.922940       -25.1145
  13   2.0000      -0.794925       -21.6310
  14   2.0000      -0.743347       -20.2275
  15   2.0000      -0.684995       -18.6397
  16   2.0000      -0.665536       -18.1101
  17   2.0000      -0.638500       -17.3745
  18   2.0000      -0.608468       -16.5572
  19   2.0000      -0.592045       -16.1104
  20   2.0000      -0.587230       -15.9793
  21   2.0000      -0.517936       -14.0937
  22   2.0000      -0.514947       -14.0124
  23   2.0000      -0.501269       -13.6402
  24   2.0000      -0.478597       -13.0233
  25   2.0000      -0.477492       -12.9932
  26   2.0000      -0.425323       -11.5736
  27   2.0000      -0.344680        -9.3792
  28   2.0000      -0.306249        -8.3335
  29   0.0000       0.098618         2.6835
  30   0.0000       0.142667         3.8822
  31   0.0000       0.151581         4.1247
  32   0.0000       0.166910         4.5419
  33   0.0000       0.171042         4.6543

MULLIKEN ATOMIC CHARGES
-----------------------
   0 C :   -0.155341
   1 C :   -0.146741
   2 C :   -0.146744
   3 C :   -0.155331
   4 C :   -0.161231
   5 C :   -0.150068
   6 C :   -0.150103
   7 C :   -0.161215
   8 H :    0.133842
   9 H :    0.121155
  10 H :    0.121346
  11 H :    0.121345
  12 H :    0.121155
  13 H :    0.133839
  14 H :    0.120006
  15 H :    0.117041
  16 H :    0.117039
  17 H :    0.120006
Sum of atomic charges:    0.0000000

LOEWDIN ATOMIC CHARGES
----------------------
   0 C :   -0.244905
   1 C :   -0.166598
   2 C :   -0.166595
   3 C :   -0.244900
   4 C :   -0.149737
   5 C :   -0.172868
   6 C :   -0.172868
   7 C :   -0.149738
   8 H :    0.144829
   9 H :    0.149026
  10 H :    0.142389
  11 H :    0.142389
  12 H :    0.149025
  13 H :    0.144828
  14 H :    0.144394
  15 H :    0.153466
  16 H :    0.153467
  17 H :    0.144394

  Mayer bond orders larger than 0.1
B(  0-C ,  1-C ) :   0.9128 B(  0-C ,  7-C ) :   0.9068 B(  0-C ,  8-H ) :   0.9389
B(  0-C ,  9-H ) :   0.9185 B(  1-C ,  2-C ) :   1.7986 B(  1-C , 10-H ) :   0.9224
B(  2-C ,  3-C ) :   0.9128 B(  2-C , 11-H ) :   0.9224 B(  3-C ,  4-C ) :   0.9068
B(  3-C , 12-H ) :   0.9185 B(  3-C , 13-H ) :   0.9389 B(  4-C ,  5-C ) :   1.7393
B(  4-C , 14-H ) :   0.9245 B(  5-C ,  6-C ) :   1.0261 B(  5-C , 15-H ) :   0.9251
B(  6-C ,  7-C ) :   1.7392 B(  6-C , 16-H ) :   0.9251 B(  7-C , 17-H ) :   0.9245

MP2 TOTAL ENERGY:     -310.070296782 Eh
FINAL SINGLE POINT ENERGY      -310.070296782329

DIPOLE MOMENT
-------------
                                X             Y             Z
Electronic contribution:      0.44171      -0.90285      -0.02596
Nuclear contribution   :     -0.47965       0.97163       0.02601
                        -----------------------------------------
Total Dipole Moment    :     -0.03795       0.06878       0.00005
                        -----------------------------------------
Magnitude (a.u.)       :      0.07855
Magnitude (Debye)      :      0.19965

                             ****ORCA TERMINATED NORMALLY****
TOTAL RUN TIME: 0 days 0 hours 12 minutes 11 seconds 887 msec
