                         Program Version 3.0.3 - RELEASE   -
|  1> ! RI-MP2 RIJK def2-TZVP def2-TZVP/C def2-TZVP/JK TIGHTSCF
|  2> % maxcore 2000
|  3> % mp2 density relaxed end
|  4> *xyz 0 1
|  5>  C       -0.3206188201     1.3842059608    -0.6335467171
|  6>  O       -0.3539898881    -0.0457291369    -0.5493712816
|  7>  C       -0.9798566007    -0.5464959784     0.5372437685
|  8>  O       -1.4636091272     0.1450789587     1.4014231593
|  9>  C       -1.0300786926    -2.0529262031     0.4857045025
| 10>  C       -1.3774179616    -2.8163881197     1.8029219285
| 11>  C       -2.6155470719    -3.4131025731     1.1180071521
| 12>  C       -3.5245887306    -2.3156357756     0.6441230566
| 13>  C       -2.3012051294    -2.6481713591    -0.1669381982
| 14>  H        0.2139627203     1.6157294330    -1.5549916820
| 15>  H       -1.3338677779     1.7930364969    -0.6660260866
| 16>  H        0.1997146904     1.8098902970     0.2282260505
| 17>  H       -0.1260195448    -2.4311715116     0.0064667682
| 18>  H       -0.6145363582    -3.5571461872     2.0502944084
| 19>  H       -1.5679240525    -2.1865677489     2.6750960415
| 20>  H       -2.9568042883    -4.4350134157     1.2259825951
| 21>  H       -4.4592283789    -2.6465180236     0.2027133634
| 22>  H       -3.5875791492    -1.3780095838     1.1888615660
| 23>  H       -2.3603627585    -2.9697367099    -1.1992214750
| 24> *
| 25>
| 26>                          ****END OF INPUT****

CARTESIAN COORDINATES (ANGSTROEM)
---------------------------------
  C     -0.320619    1.384206   -0.633547
  O     -0.353990   -0.045729   -0.549371
  C     -0.979857   -0.546496    0.537244
  O     -1.463609    0.145079    1.401423
  C     -1.030079   -2.052926    0.485705
  C     -1.377418   -2.816388    1.802922
  C     -2.615547   -3.413103    1.118007
  C     -3.524589   -2.315636    0.644123
  C     -2.301205   -2.648171   -0.166938
  H      0.213963    1.615729   -1.554992
  H     -1.333868    1.793036   -0.666026
  H      0.199715    1.809890    0.228226
  H     -0.126020   -2.431172    0.006467
  H     -0.614536   -3.557146    2.050294
  H     -1.567924   -2.186568    2.675096
  H     -2.956804   -4.435013    1.225983
  H     -4.459228   -2.646518    0.202713
  H     -3.587579   -1.378010    1.188862
  H     -2.360363   -2.969737   -1.199221

 Total Charge           Charge          ....    0
 Multiplicity           Mult            ....    1
 Number of Electrons    NEL             ....   68
 Basis Dimension        Dim             ....  339

ORBITAL ENERGIES
----------------

  NO   OCC          E(Eh)            E(eV)
   0   2.0000     -20.599019      -560.5278
   1   2.0000     -20.537836      -558.8629
   2   2.0000     -11.371119      -309.4239
   3   2.0000     -11.282371      -307.0089
   4   2.0000     -11.247366      -306.0564
   5   2.0000     -11.242035      -305.9113
   6   2.0000     -11.236093      -305.7496
   7   2.0000     -11.230102      -305.5866
   8   2.0000     -11.226855      -305.4982
   9   2.0000      -1.455456       -39.6050
  10   2.0000      -1.354302       -36.8524
  11   2.0000      -1.195175       -32.5224
  12   2.0000      -1.021419       -27.7942
  13   2.0000      -0.967729       -26.3332
  14   2.0000      -0.905062       -24.6280
  15   2.0000      -0.817853       -22.2549
  16   2.0000      -0.779625       -21.2147
  17   2.0000      -0.738327       -20.0909
  18   2.0000      -0.701810       -19.0972
  19   2.0000      -0.685871       -18.6635
  20   2.0000      -0.669962       -18.2306
  21   2.0000      -0.660636       -17.9768
  22   2.0000      -0.608602       -16.5609
  23   2.0000      -0.598138       -16.2762
  24   2.0000      -0.554091       -15.0776
  25   2.0000      -0.542111       -14.7516
  26   2.0000      -0.537313       -14.6210
  27   2.0000      -0.524646       -14.2763
  28   2.0000      -0.479981       -13.0610
  29   2.0000      -0.475591       -12.9415
  30   2.0000      -0.459820       -12.5123
  31   2.0000      -0.447755       -12.1840
  32   2.0000      -0.413407       -11.2494
  33   2.0000      -0.381260       -10.3746
  34   0.0000       0.146763         3.9936
  35   0.0000       0.156147         4.2490
  36   0.0000       0.158679         4.3179
  37   0.0000       0.174797         4.7565
  38   0.0000       0.181804         4.9471

MULLIKEN ATOMIC CHARGES
-----------------------
   0 C :   -0.222424
   1 O :   -0.258892
   2 C :    0.292049
   3 O :   -0.344338
   4 C :   -0.052448
   5 C :   -0.222018
   6 C :   -0.115604
   7 C :   -0.283044
   8 C :   -0.149909
   9 H :    0.143288
  10 H :    0.138333
  11 H :    0.139605
  12 H :    0.124323
  13 H :    0.122751
  14 H :    0.133819
  15 H :    0.130554
  16 H :    0.131153
  17 H :    0.158262
  18 H :    0.134541
Sum of atomic charges:    0.0000000

LOEWDIN ATOMIC CHARGES
----------------------
   0 C :   -0.312447
   1 O :    0.227919
   2 C :   -0.459147
   3 O :    0.120718
   4 C :   -0.174041
   5 C :   -0.181799
   6 C :   -0.182144
   7 C :   -0.204590
   8 C :   -0.157259
   9 H :    0.113990
  10 H :    0.113457
  11 H :    0.113568
  12 H :    0.161221
  13 H :    0.135609
  14 H :    0.137456
  15 H :    0.133442
  16 H :    0.140327
  17 H :    0.138493
  18 H :    0.135227

  Mayer bond orders larger than 0.1
B(  0-C ,  1-O ) :   0.8421 B(  0-C ,  9-H ) :   0.9341 B(  0-C , 10-H ) :   0.9376
B(  0-C , 11-H ) :   0.9402 B(  1-O ,  2-C ) :   1.1232 B(  2-C ,  3-O ) :   1.8959
B(  2-C ,  4-C ) :   0.9162 B(  4-C ,  5-C ) :   0.9658 B(  4-C ,  8-C ) :   0.8954
B(  4-C , 12-H ) :   0.9203 B(  5-C ,  6-C ) :   0.9510 B(  5-C , 13-H ) :   0.9321
B(  5-C , 14-H ) :   0.9070 B(  6-C ,  7-C ) :   0.8860 B(  6-C ,  8-C ) :   0.8327
B(  6-C , 15-H ) :   0.9271 B(  7-C ,  8-C ) :   0.8998 B(  7-C , 16-H ) :   0.9329
B(  7-C , 17-H ) :   0.9114 B(  8-C , 18-H ) :   0.9237

MP2 TOTAL ENERGY:     -422.316986975 Eh
FINAL SINGLE POINT ENERGY      -422.316986974754

DIPOLE MOMENT
-------------
                                X             Y             Z
Electronic contribution:      1.50619       1.16165       0.25602
Nuclear contribution   :     -1.29034      -1.41299      -0.81037
                        -----------------------------------------
Total Dipole Moment    :      0.21585      -0.25134      -0.55436
                        -----------------------------------------
Magnitude (a.u.)       :      0.64581
Magnitude (Debye)      :      1.64153

                             ****ORCA TERMINATED NORMALLY****
TOTAL RUN TIME: 0 days 0 hours 17 minutes 4 seconds 433 msec
