                         Program Version 3.0.3 - RELEASE   -
|  1> ! RI-MP2 RIJK def2-TZVP def2-TZVP/C def2-TZVP/JK TIGHTSCF
|  2> % maxcore 2000
|  3> % mp2 density relaxed end
|  4> *xyz 0 1
|  5>  C       -0.2099815372     1.5843683613    -0.1502011138
|  6>  C       -0.0266379993     0.0653257574    -0.0599559685
|  7>  C        0.8471723846    -0.5354326460    -1.1799422679
|  8>  C        2.3166919361    -0.1005157459    -1.0646849777
|  9>  C        0.7039775218    -2.0681164992    -1.2640165919
| 10>  C        1.1789609009    -2.8196083747    -0.0186885441
| 11>  C       -0.6728843956    -2.5756563221    -1.7733346583
| 12>  O       -0.0630958474    -3.2853676788    -2.8684225583
| 13>  C        1.2255491916    -2.7103653373    -2.5787403821
| 14>  H        0.7398668552     2.1183947985    -0.0496341420
| 15>  H       -0.6527935075     1.8724097350    -1.1102919246
| 16>  H       -0.8731915345     1.9452996217     0.6421369883
| 17>  H        0.4043733394    -0.1889146903     0.9166323139
| 18>  H       -1.0165594783    -0.4085795196    -0.0872791007
| 19>  H        0.4627533805    -0.1434939644    -2.1336944687
| 20>  H        2.7422888215    -0.3780357937    -0.0943517381
| 21>  H        2.9322596681    -0.5625824790    -1.8438493822
| 22>  H        2.4196417544     0.9828734363    -1.1710019927
| 23>  H        0.6174105678    -2.5214693251     0.8723403123
| 24>  H        1.0399298083    -3.8972108230    -0.1526881966
| 25>  H        2.2416959803    -2.6466550921     0.1788869976
| 26>  H       -1.2264772240    -3.2470506834    -1.1053294335
| 27>  H       -1.3513671992    -1.7864249936    -2.1269925302
| 28>  H        1.5336444855    -1.9913990841    -3.3510764771
| 29>  H        2.0042551268    -3.4762253179    -2.4754132933
| 30> *
| 31>
| 32>                          ****END OF INPUT****

CARTESIAN COORDINATES (ANGSTROEM)
---------------------------------
  C     -0.209982    1.584368   -0.150201
  C     -0.026638    0.065326   -0.059956
  C      0.847172   -0.535433   -1.179942
  C      2.316692   -0.100516   -1.064685
  C      0.703978   -2.068116   -1.264017
  C      1.178961   -2.819608   -0.018689
  C     -0.672884   -2.575656   -1.773335
  O     -0.063096   -3.285368   -2.868423
  C      1.225549   -2.710365   -2.578740
  H      0.739867    2.118395   -0.049634
  H     -0.652794    1.872410   -1.110292
  H     -0.873192    1.945300    0.642137
  H      0.404373   -0.188915    0.916632
  H     -1.016559   -0.408580   -0.087279
  H      0.462753   -0.143494   -2.133694
  H      2.742289   -0.378036   -0.094352
  H      2.932260   -0.562582   -1.843849
  H      2.419642    0.982873   -1.171002
  H      0.617411   -2.521469    0.872340
  H      1.039930   -3.897211   -0.152688
  H      2.241696   -2.646655    0.178887
  H     -1.226477   -3.247051   -1.105329
  H     -1.351367   -1.786425   -2.126993
  H      1.533644   -1.991399   -3.351076
  H      2.004255   -3.476225   -2.475413

 Total Charge           Charge          ....    0
 Multiplicity           Mult            ....    1
 Number of Electrons    NEL             ....   72
 Basis Dimension        Dim             ....  375

ORBITAL ENERGIES
----------------

  NO   OCC          E(Eh)            E(eV)
   0   2.0000     -20.542248      -558.9830
   1   2.0000     -11.270643      -306.6898
   2   2.0000     -11.270639      -306.6897
   3   2.0000     -11.237353      -305.7839
   4   2.0000     -11.231099      -305.6137
   5   2.0000     -11.223458      -305.4058
   6   2.0000     -11.218144      -305.2612
   7   2.0000     -11.216869      -305.2265
   8   2.0000     -11.216376      -305.2131
   9   2.0000      -1.372554       -37.3491
  10   2.0000      -1.109163       -30.1819
  11   2.0000      -1.030832       -28.0504
  12   2.0000      -0.976387       -26.5688
  13   2.0000      -0.930258       -25.3136
  14   2.0000      -0.913221       -24.8500
  15   2.0000      -0.873381       -23.7659
  16   2.0000      -0.792873       -21.5752
  17   2.0000      -0.726427       -19.7671
  18   2.0000      -0.669314       -18.2129
  19   2.0000      -0.658706       -17.9243
  20   2.0000      -0.627233       -17.0679
  21   2.0000      -0.617391       -16.8001
  22   2.0000      -0.588840       -16.0232
  23   2.0000      -0.571145       -15.5416
  24   2.0000      -0.567670       -15.4471
  25   2.0000      -0.546445       -14.8695
  26   2.0000      -0.540890       -14.7184
  27   2.0000      -0.533542       -14.5184
  28   2.0000      -0.527191       -14.3456
  29   2.0000      -0.510573       -13.8934
  30   2.0000      -0.488188       -13.2843
  31   2.0000      -0.474378       -12.9085
  32   2.0000      -0.456546       -12.4232
  33   2.0000      -0.430041       -11.7020
  34   2.0000      -0.423427       -11.5220
  35   2.0000      -0.408543       -11.1170
  36   0.0000       0.126678         3.4471
  37   0.0000       0.152384         4.1466
  38   0.0000       0.159086         4.3289
  39   0.0000       0.160768         4.3747
  40   0.0000       0.185460         5.0466

MULLIKEN ATOMIC CHARGES
-----------------------
   0 C :   -0.408464
   1 C :   -0.222681
   2 C :   -0.078333
   3 C :   -0.446773
   4 C :    0.170690
   5 C :   -0.494190
   6 C :   -0.056224
   7 O :   -0.327761
   8 C :   -0.057292
   9 H :    0.128108
  10 H :    0.126002
  11 H :    0.136634
  12 H :    0.114010
  13 H :    0.114832
  14 H :    0.091094
  15 H :    0.130758
  16 H :    0.134483
  17 H :    0.140472
  18 H :    0.140665
  19 H :    0.151830
  20 H :    0.138782
  21 H :    0.098787
  22 H :    0.087858
  23 H :    0.088159
  24 H :    0.098552
Sum of atomic charges:   -0.0000000

LOEWDIN ATOMIC CHARGES
----------------------
   0 C :   -0.317400
   1 C :   -0.268021
   2 C :   -0.252348
   3 C :   -0.286790
   4 C :   -0.271361
   5 C :   -0.269952
   6 C :   -0.238440
   7 O :    0.113375
   8 C :   -0.236487
   9 H :    0.119546
  10 H :    0.121483
  11 H :    0.121794
  12 H :    0.137147
  13 H :    0.139943
  14 H :    0.157832
  15 H :    0.123824
  16 H :    0.125373
  17 H :    0.123665
  18 H :    0.126370
  19 H :    0.132385
  20 H :    0.126211
  21 H :    0.117942
  22 H :    0.117930
  23 H :    0.117971
  24 H :    0.118010

  Mayer bond orders larger than 0.1
B(  0-C ,  1-C ) :   0.9174 B(  0-C ,  9-H ) :   0.9418 B(  0-C , 10-H ) :   0.9399
B(  0-C , 11-H ) :   0.9427 B(  1-C ,  2-C ) :   0.9090 B(  1-C , 12-H ) :   0.9279
B(  1-C , 13-H ) :   0.9350 B(  2-C ,  3-C ) :   0.9042 B(  2-C ,  4-C ) :   0.8966
B(  2-C , 14-H ) :   0.9283 B(  3-C , 15-H ) :   0.9348 B(  3-C , 16-H ) :   0.9381
B(  3-C , 17-H ) :   0.9412 B(  4-C ,  5-C ) :   0.8847 B(  4-C ,  6-C ) :   0.9426
B(  4-C ,  8-C ) :   0.9407 B(  5-C , 18-H ) :   0.9348 B(  5-C , 19-H ) :   0.9350
B(  5-C , 20-H ) :   0.9351 B(  6-C ,  7-O ) :   0.9619 B(  6-C , 21-H ) :   0.9091
B(  6-C , 22-H ) :   0.8987 B(  7-O ,  8-C ) :   0.9629 B(  8-C , 23-H ) :   0.8982
B(  8-C , 24-H ) :   0.9090

MP2 TOTAL ENERGY:     -388.803505291 Eh
FINAL SINGLE POINT ENERGY      -388.803505290787

DIPOLE MOMENT
-------------
                                X             Y             Z
Electronic contribution:     -2.16557      -6.71891      -5.40140
Nuclear contribution   :      2.42386       7.25416       5.98663
                        -----------------------------------------
Total Dipole Moment    :      0.25829       0.53525       0.58523
                        -----------------------------------------
Magnitude (a.u.)       :      0.83409
Magnitude (Debye)      :      2.12009

                             ****ORCA TERMINATED NORMALLY****
TOTAL RUN TIME: 0 days 0 hours 21 minutes 58 seconds 646 msec
