                         Program Version 3.0.3 - RELEASE   -
|  1> ! RI-MP2 RIJK def2-TZVP def2-TZVP/C def2-TZVP/JK TIGHTSCF
|  2> % maxcore 2000
|  3> % mp2 density relaxed end
|  4> *xyz 0 1
|  5>  C        0.0288901983     1.5560009055    -0.0591248948
|  6>  C        0.0095333044     0.0495366413    -0.0727347569
|  7>  C        0.4240770576    -0.8253838058    -1.2691311616
|  8>  C       -0.3421451640    -1.9386910029    -0.5137623664
|  9>  C        0.5722648693    -2.1562560399     0.7159759838
| 10>  C        0.4021159013    -0.7239075526     1.2737576403
| 11>  C       -1.1098208619    -0.7315780308     1.5535186562
| 12>  O       -1.8033699839    -0.5039080202     2.5030235379
| 13>  C       -1.3220463723    -0.8304287905     0.0565625789
| 14>  H        1.0582809442     1.9328454835    -0.0535617860
| 15>  H       -0.4723047243     1.9677810567    -0.9412636152
| 16>  H       -0.4739954631     1.9521306003     0.8300457540
| 17>  H       -0.0901624475    -0.5027903617    -2.1791477156
| 18>  H        1.4872632059    -0.9813673901    -1.4830280475
| 19>  H       -0.7308507005    -2.8174726903    -1.0261225556
| 20>  H        0.2171576814    -2.9215344203     1.4130505006
| 21>  H        1.5987386614    -2.3982893061     0.4265814844
| 22>  H        1.1227777025    -0.3303302685     1.9874925626
| 23>  H       -2.2522490785    -0.6123170376    -0.4631955692
| 24> *
| 25>
| 26>                          ****END OF INPUT****

CARTESIAN COORDINATES (ANGSTROEM)
---------------------------------
  C      0.028890    1.556001   -0.059125
  C      0.009533    0.049537   -0.072735
  C      0.424077   -0.825384   -1.269131
  C     -0.342145   -1.938691   -0.513762
  C      0.572265   -2.156256    0.715976
  C      0.402116   -0.723908    1.273758
  C     -1.109821   -0.731578    1.553519
  O     -1.803370   -0.503908    2.503024
  C     -1.322046   -0.830429    0.056563
  H      1.058281    1.932845   -0.053562
  H     -0.472305    1.967781   -0.941264
  H     -0.473995    1.952131    0.830046
  H     -0.090162   -0.502790   -2.179148
  H      1.487263   -0.981367   -1.483028
  H     -0.730851   -2.817473   -1.026123
  H      0.217158   -2.921534    1.413051
  H      1.598739   -2.398289    0.426581
  H      1.122778   -0.330330    1.987493
  H     -2.252249   -0.612317   -0.463196

 Total Charge           Charge          ....    0
 Multiplicity           Mult            ....    1
 Number of Electrons    NEL             ....   66
 Basis Dimension        Dim             ....  339

ORBITAL ENERGIES
----------------

  NO   OCC          E(Eh)            E(eV)
   0   2.0000     -20.542548      -558.9911
   1   2.0000     -11.326035      -308.1971
   2   2.0000     -11.263034      -306.4827
   3   2.0000     -11.254103      -306.2397
   4   2.0000     -11.246047      -306.0205
   5   2.0000     -11.244890      -305.9890
   6   2.0000     -11.240537      -305.8706
   7   2.0000     -11.235727      -305.7397
   8   2.0000     -11.226797      -305.4967
   9   2.0000      -1.387033       -37.7431
  10   2.0000      -1.229981       -33.4695
  11   2.0000      -1.019308       -27.7368
  12   2.0000      -1.012676       -27.5563
  13   2.0000      -0.959982       -26.1224
  14   2.0000      -0.893176       -24.3045
  15   2.0000      -0.773070       -21.0363
  16   2.0000      -0.764946       -20.8152
  17   2.0000      -0.716106       -19.4862
  18   2.0000      -0.671544       -18.2736
  19   2.0000      -0.653398       -17.7799
  20   2.0000      -0.645555       -17.5664
  21   2.0000      -0.609371       -16.5818
  22   2.0000      -0.579677       -15.7738
  23   2.0000      -0.567794       -15.4504
  24   2.0000      -0.555360       -15.1121
  25   2.0000      -0.526998       -14.3404
  26   2.0000      -0.515360       -14.0237
  27   2.0000      -0.492205       -13.3936
  28   2.0000      -0.476219       -12.9586
  29   2.0000      -0.454146       -12.3579
  30   2.0000      -0.447114       -12.1666
  31   2.0000      -0.410984       -11.1834
  32   2.0000      -0.380820       -10.3627
  33   0.0000       0.126762         3.4494
  34   0.0000       0.138823         3.7776
  35   0.0000       0.165644         4.5074
  36   0.0000       0.171653         4.6709
  37   0.0000       0.179726         4.8906

MULLIKEN ATOMIC CHARGES
-----------------------
   0 C :   -0.427270
   1 C :    0.011240
   2 C :   -0.241194
   3 C :   -0.054505
   4 C :   -0.282606
   5 C :   -0.023570
   6 C :    0.066202
   7 O :   -0.255675
   8 C :   -0.118687
   9 H :    0.137633
  10 H :    0.134485
  11 H :    0.152639
  12 H :    0.119014
  13 H :    0.115600
  14 H :    0.138579
  15 H :    0.134585
  16 H :    0.123941
  17 H :    0.136073
  18 H :    0.133515
Sum of atomic charges:   -0.0000000

LOEWDIN ATOMIC CHARGES
----------------------
   0 C :   -0.271053
   1 C :   -0.185673
   2 C :   -0.183462
   3 C :   -0.169599
   4 C :   -0.194911
   5 C :   -0.127130
   6 C :   -0.294402
   7 O :    0.155895
   8 C :   -0.089167
   9 H :    0.131351
  10 H :    0.129227
  11 H :    0.136444
  12 H :    0.142322
  13 H :    0.126443
  14 H :    0.134292
  15 H :    0.140251
  16 H :    0.137275
  17 H :    0.140382
  18 H :    0.141515

  Mayer bond orders larger than 0.1
B(  0-C ,  1-C ) :   0.8940 B(  0-C ,  9-H ) :   0.9373 B(  0-C , 10-H ) :   0.9363
B(  0-C , 11-H ) :   0.9328 B(  1-C ,  2-C ) :   0.9172 B(  1-C ,  5-C ) :   0.8546
B(  1-C ,  8-C ) :   0.8321 B(  2-C ,  3-C ) :   0.8973 B(  2-C , 12-H ) :   0.9180
B(  2-C , 13-H ) :   0.9186 B(  3-C ,  4-C ) :   0.9200 B(  3-C ,  8-C ) :   0.8462
B(  3-C , 14-H ) :   0.9110 B(  4-C ,  5-C ) :   0.8871 B(  4-C , 15-H ) :   0.9308
B(  4-C , 16-H ) :   0.9201 B(  5-C ,  6-C ) :   0.8566 B(  5-C ,  8-C ) :  -0.1195
B(  5-C , 17-H ) :   0.9009 B(  6-C ,  7-O ) :   2.0539 B(  6-C ,  8-C ) :   0.8788
B(  8-C , 18-H ) :   0.9028

MP2 TOTAL ENERGY:     -385.206898423 Eh
FINAL SINGLE POINT ENERGY      -385.206898423261

DIPOLE MOMENT
-------------
                                X             Y             Z
Electronic contribution:     -3.95302      -1.83640       4.83674
Nuclear contribution   :      4.68834       1.73197      -5.88148
                        -----------------------------------------
Total Dipole Moment    :      0.73533      -0.10443      -1.04475
                        -----------------------------------------
Magnitude (a.u.)       :      1.28184
Magnitude (Debye)      :      3.25817

                             ****ORCA TERMINATED NORMALLY****
TOTAL RUN TIME: 0 days 0 hours 21 minutes 12 seconds 478 msec
