                         Program Version 3.0.3 - RELEASE   -
|  1> ! RI-MP2 RIJK def2-TZVP def2-TZVP/C def2-TZVP/JK TIGHTSCF
|  2> % maxcore 2000
|  3> % mp2 density relaxed end
|  4> *xyz 0 1
|  5>  N       -0.1091159275     1.2576113170     0.0236907739
|  6>  C       -0.0629266479    -0.0013186326    -0.0016107255
|  7>  C       -1.2041577296    -1.0020192755    -0.0249702733
|  8>  C       -0.6904396498    -2.0523481605     1.0237864080
|  9>  C        0.4229951688    -2.2290779716    -0.0453485147
| 10>  C       -0.6845982130    -2.0091271548    -1.1125329770
| 11>  N        1.0551649733    -0.8936759281    -0.0165863950
| 12>  C        2.3806154274    -0.5864014011    -0.0070079853
| 13>  O        2.8304487996     0.5408607600     0.0168894097
| 14>  H        0.8372247784     1.6435575591     0.0340648810
| 15>  H       -2.2074756712    -0.5865431807    -0.0193096981
| 16>  H       -0.3909840434    -1.6946059455     2.0109028249
| 17>  H       -1.3491346680    -2.9187475227     1.1006416131
| 18>  H        1.1401455328    -3.0482465119    -0.0599567251
| 19>  H       -1.3427688101    -2.8716351490    -1.2279713450
| 20>  H       -0.3797936479    -1.6117812753    -2.0827202178
| 21>  H        3.0188823483    -1.4918201868    -0.0237068936
| 22> *
| 23>
| 24>                          ****END OF INPUT****

CARTESIAN COORDINATES (ANGSTROEM)
---------------------------------
  N     -0.109116    1.257611    0.023691
  C     -0.062927   -0.001319   -0.001611
  C     -1.204158   -1.002019   -0.024970
  C     -0.690440   -2.052348    1.023786
  C      0.422995   -2.229078   -0.045349
  C     -0.684598   -2.009127   -1.112533
  N      1.055165   -0.893676   -0.016586
  C      2.380615   -0.586401   -0.007008
  O      2.830449    0.540861    0.016889
  H      0.837225    1.643558    0.034065
  H     -2.207476   -0.586543   -0.019310
  H     -0.390984   -1.694606    2.010903
  H     -1.349135   -2.918748    1.100642
  H      1.140146   -3.048247   -0.059957
  H     -1.342769   -2.871635   -1.227971
  H     -0.379794   -1.611781   -2.082720
  H      3.018882   -1.491820   -0.023707

 Total Charge           Charge          ....    0
 Multiplicity           Mult            ....    1
 Number of Electrons    NEL             ....   66
 Basis Dimension        Dim             ....  327

ORBITAL ENERGIES
----------------

  NO   OCC          E(Eh)            E(eV)
   0   2.0000     -20.539080      -558.8968
   1   2.0000     -15.611016      -424.7973
   2   2.0000     -15.537171      -422.7879
   3   2.0000     -11.366710      -309.3039
   4   2.0000     -11.323984      -308.1413
   5   2.0000     -11.307756      -307.6997
   6   2.0000     -11.265854      -306.5595
   7   2.0000     -11.258356      -306.3554
   8   2.0000     -11.258332      -306.3548
   9   2.0000      -1.401691       -38.1419
  10   2.0000      -1.319157       -35.8961
  11   2.0000      -1.191561       -32.4240
  12   2.0000      -1.142485       -31.0886
  13   2.0000      -0.951454       -25.8904
  14   2.0000      -0.933688       -25.4069
  15   2.0000      -0.902795       -24.5663
  16   2.0000      -0.813646       -22.1404
  17   2.0000      -0.735659       -20.0183
  18   2.0000      -0.718314       -19.5463
  19   2.0000      -0.689421       -18.7601
  20   2.0000      -0.648270       -17.6403
  21   2.0000      -0.639808       -17.4101
  22   2.0000      -0.634999       -17.2792
  23   2.0000      -0.597001       -16.2452
  24   2.0000      -0.563294       -15.3280
  25   2.0000      -0.539099       -14.6696
  26   2.0000      -0.524615       -14.2755
  27   2.0000      -0.506569       -13.7844
  28   2.0000      -0.488698       -13.2982
  29   2.0000      -0.461863       -12.5679
  30   2.0000      -0.447364       -12.1734
  31   2.0000      -0.411303       -11.1921
  32   2.0000      -0.373802       -10.1717
  33   0.0000       0.129944         3.5360
  34   0.0000       0.130018         3.5380
  35   0.0000       0.143943         3.9169
  36   0.0000       0.159779         4.3478
  37   0.0000       0.169738         4.6188

MULLIKEN ATOMIC CHARGES
-----------------------
   0 N :   -0.316106
   1 C :   -0.027193
   2 C :    0.012789
   3 C :   -0.262878
   4 C :   -0.041888
   5 C :   -0.262877
   6 N :   -0.092930
   7 C :    0.160426
   8 O :   -0.362917
   9 H :    0.252717
  10 H :    0.148771
  11 H :    0.136945
  12 H :    0.136031
  13 H :    0.155335
  14 H :    0.136030
  15 H :    0.136947
  16 H :    0.090800
Sum of atomic charges:    0.0000000

LOEWDIN ATOMIC CHARGES
----------------------
   0 N :   -0.018762
   1 C :   -0.295722
   2 C :   -0.154433
   3 C :   -0.180492
   4 C :   -0.198988
   5 C :   -0.180492
   6 N :    0.231669
   7 C :   -0.396307
   8 O :    0.068569
   9 H :    0.174265
  10 H :    0.145399
  11 H :    0.134251
  12 H :    0.141383
  13 H :    0.137561
  14 H :    0.141383
  15 H :    0.134251
  16 H :    0.116466

  Mayer bond orders larger than 0.1
B(  0-N ,  1-C ) :   2.1180 B(  0-N ,  9-H ) :   0.8456 B(  1-C ,  2-C ) :   0.9081
B(  1-C ,  6-N ) :   0.9599 B(  2-C ,  3-C ) :   0.9051 B(  2-C ,  5-C ) :   0.9051
B(  2-C , 10-H ) :   0.9178 B(  3-C ,  4-C ) :   0.9186 B(  3-C , 11-H ) :   0.9183
B(  3-C , 12-H ) :   0.9295 B(  4-C ,  5-C ) :   0.9186 B(  4-C ,  6-N ) :   0.8467
B(  4-C , 13-H ) :   0.9056 B(  5-C , 14-H ) :   0.9295 B(  5-C , 15-H ) :   0.9183
B(  6-N ,  7-C ) :   1.1115 B(  7-C ,  8-O ) :   1.8554 B(  7-C , 16-H ) :   0.9322

MP2 TOTAL ENERGY:     -417.313312627 Eh
FINAL SINGLE POINT ENERGY      -417.313312627424

DIPOLE MOMENT
-------------
                                X             Y             Z
Electronic contribution:      3.69385       4.10892       0.09315
Nuclear contribution   :     -4.21273      -6.11501      -0.13505
                        -----------------------------------------
Total Dipole Moment    :     -0.51889      -2.00609      -0.04190
                        -----------------------------------------
Magnitude (a.u.)       :      2.07253
Magnitude (Debye)      :      5.26796

                             ****ORCA TERMINATED NORMALLY****
TOTAL RUN TIME: 0 days 0 hours 18 minutes 4 seconds 85 msec
