                         Program Version 3.0.3 - RELEASE   -
|  1> ! RI-MP2 RIJK def2-TZVP def2-TZVP/C def2-TZVP/JK TIGHTSCF
|  2> % maxcore 2000
|  3> % mp2 density relaxed end
|  4> *xyz 0 1
|  5>  C        0.0278104861     1.5580425166     0.0193189862
|  6>  C        0.0064736085     0.0298973940     0.0105140539
|  7>  C       -1.4366048732    -0.5579894477    -0.0157054953
|  8>  C       -2.1605885898    -0.1223391155    -1.2232402770
|  9>  N       -2.7129526376     0.2437857807    -2.1692854705
| 10>  C       -1.4345153244    -2.0149159131     0.0903719277
| 11>  C       -1.4063413392    -3.2180223919     0.2029779659
| 12>  C       -1.3749082537    -4.5730843545     0.3226930460
| 13>  C       -1.3466797515    -5.7748806709     0.4307555075
| 14>  H        1.0585050781     1.9217529391     0.0470287226
| 15>  H       -0.4507688201     1.9690592383    -0.8743441179
| 16>  H       -0.4916063617     1.9589678179     0.8965209890
| 17>  H        0.5513139178    -0.3621484265    -0.8533922161
| 18>  H        0.4932693342    -0.3699452399     0.9051099865
| 19>  H       -1.9831530904    -0.1450459021     0.8449465796
| 20>  H       -1.3235373231    -6.8327016146     0.5219433420
| 21> *
| 22>
| 23>                          ****END OF INPUT****

CARTESIAN COORDINATES (ANGSTROEM)
---------------------------------
  C      0.027810    1.558043    0.019319
  C      0.006474    0.029897    0.010514
  C     -1.436605   -0.557989   -0.015705
  C     -2.160589   -0.122339   -1.223240
  N     -2.712953    0.243786   -2.169285
  C     -1.434515   -2.014916    0.090372
  C     -1.406341   -3.218022    0.202978
  C     -1.374908   -4.573084    0.322693
  C     -1.346680   -5.774881    0.430756
  H      1.058505    1.921753    0.047029
  H     -0.450769    1.969059   -0.874344
  H     -0.491606    1.958968    0.896521
  H      0.551314   -0.362148   -0.853392
  H      0.493269   -0.369945    0.905110
  H     -1.983153   -0.145046    0.844947
  H     -1.323537   -6.832702    0.521943

 Total Charge           Charge          ....    0
 Multiplicity           Mult            ....    1
 Number of Electrons    NEL             ....   62
 Basis Dimension        Dim             ....  321

ORBITAL ENERGIES
----------------

  NO   OCC          E(Eh)            E(eV)
   0   2.0000     -15.579437      -423.9380
   1   2.0000     -11.325069      -308.1708
   2   2.0000     -11.283523      -307.0403
   3   2.0000     -11.274901      -306.8057
   4   2.0000     -11.270574      -306.6879
   5   2.0000     -11.269108      -306.6480
   6   2.0000     -11.265043      -306.5374
   7   2.0000     -11.261732      -306.4473
   8   2.0000     -11.237617      -305.7911
   9   2.0000      -1.230670       -33.4882
  10   2.0000      -1.142583       -31.0913
  11   2.0000      -1.091666       -29.7057
  12   2.0000      -1.035254       -28.1707
  13   2.0000      -0.990140       -26.9431
  14   2.0000      -0.863797       -23.5051
  15   2.0000      -0.848698       -23.0943
  16   2.0000      -0.744023       -20.2459
  17   2.0000      -0.721212       -19.6252
  18   2.0000      -0.699049       -19.0221
  19   2.0000      -0.634697       -17.2710
  20   2.0000      -0.608319       -16.5532
  21   2.0000      -0.566582       -15.4175
  22   2.0000      -0.550546       -14.9811
  23   2.0000      -0.530484       -14.4352
  24   2.0000      -0.515737       -14.0339
  25   2.0000      -0.497518       -13.5382
  26   2.0000      -0.495006       -13.4698
  27   2.0000      -0.473944       -12.8967
  28   2.0000      -0.465309       -12.6617
  29   2.0000      -0.372505       -10.1364
  30   2.0000      -0.369398       -10.0518
  31   0.0000       0.097670         2.6577
  32   0.0000       0.098109         2.6697
  33   0.0000       0.118022         3.2116
  34   0.0000       0.147736         4.0201
  35   0.0000       0.155952         4.2437

MULLIKEN ATOMIC CHARGES
-----------------------
   0 C :   -0.413483
   1 C :   -0.187762
   2 C :   -0.099953
   3 C :   -0.162882
   4 N :   -0.052078
   5 C :   -0.129534
   6 C :    0.112479
   7 C :   -0.003887
   8 C :   -0.125274
   9 H :    0.146370
  10 H :    0.158588
  11 H :    0.128209
  12 H :    0.136100
  13 H :    0.137835
  14 H :    0.156525
  15 H :    0.198746
Sum of atomic charges:   -0.0000000

LOEWDIN ATOMIC CHARGES
----------------------
   0 C :   -0.307881
   1 C :   -0.233778
   2 C :   -0.228033
   3 C :   -0.152460
   4 N :    0.073055
   5 C :    0.011984
   6 C :   -0.042313
   7 C :   -0.093578
   8 C :   -0.033990
   9 H :    0.128264
  10 H :    0.131159
  11 H :    0.124518
  12 H :    0.148367
  13 H :    0.146876
  14 H :    0.195598
  15 H :    0.132212

  Mayer bond orders larger than 0.1
B(  0-C ,  1-C ) :   0.9201 B(  0-C ,  9-H ) :   0.9373 B(  0-C , 10-H ) :   0.9326
B(  0-C , 11-H ) :   0.9330 B(  1-C ,  2-C ) :   0.9227 B(  1-C , 12-H ) :   0.9174
B(  1-C , 13-H ) :   0.9328 B(  2-C ,  3-C ) :   0.9101 B(  2-C ,  5-C ) :   1.0803
B(  2-C ,  6-C ) :  -0.1518 B(  2-C , 14-H ) :   0.9028 B(  3-C ,  4-N ) :   2.8532
B(  5-C ,  6-C ) :   2.5220 B(  5-C ,  7-C ) :   0.1021 B(  5-C ,  8-C ) :   0.1180
B(  6-C ,  7-C ) :   1.2700 B(  7-C ,  8-C ) :   2.5378 B(  8-C , 15-H ) :   0.8850

MP2 TOTAL ENERGY:     -362.889169831 Eh
FINAL SINGLE POINT ENERGY      -362.889169830777

DIPOLE MOMENT
-------------
                                X             Y             Z
Electronic contribution:     -5.49124      -8.27243      -1.94837
Nuclear contribution   :      6.37448       8.05786       3.11388
                        -----------------------------------------
Total Dipole Moment    :      0.88324      -0.21457       1.16551
                        -----------------------------------------
Magnitude (a.u.)       :      1.47803
Magnitude (Debye)      :      3.75685

                             ****ORCA TERMINATED NORMALLY****
TOTAL RUN TIME: 0 days 0 hours 13 minutes 36 seconds 306 msec
