                         Program Version 3.0.3 - RELEASE   -
|  1> ! RI-MP2 RIJK def2-TZVP def2-TZVP/C def2-TZVP/JK TIGHTSCF
|  2> % maxcore 2000
|  3> % mp2 density relaxed end
|  4> *xyz 0 1
|  5>  C       -0.0644603722     1.5488001125    -0.1017941193
|  6>  C        0.0209757733     0.0240754036     0.0171513565
|  7>  C        0.7139152198    -0.4817828708     1.2949174311
|  8>  C       -0.0362153142    -0.0880977606     2.5729465372
|  9>  C        0.8956993775    -2.0187755796     1.2096863521
| 10>  C        1.6859876880    -2.5832193238     2.2970367272
| 11>  C        2.3481840060    -3.0290662520     3.1963372281
| 12>  H        0.9296124994     2.0059820621    -0.0401205004
| 13>  H       -0.5040459333     1.8401923546    -1.0608017908
| 14>  H       -0.6814129889     1.9873458816     0.6880749043
| 15>  H       -0.9896041825    -0.4051882961    -0.0350010079
| 16>  H        0.5619504808    -0.3689526080    -0.8536553958
| 17>  H        1.7188800220    -0.0395707685     1.3351710040
| 18>  H       -1.0656389756    -0.4674132616     2.5526327590
| 19>  H        0.4570934331    -0.5041927444     3.4555398552
| 20>  H       -0.0828478591     0.9973029145     2.6955422991
| 21>  H       -0.0940011575    -2.4964411122     1.1921738685
| 22>  H        1.3711444727    -2.2722001516     0.2533710433
| 23>  H        2.9300442306    -3.4339498197     3.9866059087
| 24> *
| 25>
| 26>                          ****END OF INPUT****

CARTESIAN COORDINATES (ANGSTROEM)
---------------------------------
  C     -0.064460    1.548800   -0.101794
  C      0.020976    0.024075    0.017151
  C      0.713915   -0.481783    1.294917
  C     -0.036215   -0.088098    2.572947
  C      0.895699   -2.018776    1.209686
  C      1.685988   -2.583219    2.297037
  C      2.348184   -3.029066    3.196337
  H      0.929612    2.005982   -0.040121
  H     -0.504046    1.840192   -1.060802
  H     -0.681413    1.987346    0.688075
  H     -0.989604   -0.405188   -0.035001
  H      0.561950   -0.368953   -0.853655
  H      1.718880   -0.039571    1.335171
  H     -1.065639   -0.467413    2.552633
  H      0.457093   -0.504193    3.455540
  H     -0.082848    0.997303    2.695542
  H     -0.094001   -2.496441    1.192174
  H      1.371144   -2.272200    0.253371
  H      2.930044   -3.433950    3.986606

 Total Charge           Charge          ....    0
 Multiplicity           Mult            ....    1
 Number of Electrons    NEL             ....   54
 Basis Dimension        Dim             ....  289

ORBITAL ENERGIES
----------------

  NO   OCC          E(Eh)            E(eV)
   0   2.0000     -11.247290      -306.0543
   1   2.0000     -11.234455      -305.7051
   2   2.0000     -11.229865      -305.5802
   3   2.0000     -11.223139      -305.3971
   4   2.0000     -11.215509      -305.1895
   5   2.0000     -11.215149      -305.1797
   6   2.0000     -11.210318      -305.0483
   7   2.0000      -1.108827       -30.1727
   8   2.0000      -1.039081       -28.2748
   9   2.0000      -0.985898       -26.8276
  10   2.0000      -0.939701       -25.5706
  11   2.0000      -0.865709       -23.5571
  12   2.0000      -0.772855       -21.0304
  13   2.0000      -0.715081       -19.4583
  14   2.0000      -0.647424       -17.6173
  15   2.0000      -0.628315       -17.0973
  16   2.0000      -0.616607       -16.7787
  17   2.0000      -0.587229       -15.9793
  18   2.0000      -0.558913       -15.2088
  19   2.0000      -0.536974       -14.6118
  20   2.0000      -0.519729       -14.1425
  21   2.0000      -0.503014       -13.6877
  22   2.0000      -0.476908       -12.9773
  23   2.0000      -0.465459       -12.6658
  24   2.0000      -0.460290       -12.5251
  25   2.0000      -0.381025       -10.3682
  26   2.0000      -0.379816       -10.3353
  27   0.0000       0.133293         3.6271
  28   0.0000       0.156604         4.2614
  29   0.0000       0.167055         4.5458
  30   0.0000       0.168002         4.5716
  31   0.0000       0.177671         4.8347

MULLIKEN ATOMIC CHARGES
-----------------------
   0 C :   -0.405354
   1 C :   -0.188509
   2 C :   -0.032940
   3 C :   -0.430829
   4 C :   -0.352115
   5 C :   -0.016200
   6 C :   -0.143657
   7 H :    0.124746
   8 H :    0.136012
   9 H :    0.130588
  10 H :    0.105071
  11 H :    0.109122
  12 H :    0.091181
  13 H :    0.117955
  14 H :    0.153801
  15 H :    0.134551
  16 H :    0.138120
  17 H :    0.141142
  18 H :    0.187316
Sum of atomic charges:   -0.0000000

LOEWDIN ATOMIC CHARGES
----------------------
   0 C :   -0.318167
   1 C :   -0.275136
   2 C :   -0.272384
   3 C :   -0.289312
   4 C :   -0.230697
   5 C :   -0.112429
   6 C :   -0.112676
   7 H :    0.121784
   8 H :    0.121797
   9 H :    0.119832
  10 H :    0.137084
  11 H :    0.137109
  12 H :    0.154853
  13 H :    0.124168
  14 H :    0.130503
  15 H :    0.122355
  16 H :    0.158245
  17 H :    0.157822
  18 H :    0.125248

  Mayer bond orders larger than 0.1
B(  0-C ,  1-C ) :   0.9172 B(  0-C ,  7-H ) :   0.9378 B(  0-C ,  8-H ) :   0.9414
B(  0-C ,  9-H ) :   0.9427 B(  1-C ,  2-C ) :   0.9218 B(  1-C , 10-H ) :   0.9235
B(  1-C , 11-H ) :   0.9346 B(  2-C ,  3-C ) :   0.9148 B(  2-C ,  4-C ) :   0.9105
B(  2-C , 12-H ) :   0.9256 B(  3-C , 13-H ) :   0.9282 B(  3-C , 14-H ) :   0.9362
B(  3-C , 15-H ) :   0.9399 B(  4-C ,  5-C ) :   1.1138 B(  4-C ,  6-C ) :  -0.1093
B(  4-C , 16-H ) :   0.9219 B(  4-C , 17-H ) :   0.9180 B(  5-C ,  6-C ) :   2.6148
B(  6-C , 18-H ) :   0.8985

MP2 TOTAL ENERGY:     -273.248054500 Eh
FINAL SINGLE POINT ENERGY      -273.248054499624

DIPOLE MOMENT
-------------
                                X             Y             Z
Electronic contribution:      3.96169      -6.54200       2.92675
Nuclear contribution   :     -4.09044       6.72982      -3.12238
                        -----------------------------------------
Total Dipole Moment    :     -0.12875       0.18783      -0.19563
                        -----------------------------------------
Magnitude (a.u.)       :      0.30021
Magnitude (Debye)      :      0.76308

                             ****ORCA TERMINATED NORMALLY****
TOTAL RUN TIME: 0 days 0 hours 9 minutes 40 seconds 824 msec
