                         Program Version 3.0.3 - RELEASE   -
|  1> ! RI-MP2 RIJK def2-TZVP def2-TZVP/C def2-TZVP/JK TIGHTSCF
|  2> % maxcore 2000
|  3> % mp2 density relaxed end
|  4> *xyz 0 1
|  5>  C       -0.0020219618     1.5800356126     0.0459947979
|  6>  C        0.0191394203     0.0491896504     0.0279078786
|  7>  C        0.7390947358    -0.5514942452     1.2392837138
|  8>  C        0.7601676871    -2.0736538354     1.2212333601
|  9>  O        1.4397012969    -2.5344572817     2.3686448958
| 10>  C        1.5157388621    -3.9410498766     2.4484866121
| 11>  C        2.2649459739    -4.3226271286     3.7176702166
| 12>  C        2.4009389789    -5.8378638746     3.8969787504
| 13>  C        3.1546449275    -6.2216540319     5.1732610185
| 14>  H        1.0142952353     1.9891935252     0.0487730294
| 15>  H       -0.5214002985     1.9829753282    -0.8290480439
| 16>  H       -0.5111309648     1.9575827114     0.9396299067
| 17>  H       -1.0107564783    -0.3300964608    -0.0098508812
| 18>  H        0.5034668928    -0.2987166816    -0.8942415804
| 19>  H        1.7733434917    -0.1879451568     1.2805614924
| 20>  H        0.2561138796    -0.2194893923     2.1666698123
| 21>  H       -0.2702321558    -2.4714520623     1.2000542205
| 22>  H        1.2599997616    -2.4396829587     0.3065745937
| 23>  H        0.5020908882    -4.3802509344     2.4545266189
| 24>  H        2.0322216707    -4.3482518475     1.5608821515
| 25>  H        3.2576356146    -3.8563495156     3.6913032901
| 26>  H        1.7404233021    -3.8876582251     4.5774494035
| 27>  H        1.4025441375    -6.2950146259     3.9107143576
| 28>  H        2.9165699989    -6.2638423241     3.0259791170
| 29>  H        3.2375144793    -7.3080013240     5.2771675934
| 30>  H        4.1691266215    -5.8079606701     5.1725249385
| 31>  H        2.6439602928    -5.8390564745     6.0638452762
| 32> *
| 33>
| 34>                          ****END OF INPUT****

CARTESIAN COORDINATES (ANGSTROEM)
---------------------------------
  C     -0.002022    1.580036    0.045995
  C      0.019139    0.049190    0.027908
  C      0.739095   -0.551494    1.239284
  C      0.760168   -2.073654    1.221233
  O      1.439701   -2.534457    2.368645
  C      1.515739   -3.941050    2.448487
  C      2.264946   -4.322627    3.717670
  C      2.400939   -5.837864    3.896979
  C      3.154645   -6.221654    5.173261
  H      1.014295    1.989194    0.048773
  H     -0.521400    1.982975   -0.829048
  H     -0.511131    1.957583    0.939630
  H     -1.010756   -0.330096   -0.009851
  H      0.503467   -0.298717   -0.894242
  H      1.773343   -0.187945    1.280561
  H      0.256114   -0.219489    2.166670
  H     -0.270232   -2.471452    1.200054
  H      1.260000   -2.439683    0.306575
  H      0.502091   -4.380251    2.454527
  H      2.032222   -4.348252    1.560882
  H      3.257636   -3.856350    3.691303
  H      1.740423   -3.887658    4.577449
  H      1.402544   -6.295015    3.910714
  H      2.916570   -6.263842    3.025979
  H      3.237514   -7.308001    5.277168
  H      4.169127   -5.807961    5.172525
  H      2.643960   -5.839056    6.063845

 Total Charge           Charge          ....    0
 Multiplicity           Mult            ....    1
 Number of Electrons    NEL             ....   74
 Basis Dimension        Dim             ....  387

ORBITAL ENERGIES
----------------

  NO   OCC          E(Eh)            E(eV)
   0   2.0000     -20.547119      -559.1155
   1   2.0000     -11.267873      -306.6144
   2   2.0000     -11.267851      -306.6138
   3   2.0000     -11.219664      -305.3026
   4   2.0000     -11.219663      -305.3026
   5   2.0000     -11.213300      -305.1294
   6   2.0000     -11.213299      -305.1294
   7   2.0000     -11.211727      -305.0866
   8   2.0000     -11.211727      -305.0866
   9   2.0000      -1.370201       -37.2851
  10   2.0000      -1.077422       -29.3182
  11   2.0000      -1.060667       -28.8622
  12   2.0000      -0.992192       -26.9989
  13   2.0000      -0.949776       -25.8447
  14   2.0000      -0.863357       -23.4931
  15   2.0000      -0.832310       -22.6483
  16   2.0000      -0.799537       -21.7565
  17   2.0000      -0.785242       -21.3675
  18   2.0000      -0.678651       -18.4670
  19   2.0000      -0.650091       -17.6899
  20   2.0000      -0.639757       -17.4087
  21   2.0000      -0.616530       -16.7766
  22   2.0000      -0.610900       -16.6234
  23   2.0000      -0.574132       -15.6229
  24   2.0000      -0.568776       -15.4772
  25   2.0000      -0.558512       -15.1979
  26   2.0000      -0.530222       -14.4281
  27   2.0000      -0.522414       -14.2156
  28   2.0000      -0.506753       -13.7894
  29   2.0000      -0.493594       -13.4314
  30   2.0000      -0.477644       -12.9973
  31   2.0000      -0.472722       -12.8634
  32   2.0000      -0.467556       -12.7229
  33   2.0000      -0.461990       -12.5714
  34   2.0000      -0.460668       -12.5354
  35   2.0000      -0.453034       -12.3277
  36   2.0000      -0.415347       -11.3022
  37   0.0000       0.135374         3.6837
  38   0.0000       0.141660         3.8548
  39   0.0000       0.155227         4.2239
  40   0.0000       0.173802         4.7294
  41   0.0000       0.178474         4.8565

MULLIKEN ATOMIC CHARGES
-----------------------
   0 C :   -0.382942
   1 C :   -0.212298
   2 C :   -0.183377
   3 C :   -0.059761
   4 O :   -0.283846
   5 C :   -0.059762
   6 C :   -0.183377
   7 C :   -0.212299
   8 C :   -0.382942
   9 H :    0.123087
  10 H :    0.131932
  11 H :    0.123088
  12 H :    0.104930
  13 H :    0.104928
  14 H :    0.109962
  15 H :    0.109967
  16 H :    0.086205
  17 H :    0.086204
  18 H :    0.086205
  19 H :    0.086204
  20 H :    0.109960
  21 H :    0.109969
  22 H :    0.104932
  23 H :    0.104925
  24 H :    0.131932
  25 H :    0.123088
  26 H :    0.123087
Sum of atomic charges:    0.0000000

LOEWDIN ATOMIC CHARGES
----------------------
   0 C :   -0.320921
   1 C :   -0.296658
   2 C :   -0.271606
   3 C :   -0.332194
   4 O :    0.159742
   5 C :   -0.332194
   6 C :   -0.271606
   7 C :   -0.296658
   8 C :   -0.320921
   9 H :    0.120512
  10 H :    0.119827
  11 H :    0.120513
  12 H :    0.133992
  13 H :    0.133992
  14 H :    0.139155
  15 H :    0.139157
  16 H :    0.117181
  17 H :    0.117180
  18 H :    0.117181
  19 H :    0.117179
  20 H :    0.139154
  21 H :    0.139158
  22 H :    0.133992
  23 H :    0.133992
  24 H :    0.119827
  25 H :    0.120511
  26 H :    0.120514

  Mayer bond orders larger than 0.1
B(  0-C ,  1-C ) :   0.9247 B(  0-C ,  9-H ) :   0.9397 B(  0-C , 10-H ) :   0.9434
B(  0-C , 11-H ) :   0.9397 B(  1-C ,  2-C ) :   0.9257 B(  1-C , 12-H ) :   0.9305
B(  1-C , 13-H ) :   0.9305 B(  2-C ,  3-C ) :   0.9605 B(  2-C , 14-H ) :   0.9246
B(  2-C , 15-H ) :   0.9246 B(  3-C ,  4-O ) :   0.9472 B(  3-C , 16-H ) :   0.9230
B(  3-C , 17-H ) :   0.9230 B(  4-O ,  5-C ) :   0.9472 B(  5-C ,  6-C ) :   0.9605
B(  5-C , 18-H ) :   0.9230 B(  5-C , 19-H ) :   0.9230 B(  6-C ,  7-C ) :   0.9257
B(  6-C , 20-H ) :   0.9246 B(  6-C , 21-H ) :   0.9246 B(  7-C ,  8-C ) :   0.9247
B(  7-C , 22-H ) :   0.9305 B(  7-C , 23-H ) :   0.9305 B(  8-C , 24-H ) :   0.9434
B(  8-C , 25-H ) :   0.9397 B(  8-C , 26-H ) :   0.9397

MP2 TOTAL ENERGY:     -390.015632797 Eh
FINAL SINGLE POINT ENERGY      -390.015632796591

DIPOLE MOMENT
-------------
                                X             Y             Z
Electronic contribution:      0.02951       0.04696       0.05329
Nuclear contribution   :     -0.18967      -0.29797      -0.33662
                        -----------------------------------------
Total Dipole Moment    :     -0.16016      -0.25101      -0.28333
                        -----------------------------------------
Magnitude (a.u.)       :      0.41101
Magnitude (Debye)      :      1.04471

                             ****ORCA TERMINATED NORMALLY****
TOTAL RUN TIME: 0 days 0 hours 16 minutes 10 seconds 54 msec
