                         Program Version 3.0.3 - RELEASE   -
|  1> ! RI-MP2 RIJK def2-TZVP def2-TZVP/C def2-TZVP/JK TIGHTSCF
|  2> % maxcore 2000
|  3> % mp2 density relaxed end
|  4> *xyz 0 1
|  5>  C       -0.4512014260     1.3974844063     0.0158119894
|  6>  C        0.1076129956    -0.0128611662     0.0321950354
|  7>  O        0.5496028524    -0.5309550569     1.0377895660
|  8>  C        0.0802453567    -0.7069552141    -1.2363281579
|  9>  C        0.0632364755    -1.2990391986    -2.2916004156
| 10>  C        0.0395846204    -1.9932347888    -3.5447381652
| 11>  C       -0.5429371015    -1.2218079922    -4.7199322554
| 12>  C        1.1842803648    -2.9692409689    -3.8119261743
| 13>  C       -0.1753181527    -3.5048879555    -3.4896020003
| 14>  H        0.1049289466     2.0154235417    -0.6973865373
| 15>  H       -1.4947424300     1.3858489499    -0.3169026752
| 16>  H       -0.3828728169     1.8280955056     1.0159452323
| 17>  H        0.0265448956    -0.3066376864    -4.9087944420
| 18>  H       -0.5178134228    -1.8320018733    -5.6277301117
| 19>  H       -1.5827861613    -0.9405780379    -4.5272197268
| 20>  H        1.5348809744    -3.0257465231    -4.8367676931
| 21>  H        1.9592460719    -3.0483776119    -3.0595447194
| 22>  H       -0.3338285501    -3.9517626693    -2.5159056285
| 23>  H       -0.7679021227    -3.9330163304    -4.2908295905
| 24> *
| 25>
| 26>                          ****END OF INPUT****

CARTESIAN COORDINATES (ANGSTROEM)
---------------------------------
  C     -0.451201    1.397484    0.015812
  C      0.107613   -0.012861    0.032195
  O      0.549603   -0.530955    1.037790
  C      0.080245   -0.706955   -1.236328
  C      0.063236   -1.299039   -2.291600
  C      0.039585   -1.993235   -3.544738
  C     -0.542937   -1.221808   -4.719932
  C      1.184280   -2.969241   -3.811926
  C     -0.175318   -3.504888   -3.489602
  H      0.104929    2.015424   -0.697387
  H     -1.494742    1.385849   -0.316903
  H     -0.382873    1.828096    1.015945
  H      0.026545   -0.306638   -4.908794
  H     -0.517813   -1.832002   -5.627730
  H     -1.582786   -0.940578   -4.527220
  H      1.534881   -3.025747   -4.836768
  H      1.959246   -3.048378   -3.059545
  H     -0.333829   -3.951763   -2.515906
  H     -0.767902   -3.933016   -4.290830

 Total Charge           Charge          ....    0
 Multiplicity           Mult            ....    1
 Number of Electrons    NEL             ....   66
 Basis Dimension        Dim             ....  339

ORBITAL ENERGIES
----------------

  NO   OCC          E(Eh)            E(eV)
   0   2.0000     -20.547185      -559.1173
   1   2.0000     -11.350143      -308.8531
   2   2.0000     -11.274681      -306.7997
   3   2.0000     -11.256147      -306.2953
   4   2.0000     -11.247759      -306.0671
   5   2.0000     -11.247058      -306.0480
   6   2.0000     -11.236926      -305.7723
   7   2.0000     -11.236042      -305.7483
   8   2.0000     -11.231561      -305.6263
   9   2.0000      -1.388535       -37.7840
  10   2.0000      -1.180118       -32.1127
  11   2.0000      -1.059589       -28.8329
  12   2.0000      -1.007563       -27.4172
  13   2.0000      -0.981155       -26.6986
  14   2.0000      -0.874017       -23.7832
  15   2.0000      -0.842605       -22.9284
  16   2.0000      -0.809097       -22.0167
  17   2.0000      -0.697524       -18.9806
  18   2.0000      -0.677777       -18.4433
  19   2.0000      -0.650395       -17.6982
  20   2.0000      -0.626677       -17.0528
  21   2.0000      -0.605104       -16.4657
  22   2.0000      -0.587772       -15.9941
  23   2.0000      -0.564236       -15.3536
  24   2.0000      -0.563041       -15.3211
  25   2.0000      -0.550154       -14.9705
  26   2.0000      -0.535826       -14.5806
  27   2.0000      -0.511719       -13.9246
  28   2.0000      -0.461309       -12.5529
  29   2.0000      -0.461154       -12.5487
  30   2.0000      -0.434745       -11.8300
  31   2.0000      -0.390810       -10.6345
  32   2.0000      -0.365874        -9.9559
  33   0.0000       0.099279         2.7015
  34   0.0000       0.130939         3.5630
  35   0.0000       0.148140         4.0311
  36   0.0000       0.163665         4.4536
  37   0.0000       0.175892         4.7863

MULLIKEN ATOMIC CHARGES
-----------------------
   0 C :   -0.391126
   1 C :    0.121822
   2 O :   -0.278118
   3 C :    0.141050
   4 C :   -0.019143
   5 C :   -0.078111
   6 C :   -0.403869
   7 C :   -0.260520
   8 C :   -0.260524
   9 H :    0.143757
  10 H :    0.143767
  11 H :    0.151576
  12 H :    0.140386
  13 H :    0.131855
  14 H :    0.140389
  15 H :    0.138023
  16 H :    0.150380
  17 H :    0.150382
  18 H :    0.138025
Sum of atomic charges:    0.0000000

LOEWDIN ATOMIC CHARGES
----------------------
   0 C :   -0.266685
   1 C :   -0.358429
   2 O :    0.158129
   3 C :   -0.026604
   4 C :    0.003453
   5 C :   -0.256560
   6 C :   -0.248046
   7 C :   -0.182054
   8 C :   -0.182054
   9 H :    0.138726
  10 H :    0.138750
  11 H :    0.133054
  12 H :    0.130962
  13 H :    0.129972
  14 H :    0.130962
  15 H :    0.136821
  16 H :    0.141391
  17 H :    0.141391
  18 H :    0.136821

  Mayer bond orders larger than 0.1
B(  0-C ,  1-C ) :   1.0098 B(  0-C ,  3-C ) :  -0.1429 B(  0-C ,  9-H ) :   0.9095
B(  0-C , 10-H ) :   0.9094 B(  0-C , 11-H ) :   0.9393 B(  1-C ,  2-O ) :   2.0297
B(  1-C ,  3-C ) :   0.8564 B(  3-C ,  4-C ) :   2.6218 B(  3-C ,  5-C ) :  -0.2211
B(  4-C ,  5-C ) :   1.1945 B(  5-C ,  6-C ) :   0.9541 B(  5-C ,  7-C ) :   0.8355
B(  5-C ,  8-C ) :   0.8355 B(  6-C , 12-H ) :   0.9363 B(  6-C , 13-H ) :   0.9288
B(  6-C , 14-H ) :   0.9363 B(  7-C ,  8-C ) :   0.9127 B(  7-C , 15-H ) :   0.9271
B(  7-C , 16-H ) :   0.9278 B(  8-C , 17-H ) :   0.9278 B(  8-C , 18-H ) :   0.9271

MP2 TOTAL ENERGY:     -385.180310958 Eh
FINAL SINGLE POINT ENERGY      -385.180310958226

DIPOLE MOMENT
-------------
                                X             Y             Z
Electronic contribution:      1.81692       0.13312       7.89095
Nuclear contribution   :     -2.20211       0.00761      -9.28351
                        -----------------------------------------
Total Dipole Moment    :     -0.38519       0.14073      -1.39255
                        -----------------------------------------
Magnitude (a.u.)       :      1.45168
Magnitude (Debye)      :      3.68989

                             ****ORCA TERMINATED NORMALLY****
TOTAL RUN TIME: 0 days 0 hours 17 minutes 9 seconds 926 msec
