                         Program Version 3.0.3 - RELEASE   -
|  1> ! RI-MP2 RIJK def2-TZVP def2-TZVP/C def2-TZVP/JK TIGHTSCF
|  2> % maxcore 2000
|  3> % mp2 density relaxed end
|  4> *xyz 0 1
|  5>  O       -0.0160692842     0.1915436521     1.0267822526
|  6>  C       -0.0361802868     1.1528433823     0.3113496113
|  7>  C       -1.3469813036     1.9028181810     0.0033084075
|  8>  O       -1.7989062972     1.7035382319    -1.3190796745
|  9>  C       -1.3065903621     2.5548639819    -2.3410387065
| 10>  C        0.0534763214     2.1358429190    -2.9076947683
| 11>  O        1.2075741220     2.7270392007    -2.3142726301
| 12>  C        1.2457545293     2.8165881734    -0.9346290185
| 13>  O        1.1230305510     1.5544895233    -0.2807882620
| 14>  H       -2.0889660617     1.4425980856     0.6573657207
| 15>  H       -1.2864063459     2.9717076212     0.2535899768
| 16>  H       -2.0418255796     2.4692768336    -3.1476280971
| 17>  H       -1.2948467424     3.6070330668    -2.0174666753
| 18>  H        0.1176387597     1.0411368883    -2.8550717056
| 19>  H        0.1121618601     2.4300505420    -3.9595306403
| 20>  H        2.2428195344     3.1851886220    -0.6856506137
| 21>  H        0.4942779256     3.5108877847    -0.5403080769
| 22> *
| 23>
| 24>                          ****END OF INPUT****

CARTESIAN COORDINATES (ANGSTROEM)
---------------------------------
  O     -0.016069    0.191544    1.026782
  C     -0.036180    1.152843    0.311350
  C     -1.346981    1.902818    0.003308
  O     -1.798906    1.703538   -1.319080
  C     -1.306590    2.554864   -2.341039
  C      0.053476    2.135843   -2.907695
  O      1.207574    2.727039   -2.314273
  C      1.245755    2.816588   -0.934629
  O      1.123031    1.554490   -0.280788
  H     -2.088966    1.442598    0.657366
  H     -1.286406    2.971708    0.253590
  H     -2.041826    2.469277   -3.147628
  H     -1.294847    3.607033   -2.017467
  H      0.117639    1.041137   -2.855072
  H      0.112162    2.430051   -3.959531
  H      2.242820    3.185189   -0.685651
  H      0.494278    3.510888   -0.540308

 Total Charge           Charge          ....    0
 Multiplicity           Mult            ....    1
 Number of Electrons    NEL             ....   70
 Basis Dimension        Dim             ....  327

ORBITAL ENERGIES
----------------

  NO   OCC          E(Eh)            E(eV)
   0   2.0000     -20.610198      -560.8320
   1   2.0000     -20.588645      -560.2455
   2   2.0000     -20.585107      -560.1493
   3   2.0000     -20.550829      -559.2165
   4   2.0000     -11.388963      -309.9094
   5   2.0000     -11.360749      -309.1417
   6   2.0000     -11.315810      -307.9188
   7   2.0000     -11.304875      -307.6213
   8   2.0000     -11.297287      -307.4148
   9   2.0000      -1.475036       -40.1378
  10   2.0000      -1.412715       -38.4419
  11   2.0000      -1.405081       -38.2342
  12   2.0000      -1.360337       -37.0167
  13   2.0000      -1.055787       -28.7294
  14   2.0000      -1.007656       -27.4197
  15   2.0000      -0.942399       -25.6440
  16   2.0000      -0.865084       -23.5401
  17   2.0000      -0.787782       -21.4366
  18   2.0000      -0.746805       -20.3216
  19   2.0000      -0.731329       -19.9005
  20   2.0000      -0.712255       -19.3815
  21   2.0000      -0.688082       -18.7237
  22   2.0000      -0.665888       -18.1197
  23   2.0000      -0.656209       -17.8564
  24   2.0000      -0.630678       -17.1616
  25   2.0000      -0.600868       -16.3505
  26   2.0000      -0.592168       -16.1137
  27   2.0000      -0.559750       -15.2316
  28   2.0000      -0.535160       -14.5624
  29   2.0000      -0.531121       -14.4525
  30   2.0000      -0.504417       -13.7259
  31   2.0000      -0.494777       -13.4636
  32   2.0000      -0.473756       -12.8915
  33   2.0000      -0.456524       -12.4226
  34   2.0000      -0.424236       -11.5441
  35   0.0000       0.129382         3.5207
  36   0.0000       0.145296         3.9537
  37   0.0000       0.151935         4.1344
  38   0.0000       0.171418         4.6645
  39   0.0000       0.182778         4.9736

MULLIKEN ATOMIC CHARGES
-----------------------
   0 O :   -0.268034
   1 C :    0.252629
   2 C :   -0.117700
   3 O :   -0.294412
   4 C :   -0.103288
   5 C :   -0.076076
   6 O :   -0.289613
   7 C :    0.057353
   8 O :   -0.216536
   9 H :    0.155273
  10 H :    0.128800
  11 H :    0.141251
  12 H :    0.122139
  13 H :    0.126993
  14 H :    0.131279
  15 H :    0.149061
  16 H :    0.100880
Sum of atomic charges:    0.0000000

LOEWDIN ATOMIC CHARGES
----------------------
   0 O :    0.153851
   1 C :   -0.473917
   2 C :   -0.298690
   3 O :    0.166887
   4 C :   -0.325523
   5 C :   -0.314009
   6 O :    0.168993
   7 C :   -0.384180
   8 O :    0.254463
   9 H :    0.148453
  10 H :    0.125312
  11 H :    0.141221
  12 H :    0.126494
  13 H :    0.134504
  14 H :    0.137196
  15 H :    0.130222
  16 H :    0.108723

  Mayer bond orders larger than 0.1
B(  0-O ,  1-C ) :   2.0305 B(  1-C ,  2-C ) :   0.8982 B(  1-C ,  8-O ) :   1.0827
B(  2-C ,  3-O ) :   0.9070 B(  2-C ,  9-H ) :   0.9187 B(  2-C , 10-H ) :   0.9173
B(  3-O ,  4-C ) :   0.9245 B(  4-C ,  5-C ) :   0.9035 B(  4-C , 11-H ) :   0.9219
B(  4-C , 12-H ) :   0.9410 B(  5-C ,  6-O ) :   0.9056 B(  5-C , 13-H ) :   0.9313
B(  5-C , 14-H ) :   0.9195 B(  6-O ,  7-C ) :   1.0232 B(  7-C ,  8-O ) :   0.8719
B(  7-C , 15-H ) :   0.9319 B(  7-C , 16-H ) :   0.9343

MP2 TOTAL ENERGY:     -495.336292853 Eh
FINAL SINGLE POINT ENERGY      -495.336292853120

DIPOLE MOMENT
-------------
                                X             Y             Z
Electronic contribution:      2.29747      -3.87591       3.56612
Nuclear contribution   :     -2.80589       5.35730      -4.18668
                        -----------------------------------------
Total Dipole Moment    :     -0.50842       1.48138      -0.62056
                        -----------------------------------------
Magnitude (a.u.)       :      1.68466
Magnitude (Debye)      :      4.28206

                             ****ORCA TERMINATED NORMALLY****
TOTAL RUN TIME: 0 days 0 hours 14 minutes 48 seconds 794 msec
