                         Program Version 3.0.3 - RELEASE   -
|  1> ! RI-MP2 RIJK def2-TZVP def2-TZVP/C def2-TZVP/JK TIGHTSCF
|  2> % maxcore 2000
|  3> % mp2 density relaxed end
|  4> *xyz 0 1
|  5>  C       -0.2439633254     1.4582174432    -0.0161791627
|  6>  N        0.0100183917     0.0199207616     0.0071940450
|  7>  C        1.2185245306    -0.4725285737    -0.7901347133
|  8>  C        2.1515580110    -0.0345755276     0.3816838985
|  9>  C        0.8750549537    -0.5069454200     1.1636475230
| 10>  C        0.8569951115    -2.0049679208     0.8030170566
| 11>  C        1.0883018670    -1.9738922732    -0.5094288437
| 12>  C        0.5758628585    -0.0883260847     2.5142214806
| 13>  N        0.3435316463     0.2665295165     3.5895946555
| 14>  H        0.6312348925     2.1165793614     0.1004068473
| 15>  H       -0.7226990358     1.6972029453    -0.9711170623
| 16>  H       -0.9542170205     1.6965721328     0.7812582427
| 17>  H        1.3331730896    -0.1171832694    -1.8124219284
| 18>  H        3.0744670183    -0.5920433534     0.5491307068
| 19>  H        2.3286503453     1.0399003659     0.4427788523
| 20>  H        0.6654947552    -2.8161268967     1.4878906149
| 21>  H        1.1466883004    -2.7768067472    -1.2284663929
| 22> *
| 23>
| 24>                          ****END OF INPUT****

CARTESIAN COORDINATES (ANGSTROEM)
---------------------------------
  C     -0.243963    1.458217   -0.016179
  N      0.010018    0.019921    0.007194
  C      1.218525   -0.472529   -0.790135
  C      2.151558   -0.034576    0.381684
  C      0.875055   -0.506945    1.163648
  C      0.856995   -2.004968    0.803017
  C      1.088302   -1.973892   -0.509429
  C      0.575863   -0.088326    2.514221
  N      0.343532    0.266530    3.589595
  H      0.631235    2.116579    0.100407
  H     -0.722699    1.697203   -0.971117
  H     -0.954217    1.696572    0.781258
  H      1.333173   -0.117183   -1.812422
  H      3.074467   -0.592043    0.549131
  H      2.328650    1.039900    0.442779
  H      0.665495   -2.816127    1.487891
  H      1.146688   -2.776807   -1.228466

 Total Charge           Charge          ....    0
 Multiplicity           Mult            ....    1
 Number of Electrons    NEL             ....   64
 Basis Dimension        Dim             ....  327

ORBITAL ENERGIES
----------------

  NO   OCC          E(Eh)            E(eV)
   0   2.0000     -15.578664      -423.9170
   1   2.0000     -15.577586      -423.8877
   2   2.0000     -11.323530      -308.1289
   3   2.0000     -11.292210      -307.2767
   4   2.0000     -11.277495      -306.8762
   5   2.0000     -11.259945      -306.3987
   6   2.0000     -11.254148      -306.2409
   7   2.0000     -11.252882      -306.2065
   8   2.0000     -11.249461      -306.1134
   9   2.0000      -1.298106       -35.3233
  10   2.0000      -1.221273       -33.2325
  11   2.0000      -1.100601       -29.9489
  12   2.0000      -0.997612       -27.1464
  13   2.0000      -0.983120       -26.7521
  14   2.0000      -0.911560       -24.8048
  15   2.0000      -0.816877       -22.2284
  16   2.0000      -0.760881       -20.7046
  17   2.0000      -0.738179       -20.0869
  18   2.0000      -0.668613       -18.1939
  19   2.0000      -0.616665       -16.7803
  20   2.0000      -0.612206       -16.6590
  21   2.0000      -0.600918       -16.3518
  22   2.0000      -0.574241       -15.6259
  23   2.0000      -0.561475       -15.2785
  24   2.0000      -0.540635       -14.7114
  25   2.0000      -0.532502       -14.4901
  26   2.0000      -0.521702       -14.1962
  27   2.0000      -0.494429       -13.4541
  28   2.0000      -0.460569       -12.5327
  29   2.0000      -0.443691       -12.0735
  30   2.0000      -0.382308       -10.4031
  31   2.0000      -0.366953        -9.9853
  32   0.0000       0.120262         3.2725
  33   0.0000       0.135734         3.6935
  34   0.0000       0.149859         4.0779
  35   0.0000       0.155660         4.2357
  36   0.0000       0.164284         4.4704

MULLIKEN ATOMIC CHARGES
-----------------------
   0 C :   -0.340534
   1 N :   -0.185637
   2 C :   -0.028598
   3 C :   -0.215681
   4 C :    0.307974
   5 C :   -0.237746
   6 C :   -0.178525
   7 C :   -0.223947
   8 N :   -0.028821
   9 H :    0.104374
  10 H :    0.147239
  11 H :    0.157655
  12 H :    0.149403
  13 H :    0.130715
  14 H :    0.138613
  15 H :    0.155275
  16 H :    0.148241
Sum of atomic charges:    0.0000000

LOEWDIN ATOMIC CHARGES
----------------------
   0 C :   -0.333871
   1 N :    0.135294
   2 C :   -0.191134
   3 C :   -0.148411
   4 C :   -0.235412
   5 C :   -0.086192
   6 C :   -0.114099
   7 C :   -0.145049
   8 N :    0.080195
   9 H :    0.103443
  10 H :    0.123037
  11 H :    0.126854
  12 H :    0.135902
  13 H :    0.133995
  14 H :    0.134478
  15 H :    0.142531
  16 H :    0.138438

  Mayer bond orders larger than 0.1
B(  0-C ,  1-N ) :   0.8982 B(  0-C ,  9-H ) :   0.9151 B(  0-C , 10-H ) :   0.9345
B(  0-C , 11-H ) :   0.9323 B(  1-N ,  2-C ) :   0.8801 B(  1-N ,  4-C ) :   0.8434
B(  2-C ,  3-C ) :   0.9511 B(  2-C ,  6-C ) :   0.9444 B(  2-C , 12-H ) :   0.9027
B(  3-C ,  4-C ) :   0.8749 B(  3-C , 13-H ) :   0.9102 B(  3-C , 14-H ) :   0.9182
B(  4-C ,  5-C ) :   0.9091 B(  4-C ,  7-C ) :   0.8574 B(  5-C ,  6-C ) :   1.7709
B(  5-C , 15-H ) :   0.9263 B(  6-C , 16-H ) :   0.9270 B(  7-C ,  8-N ) :   2.8830

MP2 TOTAL ENERGY:     -380.141650890 Eh
FINAL SINGLE POINT ENERGY      -380.141650890122

DIPOLE MOMENT
-------------
                                X             Y             Z
Electronic contribution:     -0.64614      -2.83937       4.92955
Nuclear contribution   :      1.35737       2.68989      -6.36603
                        -----------------------------------------
Total Dipole Moment    :      0.71123      -0.14948      -1.43648
                        -----------------------------------------
Magnitude (a.u.)       :      1.60986
Magnitude (Debye)      :      4.09195

                             ****ORCA TERMINATED NORMALLY****
TOTAL RUN TIME: 0 days 0 hours 18 minutes 54 seconds 233 msec
