                         Program Version 3.0.3 - RELEASE   -
|  1> ! RI-MP2 RIJK def2-TZVP def2-TZVP/C def2-TZVP/JK TIGHTSCF
|  2> % maxcore 2000
|  3> % mp2 density relaxed end
|  4> *xyz 0 1
|  5>  N        0.1797940111     1.3946195953     0.1245430199
|  6>  C        0.0085212637    -0.0007110130    -0.0011238246
|  7>  C       -1.1118618644    -0.7976281298    -0.0668003923
|  8>  C       -0.6731767040    -2.1629296049    -0.0649348187
|  9>  N       -1.4815803597    -3.3118085856    -0.2107261633
| 10>  C        0.6954206131    -2.1407580834    -0.0130659893
| 11>  O        1.5978720475    -3.1686085702     0.0363251734
| 12>  N        1.1136515794    -0.8141737938     0.0025654750
| 13>  H        0.4810898191     1.8251456915    -0.7457719594
| 14>  H       -0.6922532099     1.8326688100     0.3951363242
| 15>  H       -2.1320793603    -0.4528464851    -0.1477439067
| 16>  H       -2.3415964369    -3.2291565768     0.3192287907
| 17>  H       -0.9890613010    -4.1349131315     0.1188990981
| 18>  H        1.7899215112    -3.4688953274    -0.8607586211
| 19>  H        2.0297923411    -0.5148394853     0.2899113942
| 20> *
| 21>
| 22>                          ****END OF INPUT****

CARTESIAN COORDINATES (ANGSTROEM)
---------------------------------
  N      0.179794    1.394620    0.124543
  C      0.008521   -0.000711   -0.001124
  C     -1.111862   -0.797628   -0.066800
  C     -0.673177   -2.162930   -0.064935
  N     -1.481580   -3.311809   -0.210726
  C      0.695421   -2.140758   -0.013066
  O      1.597872   -3.168609    0.036325
  N      1.113652   -0.814174    0.002565
  H      0.481090    1.825146   -0.745772
  H     -0.692253    1.832669    0.395136
  H     -2.132079   -0.452846   -0.147744
  H     -2.341596   -3.229157    0.319229
  H     -0.989061   -4.134913    0.118899
  H      1.789922   -3.468895   -0.860759
  H      2.029792   -0.514839    0.289911

 Total Charge           Charge          ....    0
 Multiplicity           Mult            ....    1
 Number of Electrons    NEL             ....   60
 Basis Dimension        Dim             ....  290

ORBITAL ENERGIES
----------------

  NO   OCC          E(Eh)            E(eV)
   0   2.0000     -20.580746      -560.0306
   1   2.0000     -15.586275      -424.1241
   2   2.0000     -15.564643      -423.5355
   3   2.0000     -15.546673      -423.0465
   4   2.0000     -11.286580      -307.1234
   5   2.0000     -11.282795      -307.0204
   6   2.0000     -11.239901      -305.8532
   7   2.0000     -11.198193      -304.7183
   8   2.0000      -1.394860       -37.9561
   9   2.0000      -1.285904       -34.9912
  10   2.0000      -1.192313       -32.4445
  11   2.0000      -1.174925       -31.9713
  12   2.0000      -1.018952       -27.7271
  13   2.0000      -0.931044       -25.3350
  14   2.0000      -0.788947       -21.4683
  15   2.0000      -0.774983       -21.0884
  16   2.0000      -0.741786       -20.1850
  17   2.0000      -0.683407       -18.5964
  18   2.0000      -0.660677       -17.9779
  19   2.0000      -0.651815       -17.7368
  20   2.0000      -0.616010       -16.7625
  21   2.0000      -0.606263       -16.4973
  22   2.0000      -0.577046       -15.7022
  23   2.0000      -0.554011       -15.0754
  24   2.0000      -0.543160       -14.7801
  25   2.0000      -0.488492       -13.2925
  26   2.0000      -0.473438       -12.8829
  27   2.0000      -0.436536       -11.8788
  28   2.0000      -0.321960        -8.7610
  29   2.0000      -0.260581        -7.0908
  30   0.0000       0.127771         3.4768
  31   0.0000       0.138119         3.7584
  32   0.0000       0.159207         4.3322
  33   0.0000       0.168931         4.5968
  34   0.0000       0.182571         4.9680

MULLIKEN ATOMIC CHARGES
-----------------------
   0 N :   -0.541699
   1 C :    0.203949
   2 C :   -0.327124
   3 C :    0.148105
   4 N :   -0.532717
   5 C :    0.091992
   6 O :   -0.472089
   7 N :   -0.273844
   8 H :    0.250829
   9 H :    0.249360
  10 H :    0.124533
  11 H :    0.243125
  12 H :    0.243431
  13 H :    0.343486
  14 H :    0.248661
Sum of atomic charges:   -0.0000000

LOEWDIN ATOMIC CHARGES
----------------------
   0 N :   -0.117910
   1 C :   -0.342783
   2 C :   -0.183723
   3 C :   -0.278951
   4 N :   -0.111086
   5 C :   -0.368685
   6 O :    0.028877
   7 N :    0.187681
   8 H :    0.164820
   9 H :    0.169171
  10 H :    0.136301
  11 H :    0.165134
  12 H :    0.166343
  13 H :    0.192604
  14 H :    0.192206

  Mayer bond orders larger than 0.1
B(  0-N ,  1-C ) :   1.0301 B(  0-N ,  8-H ) :   0.8752 B(  0-N ,  9-H ) :   0.8895
B(  1-C ,  2-C ) :   1.5202 B(  1-C ,  7-N ) :   1.1227 B(  2-C ,  3-C ) :   1.1974
B(  2-C , 10-H ) :   0.9146 B(  3-C ,  4-N ) :   0.9876 B(  3-C ,  5-C ) :   1.4827
B(  4-N , 11-H ) :   0.8830 B(  4-N , 12-H ) :   0.8816 B(  5-C ,  6-O ) :   1.1332
B(  5-C ,  7-N ) :   1.0838 B(  6-O , 13-H ) :   0.8287 B(  7-N , 14-H ) :   0.8594

MP2 TOTAL ENERGY:     -395.350083576 Eh
FINAL SINGLE POINT ENERGY      -395.350083575902

DIPOLE MOMENT
-------------
                                X             Y             Z
Electronic contribution:      2.26925      -1.20011       0.10759
Nuclear contribution   :     -2.18800       1.54091      -0.41824
                        -----------------------------------------
Total Dipole Moment    :      0.08126       0.34080      -0.31064
                        -----------------------------------------
Magnitude (a.u.)       :      0.46824
Magnitude (Debye)      :      1.19016

                             ****ORCA TERMINATED NORMALLY****
TOTAL RUN TIME: 0 days 0 hours 10 minutes 30 seconds 316 msec
