                         Program Version 3.0.3 - RELEASE   -
|  1> ! RI-MP2 RIJK def2-TZVP def2-TZVP/C def2-TZVP/JK TIGHTSCF
|  2> % maxcore 2000
|  3> % mp2 density relaxed end
|  4> *xyz 0 1
|  5>  C        0.0229967494     1.3302141591    -0.1982376915
|  6>  O       -0.0318652840    -0.0758494342    -0.2028526760
|  7>  C       -1.3129199637    -0.5762791715     0.1058025171
|  8>  C       -1.2610311066    -2.0976167483     0.0516049739
|  9>  C       -2.6031369367    -2.7357541870     0.4233450491
| 10>  N       -2.5633487768    -4.1884792297     0.3762028394
| 11>  C       -3.2933680424    -4.9261023931    -0.5031739310
| 12>  O       -4.0751198608    -4.4805241110    -1.3162269090
| 13>  H        1.0471767397     1.6188697889    -0.4465825225
| 14>  H       -0.6604115219     1.7691834409    -0.9425032715
| 15>  H       -0.2342332913     1.7470479077     0.7888581978
| 16>  H       -1.6272386400    -0.2357998316     1.1089895922
| 17>  H       -2.0610627954    -0.1923181630    -0.6096781317
| 18>  H       -0.9706320508    -2.4133440276    -0.9558594370
| 19>  H       -0.4748821836    -2.4430013097     0.7347031006
| 20>  H       -2.9127560915    -2.4095828235     1.4251754429
| 21>  H       -3.3854643610    -2.4359303113    -0.2782209387
| 22>  H       -1.9285866777    -4.6760595329     0.9886346088
| 23>  H       -3.0938405147    -6.0103894222    -0.3889193429
| 24> *
| 25>
| 26>                          ****END OF INPUT****

CARTESIAN COORDINATES (ANGSTROEM)
---------------------------------
  C      0.022997    1.330214   -0.198238
  O     -0.031865   -0.075849   -0.202853
  C     -1.312920   -0.576279    0.105803
  C     -1.261031   -2.097617    0.051605
  C     -2.603137   -2.735754    0.423345
  N     -2.563349   -4.188479    0.376203
  C     -3.293368   -4.926102   -0.503174
  O     -4.075120   -4.480524   -1.316227
  H      1.047177    1.618870   -0.446583
  H     -0.660412    1.769183   -0.942503
  H     -0.234233    1.747048    0.788858
  H     -1.627239   -0.235800    1.108990
  H     -2.061063   -0.192318   -0.609678
  H     -0.970632   -2.413344   -0.955859
  H     -0.474882   -2.443001    0.734703
  H     -2.912756   -2.409583    1.425175
  H     -3.385464   -2.435930   -0.278221
  H     -1.928587   -4.676060    0.988635
  H     -3.093841   -6.010389   -0.388919

 Total Charge           Charge          ....    0
 Multiplicity           Mult            ....    1
 Number of Electrons    NEL             ....   64
 Basis Dimension        Dim             ....  314

ORBITAL ENERGIES
----------------

  NO   OCC          E(Eh)            E(eV)
   0   2.0000     -20.559272      -559.4462
   1   2.0000     -20.520814      -558.3997
   2   2.0000     -15.589831      -424.2209
   3   2.0000     -11.348399      -308.8056
   4   2.0000     -11.280778      -306.9656
   5   2.0000     -11.273533      -306.7684
   6   2.0000     -11.268521      -306.6320
   7   2.0000     -11.229028      -305.5574
   8   2.0000      -1.381766       -37.5998
   9   2.0000      -1.380709       -37.5710
  10   2.0000      -1.236988       -33.6602
  11   2.0000      -1.060941       -28.8697
  12   2.0000      -0.961809       -26.1722
  13   2.0000      -0.894918       -24.3520
  14   2.0000      -0.830050       -22.5868
  15   2.0000      -0.804460       -21.8905
  16   2.0000      -0.737981       -20.0815
  17   2.0000      -0.679842       -18.4994
  18   2.0000      -0.662923       -18.0391
  19   2.0000      -0.648186       -17.6380
  20   2.0000      -0.631936       -17.1958
  21   2.0000      -0.616394       -16.7729
  22   2.0000      -0.589313       -16.0360
  23   2.0000      -0.581146       -15.8138
  24   2.0000      -0.542875       -14.7724
  25   2.0000      -0.518884       -14.1196
  26   2.0000      -0.512164       -13.9367
  27   2.0000      -0.492056       -13.3895
  28   2.0000      -0.482236       -13.1223
  29   2.0000      -0.430045       -11.7021
  30   2.0000      -0.427781       -11.6405
  31   2.0000      -0.394452       -10.7336
  32   0.0000       0.125970         3.4278
  33   0.0000       0.139697         3.8014
  34   0.0000       0.162364         4.4182
  35   0.0000       0.172342         4.6897
  36   0.0000       0.183685         4.9983

MULLIKEN ATOMIC CHARGES
-----------------------
   0 C :   -0.215128
   1 O :   -0.301724
   2 C :   -0.069594
   3 C :   -0.176065
   4 C :   -0.134905
   5 N :   -0.323776
   6 C :    0.199218
   7 O :   -0.369982
   8 H :    0.140028
   9 H :    0.113601
  10 H :    0.110338
  11 H :    0.086502
  12 H :    0.099041
  13 H :    0.132700
  14 H :    0.105655
  15 H :    0.128109
  16 H :    0.160037
  17 H :    0.238011
  18 H :    0.077936
Sum of atomic charges:    0.0000000

LOEWDIN ATOMIC CHARGES
----------------------
   0 C :   -0.361382
   1 O :    0.134218
   2 C :   -0.331192
   3 C :   -0.270407
   4 C :   -0.275153
   5 N :    0.081514
   6 C :   -0.440030
   7 O :    0.051588
   8 H :    0.113816
   9 H :    0.101852
  10 H :    0.100864
  11 H :    0.117876
  12 H :    0.121018
  13 H :    0.144331
  14 H :    0.137273
  15 H :    0.132416
  16 H :    0.148893
  17 H :    0.183604
  18 H :    0.108901

  Mayer bond orders larger than 0.1
B(  0-C ,  1-O ) :   0.9190 B(  0-C ,  8-H ) :   0.9391 B(  0-C ,  9-H ) :   0.9375
B(  0-C , 10-H ) :   0.9370 B(  1-O ,  2-C ) :   0.9606 B(  2-C ,  3-C ) :   0.9497
B(  2-C , 11-H ) :   0.9210 B(  2-C , 12-H ) :   0.9256 B(  3-C ,  4-C ) :   0.9268
B(  3-C , 13-H ) :   0.9214 B(  3-C , 14-H ) :   0.9251 B(  4-C ,  5-N ) :   0.8097
B(  4-C , 15-H ) :   0.9325 B(  4-C , 16-H ) :   0.9153 B(  5-N ,  6-C ) :   1.1643
B(  5-N , 17-H ) :   0.8740 B(  6-C ,  7-O ) :   1.8863 B(  6-C , 18-H ) :   0.9296

MP2 TOTAL ENERGY:     -401.560577188 Eh
FINAL SINGLE POINT ENERGY      -401.560577187501

DIPOLE MOMENT
-------------
                                X             Y             Z
Electronic contribution:     -3.31820      -7.43773      -1.85681
Nuclear contribution   :      4.03389       7.78537       2.99979
                        -----------------------------------------
Total Dipole Moment    :      0.71569       0.34764       1.14298
                        -----------------------------------------
Magnitude (a.u.)       :      1.39265
Magnitude (Debye)      :      3.53983

                             ****ORCA TERMINATED NORMALLY****
TOTAL RUN TIME: 0 days 0 hours 10 minutes 27 seconds 485 msec
