                         Program Version 3.0.3 - RELEASE   -
|  1> ! RI-MP2 RIJK def2-TZVP def2-TZVP/C def2-TZVP/JK TIGHTSCF
|  2> % maxcore 2000
|  3> % mp2 density relaxed end
|  4> *xyz 0 1
|  5>  C        0.0161208964     1.4567644868     0.0694115296
|  6>  O        1.4665468583     1.5121170258    -0.0748944458
|  7>  C        1.4930912124     0.1234508730    -0.3656818579
|  8>  C        2.4767635029    -0.9003042336     0.1486936795
|  9>  C        1.7750479165    -2.1683452261    -0.4286309318
| 10>  N        0.9248428911    -1.7378154354    -1.5867002321
| 11>  C       -0.1935262264    -0.7890903573    -1.3188929794
| 12>  C        1.1414085531    -0.3265795398    -1.8139810236
| 13>  C        0.0013413931    -0.0959022540     0.0189391415
| 14>  H       -0.2962430636     1.8940493058     1.0221084582
| 15>  H       -0.4933802404     1.9679236308    -0.7556416155
| 16>  H        3.4816144859    -0.7610403545    -0.2648465936
| 17>  H        2.5459413815    -0.9168807141     1.2396532040
| 18>  H        2.4930322239    -2.9006468058    -0.8051723504
| 19>  H        1.1544347038    -2.6661375175     0.3218435568
| 20>  H       -1.1143171271    -0.9647257734    -1.8649996477
| 21>  H        1.4798401213     0.0757854003    -2.7613947447
| 22>  H       -0.3037612326    -0.5920898311     0.9428496227
| 23> *
| 24>
| 25>                          ****END OF INPUT****

CARTESIAN COORDINATES (ANGSTROEM)
---------------------------------
  C      0.016121    1.456764    0.069412
  O      1.466547    1.512117   -0.074894
  C      1.493091    0.123451   -0.365682
  C      2.476764   -0.900304    0.148694
  C      1.775048   -2.168345   -0.428631
  N      0.924843   -1.737815   -1.586700
  C     -0.193526   -0.789090   -1.318893
  C      1.141409   -0.326580   -1.813981
  C      0.001341   -0.095902    0.018939
  H     -0.296243    1.894049    1.022108
  H     -0.493380    1.967924   -0.755642
  H      3.481614   -0.761040   -0.264847
  H      2.545941   -0.916881    1.239653
  H      2.493032   -2.900647   -0.805172
  H      1.154435   -2.666138    0.321844
  H     -1.114317   -0.964726   -1.865000
  H      1.479840    0.075785   -2.761395
  H     -0.303761   -0.592090    0.942850

 Total Charge           Charge          ....    0
 Multiplicity           Mult            ....    1
 Number of Electrons    NEL             ....   66
 Basis Dimension        Dim             ....  333

ORBITAL ENERGIES
----------------

  NO   OCC          E(Eh)            E(eV)
   0   2.0000     -20.558675      -559.4300
   1   2.0000     -15.565076      -423.5473
   2   2.0000     -11.295145      -307.3565
   3   2.0000     -11.289531      -307.2038
   4   2.0000     -11.268048      -306.6192
   5   2.0000     -11.257525      -306.3328
   6   2.0000     -11.256249      -306.2981
   7   2.0000     -11.238353      -305.8111
   8   2.0000     -11.230558      -305.5990
   9   2.0000      -1.394850       -37.9558
  10   2.0000      -1.298098       -35.3230
  11   2.0000      -1.053863       -28.6771
  12   2.0000      -1.042475       -28.3672
  13   2.0000      -0.961250       -26.1569
  14   2.0000      -0.862487       -23.4695
  15   2.0000      -0.838712       -22.8225
  16   2.0000      -0.792328       -21.5603
  17   2.0000      -0.717415       -19.5219
  18   2.0000      -0.691014       -18.8034
  19   2.0000      -0.672082       -18.2883
  20   2.0000      -0.655302       -17.8317
  21   2.0000      -0.622460       -16.9380
  22   2.0000      -0.604633       -16.4529
  23   2.0000      -0.565710       -15.3938
  24   2.0000      -0.551125       -14.9969
  25   2.0000      -0.527670       -14.3586
  26   2.0000      -0.511445       -13.9171
  27   2.0000      -0.486281       -13.2324
  28   2.0000      -0.462721       -12.5913
  29   2.0000      -0.429941       -11.6993
  30   2.0000      -0.415253       -11.2996
  31   2.0000      -0.406215       -11.0537
  32   2.0000      -0.377905       -10.2833
  33   0.0000       0.140962         3.8358
  34   0.0000       0.154872         4.2143
  35   0.0000       0.164866         4.4862
  36   0.0000       0.172852         4.7035
  37   0.0000       0.189246         5.1496

MULLIKEN ATOMIC CHARGES
-----------------------
   0 C :   -0.010506
   1 O :   -0.323598
   2 C :    0.270402
   3 C :   -0.244958
   4 C :   -0.146218
   5 N :   -0.209458
   6 C :   -0.097141
   7 C :   -0.150350
   8 C :   -0.170398
   9 H :    0.110879
  10 H :    0.097698
  11 H :    0.121164
  12 H :    0.125277
  13 H :    0.130356
  14 H :    0.119242
  15 H :    0.133165
  16 H :    0.142311
  17 H :    0.102133
Sum of atomic charges:    0.0000000

LOEWDIN ATOMIC CHARGES
----------------------
   0 C :   -0.219997
   1 O :    0.163104
   2 C :   -0.288925
   3 C :   -0.214456
   4 C :   -0.241833
   5 N :    0.140406
   6 C :   -0.191863
   7 C :   -0.174050
   8 C :   -0.160734
   9 H :    0.120970
  10 H :    0.122126
  11 H :    0.139910
  12 H :    0.140850
  13 H :    0.131705
  14 H :    0.129944
  15 H :    0.131844
  16 H :    0.134438
  17 H :    0.136562

  Mayer bond orders larger than 0.1
B(  0-C ,  1-O ) :   0.9166 B(  0-C ,  8-C ) :   0.9549 B(  0-C ,  9-H ) :   0.9140
B(  0-C , 10-H ) :   0.8992 B(  1-O ,  2-C ) :   1.0313 B(  2-C ,  3-C ) :   0.9120
B(  2-C ,  7-C ) :   0.8397 B(  2-C ,  8-C ) :   0.9467 B(  3-C ,  4-C ) :   0.9453
B(  3-C , 11-H ) :   0.9159 B(  3-C , 12-H ) :   0.9174 B(  4-C ,  5-N ) :   0.8917
B(  4-C , 13-H ) :   0.9291 B(  4-C , 14-H ) :   0.9310 B(  5-N ,  6-C ) :   0.9129
B(  5-N ,  7-C ) :   0.9232 B(  6-C ,  7-C ) :   0.8350 B(  6-C ,  8-C ) :   0.9006
B(  6-C , 15-H ) :   0.9292 B(  7-C , 16-H ) :   0.9116 B(  8-C , 17-H ) :   0.8955

MP2 TOTAL ENERGY:     -401.188379948 Eh
FINAL SINGLE POINT ENERGY      -401.188379948487

DIPOLE MOMENT
-------------
                                X             Y             Z
Electronic contribution:     -0.09606       1.86127      -1.69133
Nuclear contribution   :     -0.24088      -1.97433       2.10393
                        -----------------------------------------
Total Dipole Moment    :     -0.33694      -0.11306       0.41260
                        -----------------------------------------
Magnitude (a.u.)       :      0.54457
Magnitude (Debye)      :      1.38417

                             ****ORCA TERMINATED NORMALLY****
TOTAL RUN TIME: 0 days 0 hours 20 minutes 26 seconds 702 msec
