                         Program Version 3.0.3 - RELEASE   -
|  1> ! RI-MP2 RIJK def2-TZVP def2-TZVP/C def2-TZVP/JK TIGHTSCF
|  2> % maxcore 2000
|  3> % mp2 density relaxed end
|  4> *xyz 0 1
|  5>  C        0.2642517858     1.0831107103    -0.5417340222
|  6>  C        0.1695342179    -0.1580336457     0.3460243133
|  7>  O        0.2601481859     0.1980986868     1.7333288090
|  8>  C       -1.1861109245    -0.8517786411     0.2322647675
|  9>  C       -2.0204072556    -1.1960734852    -0.9785987399
| 10>  C       -1.2305560342    -1.8721414402    -2.1377117031
| 11>  O        0.1626290341    -1.9262901084    -1.8005200646
| 12>  C       -0.7298268301    -2.9064489113    -1.2427050891
| 13>  C       -1.5075737405    -2.2954431340    -0.0344391262
| 14>  H        1.2130238020     1.6056837004    -0.3712654162
| 15>  H        0.2187209052     0.8069900487    -1.5980736677
| 16>  H       -0.5517442360     1.7781899584    -0.3192865937
| 17>  H        0.9740401201    -0.8514098208     0.0890152001
| 18>  H        1.1189755191     0.6101336613     1.8696357566
| 19>  H       -1.8363557056    -0.4654619696     1.0168875932
| 20>  H       -3.0383907481    -0.8468501469    -1.0971116246
| 21>  H       -1.4957254568    -1.8870652977    -3.1878359610
| 22>  H       -0.4898030275    -3.9502128264    -1.4037177609
| 23>  H       -2.0833327115    -2.9081353786     0.6474412196
| 24> *
| 25>
| 26>                          ****END OF INPUT****

CARTESIAN COORDINATES (ANGSTROEM)
---------------------------------
  C      0.264252    1.083111   -0.541734
  C      0.169534   -0.158034    0.346024
  O      0.260148    0.198099    1.733329
  C     -1.186111   -0.851779    0.232265
  C     -2.020407   -1.196073   -0.978599
  C     -1.230556   -1.872141   -2.137712
  O      0.162629   -1.926290   -1.800520
  C     -0.729827   -2.906449   -1.242705
  C     -1.507574   -2.295443   -0.034439
  H      1.213024    1.605684   -0.371265
  H      0.218721    0.806990   -1.598074
  H     -0.551744    1.778190   -0.319287
  H      0.974040   -0.851410    0.089015
  H      1.118976    0.610134    1.869636
  H     -1.836356   -0.465462    1.016888
  H     -3.038391   -0.846850   -1.097112
  H     -1.495725   -1.887065   -3.187836
  H     -0.489803   -3.950213   -1.403718
  H     -2.083333   -2.908135    0.647441

 Total Charge           Charge          ....    0
 Multiplicity           Mult            ....    1
 Number of Electrons    NEL             ....   68
 Basis Dimension        Dim             ....  339

ORBITAL ENERGIES
----------------

  NO   OCC          E(Eh)            E(eV)
   0   2.0000     -20.570934      -559.7636
   1   2.0000     -20.544095      -559.0332
   2   2.0000     -11.292558      -307.2861
   3   2.0000     -11.291699      -307.2627
   4   2.0000     -11.272074      -306.7287
   5   2.0000     -11.242478      -305.9234
   6   2.0000     -11.241711      -305.9025
   7   2.0000     -11.240689      -305.8747
   8   2.0000     -11.207388      -304.9685
   9   2.0000      -1.421714       -38.6868
  10   2.0000      -1.349142       -36.7120
  11   2.0000      -1.163171       -31.6515
  12   2.0000      -1.015391       -27.6302
  13   2.0000      -0.942538       -25.6478
  14   2.0000      -0.892023       -24.2732
  15   2.0000      -0.853634       -23.2286
  16   2.0000      -0.764134       -20.7931
  17   2.0000      -0.751178       -20.4406
  18   2.0000      -0.724568       -19.7165
  19   2.0000      -0.683018       -18.5859
  20   2.0000      -0.644340       -17.5334
  21   2.0000      -0.613387       -16.6911
  22   2.0000      -0.602858       -16.4046
  23   2.0000      -0.565494       -15.3879
  24   2.0000      -0.553318       -15.0565
  25   2.0000      -0.537577       -14.6282
  26   2.0000      -0.527279       -14.3480
  27   2.0000      -0.510281       -13.8855
  28   2.0000      -0.489741       -13.3265
  29   2.0000      -0.482761       -13.1366
  30   2.0000      -0.450005       -12.2452
  31   2.0000      -0.420139       -11.4326
  32   2.0000      -0.409355       -11.1391
  33   2.0000      -0.352285        -9.5862
  34   0.0000       0.142061         3.8657
  35   0.0000       0.154361         4.2004
  36   0.0000       0.158748         4.3198
  37   0.0000       0.176490         4.8025
  38   0.0000       0.187782         5.1098

MULLIKEN ATOMIC CHARGES
-----------------------
   0 C :   -0.432590
   1 C :    0.145403
   2 O :   -0.471290
   3 C :   -0.129451
   4 C :   -0.106951
   5 C :   -0.031768
   6 O :   -0.327440
   7 C :   -0.037333
   8 C :   -0.104753
   9 H :    0.117342
  10 H :    0.133536
  11 H :    0.129222
  12 H :    0.097654
  13 H :    0.309739
  14 H :    0.130677
  15 H :    0.140681
  16 H :    0.146990
  17 H :    0.148673
  18 H :    0.141660
Sum of atomic charges:   -0.0000000

LOEWDIN ATOMIC CHARGES
----------------------
   0 C :   -0.299454
   1 C :   -0.350551
   2 O :   -0.033926
   3 C :   -0.160912
   4 C :   -0.145999
   5 C :   -0.226100
   6 O :    0.179529
   7 C :   -0.216589
   8 C :   -0.142858
   9 H :    0.118154
  10 H :    0.128295
  11 H :    0.124938
  12 H :    0.138095
  13 H :    0.170359
  14 H :    0.174252
  15 H :    0.138723
  16 H :    0.132252
  17 H :    0.132303
  18 H :    0.139488

  Mayer bond orders larger than 0.1
B(  0-C ,  1-C ) :   0.9191 B(  0-C ,  9-H ) :   0.9350 B(  0-C , 10-H ) :   0.9307
B(  0-C , 11-H ) :   0.9367 B(  1-C ,  2-O ) :   0.9430 B(  1-C ,  3-C ) :   0.8798
B(  1-C , 12-H ) :   0.9383 B(  2-O , 13-H ) :   0.8483 B(  3-C ,  4-C ) :   0.8744
B(  3-C ,  8-C ) :   0.9032 B(  3-C , 14-H ) :   0.9291 B(  4-C ,  5-C ) :   0.8595
B(  4-C ,  8-C ) :   0.8589 B(  4-C , 15-H ) :   0.9182 B(  5-C ,  6-O ) :   0.8889
B(  5-C ,  7-C ) :   0.9904 B(  5-C , 16-H ) :   0.9265 B(  6-O ,  7-C ) :   0.8924
B(  7-C ,  8-C ) :   0.8650 B(  7-C , 17-H ) :   0.9242 B(  8-C , 18-H ) :   0.9157

MP2 TOTAL ENERGY:     -422.227553051 Eh
FINAL SINGLE POINT ENERGY      -422.227553050912

DIPOLE MOMENT
-------------
                                X             Y             Z
Electronic contribution:     -0.21536      -4.30971      -0.58896
Nuclear contribution   :     -0.05895       4.11058       0.22547
                        -----------------------------------------
Total Dipole Moment    :     -0.27431      -0.19913      -0.36348
                        -----------------------------------------
Magnitude (a.u.)       :      0.49701
Magnitude (Debye)      :      1.26331

                             ****ORCA TERMINATED NORMALLY****
TOTAL RUN TIME: 0 days 0 hours 20 minutes 20 seconds 416 msec
