                         Program Version 3.0.3 - RELEASE   -
|  1> ! RI-MP2 RIJK def2-TZVP def2-TZVP/C def2-TZVP/JK TIGHTSCF
|  2> % maxcore 2000
|  3> % mp2 density relaxed end
|  4> *xyz 0 1
|  5>  C       -0.0922591043     1.4988524644     0.0056250194
|  6>  C        0.0111755788    -0.0011074967    -0.0242843132
|  7>  C        0.6807077267    -0.6822376740    -1.2568587930
|  8>  C        0.1087965880    -2.1252956724    -1.1511474916
|  9>  C       -0.7604598412    -1.9689210013     0.1096732426
| 10>  O        0.1368857892    -1.9145765733     1.2495857813
| 11>  C        0.6720823138    -0.6582715992     1.2002622359
| 12>  O        1.4987159318    -0.2418131310     1.9551996659
| 13>  O       -1.2735069960    -0.6654166562     0.0156710939
| 14>  H        0.9079329237     1.9295818060     0.1013698615
| 15>  H       -0.5558732914     1.8748038780    -0.9101421732
| 16>  H       -0.6861070752     1.8250876346     0.8629118451
| 17>  H        0.3510025205    -0.1798264081    -2.1687683470
| 18>  H        1.7707928112    -0.6390887643    -1.2123093218
| 19>  H       -0.5113522701    -2.3866929151    -2.0109540722
| 20>  H        0.8709323858    -2.8948371176    -1.0195968054
| 21>  H       -1.5403632912    -2.7005703537     0.3075355118
| 22> *
| 23>
| 24>                          ****END OF INPUT****

CARTESIAN COORDINATES (ANGSTROEM)
---------------------------------
  C     -0.092259    1.498852    0.005625
  C      0.011176   -0.001107   -0.024284
  C      0.680708   -0.682238   -1.256859
  C      0.108797   -2.125296   -1.151147
  C     -0.760460   -1.968921    0.109673
  O      0.136886   -1.914577    1.249586
  C      0.672082   -0.658272    1.200262
  O      1.498716   -0.241813    1.955200
  O     -1.273507   -0.665417    0.015671
  H      0.907933    1.929582    0.101370
  H     -0.555873    1.874804   -0.910142
  H     -0.686107    1.825088    0.862912
  H      0.351003   -0.179826   -2.168768
  H      1.770793   -0.639089   -1.212309
  H     -0.511352   -2.386693   -2.010954
  H      0.870932   -2.894837   -1.019597
  H     -1.540363   -2.700570    0.307536

 Total Charge           Charge          ....    0
 Multiplicity           Mult            ....    1
 Number of Electrons    NEL             ....   68
 Basis Dimension        Dim             ....  327

ORBITAL ENERGIES
----------------

  NO   OCC          E(Eh)            E(eV)
   0   2.0000     -20.607805      -560.7669
   1   2.0000     -20.591088      -560.3120
   2   2.0000     -20.552729      -559.2682
   3   2.0000     -11.382894      -309.7443
   4   2.0000     -11.362122      -309.1791
   5   2.0000     -11.321992      -308.0871
   6   2.0000     -11.256076      -306.2934
   7   2.0000     -11.251442      -306.1673
   8   2.0000     -11.237511      -305.7882
   9   2.0000      -1.497922       -40.7605
  10   2.0000      -1.410923       -38.3932
  11   2.0000      -1.357703       -36.9450
  12   2.0000      -1.094861       -29.7927
  13   2.0000      -1.061126       -28.8747
  14   2.0000      -0.954410       -25.9708
  15   2.0000      -0.869721       -23.6663
  16   2.0000      -0.850188       -23.1348
  17   2.0000      -0.775748       -21.1092
  18   2.0000      -0.728783       -19.8312
  19   2.0000      -0.710730       -19.3400
  20   2.0000      -0.672453       -18.2984
  21   2.0000      -0.645535       -17.5659
  22   2.0000      -0.626612       -17.0510
  23   2.0000      -0.598313       -16.2809
  24   2.0000      -0.594249       -16.1703
  25   2.0000      -0.563079       -15.3222
  26   2.0000      -0.552998       -15.0478
  27   2.0000      -0.546669       -14.8756
  28   2.0000      -0.533555       -14.5188
  29   2.0000      -0.521697       -14.1961
  30   2.0000      -0.509455       -13.8630
  31   2.0000      -0.481622       -13.1056
  32   2.0000      -0.461105       -12.5473
  33   2.0000      -0.428139       -11.6503
  34   0.0000       0.131599         3.5810
  35   0.0000       0.145870         3.9693
  36   0.0000       0.158016         4.2998
  37   0.0000       0.169510         4.6126
  38   0.0000       0.185101         5.0368

MULLIKEN ATOMIC CHARGES
-----------------------
   0 C :   -0.389983
   1 C :    0.175026
   2 C :   -0.259156
   3 C :   -0.221123
   4 C :    0.142969
   5 O :   -0.233754
   6 C :    0.229682
   7 O :   -0.275359
   8 O :   -0.297158
   9 H :    0.152009
  10 H :    0.141542
  11 H :    0.151351
  12 H :    0.131488
  13 H :    0.144345
  14 H :    0.127703
  15 H :    0.132182
  16 H :    0.148236
Sum of atomic charges:   -0.0000000

LOEWDIN ATOMIC CHARGES
----------------------
   0 C :   -0.252623
   1 C :   -0.326852
   2 C :   -0.194824
   3 C :   -0.228531
   4 C :   -0.338236
   5 O :    0.260206
   6 C :   -0.424190
   7 O :    0.151811
   8 O :    0.226372
   9 H :    0.143040
  10 H :    0.132695
  11 H :    0.139096
  12 H :    0.143489
  13 H :    0.145292
  14 H :    0.140983
  15 H :    0.142922
  16 H :    0.139350

  Mayer bond orders larger than 0.1
B(  0-C ,  1-C ) :   0.8777 B(  0-C ,  9-H ) :   0.9305 B(  0-C , 10-H ) :   0.9391
B(  0-C , 11-H ) :   0.9351 B(  1-C ,  2-C ) :   0.9169 B(  1-C ,  6-C ) :   0.9050
B(  1-C ,  8-O ) :   0.8943 B(  2-C ,  3-C ) :   0.9848 B(  2-C , 12-H ) :   0.9163
B(  2-C , 13-H ) :   0.9142 B(  3-C ,  4-C ) :   0.9691 B(  3-C , 14-H ) :   0.9213
B(  3-C , 15-H ) :   0.9115 B(  4-C ,  5-O ) :   0.8744 B(  4-C ,  8-O ) :   1.0015
B(  4-C , 16-H ) :   0.9177 B(  5-O ,  6-C ) :   1.1050 B(  6-C ,  7-O ) :   2.0481

MP2 TOTAL ENERGY:     -458.290079115 Eh
FINAL SINGLE POINT ENERGY      -458.290079114726

DIPOLE MOMENT
-------------
                                X             Y             Z
Electronic contribution:     -0.13393      -2.76707       6.10682
Nuclear contribution   :     -0.24144       2.61773      -7.51462
                        -----------------------------------------
Total Dipole Moment    :     -0.37537      -0.14935      -1.40780
                        -----------------------------------------
Magnitude (a.u.)       :      1.46462
Magnitude (Debye)      :      3.72276

                             ****ORCA TERMINATED NORMALLY****
TOTAL RUN TIME: 0 days 0 hours 17 minutes 22 seconds 33 msec
