                         Program Version 3.0.3 - RELEASE   -
|  1> ! RI-MP2 RIJK def2-TZVP def2-TZVP/C def2-TZVP/JK TIGHTSCF
|  2> % maxcore 2000
|  3> % mp2 density relaxed end
|  4> *xyz 0 1
|  5>  C       -0.1034625561     1.6896364512     0.0286465885
|  6>  C        0.0428535538     0.1703487573    -0.0526226261
|  7>  C       -1.3467379923    -0.5216090781    -0.1230514613
|  8>  C       -2.1714792836    -0.2821850012     1.0586375920
|  9>  N       -2.8380410326    -0.0848857608     1.9815712997
| 10>  C        0.9280613511    -0.2967821108    -1.2348550420
| 11>  C        1.7387982292    -1.4549285685    -0.6355575349
| 12>  C        1.9047150121    -0.9844992881     0.8103172261
| 13>  O        0.6955851050    -0.3030247577     1.1332957463
| 14>  H        0.8819926679     2.1520115844     0.1308063867
| 15>  H       -0.5794220241     2.0873269808    -0.8742077101
| 16>  H       -0.7076715141     1.9740212008     0.8940117450
| 17>  H       -1.8930916016    -0.1683968853    -1.0050389938
| 18>  H       -1.2075526492    -1.6018673519    -0.2352048655
| 19>  H        0.3403796366    -0.5824193804    -2.1110118335
| 20>  H        1.5945436765     0.5173459352    -1.5368267553
| 21>  H        1.1715270602    -2.3910234473    -0.6701347443
| 22>  H        2.6914440411    -1.6213686376    -1.1437363633
| 23>  H        2.0391038960    -1.7984523114     1.5286604696
| 24>  H        2.7637332242    -0.3019685307     0.9041385463
| 25> *
| 26>
| 27>                          ****END OF INPUT****

CARTESIAN COORDINATES (ANGSTROEM)
---------------------------------
  C     -0.103463    1.689636    0.028647
  C      0.042854    0.170349   -0.052623
  C     -1.346738   -0.521609   -0.123051
  C     -2.171479   -0.282185    1.058638
  N     -2.838041   -0.084886    1.981571
  C      0.928061   -0.296782   -1.234855
  C      1.738798   -1.454929   -0.635558
  C      1.904715   -0.984499    0.810317
  O      0.695585   -0.303025    1.133296
  H      0.881993    2.152012    0.130806
  H     -0.579422    2.087327   -0.874208
  H     -0.707672    1.974021    0.894012
  H     -1.893092   -0.168397   -1.005039
  H     -1.207553   -1.601867   -0.235205
  H      0.340380   -0.582419   -2.111012
  H      1.594544    0.517346   -1.536827
  H      1.171527   -2.391023   -0.670135
  H      2.691444   -1.621369   -1.143736
  H      2.039104   -1.798452    1.528660
  H      2.763733   -0.301969    0.904139

 Total Charge           Charge          ....    0
 Multiplicity           Mult            ....    1
 Number of Electrons    NEL             ....   68
 Basis Dimension        Dim             ....  345

ORBITAL ENERGIES
----------------

  NO   OCC          E(Eh)            E(eV)
   0   2.0000     -20.559797      -559.4605
   1   2.0000     -15.559663      -423.3999
   2   2.0000     -11.311902      -307.8125
   3   2.0000     -11.283861      -307.0495
   4   2.0000     -11.277565      -306.8782
   5   2.0000     -11.265205      -306.5418
   6   2.0000     -11.244668      -305.9830
   7   2.0000     -11.241100      -305.8859
   8   2.0000     -11.225655      -305.4656
   9   2.0000      -1.388783       -37.7907
  10   2.0000      -1.209724       -32.9183
  11   2.0000      -1.100724       -29.9522
  12   2.0000      -1.065918       -29.0051
  13   2.0000      -0.992008       -26.9939
  14   2.0000      -0.932051       -25.3624
  15   2.0000      -0.831196       -22.6180
  16   2.0000      -0.782693       -21.2981
  17   2.0000      -0.713785       -19.4231
  18   2.0000      -0.684488       -18.6259
  19   2.0000      -0.664720       -18.0880
  20   2.0000      -0.641939       -17.4680
  21   2.0000      -0.610962       -16.6251
  22   2.0000      -0.598611       -16.2890
  23   2.0000      -0.583268       -15.8715
  24   2.0000      -0.553776       -15.0690
  25   2.0000      -0.544067       -14.8048
  26   2.0000      -0.534832       -14.5535
  27   2.0000      -0.518445       -14.1076
  28   2.0000      -0.501426       -13.6445
  29   2.0000      -0.493069       -13.4171
  30   2.0000      -0.473127       -12.8744
  31   2.0000      -0.454704       -12.3731
  32   2.0000      -0.448838       -12.2135
  33   2.0000      -0.419778       -11.4227
  34   0.0000       0.114889         3.1263
  35   0.0000       0.143186         3.8963
  36   0.0000       0.146304         3.9811
  37   0.0000       0.168589         4.5875
  38   0.0000       0.177149         4.8205

MULLIKEN ATOMIC CHARGES
-----------------------
   0 C :   -0.438503
   1 C :    0.227207
   2 C :   -0.143319
   3 C :   -0.192370
   4 N :   -0.052261
   5 C :   -0.250987
   6 C :   -0.251066
   7 C :   -0.043076
   8 O :   -0.315174
   9 H :    0.133243
  10 H :    0.127570
  11 H :    0.166887
  12 H :    0.154349
  13 H :    0.150768
  14 H :    0.130594
  15 H :    0.131933
  16 H :    0.115653
  17 H :    0.133552
  18 H :    0.121811
  19 H :    0.093189
Sum of atomic charges:   -0.0000000

LOEWDIN ATOMIC CHARGES
----------------------
   0 C :   -0.264005
   1 C :   -0.349428
   2 C :   -0.209563
   3 C :   -0.190938
   4 N :    0.057277
   5 C :   -0.216467
   6 C :   -0.262222
   7 C :   -0.300330
   8 O :    0.197143
   9 H :    0.129346
  10 H :    0.128837
  11 H :    0.136816
  12 H :    0.166242
  13 H :    0.166660
  14 H :    0.141563
  15 H :    0.145331
  16 H :    0.136852
  17 H :    0.138611
  18 H :    0.127452
  19 H :    0.120824

  Mayer bond orders larger than 0.1
B(  0-C ,  1-C ) :   0.9040 B(  0-C ,  9-H ) :   0.9316 B(  0-C , 10-H ) :   0.9312
B(  0-C , 11-H ) :   0.9346 B(  1-C ,  2-C ) :   0.8993 B(  1-C ,  5-C ) :   0.8767
B(  1-C ,  8-O ) :   0.8953 B(  2-C ,  3-C ) :   0.9557 B(  2-C , 12-H ) :   0.9085
B(  2-C , 13-H ) :   0.8982 B(  3-C ,  4-N ) :   2.8796 B(  5-C ,  6-C ) :   0.9296
B(  5-C , 14-H ) :   0.9236 B(  5-C , 15-H ) :   0.9333 B(  6-C ,  7-C ) :   0.9565
B(  6-C , 16-H ) :   0.9251 B(  6-C , 17-H ) :   0.9252 B(  7-C ,  8-O ) :   0.9460
B(  7-C , 18-H ) :   0.9247 B(  7-C , 19-H ) :   0.9268

MP2 TOTAL ENERGY:     -402.492056001 Eh
FINAL SINGLE POINT ENERGY      -402.492056000710

DIPOLE MOMENT
-------------
                                X             Y             Z
Electronic contribution:     -6.13843      -0.97932       5.39016
Nuclear contribution   :      7.43977       0.67762      -7.13668
                        -----------------------------------------
Total Dipole Moment    :      1.30134      -0.30169      -1.74652
                        -----------------------------------------
Magnitude (a.u.)       :      2.19883
Magnitude (Debye)      :      5.58898

                             ****ORCA TERMINATED NORMALLY****
TOTAL RUN TIME: 0 days 0 hours 20 minutes 10 seconds 521 msec
