                         Program Version 3.0.3 - RELEASE   -
|  1> ! RI-MP2 RIJK def2-TZVP def2-TZVP/C def2-TZVP/JK TIGHTSCF
|  2> % maxcore 2000
|  3> % mp2 density relaxed end
|  4> *xyz 0 1
|  5>  C        0.2582423767     1.5137369672     0.1789346574
|  6>  C        0.3045211284     0.0028951678    -0.0340687378
|  7>  C        0.9105808099    -0.4094925106    -1.3702041275
|  8>  O        1.4438273813     0.3888840604    -2.1062895724
|  9>  C        0.7843319991    -1.8874616985    -1.7362436981
| 10>  C        1.6903213005    -2.3143030105    -2.8662148793
| 11>  C        3.0514925248    -2.8906706276    -2.5732894250
| 12>  C        1.9555648534    -3.7759892064    -3.1166779740
| 13>  H        1.2573485545     1.9470105952     0.0920632469
| 14>  H       -0.3700754684     1.9960349066    -0.5748730067
| 15>  H       -0.1431572669     1.7546481569     1.1672508062
| 16>  H        0.8989205491    -0.4861629135     0.7515866894
| 17>  H       -0.6939574858    -0.4477532049     0.0473211813
| 18>  H        0.9525040098    -2.4994143981    -0.8403581935
| 19>  H       -0.2726464536    -2.0509393401    -2.0002348921
| 20>  H        1.6276021724    -1.6729503534    -3.7384465078
| 21>  H        3.8746822241    -2.6244974398    -3.2265069485
| 22>  H        3.3368417197    -3.0206461838    -1.5339574144
| 23>  H        1.5078678688    -4.4990057889    -2.4420040977
| 24>  H        2.0287603820    -4.1179319380    -4.1431870766
| 25> *
| 26>
| 27>                          ****END OF INPUT****

CARTESIAN COORDINATES (ANGSTROEM)
---------------------------------
  C      0.258242    1.513737    0.178935
  C      0.304521    0.002895   -0.034069
  C      0.910581   -0.409493   -1.370204
  O      1.443827    0.388884   -2.106290
  C      0.784332   -1.887462   -1.736244
  C      1.690321   -2.314303   -2.866215
  C      3.051493   -2.890671   -2.573289
  C      1.955565   -3.775989   -3.116678
  H      1.257349    1.947011    0.092063
  H     -0.370075    1.996035   -0.574873
  H     -0.143157    1.754648    1.167251
  H      0.898921   -0.486163    0.751587
  H     -0.693957   -0.447753    0.047321
  H      0.952504   -2.499414   -0.840358
  H     -0.272646   -2.050939   -2.000235
  H      1.627602   -1.672950   -3.738447
  H      3.874682   -2.624497   -3.226507
  H      3.336842   -3.020646   -1.533957
  H      1.507868   -4.499006   -2.442004
  H      2.028760   -4.117932   -4.143187

 Total Charge           Charge          ....    0
 Multiplicity           Mult            ....    1
 Number of Electrons    NEL             ....   62
 Basis Dimension        Dim             ....  320

ORBITAL ENERGIES
----------------

  NO   OCC          E(Eh)            E(eV)
   0   2.0000     -20.539929      -558.9199
   1   2.0000     -11.325123      -308.1723
   2   2.0000     -11.239879      -305.8526
   3   2.0000     -11.238707      -305.8208
   4   2.0000     -11.231175      -305.6158
   5   2.0000     -11.224550      -305.4355
   6   2.0000     -11.223074      -305.3954
   7   2.0000     -11.216521      -305.2171
   8   2.0000      -1.384806       -37.6825
   9   2.0000      -1.145763       -31.1778
  10   2.0000      -1.058254       -28.7966
  11   2.0000      -1.000463       -27.2240
  12   2.0000      -0.883080       -24.0298
  13   2.0000      -0.822188       -22.3729
  14   2.0000      -0.788050       -21.4439
  15   2.0000      -0.729094       -19.8397
  16   2.0000      -0.676963       -18.4211
  17   2.0000      -0.651192       -17.7198
  18   2.0000      -0.632598       -17.2139
  19   2.0000      -0.626260       -17.0414
  20   2.0000      -0.601138       -16.3578
  21   2.0000      -0.576386       -15.6843
  22   2.0000      -0.537325       -14.6214
  23   2.0000      -0.515821       -14.0362
  24   2.0000      -0.512876       -13.9561
  25   2.0000      -0.506090       -13.7714
  26   2.0000      -0.496027       -13.4976
  27   2.0000      -0.483313       -13.1516
  28   2.0000      -0.430111       -11.7039
  29   2.0000      -0.413570       -11.2538
  30   2.0000      -0.393263       -10.7012
  31   0.0000       0.124144         3.3781
  32   0.0000       0.143918         3.9162
  33   0.0000       0.157159         4.2765
  34   0.0000       0.166527         4.5314
  35   0.0000       0.177265         4.8236

MULLIKEN ATOMIC CHARGES
-----------------------
   0 C :   -0.368562
   1 C :   -0.229441
   2 C :    0.177214
   3 O :   -0.299394
   4 C :   -0.277431
   5 C :   -0.049679
   6 C :   -0.282908
   7 C :   -0.249758
   8 H :    0.138329
   9 H :    0.128682
  10 H :    0.131679
  11 H :    0.130643
  12 H :    0.130530
  13 H :    0.138982
  14 H :    0.143084
  15 H :    0.131935
  16 H :    0.131122
  17 H :    0.121843
  18 H :    0.122300
  19 H :    0.130829
Sum of atomic charges:   -0.0000000

LOEWDIN ATOMIC CHARGES
----------------------
   0 C :   -0.312526
   1 C :   -0.271844
   2 C :   -0.318650
   3 O :    0.155912
   4 C :   -0.227126
   5 C :   -0.227426
   6 C :   -0.227674
   7 C :   -0.231965
   8 H :    0.127886
   9 H :    0.125752
  10 H :    0.120739
  11 H :    0.151151
  12 H :    0.148022
  13 H :    0.152782
  14 H :    0.157741
  15 H :    0.153717
  16 H :    0.131772
  17 H :    0.130418
  18 H :    0.130590
  19 H :    0.130730

  Mayer bond orders larger than 0.1
B(  0-C ,  1-C ) :   0.9366 B(  0-C ,  8-H ) :   0.9346 B(  0-C ,  9-H ) :   0.9374
B(  0-C , 10-H ) :   0.9391 B(  1-C ,  2-C ) :   0.9245 B(  1-C , 11-H ) :   0.9085
B(  1-C , 12-H ) :   0.9195 B(  2-C ,  3-O ) :   1.9694 B(  2-C ,  4-C ) :   0.9214
B(  4-C ,  5-C ) :   0.9094 B(  4-C , 13-H ) :   0.9274 B(  4-C , 14-H ) :   0.8937
B(  5-C ,  6-C ) :   0.8972 B(  5-C ,  7-C ) :   0.8737 B(  5-C , 15-H ) :   0.9273
B(  6-C ,  7-C ) :   0.9051 B(  6-C , 16-H ) :   0.9302 B(  6-C , 17-H ) :   0.9293
B(  7-C , 18-H ) :   0.9260 B(  7-C , 19-H ) :   0.9329

MP2 TOTAL ENERGY:     -348.402156457 Eh
FINAL SINGLE POINT ENERGY      -348.402156457396

DIPOLE MOMENT
-------------
                                X             Y             Z
Electronic contribution:      0.94560       1.37740      -2.91466
Nuclear contribution   :     -1.38924      -1.99404       3.49876
                        -----------------------------------------
Total Dipole Moment    :     -0.44364      -0.61664       0.58410
                        -----------------------------------------
Magnitude (a.u.)       :      0.95825
Magnitude (Debye)      :      2.43568

                             ****ORCA TERMINATED NORMALLY****
TOTAL RUN TIME: 0 days 0 hours 12 minutes 43 seconds 299 msec
