                         Program Version 3.0.3 - RELEASE   -
|  1> ! RI-MP2 RIJK def2-TZVP def2-TZVP/C def2-TZVP/JK TIGHTSCF
|  2> % maxcore 2000
|  3> % mp2 density relaxed end
|  4> *xyz 0 1
|  5>  C       -0.0419175205     1.5437995987    -0.0366998353
|  6>  C        1.5319810708     1.5662795178    -0.0510992272
|  7>  C        1.5431046269     0.0075327810    -0.0197811085
|  8>  C        1.5742564166    -0.7719509780     1.3228973533
|  9>  C        0.0077853360    -0.7942494980     1.3372901031
| 10>  C       -0.0079386528    -0.0146228968    -0.0055733129
| 11>  C        0.0212284826    -0.8441490253    -1.2964267030
| 12>  O        0.7481053386    -0.0865702820    -2.2680893019
| 13>  C        1.5140081507    -0.8228178330    -1.3101054517
| 14>  H       -0.5057033390     2.0022561957     0.8410370159
| 15>  H       -0.4986311159     1.9628540074    -0.9349869777
| 16>  H        1.9600358340     1.9979773614    -0.9574774352
| 17>  H        1.9984627395     2.0380192683     0.8181287880
| 18>  H        2.0550391827    -1.7530405604     1.2752827405
| 19>  H        2.0298306938    -0.2168392399     2.1467798451
| 20>  H       -0.4457246301    -1.7886197154     1.2984235830
| 21>  H       -0.4481410198    -0.2519670120     2.1694824903
| 22>  H       -0.6873318041    -1.5708615013    -1.6840664767
| 23>  H        2.2358174300    -1.5290947884    -1.7108517691
| 24> *
| 25>
| 26>                          ****END OF INPUT****

CARTESIAN COORDINATES (ANGSTROEM)
---------------------------------
  C     -0.041918    1.543800   -0.036700
  C      1.531981    1.566280   -0.051099
  C      1.543105    0.007533   -0.019781
  C      1.574256   -0.771951    1.322897
  C      0.007785   -0.794249    1.337290
  C     -0.007939   -0.014623   -0.005573
  C      0.021228   -0.844149   -1.296427
  O      0.748105   -0.086570   -2.268089
  C      1.514008   -0.822818   -1.310105
  H     -0.505703    2.002256    0.841037
  H     -0.498631    1.962854   -0.934987
  H      1.960036    1.997977   -0.957477
  H      1.998463    2.038019    0.818129
  H      2.055039   -1.753041    1.275283
  H      2.029831   -0.216839    2.146780
  H     -0.445725   -1.788620    1.298424
  H     -0.448141   -0.251967    2.169482
  H     -0.687332   -1.570862   -1.684066
  H      2.235817   -1.529095   -1.710852

 Total Charge           Charge          ....    0
 Multiplicity           Mult            ....    1
 Number of Electrons    NEL             ....   66
 Basis Dimension        Dim             ....  339

ORBITAL ENERGIES
----------------

  NO   OCC          E(Eh)            E(eV)
   0   2.0000     -20.567740      -559.6767
   1   2.0000     -11.288612      -307.1788
   2   2.0000     -11.287912      -307.1597
   3   2.0000     -11.231697      -305.6300
   4   2.0000     -11.231181      -305.6160
   5   2.0000     -11.226645      -305.4925
   6   2.0000     -11.226054      -305.4764
   7   2.0000     -11.223434      -305.4052
   8   2.0000     -11.222928      -305.3914
   9   2.0000      -1.419298       -38.6211
  10   2.0000      -1.177234       -32.0342
  11   2.0000      -1.018465       -27.7139
  12   2.0000      -0.962782       -26.1986
  13   2.0000      -0.936605       -25.4863
  14   2.0000      -0.832296       -22.6479
  15   2.0000      -0.824211       -22.4279
  16   2.0000      -0.814844       -22.1730
  17   2.0000      -0.701397       -19.0860
  18   2.0000      -0.663072       -18.0431
  19   2.0000      -0.648617       -17.6498
  20   2.0000      -0.633020       -17.2254
  21   2.0000      -0.594804       -16.1854
  22   2.0000      -0.579369       -15.7654
  23   2.0000      -0.555156       -15.1066
  24   2.0000      -0.537474       -14.6254
  25   2.0000      -0.529507       -14.4086
  26   2.0000      -0.496271       -13.5042
  27   2.0000      -0.492864       -13.4115
  28   2.0000      -0.455135       -12.3849
  29   2.0000      -0.433760       -11.8032
  30   2.0000      -0.419820       -11.4239
  31   2.0000      -0.397801       -10.8247
  32   2.0000      -0.342007        -9.3065
  33   0.0000       0.141554         3.8519
  34   0.0000       0.145780         3.9669
  35   0.0000       0.165145         4.4938
  36   0.0000       0.178274         4.8511
  37   0.0000       0.179281         4.8785

MULLIKEN ATOMIC CHARGES
-----------------------
   0 C :   -0.268841
   1 C :   -0.268826
   2 C :    0.194878
   3 C :   -0.277559
   4 C :   -0.277576
   5 C :    0.194905
   6 C :   -0.092954
   7 O :   -0.315535
   8 C :   -0.092962
   9 H :    0.114206
  10 H :    0.119531
  11 H :    0.119531
  12 H :    0.114207
  13 H :    0.119122
  14 H :    0.120224
  15 H :    0.119125
  16 H :    0.120221
  17 H :    0.129151
  18 H :    0.129151
Sum of atomic charges:    0.0000000

LOEWDIN ATOMIC CHARGES
----------------------
   0 C :   -0.193859
   1 C :   -0.193858
   2 C :   -0.160571
   3 C :   -0.192562
   4 C :   -0.192563
   5 C :   -0.160570
   6 C :   -0.205808
   7 O :    0.188968
   8 C :   -0.205810
   9 H :    0.128295
  10 H :    0.136126
  11 H :    0.136127
  12 H :    0.128296
  13 H :    0.132151
  14 H :    0.133271
  15 H :    0.132145
  16 H :    0.133277
  17 H :    0.128472
  18 H :    0.128473

  Mayer bond orders larger than 0.1
B(  0-C ,  1-C ) :   1.0084 B(  0-C ,  5-C ) :   0.9183 B(  0-C ,  9-H ) :   0.9139
B(  0-C , 10-H ) :   0.9017 B(  1-C ,  2-C ) :   0.9183 B(  1-C , 11-H ) :   0.9017
B(  1-C , 12-H ) :   0.9139 B(  2-C ,  3-C ) :   0.8979 B(  2-C ,  5-C ) :   0.8968
B(  2-C ,  8-C ) :   0.8695 B(  3-C ,  4-C ) :   0.9816 B(  3-C , 13-H ) :   0.9136
B(  3-C , 14-H ) :   0.9155 B(  4-C ,  5-C ) :   0.8979 B(  4-C , 15-H ) :   0.9136
B(  4-C , 16-H ) :   0.9155 B(  5-C ,  6-C ) :   0.8695 B(  6-C ,  7-O ) :   0.9233
B(  6-C ,  8-C ) :   0.9312 B(  6-C , 17-H ) :   0.9205 B(  7-O ,  8-C ) :   0.9233
B(  8-C , 18-H ) :   0.9205

MP2 TOTAL ENERGY:     -385.114077642 Eh
FINAL SINGLE POINT ENERGY      -385.114077641927

DIPOLE MOMENT
-------------
                                X             Y             Z
Electronic contribution:     -0.02684      -1.32799      -5.00050
Nuclear contribution   :      0.03732       0.99208       5.61969
                        -----------------------------------------
Total Dipole Moment    :      0.01048      -0.33592       0.61919
                        -----------------------------------------
Magnitude (a.u.)       :      0.70452
Magnitude (Debye)      :      1.79074

                             ****ORCA TERMINATED NORMALLY****
TOTAL RUN TIME: 0 days 0 hours 20 minutes 42 seconds 103 msec
