                         Program Version 3.0.3 - RELEASE   -
|  1> ! RI-MP2 RIJK def2-TZVP def2-TZVP/C def2-TZVP/JK TIGHTSCF
|  2> % maxcore 2000
|  3> % mp2 density relaxed end
|  4> *xyz 0 1
|  5>  C       -0.4273015056     1.3719655795    -0.2932914536
|  6>  C       -0.3594838305    -0.1544013518    -0.3746341147
|  7>  C        0.8323958124    -0.6466102033    -1.1969450567
|  8>  C        0.8751984444    -2.1680221843    -1.4039497674
|  9>  O        0.1633622241    -2.3524570138    -2.6216563476
| 10>  C        0.4357399185    -1.2151799411    -3.4184953218
| 11>  C       -0.8102786916    -0.9128929244    -4.2488707500
| 12>  O       -1.9787334400    -0.8895267445    -3.4610267186
| 13>  O        0.7639615150    -0.1542221586    -2.5410289318
| 14>  H        0.4649773116     1.7845335801     0.1914968794
| 15>  H       -0.4960952506     1.8013635159    -1.2958453324
| 16>  H       -1.3002261908     1.6973844753     0.2799324794
| 17>  H       -0.2857355759    -0.5854778546     0.6326007041
| 18>  H       -1.2763200936    -0.5400559470    -0.8334126348
| 19>  H        1.7676267809    -0.2790734022    -0.7561447998
| 20>  H        1.9078823145    -2.5325714326    -1.5016936300
| 21>  H        0.3671608577    -2.7343684310    -0.6200810058
| 22>  H        1.2999393856    -1.4043383598    -4.0803295304
| 23>  H       -0.6960628613     0.0736237158    -4.7069805310
| 24>  H       -0.8737182019    -1.6601294915    -5.0564149762
| 25>  H       -1.9602408230    -1.7076628762    -2.9494621102
| 26> *
| 27>
| 28>                          ****END OF INPUT****

CARTESIAN COORDINATES (ANGSTROEM)
---------------------------------
  C     -0.427302    1.371966   -0.293291
  C     -0.359484   -0.154401   -0.374634
  C      0.832396   -0.646610   -1.196945
  C      0.875198   -2.168022   -1.403950
  O      0.163362   -2.352457   -2.621656
  C      0.435740   -1.215180   -3.418495
  C     -0.810279   -0.912893   -4.248871
  O     -1.978733   -0.889527   -3.461027
  O      0.763962   -0.154222   -2.541029
  H      0.464977    1.784534    0.191497
  H     -0.496095    1.801364   -1.295845
  H     -1.300226    1.697384    0.279932
  H     -0.285736   -0.585478    0.632601
  H     -1.276320   -0.540056   -0.833413
  H      1.767627   -0.279073   -0.756145
  H      1.907882   -2.532571   -1.501694
  H      0.367161   -2.734368   -0.620081
  H      1.299939   -1.404338   -4.080330
  H     -0.696063    0.073624   -4.706981
  H     -0.873718   -1.660129   -5.056415
  H     -1.960241   -1.707663   -2.949462

 Total Charge           Charge          ....    0
 Multiplicity           Mult            ....    1
 Number of Electrons    NEL             ....   72
 Basis Dimension        Dim             ....  351

ORBITAL ENERGIES
----------------

  NO   OCC          E(Eh)            E(eV)
   0   2.0000     -20.576746      -559.9217
   1   2.0000     -20.561275      -559.5007
   2   2.0000     -20.552033      -559.2492
   3   2.0000     -11.336246      -308.4749
   4   2.0000     -11.289198      -307.1947
   5   2.0000     -11.287488      -307.1482
   6   2.0000     -11.274626      -306.7982
   7   2.0000     -11.221899      -305.3634
   8   2.0000     -11.208972      -305.0116
   9   2.0000      -1.446728       -39.3675
  10   2.0000      -1.357969       -36.9522
  11   2.0000      -1.338051       -36.4102
  12   2.0000      -1.079321       -29.3698
  13   2.0000      -1.009849       -27.4794
  14   2.0000      -0.945226       -25.7209
  15   2.0000      -0.873759       -23.7762
  16   2.0000      -0.828896       -22.5554
  17   2.0000      -0.803875       -21.8745
  18   2.0000      -0.720566       -19.6076
  19   2.0000      -0.710242       -19.3267
  20   2.0000      -0.665445       -18.1077
  21   2.0000      -0.645760       -17.5720
  22   2.0000      -0.632345       -17.2070
  23   2.0000      -0.608868       -16.5681
  24   2.0000      -0.593247       -16.1431
  25   2.0000      -0.576273       -15.6812
  26   2.0000      -0.565827       -15.3969
  27   2.0000      -0.534371       -14.5410
  28   2.0000      -0.523548       -14.2465
  29   2.0000      -0.520737       -14.1700
  30   2.0000      -0.502402       -13.6710
  31   2.0000      -0.484756       -13.1909
  32   2.0000      -0.476387       -12.9631
  33   2.0000      -0.456530       -12.4228
  34   2.0000      -0.439875       -11.9696
  35   2.0000      -0.413723       -11.2580
  36   0.0000       0.141140         3.8406
  37   0.0000       0.156149         4.2490
  38   0.0000       0.159018         4.3271
  39   0.0000       0.163418         4.4468
  40   0.0000       0.186044         5.0625

MULLIKEN ATOMIC CHARGES
-----------------------
   0 C :   -0.403397
   1 C :   -0.219289
   2 C :    0.111372
   3 C :   -0.061334
   4 O :   -0.348449
   5 C :    0.156391
   6 C :    0.007766
   7 O :   -0.475156
   8 O :   -0.325362
   9 H :    0.115096
  10 H :    0.148906
  11 H :    0.131831
  12 H :    0.102698
  13 H :    0.106496
  14 H :    0.096907
  15 H :    0.108499
  16 H :    0.127028
  17 H :    0.074218
  18 H :    0.116825
  19 H :    0.103796
  20 H :    0.325158
Sum of atomic charges:    0.0000000

LOEWDIN ATOMIC CHARGES
----------------------
   0 C :   -0.315764
   1 C :   -0.280000
   2 C :   -0.310292
   3 C :   -0.282952
   4 O :    0.165718
   5 C :   -0.401981
   6 C :   -0.334836
   7 O :   -0.036347
   8 O :    0.194300
   9 H :    0.119251
  10 H :    0.127727
  11 H :    0.121230
  12 H :    0.136679
  13 H :    0.139447
  14 H :    0.142360
  15 H :    0.123246
  16 H :    0.132739
  17 H :    0.127514
  18 H :    0.135543
  19 H :    0.122295
  20 H :    0.174122

  Mayer bond orders larger than 0.1
B(  0-C ,  1-C ) :   0.9282 B(  0-C ,  9-H ) :   0.9371 B(  0-C , 10-H ) :   0.9375
B(  0-C , 11-H ) :   0.9393 B(  1-C ,  2-C ) :   0.9217 B(  1-C , 12-H ) :   0.9241
B(  1-C , 13-H ) :   0.9199 B(  2-C ,  3-C ) :   0.9192 B(  2-C ,  8-O ) :   0.9036
B(  2-C , 14-H ) :   0.9160 B(  3-C ,  4-O ) :   0.9153 B(  3-C , 15-H ) :   0.9374
B(  3-C , 16-H ) :   0.9223 B(  4-O ,  5-C ) :   0.9635 B(  5-C ,  6-C ) :   0.9214
B(  5-C ,  8-O ) :   0.9644 B(  5-C , 17-H ) :   0.9216 B(  6-C ,  7-O ) :   0.9379
B(  6-C , 18-H ) :   0.9225 B(  6-C , 19-H ) :   0.9292 B(  7-O , 20-H ) :   0.8260

MP2 TOTAL ENERGY:     -460.637505977 Eh
FINAL SINGLE POINT ENERGY      -460.637505977379

DIPOLE MOMENT
-------------
                                X             Y             Z
Electronic contribution:      0.67701      -3.73997      -4.82807
Nuclear contribution   :     -0.05889       3.23741       5.27300
                        -----------------------------------------
Total Dipole Moment    :      0.61812      -0.50256       0.44493
                        -----------------------------------------
Magnitude (a.u.)       :      0.91247
Magnitude (Debye)      :      2.31931

                             ****ORCA TERMINATED NORMALLY****
TOTAL RUN TIME: 0 days 0 hours 27 minutes 53 seconds 767 msec
