                         Program Version 3.0.3 - RELEASE   -
|  1> ! RI-MP2 RIJK def2-TZVP def2-TZVP/C def2-TZVP/JK TIGHTSCF
|  2> % maxcore 2000
|  3> % mp2 density relaxed end
|  4> *xyz 0 1
|  5>  C        0.0082316790    -1.1943451632    -0.1490811164
|  6>  C       -0.0453661242     0.0029653356    -0.0682287344
|  7>  C       -0.0976171111     1.4227770003     0.0306072685
|  8>  N       -1.1405329670     2.1361162338    -0.1484905053
|  9>  C       -0.7273158591     3.5272136061     0.0491159125
| 10>  C       -1.0595869760     4.1022547811     1.4557878505
| 11>  C        0.4302274336     3.8992438884     1.8826641978
| 12>  C        0.7771167154     3.4328121953     0.4485037495
| 13>  O        1.0906062000     2.0307785642     0.3336863462
| 14>  H        0.0467285139    -2.2534280350    -0.2243151911
| 15>  H       -1.0252319875     4.1361861409    -0.8078272063
| 16>  H       -1.3744279225     5.1481837881     1.4348476628
| 17>  H       -1.8003210435     3.5218519065     2.0084628391
| 18>  H        0.9499920363     4.8043754019     2.2044833026
| 19>  H        0.5958240080     3.1196192637     2.6292036937
| 20>  H        1.5366636047     3.9950462523    -0.0955445099
| 21> *
| 22>
| 23>                          ****END OF INPUT****

CARTESIAN COORDINATES (ANGSTROEM)
---------------------------------
  C      0.008232   -1.194345   -0.149081
  C     -0.045366    0.002965   -0.068229
  C     -0.097617    1.422777    0.030607
  N     -1.140533    2.136116   -0.148491
  C     -0.727316    3.527214    0.049116
  C     -1.059587    4.102255    1.455788
  C      0.430227    3.899244    1.882664
  C      0.777117    3.432812    0.448504
  O      1.090606    2.030779    0.333686
  H      0.046729   -2.253428   -0.224315
  H     -1.025232    4.136186   -0.807827
  H     -1.374428    5.148184    1.434848
  H     -1.800321    3.521852    2.008463
  H      0.949992    4.804375    2.204483
  H      0.595824    3.119619    2.629204
  H      1.536664    3.995046   -0.095545

 Total Charge           Charge          ....    0
 Multiplicity           Mult            ....    1
 Number of Electrons    NEL             ....   64
 Basis Dimension        Dim             ....  321

ORBITAL ENERGIES
----------------

  NO   OCC          E(Eh)            E(eV)
   0   2.0000     -20.599053      -560.5287
   1   2.0000     -15.558700      -423.3737
   2   2.0000     -11.360103      -309.1241
   3   2.0000     -11.294540      -307.3401
   4   2.0000     -11.267125      -306.5940
   5   2.0000     -11.256133      -306.2949
   6   2.0000     -11.251577      -306.1710
   7   2.0000     -11.234105      -305.6955
   8   2.0000     -11.231797      -305.6327
   9   2.0000      -1.442919       -39.2638
  10   2.0000      -1.226189       -33.3663
  11   2.0000      -1.128049       -30.6958
  12   2.0000      -1.052665       -28.6445
  13   2.0000      -0.941641       -25.6234
  14   2.0000      -0.910999       -24.7895
  15   2.0000      -0.837846       -22.7990
  16   2.0000      -0.781577       -21.2678
  17   2.0000      -0.743533       -20.2326
  18   2.0000      -0.718429       -19.5494
  19   2.0000      -0.683868       -18.6090
  20   2.0000      -0.627521       -17.0757
  21   2.0000      -0.620465       -16.8837
  22   2.0000      -0.601201       -16.3595
  23   2.0000      -0.564812       -15.3693
  24   2.0000      -0.521243       -14.1837
  25   2.0000      -0.497923       -13.5492
  26   2.0000      -0.492207       -13.3936
  27   2.0000      -0.478190       -13.0122
  28   2.0000      -0.432111       -11.7583
  29   2.0000      -0.425215       -11.5707
  30   2.0000      -0.414959       -11.2916
  31   2.0000      -0.365599        -9.9485
  32   0.0000       0.101986         2.7752
  33   0.0000       0.143781         3.9125
  34   0.0000       0.157321         4.2809
  35   0.0000       0.162339         4.4175
  36   0.0000       0.166494         4.5305

MULLIKEN ATOMIC CHARGES
-----------------------
   0 C :   -0.056857
   1 C :    0.097080
   2 C :   -0.019886
   3 N :   -0.271070
   4 C :    0.034002
   5 C :   -0.238731
   6 C :   -0.265912
   7 C :    0.041391
   8 O :   -0.269793
   9 H :    0.203845
  10 H :    0.123172
  11 H :    0.121351
  12 H :    0.125316
  13 H :    0.124487
  14 H :    0.130522
  15 H :    0.121084
Sum of atomic charges:   -0.0000000

LOEWDIN ATOMIC CHARGES
----------------------
   0 C :   -0.038396
   1 C :   -0.048347
   2 C :   -0.359459
   3 N :    0.137273
   4 C :   -0.233978
   5 C :   -0.213069
   6 C :   -0.218377
   7 C :   -0.229505
   8 O :    0.261615
   9 H :    0.132139
  10 H :    0.138413
  11 H :    0.131698
  12 H :    0.134470
  13 H :    0.131943
  14 H :    0.138769
  15 H :    0.134812

  Mayer bond orders larger than 0.1
B(  0-C ,  1-C ) :   2.6304 B(  0-C ,  2-C ) :  -0.1630 B(  0-C ,  9-H ) :   0.8707
B(  1-C ,  2-C ) :   1.1791 B(  2-C ,  3-N ) :   1.8388 B(  2-C ,  8-O ) :   1.1138
B(  3-N ,  4-C ) :   0.9230 B(  4-C ,  5-C ) :   0.9110 B(  4-C ,  7-C ) :   0.9244
B(  4-C , 10-H ) :   0.9367 B(  5-C ,  6-C ) :   0.9376 B(  5-C , 11-H ) :   0.9179
B(  5-C , 12-H ) :   0.9209 B(  6-C ,  7-C ) :   0.9019 B(  6-C , 13-H ) :   0.9199
B(  6-C , 14-H ) :   0.9082 B(  7-C ,  8-O ) :   0.8789 B(  7-C , 15-H ) :   0.9300

MP2 TOTAL ENERGY:     -400.010432749 Eh
FINAL SINGLE POINT ENERGY      -400.010432749102

DIPOLE MOMENT
-------------
                                X             Y             Z
Electronic contribution:      0.89278      -6.13943      -3.50905
Nuclear contribution   :     -0.54958       6.57527       3.75872
                        -----------------------------------------
Total Dipole Moment    :      0.34320       0.43584       0.24967
                        -----------------------------------------
Magnitude (a.u.)       :      0.60834
Magnitude (Debye)      :      1.54627

                             ****ORCA TERMINATED NORMALLY****
TOTAL RUN TIME: 0 days 0 hours 17 minutes 19 seconds 634 msec
