                         Program Version 3.0.3 - RELEASE   -
|  1> ! RI-MP2 RIJK def2-TZVP def2-TZVP/C def2-TZVP/JK TIGHTSCF
|  2> % maxcore 2000
|  3> % mp2 density relaxed end
|  4> *xyz 0 1
|  5>  C       -0.3286076734     1.5237173245    -0.1140148470
|  6>  C       -0.1934560241     0.0007485709    -0.1626947238
|  7>  C        1.0268571193    -0.4523532424    -0.9905810597
|  8>  C        1.1752656255    -1.9021218794    -1.0522266941
|  9>  C        1.2774162642    -3.1022791900    -1.0696488367
| 10>  C        1.3875962712    -4.5511813517    -1.1597400237
| 11>  C        1.0755170491    -5.0700773178    -2.5649878528
| 12>  O        0.4767918635    -6.0876772064    -2.7833417916
| 13>  H        0.5566625908     1.9874638738     0.3353610831
| 14>  H       -0.4488169216     1.9447115211    -1.1184721426
| 15>  H       -1.1980355214     1.8236609564     0.4783643758
| 16>  H       -0.1018129188    -0.4030397255     0.8516963643
| 17>  H       -1.0972882987    -0.4456646654    -0.5918452751
| 18>  H        0.9423011786    -0.0508024395    -2.0094978150
| 19>  H        1.9378121702    -0.0071711345    -0.5679557244
| 20>  H        2.4161325057    -4.8703685201    -0.9289002335
| 21>  H        0.7304228534    -5.0678771872    -0.4524571573
| 22>  H        1.4647524366    -4.4268464268    -3.3841317658
| 23> *
| 24>
| 25>                          ****END OF INPUT****

CARTESIAN COORDINATES (ANGSTROEM)
---------------------------------
  C     -0.328608    1.523717   -0.114015
  C     -0.193456    0.000749   -0.162695
  C      1.026857   -0.452353   -0.990581
  C      1.175266   -1.902122   -1.052227
  C      1.277416   -3.102279   -1.069649
  C      1.387596   -4.551181   -1.159740
  C      1.075517   -5.070077   -2.564988
  O      0.476792   -6.087677   -2.783342
  H      0.556663    1.987464    0.335361
  H     -0.448817    1.944712   -1.118472
  H     -1.198036    1.823661    0.478364
  H     -0.101813   -0.403040    0.851696
  H     -1.097288   -0.445665   -0.591845
  H      0.942301   -0.050802   -2.009498
  H      1.937812   -0.007171   -0.567956
  H      2.416133   -4.870369   -0.928900
  H      0.730423   -5.067877   -0.452457
  H      1.464752   -4.426846   -3.384132

 Total Charge           Charge          ....    0
 Multiplicity           Mult            ....    1
 Number of Electrons    NEL             ....   60
 Basis Dimension        Dim             ....  308

ORBITAL ENERGIES
----------------

  NO   OCC          E(Eh)            E(eV)
   0   2.0000     -20.563583      -559.5635
   1   2.0000     -11.340734      -308.5971
   2   2.0000     -11.269506      -306.6589
   3   2.0000     -11.255030      -306.2649
   4   2.0000     -11.235586      -305.7358
   5   2.0000     -11.234696      -305.7116
   6   2.0000     -11.230718      -305.6034
   7   2.0000     -11.223092      -305.3959
   8   2.0000      -1.404114       -38.2079
   9   2.0000      -1.101798       -29.9815
  10   2.0000      -1.070954       -29.1422
  11   2.0000      -1.001434       -27.2504
  12   2.0000      -0.934473       -25.4283
  13   2.0000      -0.826729       -22.4964
  14   2.0000      -0.812477       -22.1086
  15   2.0000      -0.704833       -19.1795
  16   2.0000      -0.660579       -17.9753
  17   2.0000      -0.648810       -17.6550
  18   2.0000      -0.639250       -17.3949
  19   2.0000      -0.633178       -17.2296
  20   2.0000      -0.597161       -16.2496
  21   2.0000      -0.579446       -15.7675
  22   2.0000      -0.561455       -15.2780
  23   2.0000      -0.523394       -14.2423
  24   2.0000      -0.514842       -14.0096
  25   2.0000      -0.499021       -13.5791
  26   2.0000      -0.488362       -13.2890
  27   2.0000      -0.440272       -11.9804
  28   2.0000      -0.379895       -10.3375
  29   2.0000      -0.376249       -10.2383
  30   0.0000       0.122795         3.3414
  31   0.0000       0.131102         3.5675
  32   0.0000       0.147398         4.0109
  33   0.0000       0.167801         4.5661
  34   0.0000       0.172636         4.6977

MULLIKEN ATOMIC CHARGES
-----------------------
   0 C :   -0.396077
   1 C :   -0.155751
   2 C :   -0.402618
   3 C :    0.002111
   4 C :    0.024008
   5 C :   -0.240901
   6 C :    0.121684
   7 O :   -0.256391
   8 H :    0.124177
   9 H :    0.124504
  10 H :    0.138407
  11 H :    0.115366
  12 H :    0.116300
  13 H :    0.141822
  14 H :    0.141368
  15 H :    0.161736
  16 H :    0.152492
  17 H :    0.087763
Sum of atomic charges:   -0.0000000

LOEWDIN ATOMIC CHARGES
----------------------
   0 C :   -0.319688
   1 C :   -0.278945
   2 C :   -0.253577
   3 C :   -0.073094
   4 C :   -0.090730
   5 C :   -0.247725
   6 C :   -0.275586
   7 O :    0.139898
   8 H :    0.121056
   9 H :    0.121138
  10 H :    0.123192
  11 H :    0.138333
  12 H :    0.138541
  13 H :    0.155396
  14 H :    0.155140
  15 H :    0.169791
  16 H :    0.162142
  17 H :    0.114718

  Mayer bond orders larger than 0.1
B(  0-C ,  1-C ) :   0.9179 B(  0-C ,  8-H ) :   0.9380 B(  0-C ,  9-H ) :   0.9380
B(  0-C , 10-H ) :   0.9419 B(  1-C ,  2-C ) :   0.9446 B(  1-C , 11-H ) :   0.9309
B(  1-C , 12-H ) :   0.9314 B(  2-C ,  3-C ) :   1.0431 B(  2-C ,  4-C ) :  -0.1234
B(  2-C , 13-H ) :   0.9259 B(  2-C , 14-H ) :   0.9283 B(  3-C ,  4-C ) :   2.6723
B(  4-C ,  5-C ) :   0.8537 B(  5-C ,  6-C ) :   0.8950 B(  5-C , 15-H ) :   0.9321
B(  5-C , 16-H ) :   0.9084 B(  6-C ,  7-O ) :   2.0025 B(  6-C , 17-H ) :   0.9293

MP2 TOTAL ENERGY:     -347.171645168 Eh
FINAL SINGLE POINT ENERGY      -347.171645168287

DIPOLE MOMENT
-------------
                                X             Y             Z
Electronic contribution:      2.15896     -13.02167      -4.37880
Nuclear contribution   :     -1.76418      13.99522       4.75020
                        -----------------------------------------
Total Dipole Moment    :      0.39477       0.97355       0.37140
                        -----------------------------------------
Magnitude (a.u.)       :      1.11426
Magnitude (Debye)      :      2.83223

                             ****ORCA TERMINATED NORMALLY****
TOTAL RUN TIME: 0 days 0 hours 10 minutes 17 seconds 252 msec
