                         Program Version 3.0.3 - RELEASE   -
|  1> ! RI-MP2 RIJK def2-TZVP def2-TZVP/C def2-TZVP/JK TIGHTSCF
|  2> % maxcore 2000
|  3> % mp2 density relaxed end
|  4> *xyz 0 1
|  5>  O        1.0295668242     1.0364941378     0.3902269045
|  6>  C        0.4233186813    -0.1771996823     0.1359148748
|  7>  C        0.4846851664    -1.0627881217    -1.1507595606
|  8>  C       -0.5228033344    -1.7546996688    -0.1861090032
|  9>  C        0.5014959431    -1.5054087492     0.9584931633
| 10>  C       -1.1178953595    -0.3333464281     0.0717015665
| 11>  C       -1.9818468185    -0.0189839109     1.2986594144
| 12>  C       -3.3413265446    -0.5374630416     1.1516280781
| 13>  N       -4.4099990358    -0.9564843700     1.0173690826
| 14>  H        1.9851098499     0.9140038163     0.3896001452
| 15>  H        0.0751225081    -0.6286780860    -2.0660451521
| 16>  H        1.4206990747    -1.5970442635    -1.3323310069
| 17>  H       -1.0807199927    -2.6672257196    -0.3769850933
| 18>  H        1.4399459532    -2.0619202170     0.8879789680
| 19>  H        0.1352365747    -1.4977784868     1.9858804620
| 20>  H       -1.5720978772     0.1202398208    -0.8145698731
| 21>  H       -1.5583674571    -0.4230560270     2.2222848569
| 22>  H       -2.0365589358     1.0678245875     1.4313787629
| 23> *
| 24>
| 25>                          ****END OF INPUT****

CARTESIAN COORDINATES (ANGSTROEM)
---------------------------------
  O      1.029567    1.036494    0.390227
  C      0.423319   -0.177200    0.135915
  C      0.484685   -1.062788   -1.150760
  C     -0.522803   -1.754700   -0.186109
  C      0.501496   -1.505409    0.958493
  C     -1.117895   -0.333346    0.071702
  C     -1.981847   -0.018984    1.298659
  C     -3.341327   -0.537463    1.151628
  N     -4.409999   -0.956484    1.017369
  H      1.985110    0.914004    0.389600
  H      0.075123   -0.628678   -2.066045
  H      1.420699   -1.597044   -1.332331
  H     -1.080720   -2.667226   -0.376985
  H      1.439946   -2.061920    0.887979
  H      0.135237   -1.497778    1.985880
  H     -1.572098    0.120240   -0.814570
  H     -1.558367   -0.423056    2.222285
  H     -2.036559    1.067825    1.431379

 Total Charge           Charge          ....    0
 Multiplicity           Mult            ....    1
 Number of Electrons    NEL             ....   66
 Basis Dimension        Dim             ....  333

ORBITAL ENERGIES
----------------

  NO   OCC          E(Eh)            E(eV)
   0   2.0000     -20.581797      -560.0592
   1   2.0000     -15.564443      -423.5300
   2   2.0000     -11.318682      -307.9970
   3   2.0000     -11.279087      -306.9196
   4   2.0000     -11.269766      -306.6659
   5   2.0000     -11.262429      -306.4663
   6   2.0000     -11.261398      -306.4382
   7   2.0000     -11.245560      -306.0073
   8   2.0000     -11.244642      -305.9823
   9   2.0000      -1.395185       -37.9649
  10   2.0000      -1.228595       -33.4318
  11   2.0000      -1.212479       -32.9932
  12   2.0000      -1.058127       -28.7931
  13   2.0000      -0.931301       -25.3420
  14   2.0000      -0.897285       -24.4164
  15   2.0000      -0.862277       -23.4638
  16   2.0000      -0.753750       -20.5106
  17   2.0000      -0.732139       -19.9225
  18   2.0000      -0.698373       -19.0037
  19   2.0000      -0.661427       -17.9984
  20   2.0000      -0.642844       -17.4927
  21   2.0000      -0.626146       -17.0383
  22   2.0000      -0.599269       -16.3069
  23   2.0000      -0.572280       -15.5725
  24   2.0000      -0.552687       -15.0394
  25   2.0000      -0.527215       -14.3463
  26   2.0000      -0.492018       -13.3885
  27   2.0000      -0.485334       -13.2066
  28   2.0000      -0.473916       -12.8959
  29   2.0000      -0.458569       -12.4783
  30   2.0000      -0.450069       -12.2470
  31   2.0000      -0.443884       -12.0787
  32   2.0000      -0.425577       -11.5805
  33   0.0000       0.123872         3.3707
  34   0.0000       0.134994         3.6734
  35   0.0000       0.153434         4.1751
  36   0.0000       0.160148         4.3578
  37   0.0000       0.177585         4.8323

MULLIKEN ATOMIC CHARGES
-----------------------
   0 O :   -0.461043
   1 C :    0.114199
   2 C :   -0.198070
   3 C :   -0.164452
   4 C :   -0.239165
   5 C :   -0.054698
   6 C :   -0.150300
   7 C :   -0.185760
   8 N :   -0.061232
   9 H :    0.327717
  10 H :    0.121222
  11 H :    0.118821
  12 H :    0.162320
  13 H :    0.116824
  14 H :    0.117905
  15 H :    0.114612
  16 H :    0.150380
  17 H :    0.170721
Sum of atomic charges:   -0.0000000

LOEWDIN ATOMIC CHARGES
----------------------
   0 O :    0.027900
   1 C :   -0.332388
   2 C :   -0.179491
   3 C :   -0.155987
   4 C :   -0.183155
   5 C :   -0.151784
   6 C :   -0.219968
   7 C :   -0.189774
   8 N :    0.053509
   9 H :    0.186871
  10 H :    0.131866
  11 H :    0.129412
  12 H :    0.134645
  13 H :    0.130097
  14 H :    0.125149
  15 H :    0.157226
  16 H :    0.164467
  17 H :    0.171404

  Mayer bond orders larger than 0.1
B(  0-O ,  1-C ) :   0.9916 B(  0-O ,  9-H ) :   0.8332 B(  1-C ,  2-C ) :   0.8936
B(  1-C ,  4-C ) :   0.8878 B(  1-C ,  5-C ) :   0.8900 B(  2-C ,  3-C ) :   0.9117
B(  2-C , 10-H ) :   0.9293 B(  2-C , 11-H ) :   0.9223 B(  3-C ,  4-C ) :   0.8976
B(  3-C ,  5-C ) :   0.8967 B(  3-C , 12-H ) :   0.8914 B(  4-C , 13-H ) :   0.9230
B(  4-C , 14-H ) :   0.9310 B(  5-C ,  6-C ) :   0.8955 B(  5-C , 15-H ) :   0.9205
B(  6-C ,  7-C ) :   0.9343 B(  6-C , 16-H ) :   0.9020 B(  6-C , 17-H ) :   0.9120
B(  7-C ,  8-N ) :   2.8811

MP2 TOTAL ENERGY:     -401.230437143 Eh
FINAL SINGLE POINT ENERGY      -401.230437142668

DIPOLE MOMENT
-------------
                                X             Y             Z
Electronic contribution:     -4.73479       1.67852       1.22393
Nuclear contribution   :      6.65364      -1.64533      -1.25662
                        -----------------------------------------
Total Dipole Moment    :      1.91885       0.03319      -0.03268
                        -----------------------------------------
Magnitude (a.u.)       :      1.91941
Magnitude (Debye)      :      4.87876

                             ****ORCA TERMINATED NORMALLY****
TOTAL RUN TIME: 0 days 0 hours 16 minutes 19 seconds 990 msec
