                         Program Version 3.0.3 - RELEASE   -
|  1> ! RI-MP2 RIJK def2-TZVP def2-TZVP/C def2-TZVP/JK TIGHTSCF
|  2> % maxcore 2000
|  3> % mp2 density relaxed end
|  4> *xyz 0 1
|  5>  C        0.3113480444     1.4593835287    -0.6163179472
|  6>  C       -0.0272294371     0.0643803496    -0.1335551483
|  7>  C       -1.4786776757    -0.3714153769    -0.2275290264
|  8>  C       -2.4138937196     0.4362583351     0.6781387085
|  9>  N       -3.7790639267    -0.0701569875     0.5794123726
| 10>  C       -4.1359399634    -1.1383997053     1.5095070976
| 11>  C       -4.6611149093     0.2417919480     1.6977021522
| 12>  C        1.0263564148    -0.9621977198    -0.1195938790
| 13>  O        0.6251222820    -0.3182383770     1.0919611448
| 14>  H        1.3811806365     1.6528025511    -0.5074427431
| 15>  H        0.0390435157     1.5808998292    -1.6702648353
| 16>  H       -0.2274857923     2.2191629644    -0.0415129655
| 17>  H       -1.8250961939    -0.2910642940    -1.2646823093
| 18>  H       -1.5469163620    -1.4279708705     0.0529238179
| 19>  H       -2.0310306393     0.4043047496     1.7137718840
| 20>  H       -2.4313136897     1.4882386020     0.3707614724
| 21>  H       -4.7722069937    -1.9231480774     1.1105089575
| 22>  H       -3.3758991722    -1.4787819982     2.2117194521
| 23>  H       -4.2509244890     0.8184925544     2.5255901571
| 24>  H       -5.6877019822     0.4847111527     1.4382938436
| 25>  H        0.7585521362    -2.0152168318    -0.2017896127
| 26>  H        2.0276079965    -0.7137973166    -0.4709324533
| 27> *
| 28>
| 29>                          ****END OF INPUT****

CARTESIAN COORDINATES (ANGSTROEM)
---------------------------------
  C      0.311348    1.459384   -0.616318
  C     -0.027229    0.064380   -0.133555
  C     -1.478678   -0.371415   -0.227529
  C     -2.413894    0.436258    0.678139
  N     -3.779064   -0.070157    0.579412
  C     -4.135940   -1.138400    1.509507
  C     -4.661115    0.241792    1.697702
  C      1.026356   -0.962198   -0.119594
  O      0.625122   -0.318238    1.091961
  H      1.381181    1.652803   -0.507443
  H      0.039044    1.580900   -1.670265
  H     -0.227486    2.219163   -0.041513
  H     -1.825096   -0.291064   -1.264682
  H     -1.546916   -1.427971    0.052924
  H     -2.031031    0.404305    1.713772
  H     -2.431314    1.488239    0.370761
  H     -4.772207   -1.923148    1.110509
  H     -3.375899   -1.478782    2.211719
  H     -4.250924    0.818493    2.525590
  H     -5.687702    0.484711    1.438294
  H      0.758552   -2.015217   -0.201790
  H      2.027608   -0.713797   -0.470932

 Total Charge           Charge          ....    0
 Multiplicity           Mult            ....    1
 Number of Electrons    NEL             ....   70
 Basis Dimension        Dim             ....  357

ORBITAL ENERGIES
----------------

  NO   OCC          E(Eh)            E(eV)
   0   2.0000     -20.560267      -559.4733
   1   2.0000     -15.557206      -423.3331
   2   2.0000     -11.290087      -307.2189
   3   2.0000     -11.276816      -306.8578
   4   2.0000     -11.251867      -306.1789
   5   2.0000     -11.251116      -306.1584
   6   2.0000     -11.250274      -306.1355
   7   2.0000     -11.224295      -305.4286
   8   2.0000     -11.223520      -305.4075
   9   2.0000      -1.404574       -38.2204
  10   2.0000      -1.271515       -34.5997
  11   2.0000      -1.065175       -28.9849
  12   2.0000      -0.997421       -27.1412
  13   2.0000      -0.923180       -25.1210
  14   2.0000      -0.898689       -24.4546
  15   2.0000      -0.841001       -22.8848
  16   2.0000      -0.806624       -21.9493
  17   2.0000      -0.764201       -20.7950
  18   2.0000      -0.683005       -18.5855
  19   2.0000      -0.674511       -18.3544
  20   2.0000      -0.653669       -17.7872
  21   2.0000      -0.635454       -17.2916
  22   2.0000      -0.610064       -16.6007
  23   2.0000      -0.579438       -15.7673
  24   2.0000      -0.560459       -15.2509
  25   2.0000      -0.543126       -14.7792
  26   2.0000      -0.524581       -14.2746
  27   2.0000      -0.523957       -14.2576
  28   2.0000      -0.507554       -13.8112
  29   2.0000      -0.492246       -13.3947
  30   2.0000      -0.463960       -12.6250
  31   2.0000      -0.455787       -12.4026
  32   2.0000      -0.437417       -11.9027
  33   2.0000      -0.414601       -11.2819
  34   2.0000      -0.374207       -10.1827
  35   0.0000       0.142364         3.8739
  36   0.0000       0.156714         4.2644
  37   0.0000       0.161248         4.3878
  38   0.0000       0.181399         4.9361
  39   0.0000       0.185293         5.0421

MULLIKEN ATOMIC CHARGES
-----------------------
   0 C :   -0.427518
   1 C :    0.198032
   2 C :   -0.176818
   3 C :   -0.202273
   4 N :   -0.219860
   5 C :   -0.195057
   6 C :   -0.165188
   7 C :   -0.083733
   8 O :   -0.350660
   9 H :    0.139688
  10 H :    0.134050
  11 H :    0.141664
  12 H :    0.120023
  13 H :    0.118427
  14 H :    0.119488
  15 H :    0.121395
  16 H :    0.128394
  17 H :    0.129599
  18 H :    0.119765
  19 H :    0.128517
  20 H :    0.110963
  21 H :    0.111101
Sum of atomic charges:    0.0000000

LOEWDIN ATOMIC CHARGES
----------------------
   0 C :   -0.266329
   1 C :   -0.348779
   2 C :   -0.223567
   3 C :   -0.290477
   4 N :    0.088671
   5 C :   -0.272126
   6 C :   -0.271727
   7 C :   -0.250464
   8 O :    0.153678
   9 H :    0.131968
  10 H :    0.131583
  11 H :    0.128749
  12 H :    0.147818
  13 H :    0.148103
  14 H :    0.128672
  15 H :    0.133026
  16 H :    0.123193
  17 H :    0.123657
  18 H :    0.122224
  19 H :    0.123573
  20 H :    0.119252
  21 H :    0.119302

  Mayer bond orders larger than 0.1
B(  0-C ,  1-C ) :   0.9009 B(  0-C ,  9-H ) :   0.9360 B(  0-C , 10-H ) :   0.9346
B(  0-C , 11-H ) :   0.9381 B(  1-C ,  2-C ) :   0.9047 B(  1-C ,  7-C ) :   0.9872
B(  1-C ,  8-O ) :   0.8010 B(  2-C ,  3-C ) :   0.9276 B(  2-C , 12-H ) :   0.9305
B(  2-C , 13-H ) :   0.9272 B(  3-C ,  4-N ) :   0.8989 B(  3-C , 14-H ) :   0.9313
B(  3-C , 15-H ) :   0.9210 B(  4-N ,  5-C ) :   0.8925 B(  4-N ,  6-C ) :   0.8854
B(  5-C ,  6-C ) :   0.9451 B(  5-C , 16-H ) :   0.9271 B(  5-C , 17-H ) :   0.9226
B(  6-C , 18-H ) :   0.9241 B(  6-C , 19-H ) :   0.9274 B(  7-C ,  8-O ) :   0.9202
B(  7-C , 20-H ) :   0.8993 B(  7-C , 21-H ) :   0.9136

MP2 TOTAL ENERGY:     -403.603768509 Eh
FINAL SINGLE POINT ENERGY      -403.603768509252

DIPOLE MOMENT
-------------
                                X             Y             Z
Electronic contribution:      1.25177      -1.57503       0.93763
Nuclear contribution   :     -1.22111       1.56200      -1.22376
                        -----------------------------------------
Total Dipole Moment    :      0.03066      -0.01303      -0.28613
                        -----------------------------------------
Magnitude (a.u.)       :      0.28806
Magnitude (Debye)      :      0.73220

                             ****ORCA TERMINATED NORMALLY****
TOTAL RUN TIME: 0 days 0 hours 16 minutes 32 seconds 841 msec
