                         Program Version 3.0.3 - RELEASE   -
|  1> ! RI-MP2 RIJK def2-TZVP def2-TZVP/C def2-TZVP/JK TIGHTSCF
|  2> % maxcore 2000
|  3> % mp2 density relaxed end
|  4> *xyz 0 1
|  5>  C        0.0298273753     1.4947302730     0.2582381254
|  6>  C        0.0017482405    -0.0089543987     0.0340970364
|  7>  C        1.0461023941    -0.5486013284    -0.9214301016
|  8>  C        1.2072851427    -0.7567983277     0.5650712527
|  9>  C       -1.3683081502    -0.6779449504     0.0413411717
| 10>  C       -1.3931047136    -2.1836410158     0.2519618696
| 11>  C       -2.5656438373     0.0648849507     0.5973232863
| 12>  C       -2.4269245810    -0.1295773672    -0.8932981845
| 13>  H        1.0473092943     1.8765369620     0.1322952203
| 14>  H       -0.6069949098     2.0334272952    -0.4522988835
| 15>  H       -0.2958979882     1.7580595839     1.2701001086
| 16>  H        0.7935765529    -1.4115584267    -1.5280977330
| 17>  H        1.6965482194     0.1625838105    -1.4199078063
| 18>  H        1.9645804045    -0.1799669333     1.0861210630
| 19>  H        1.0832391688    -1.7611382272     0.9505824809
| 20>  H       -1.0520711770    -2.4563094817     1.2562778829
| 21>  H       -2.4124123096    -2.5643267144     0.1379533863
| 22>  H       -0.7671888256    -2.7156972073    -0.4731222027
| 23>  H       -3.3150346318    -0.5167747633     1.1243988610
| 24>  H       -2.4357181055     1.0656357513     0.9901616095
| 25>  H       -2.1835294954     0.7389555184    -1.4957259881
| 26>  H       -3.0848637476    -0.8361852130    -1.3884404650
| 27> *
| 28>
| 29>                          ****END OF INPUT****

CARTESIAN COORDINATES (ANGSTROEM)
---------------------------------
  C      0.029827    1.494730    0.258238
  C      0.001748   -0.008954    0.034097
  C      1.046102   -0.548601   -0.921430
  C      1.207285   -0.756798    0.565071
  C     -1.368308   -0.677945    0.041341
  C     -1.393105   -2.183641    0.251962
  C     -2.565644    0.064885    0.597323
  C     -2.426925   -0.129577   -0.893298
  H      1.047309    1.876537    0.132295
  H     -0.606995    2.033427   -0.452299
  H     -0.295898    1.758060    1.270100
  H      0.793577   -1.411558   -1.528098
  H      1.696548    0.162584   -1.419908
  H      1.964580   -0.179967    1.086121
  H      1.083239   -1.761138    0.950582
  H     -1.052071   -2.456309    1.256278
  H     -2.412412   -2.564327    0.137953
  H     -0.767189   -2.715697   -0.473122
  H     -3.315035   -0.516775    1.124399
  H     -2.435718    1.065636    0.990162
  H     -2.183529    0.738956   -1.495726
  H     -3.084864   -0.836185   -1.388440

 Total Charge           Charge          ....    0
 Multiplicity           Mult            ....    1
 Number of Electrons    NEL             ....   62
 Basis Dimension        Dim             ....  332

ORBITAL ENERGIES
----------------

  NO   OCC          E(Eh)            E(eV)
   0   2.0000     -11.236777      -305.7683
   1   2.0000     -11.236170      -305.7517
   2   2.0000     -11.216985      -305.2297
   3   2.0000     -11.216984      -305.2296
   4   2.0000     -11.215445      -305.1878
   5   2.0000     -11.215441      -305.1877
   6   2.0000     -11.214045      -305.1497
   7   2.0000     -11.214043      -305.1496
   8   2.0000      -1.168987       -31.8098
   9   2.0000      -1.114291       -30.3214
  10   2.0000      -0.966602       -26.3026
  11   2.0000      -0.948518       -25.8105
  12   2.0000      -0.826887       -22.5007
  13   2.0000      -0.820596       -22.3296
  14   2.0000      -0.811534       -22.0830
  15   2.0000      -0.708231       -19.2719
  16   2.0000      -0.677729       -18.4419
  17   2.0000      -0.638722       -17.3805
  18   2.0000      -0.600335       -16.3360
  19   2.0000      -0.569805       -15.5052
  20   2.0000      -0.568735       -15.4761
  21   2.0000      -0.566690       -15.4204
  22   2.0000      -0.550076       -14.9683
  23   2.0000      -0.523419       -14.2430
  24   2.0000      -0.507685       -13.8148
  25   2.0000      -0.497020       -13.5246
  26   2.0000      -0.466044       -12.6817
  27   2.0000      -0.438015       -11.9190
  28   2.0000      -0.431220       -11.7341
  29   2.0000      -0.392370       -10.6769
  30   2.0000      -0.357829        -9.7370
  31   0.0000       0.143207         3.8969
  32   0.0000       0.156476         4.2579
  33   0.0000       0.172271         4.6877
  34   0.0000       0.173818         4.7298
  35   0.0000       0.185870         5.0578

MULLIKEN ATOMIC CHARGES
-----------------------
   0 C :   -0.440474
   1 C :    0.133673
   2 C :   -0.309680
   3 C :   -0.294976
   4 C :    0.133663
   5 C :   -0.440469
   6 C :   -0.294978
   7 C :   -0.309677
   8 H :    0.131118
   9 H :    0.135115
  10 H :    0.137302
  11 H :    0.125438
  12 H :    0.126248
  13 H :    0.123906
  14 H :    0.132333
  15 H :    0.137299
  16 H :    0.131118
  17 H :    0.135115
  18 H :    0.123906
  19 H :    0.132335
  20 H :    0.125438
  21 H :    0.126248
Sum of atomic charges:    0.0000000

LOEWDIN ATOMIC CHARGES
----------------------
   0 C :   -0.263679
   1 C :   -0.228449
   2 C :   -0.208635
   3 C :   -0.207664
   4 C :   -0.228449
   5 C :   -0.263679
   6 C :   -0.207664
   7 C :   -0.208636
   8 H :    0.129601
   9 H :    0.125637
  10 H :    0.126106
  11 H :    0.132024
  12 H :    0.130647
  13 H :    0.131776
  14 H :    0.132637
  15 H :    0.126105
  16 H :    0.129601
  17 H :    0.125637
  18 H :    0.131775
  19 H :    0.132638
  20 H :    0.132024
  21 H :    0.130647

  Mayer bond orders larger than 0.1
B(  0-C ,  1-C ) :   0.8934 B(  0-C ,  8-H ) :   0.9282 B(  0-C ,  9-H ) :   0.9414
B(  0-C , 10-H ) :   0.9403 B(  1-C ,  2-C ) :   0.8636 B(  1-C ,  3-C ) :   0.8738
B(  1-C ,  4-C ) :   0.9202 B(  2-C ,  3-C ) :   0.9072 B(  2-C , 11-H ) :   0.9261
B(  2-C , 12-H ) :   0.9273 B(  3-C , 13-H ) :   0.9306 B(  3-C , 14-H ) :   0.9207
B(  4-C ,  5-C ) :   0.8934 B(  4-C ,  6-C ) :   0.8738 B(  4-C ,  7-C ) :   0.8636
B(  5-C , 15-H ) :   0.9403 B(  5-C , 16-H ) :   0.9282 B(  5-C , 17-H ) :   0.9414
B(  6-C ,  7-C ) :   0.9072 B(  6-C , 18-H ) :   0.9306 B(  6-C , 19-H ) :   0.9207
B(  7-C , 20-H ) :   0.9261 B(  7-C , 21-H ) :   0.9273

MP2 TOTAL ENERGY:     -312.468457074 Eh
FINAL SINGLE POINT ENERGY      -312.468457073873

DIPOLE MOMENT
-------------
                                X             Y             Z
Electronic contribution:     -0.00171       0.00105      -0.22549
Nuclear contribution   :      0.00190      -0.00117       0.25115
                        -----------------------------------------
Total Dipole Moment    :      0.00019      -0.00012       0.02565
                        -----------------------------------------
Magnitude (a.u.)       :      0.02566
Magnitude (Debye)      :      0.06521

                             ****ORCA TERMINATED NORMALLY****
TOTAL RUN TIME: 0 days 0 hours 15 minutes 42 seconds 111 msec
