                         Program Version 3.0.3 - RELEASE   -
|  1> ! RI-MP2 RIJK def2-TZVP def2-TZVP/C def2-TZVP/JK TIGHTSCF
|  2> % maxcore 2000
|  3> % mp2 density relaxed end
|  4> *xyz 0 1
|  5>  C       -0.0456961204     1.5609447827     0.0637620038
|  6>  C        0.0197681530     0.0396885620    -0.0338540690
|  7>  C        0.7308874013    -0.4499798932    -1.2756422427
|  8>  O        1.2059000451     0.2780834985    -2.1171941590
|  9>  C        0.8372946756    -1.9882853396    -1.4446698875
| 10>  O        0.3622878447    -2.7163486573    -0.6031145491
| 11>  C        1.5484467796    -2.4779538489    -2.6864391765
| 12>  C        1.6139149019    -3.9992100744    -2.7840526442
| 13>  H        0.9567176728     1.9971188935     0.0773106568
| 14>  H       -0.5727541022     1.9872230917    -0.7940049061
| 15>  H       -0.5669364453     1.8651870193     0.9752431948
| 16>  H        0.5235991718    -0.4073770394     0.8330086247
| 17>  H       -0.9784567222    -0.4170470333    -0.0233705794
| 18>  H        1.0446399460    -2.0308880239    -3.5533155304
| 19>  H        2.5466722741    -2.0212186038    -2.6968950527
| 20>  H        0.6115017245    -4.4353848499    -2.7976328241
| 21>  H        2.1351838087    -4.3034523096    -3.6955174908
| 22>  H        2.1409460410    -4.4254878444    -1.9262690688
| 23> *
| 24>
| 25>                          ****END OF INPUT****

CARTESIAN COORDINATES (ANGSTROEM)
---------------------------------
  C     -0.045696    1.560945    0.063762
  C      0.019768    0.039689   -0.033854
  C      0.730887   -0.449980   -1.275642
  O      1.205900    0.278083   -2.117194
  C      0.837295   -1.988285   -1.444670
  O      0.362288   -2.716349   -0.603115
  C      1.548447   -2.477954   -2.686439
  C      1.613915   -3.999210   -2.784053
  H      0.956718    1.997119    0.077311
  H     -0.572754    1.987223   -0.794005
  H     -0.566936    1.865187    0.975243
  H      0.523599   -0.407377    0.833009
  H     -0.978457   -0.417047   -0.023371
  H      1.044640   -2.030888   -3.553316
  H      2.546672   -2.021219   -2.696895
  H      0.611502   -4.435385   -2.797633
  H      2.135184   -4.303452   -3.695517
  H      2.140946   -4.425488   -1.926269

 Total Charge           Charge          ....    0
 Multiplicity           Mult            ....    1
 Number of Electrons    NEL             ....   62
 Basis Dimension        Dim             ....  308

ORBITAL ENERGIES
----------------

  NO   OCC          E(Eh)            E(eV)
   0   2.0000     -20.574185      -559.8520
   1   2.0000     -20.574184      -559.8520
   2   2.0000     -11.347043      -308.7687
   3   2.0000     -11.346488      -308.7536
   4   2.0000     -11.244462      -305.9774
   5   2.0000     -11.244460      -305.9773
   6   2.0000     -11.223338      -305.4026
   7   2.0000     -11.223338      -305.4025
   8   2.0000      -1.422904       -38.7192
   9   2.0000      -1.404646       -38.2223
  10   2.0000      -1.063270       -28.9331
  11   2.0000      -1.061331       -28.8803
  12   2.0000      -0.946724       -25.7617
  13   2.0000      -0.894793       -24.3486
  14   2.0000      -0.810810       -22.0632
  15   2.0000      -0.723710       -19.6932
  16   2.0000      -0.700084       -19.0503
  17   2.0000      -0.665885       -18.1196
  18   2.0000      -0.648308       -17.6414
  19   2.0000      -0.625262       -17.0143
  20   2.0000      -0.624925       -17.0051
  21   2.0000      -0.556298       -15.1376
  22   2.0000      -0.556049       -15.1309
  23   2.0000      -0.534415       -14.5422
  24   2.0000      -0.526029       -14.3140
  25   2.0000      -0.518667       -14.1136
  26   2.0000      -0.517921       -14.0933
  27   2.0000      -0.501355       -13.6426
  28   2.0000      -0.499822       -13.6008
  29   2.0000      -0.491137       -13.3645
  30   2.0000      -0.401278       -10.9193
  31   0.0000       0.070565         1.9202
  32   0.0000       0.126019         3.4292
  33   0.0000       0.144510         3.9323
  34   0.0000       0.180718         4.9176
  35   0.0000       0.184404         5.0179

MULLIKEN ATOMIC CHARGES
-----------------------
   0 C :   -0.360244
   1 C :   -0.204045
   2 C :    0.156550
   3 O :   -0.278931
   4 C :    0.156551
   5 O :   -0.278931
   6 C :   -0.204045
   7 C :   -0.360244
   8 H :    0.132144
   9 H :    0.132133
  10 H :    0.137112
  11 H :    0.142643
  12 H :    0.142638
  13 H :    0.142643
  14 H :    0.142638
  15 H :    0.132144
  16 H :    0.137112
  17 H :    0.132133
Sum of atomic charges:   -0.0000000

LOEWDIN ATOMIC CHARGES
----------------------
   0 C :   -0.309458
   1 C :   -0.267520
   2 C :   -0.292845
   3 O :    0.176635
   4 C :   -0.292845
   5 O :    0.176635
   6 C :   -0.267520
   7 C :   -0.309458
   8 H :    0.126577
   9 H :    0.126574
  10 H :    0.123094
  11 H :    0.158470
  12 H :    0.158473
  13 H :    0.158470
  14 H :    0.158473
  15 H :    0.126577
  16 H :    0.123094
  17 H :    0.126574

  Mayer bond orders larger than 0.1
B(  0-C ,  1-C ) :   0.9301 B(  0-C ,  8-H ) :   0.9346 B(  0-C ,  9-H ) :   0.9346
B(  0-C , 10-H ) :   0.9415 B(  1-C ,  2-C ) :   0.9517 B(  1-C , 11-H ) :   0.9043
B(  1-C , 12-H ) :   0.9043 B(  2-C ,  3-O ) :   1.9388 B(  2-C ,  4-C ) :   0.8577
B(  4-C ,  5-O ) :   1.9388 B(  4-C ,  6-C ) :   0.9517 B(  6-C ,  7-C ) :   0.9301
B(  6-C , 13-H ) :   0.9043 B(  6-C , 14-H ) :   0.9043 B(  7-C , 15-H ) :   0.9346
B(  7-C , 16-H ) :   0.9415 B(  7-C , 17-H ) :   0.9346

MP2 TOTAL ENERGY:     -384.336661717 Eh
FINAL SINGLE POINT ENERGY      -384.336661716874

DIPOLE MOMENT
-------------
                                X             Y             Z
Electronic contribution:     -0.00009       0.00000      -0.00005
Nuclear contribution   :      0.00010      -0.00000       0.00006
                        -----------------------------------------
Total Dipole Moment    :      0.00001      -0.00000       0.00000
                        -----------------------------------------
Magnitude (a.u.)       :      0.00001
Magnitude (Debye)      :      0.00002

                             ****ORCA TERMINATED NORMALLY****
TOTAL RUN TIME: 0 days 0 hours 10 minutes 50 seconds 421 msec
