                         Program Version 3.0.3 - RELEASE   -
|  1> ! RI-MP2 RIJK def2-TZVP def2-TZVP/C def2-TZVP/JK TIGHTSCF
|  2> % maxcore 2000
|  3> % mp2 density relaxed end
|  4> *xyz 0 1
|  5>  C       -0.0225268260     1.6312738694     0.1608904814
|  6>  C        0.0231341222     0.1070993820    -0.0102061702
|  7>  C        0.8329030155    -0.5616340160     1.1097390399
|  8>  C       -1.3898927068    -0.4791296505    -0.0682528709
|  9>  C       -2.3217548074    -0.1381312197    -1.2490954036
| 10>  N       -1.6604277025    -0.6544373053    -2.4523584540
| 11>  C       -2.5039747235    -1.5839368950    -1.6170541044
| 12>  C       -1.6066158764    -1.9765530419    -0.4631144345
| 13>  O       -1.3046871529    -3.0163613465     0.0463016799
| 14>  H        0.9884324919     2.0516846162     0.1762733880
| 15>  H       -0.5700358432     2.1123387160    -0.6563960197
| 16>  H       -0.5112655920     1.9080564944     1.1031240963
| 17>  H        0.5043797253    -0.1147087721    -0.9695654829
| 18>  H        1.8687158568    -0.2071530568     1.1046724803
| 19>  H        0.4072083178    -0.3281340558     2.0934736470
| 20>  H        0.8391168114    -1.6494232896     1.0012889046
| 21>  H       -1.9096565015    -0.3257939519     0.8881682181
| 22>  H       -3.0649744886     0.6469689762    -1.2956581895
| 23>  H       -2.2364657378    -0.4133403802    -3.2594238730
| 24>  H       -3.3422595724    -2.1099882929    -2.0554979527
| 25> *
| 26>
| 27>                          ****END OF INPUT****

CARTESIAN COORDINATES (ANGSTROEM)
---------------------------------
  C     -0.022527    1.631274    0.160890
  C      0.023134    0.107099   -0.010206
  C      0.832903   -0.561634    1.109739
  C     -1.389893   -0.479130   -0.068253
  C     -2.321755   -0.138131   -1.249095
  N     -1.660428   -0.654437   -2.452358
  C     -2.503975   -1.583937   -1.617054
  C     -1.606616   -1.976553   -0.463114
  O     -1.304687   -3.016361    0.046302
  H      0.988432    2.051685    0.176273
  H     -0.570036    2.112339   -0.656396
  H     -0.511266    1.908056    1.103124
  H      0.504380   -0.114709   -0.969565
  H      1.868716   -0.207153    1.104672
  H      0.407208   -0.328134    2.093474
  H      0.839117   -1.649423    1.001289
  H     -1.909657   -0.325794    0.888168
  H     -3.064974    0.646969   -1.295658
  H     -2.236466   -0.413340   -3.259424
  H     -3.342260   -2.109988   -2.055498

 Total Charge           Charge          ....    0
 Multiplicity           Mult            ....    1
 Number of Electrons    NEL             ....   68
 Basis Dimension        Dim             ....  345

ORBITAL ENERGIES
----------------

  NO   OCC          E(Eh)            E(eV)
   0   2.0000     -20.552804      -559.2702
   1   2.0000     -15.588614      -424.1877
   2   2.0000     -11.336821      -308.4906
   3   2.0000     -11.286331      -307.1167
   4   2.0000     -11.280363      -306.9543
   5   2.0000     -11.249562      -306.1162
   6   2.0000     -11.231740      -305.6312
   7   2.0000     -11.217099      -305.2328
   8   2.0000     -11.208375      -304.9954
   9   2.0000      -1.397505       -38.0280
  10   2.0000      -1.300216       -35.3807
  11   2.0000      -1.097268       -29.8582
  12   2.0000      -1.024673       -27.8828
  13   2.0000      -0.929919       -25.3044
  14   2.0000      -0.905869       -24.6500
  15   2.0000      -0.843437       -22.9511
  16   2.0000      -0.785419       -21.3723
  17   2.0000      -0.748483       -20.3673
  18   2.0000      -0.702896       -19.1268
  19   2.0000      -0.644975       -17.5507
  20   2.0000      -0.639681       -17.4066
  21   2.0000      -0.617815       -16.8116
  22   2.0000      -0.586022       -15.9465
  23   2.0000      -0.560841       -15.2613
  24   2.0000      -0.554410       -15.0863
  25   2.0000      -0.538456       -14.6521
  26   2.0000      -0.534957       -14.5569
  27   2.0000      -0.514037       -13.9877
  28   2.0000      -0.501474       -13.6458
  29   2.0000      -0.480396       -13.0722
  30   2.0000      -0.471440       -12.8285
  31   2.0000      -0.463275       -12.6064
  32   2.0000      -0.399624       -10.8743
  33   2.0000      -0.380967       -10.3666
  34   0.0000       0.117596         3.2000
  35   0.0000       0.142002         3.8641
  36   0.0000       0.151433         4.1207
  37   0.0000       0.160864         4.3773
  38   0.0000       0.172966         4.7066

MULLIKEN ATOMIC CHARGES
-----------------------
   0 C :   -0.413805
   1 C :   -0.055873
   2 C :   -0.403060
   3 C :   -0.011148
   4 C :   -0.086452
   5 N :   -0.372341
   6 C :   -0.086072
   7 C :    0.134348
   8 O :   -0.256223
   9 H :    0.134909
  10 H :    0.132027
  11 H :    0.119475
  12 H :    0.114652
  13 H :    0.128680
  14 H :    0.114867
  15 H :    0.156113
  16 H :    0.118204
  17 H :    0.153970
  18 H :    0.222557
  19 H :    0.155170
Sum of atomic charges:    0.0000000

LOEWDIN ATOMIC CHARGES
----------------------
   0 C :   -0.290998
   1 C :   -0.287015
   2 C :   -0.287822
   3 C :   -0.163950
   4 C :   -0.211121
   5 N :    0.014707
   6 C :   -0.183186
   7 C :   -0.274183
   8 O :    0.167118
   9 H :    0.124813
  10 H :    0.122735
  11 H :    0.122235
  12 H :    0.159325
  13 H :    0.122895
  14 H :    0.122555
  15 H :    0.129709
  16 H :    0.168064
  17 H :    0.133504
  18 H :    0.175946
  19 H :    0.134667

  Mayer bond orders larger than 0.1
B(  0-C ,  1-C ) :   0.9111 B(  0-C ,  9-H ) :   0.9399 B(  0-C , 10-H ) :   0.9415
B(  0-C , 11-H ) :   0.9310 B(  1-C ,  2-C ) :   0.9136 B(  1-C ,  3-C ) :   0.8820
B(  1-C , 12-H ) :   0.9253 B(  2-C , 13-H ) :   0.9389 B(  2-C , 14-H ) :   0.9297
B(  2-C , 15-H ) :   0.9356 B(  3-C ,  4-C ) :   0.9222 B(  3-C ,  6-C ) :  -0.1089
B(  3-C ,  7-C ) :   0.8845 B(  3-C , 16-H ) :   0.8907 B(  4-C ,  5-N ) :   0.9625
B(  4-C ,  6-C ) :   0.8754 B(  4-C , 17-H ) :   0.9135 B(  5-N ,  6-C ) :   0.8759
B(  5-N , 18-H ) :   0.8650 B(  6-C ,  7-C ) :   0.9143 B(  6-C , 19-H ) :   0.9085
B(  7-C ,  8-O ) :   2.0227

MP2 TOTAL ENERGY:     -402.428636917 Eh
FINAL SINGLE POINT ENERGY      -402.428636917445

DIPOLE MOMENT
-------------
                                X             Y             Z
Electronic contribution:     -5.39997      -7.98121      -3.71968
Nuclear contribution   :      4.54426       9.01593       3.28579
                        -----------------------------------------
Total Dipole Moment    :     -0.85571       1.03472      -0.43389
                        -----------------------------------------
Magnitude (a.u.)       :      1.41108
Magnitude (Debye)      :      3.58668

                             ****ORCA TERMINATED NORMALLY****
TOTAL RUN TIME: 0 days 0 hours 20 minutes 16 seconds 171 msec
