                         Program Version 3.0.3 - RELEASE   -
|  1> ! RI-MP2 RIJK def2-TZVP def2-TZVP/C def2-TZVP/JK TIGHTSCF
|  2> % maxcore 2000
|  3> % mp2 density relaxed end
|  4> *xyz 0 1
|  5>  O       -0.0613714344    -0.0890406037    -0.2426593343
|  6>  C       -0.0072397326     1.1102580301    -0.1511952621
|  7>  C        1.2797414846     1.9007878606    -0.0430844260
|  8>  C        1.2658408685     3.1105841001    -1.0807541518
|  9>  N        0.6319036428     4.2709152510    -0.3903249694
| 10>  C        0.7840442496     3.9851786888     0.8276847480
| 11>  O        0.1729478621     4.3231722354     2.0009207034
| 12>  C        0.4236600994     2.9352450040     2.4736855211
| 13>  C        1.3995214095     2.7073673342     1.2731290827
| 14>  H       -0.9341444080     1.7279675442    -0.1559305256
| 15>  H        2.1106094318     1.2111131006    -0.2004753227
| 16>  H        2.2845727747     3.3444615869    -1.4128507035
| 17>  H        0.6795721416     2.8702553470    -1.9728613498
| 18>  H        0.8730371412     2.9404462924     3.4668834722
| 19>  H       -0.5110991026     2.3709159087     2.4638718476
| 20>  H        2.4378329316     2.7893462298     1.6014850602
| 21> *
| 22>
| 23>                          ****END OF INPUT****

CARTESIAN COORDINATES (ANGSTROEM)
---------------------------------
  O     -0.061371   -0.089041   -0.242659
  C     -0.007240    1.110258   -0.151195
  C      1.279741    1.900788   -0.043084
  C      1.265841    3.110584   -1.080754
  N      0.631904    4.270915   -0.390325
  C      0.784044    3.985179    0.827685
  O      0.172948    4.323172    2.000921
  C      0.423660    2.935245    2.473686
  C      1.399521    2.707367    1.273129
  H     -0.934144    1.727968   -0.155931
  H      2.110609    1.211113   -0.200475
  H      2.284573    3.344462   -1.412851
  H      0.679572    2.870255   -1.972861
  H      0.873037    2.940446    3.466883
  H     -0.511099    2.370916    2.463872
  H      2.437833    2.789346    1.601485

 Total Charge           Charge          ....    0
 Multiplicity           Mult            ....    1
 Number of Electrons    NEL             ....   66
 Basis Dimension        Dim             ....  321

ORBITAL ENERGIES
----------------

  NO   OCC          E(Eh)            E(eV)
   0   2.0000     -20.611029      -560.8546
   1   2.0000     -20.570533      -559.7527
   2   2.0000     -15.561017      -423.4368
   3   2.0000     -11.347227      -308.7737
   4   2.0000     -11.344341      -308.6952
   5   2.0000     -11.331412      -308.3434
   6   2.0000     -11.284221      -307.0593
   7   2.0000     -11.275133      -306.8120
   8   2.0000     -11.273197      -306.7593
   9   2.0000      -1.451827       -39.5062
  10   2.0000      -1.408969       -38.3400
  11   2.0000      -1.260147       -34.2903
  12   2.0000      -1.099228       -29.9115
  13   2.0000      -1.008154       -27.4333
  14   2.0000      -0.940036       -25.5797
  15   2.0000      -0.885222       -24.0881
  16   2.0000      -0.808145       -21.9907
  17   2.0000      -0.747665       -20.3450
  18   2.0000      -0.718366       -19.5477
  19   2.0000      -0.686068       -18.6689
  20   2.0000      -0.677578       -18.4378
  21   2.0000      -0.663493       -18.0545
  22   2.0000      -0.621355       -16.9079
  23   2.0000      -0.604175       -16.4404
  24   2.0000      -0.591668       -16.1001
  25   2.0000      -0.561451       -15.2778
  26   2.0000      -0.541895       -14.7457
  27   2.0000      -0.534122       -14.5342
  28   2.0000      -0.503474       -13.7002
  29   2.0000      -0.494787       -13.4638
  30   2.0000      -0.440530       -11.9874
  31   2.0000      -0.432512       -11.7692
  32   2.0000      -0.391175       -10.6444
  33   0.0000       0.112765         3.0685
  34   0.0000       0.122876         3.3436
  35   0.0000       0.142262         3.8712
  36   0.0000       0.153454         4.1757
  37   0.0000       0.160793         4.3754

MULLIKEN ATOMIC CHARGES
-----------------------
   0 O :   -0.249964
   1 C :   -0.009616
   2 C :    0.050997
   3 C :   -0.146962
   4 N :   -0.209434
   5 C :    0.136330
   6 O :   -0.251538
   7 C :   -0.020940
   8 C :   -0.207892
   9 H :    0.110791
  10 H :    0.127757
  11 H :    0.126879
  12 H :    0.140665
  13 H :    0.133384
  14 H :    0.129456
  15 H :    0.140086
Sum of atomic charges:   -0.0000000

LOEWDIN ATOMIC CHARGES
----------------------
   0 O :    0.140974
   1 C :   -0.276507
   2 C :   -0.209443
   3 C :   -0.217874
   4 N :    0.103878
   5 C :   -0.379773
   6 O :    0.224974
   7 C :   -0.181312
   8 C :   -0.172021
   9 H :    0.121466
  10 H :    0.156382
  11 H :    0.132272
  12 H :    0.135458
  13 H :    0.126815
  14 H :    0.129022
  15 H :    0.165688

  Mayer bond orders larger than 0.1
B(  0-O ,  1-C ) :   1.9904 B(  1-C ,  2-C ) :   0.8273 B(  1-C ,  9-H ) :   0.9341
B(  2-C ,  3-C ) :   0.8798 B(  2-C ,  8-C ) :   0.8814 B(  2-C , 10-H ) :   0.8959
B(  3-C ,  4-N ) :   0.8945 B(  3-C , 11-H ) :   0.9122 B(  3-C , 12-H ) :   0.9225
B(  4-N ,  5-C ) :   1.8455 B(  5-C ,  6-O ) :   1.1051 B(  5-C ,  8-C ) :   0.9536
B(  6-O ,  7-C ) :   0.8804 B(  7-C ,  8-C ) :   0.9532 B(  7-C , 13-H ) :   0.9173
B(  7-C , 14-H ) :   0.8968 B(  8-C , 15-H ) :   0.8923

MP2 TOTAL ENERGY:     -437.133810453 Eh
FINAL SINGLE POINT ENERGY      -437.133810453395

DIPOLE MOMENT
-------------
                                X             Y             Z
Electronic contribution:     -1.53682       1.08209       0.49779
Nuclear contribution   :      2.32502      -1.35610       0.09118
                        -----------------------------------------
Total Dipole Moment    :      0.78820      -0.27401       0.58897
                        -----------------------------------------
Magnitude (a.u.)       :      1.02139
Magnitude (Debye)      :      2.59616

                             ****ORCA TERMINATED NORMALLY****
TOTAL RUN TIME: 0 days 0 hours 15 minutes 5 seconds 38 msec
