                         Program Version 3.0.3 - RELEASE   -
|  1> ! RI-MP2 RIJK def2-TZVP def2-TZVP/C def2-TZVP/JK TIGHTSCF
|  2> % maxcore 2000
|  3> % mp2 density relaxed end
|  4> *xyz 0 1
|  5>  C       -0.0049133844     1.4590554989    -0.0040291113
|  6>  N       -0.0077434835     0.0055287742     0.0247648188
|  7>  C       -1.3551539548    -0.5436844677    -0.1019148241
|  8>  C       -1.3134021338    -2.0678171156    -0.2317299348
|  9>  C       -0.5692299525    -2.7015025382     0.9476517414
| 10>  C        0.8204155429    -2.0446487687     1.0986848833
| 11>  C        0.6801076481    -0.5102590018     1.1979888907
| 12>  C        1.5427587636    -2.5733843336     2.2554878670
| 13>  N        2.1066487606    -2.9870944658     3.1758402957
| 14>  H        1.0244473856     1.8295080014     0.0279228768
| 15>  H       -0.4638910073     1.8093176041    -0.9337034489
| 16>  H       -0.5570792898     1.9133563086     0.8405205398
| 17>  H       -1.9879795317    -0.2630830058     0.7656692849
| 18>  H       -1.8219024678    -0.1038993232    -0.9896490794
| 19>  H       -2.3333891065    -2.4617375724    -0.2871276742
| 20>  H       -0.8102890462    -2.3303128022    -1.1698886850
| 21>  H       -1.1333216072    -2.5470356576     1.8756040915
| 22>  H       -0.4621892142    -3.7818744508     0.8141535443
| 23>  H        1.4139896398    -2.2653226072     0.2027341218
| 24>  H        1.6728136922    -0.0533378984     1.2550699535
| 25>  H        0.1524437866    -0.2608425782     2.1405073083
| 26> *
| 27>
| 28>                          ****END OF INPUT****

CARTESIAN COORDINATES (ANGSTROEM)
---------------------------------
  C     -0.004913    1.459055   -0.004029
  N     -0.007743    0.005529    0.024765
  C     -1.355154   -0.543684   -0.101915
  C     -1.313402   -2.067817   -0.231730
  C     -0.569230   -2.701503    0.947652
  C      0.820416   -2.044649    1.098685
  C      0.680108   -0.510259    1.197989
  C      1.542759   -2.573384    2.255488
  N      2.106649   -2.987094    3.175840
  H      1.024447    1.829508    0.027923
  H     -0.463891    1.809318   -0.933703
  H     -0.557079    1.913356    0.840521
  H     -1.987980   -0.263083    0.765669
  H     -1.821902   -0.103899   -0.989649
  H     -2.333389   -2.461738   -0.287128
  H     -0.810289   -2.330313   -1.169889
  H     -1.133322   -2.547036    1.875604
  H     -0.462189   -3.781874    0.814154
  H      1.413990   -2.265323    0.202734
  H      1.672814   -0.053338    1.255070
  H      0.152444   -0.260843    2.140507

 Total Charge           Charge          ....    0
 Multiplicity           Mult            ....    1
 Number of Electrons    NEL             ....   68
 Basis Dimension        Dim             ....  351

ORBITAL ENERGIES
----------------

  NO   OCC          E(Eh)            E(eV)
   0   2.0000     -15.564978      -423.5446
   1   2.0000     -15.562201      -423.4690
   2   2.0000     -11.280046      -306.9457
   3   2.0000     -11.272875      -306.7505
   4   2.0000     -11.267471      -306.6035
   5   2.0000     -11.261501      -306.4410
   6   2.0000     -11.254768      -306.2578
   7   2.0000     -11.246946      -306.0450
   8   2.0000     -11.236633      -305.7643
   9   2.0000      -1.253007       -34.0961
  10   2.0000      -1.214373       -33.0448
  11   2.0000      -1.105370       -30.0786
  12   2.0000      -1.046449       -28.4753
  13   2.0000      -0.954002       -25.9597
  14   2.0000      -0.897877       -24.4325
  15   2.0000      -0.858533       -23.3619
  16   2.0000      -0.784980       -21.3604
  17   2.0000      -0.711300       -19.3554
  18   2.0000      -0.671325       -18.2677
  19   2.0000      -0.652623       -17.7588
  20   2.0000      -0.636121       -17.3097
  21   2.0000      -0.612467       -16.6661
  22   2.0000      -0.592322       -16.1179
  23   2.0000      -0.568690       -15.4749
  24   2.0000      -0.555017       -15.1028
  25   2.0000      -0.550647       -14.9839
  26   2.0000      -0.534688       -14.5496
  27   2.0000      -0.528033       -14.3685
  28   2.0000      -0.496368       -13.5069
  29   2.0000      -0.488026       -13.2799
  30   2.0000      -0.479571       -13.0498
  31   2.0000      -0.449219       -12.2239
  32   2.0000      -0.443845       -12.0776
  33   2.0000      -0.372404       -10.1336
  34   0.0000       0.123553         3.3620
  35   0.0000       0.139928         3.8076
  36   0.0000       0.151424         4.1205
  37   0.0000       0.156329         4.2539
  38   0.0000       0.178922         4.8687

MULLIKEN ATOMIC CHARGES
-----------------------
   0 C :   -0.320860
   1 N :   -0.136480
   2 C :   -0.188468
   3 C :   -0.173840
   4 C :   -0.252081
   5 C :    0.082760
   6 C :   -0.241977
   7 C :   -0.210837
   8 N :   -0.052386
   9 H :    0.137189
  10 H :    0.136707
  11 H :    0.111631
  12 H :    0.093825
  13 H :    0.128528
  14 H :    0.129637
  15 H :    0.108904
  16 H :    0.126860
  17 H :    0.142421
  18 H :    0.123978
  19 H :    0.140769
  20 H :    0.113722
Sum of atomic charges:   -0.0000000

LOEWDIN ATOMIC CHARGES
----------------------
   0 C :   -0.326050
   1 N :    0.062145
   2 C :   -0.283987
   3 C :   -0.259558
   4 C :   -0.224044
   5 C :   -0.236801
   6 C :   -0.247520
   7 C :   -0.170873
   8 N :    0.059189
   9 H :    0.119511
  10 H :    0.119431
  11 H :    0.104265
  12 H :    0.122040
  13 H :    0.136118
  14 H :    0.141556
  15 H :    0.141889
  16 H :    0.146502
  17 H :    0.144911
  18 H :    0.178416
  19 H :    0.143200
  20 H :    0.129662

  Mayer bond orders larger than 0.1
B(  0-C ,  1-N ) :   0.9159 B(  0-C ,  9-H ) :   0.9368 B(  0-C , 10-H ) :   0.9373
B(  0-C , 11-H ) :   0.9310 B(  1-N ,  2-C ) :   0.9221 B(  1-N ,  6-C ) :   0.9457
B(  2-C ,  3-C ) :   0.9416 B(  2-C , 12-H ) :   0.9207 B(  2-C , 13-H ) :   0.9253
B(  3-C ,  4-C ) :   0.9332 B(  3-C , 14-H ) :   0.9317 B(  3-C , 15-H ) :   0.9211
B(  4-C ,  5-C ) :   0.9038 B(  4-C , 16-H ) :   0.9267 B(  4-C , 17-H ) :   0.9304
B(  5-C ,  6-C ) :   0.9048 B(  5-C ,  7-C ) :   0.9001 B(  5-C , 18-H ) :   0.9009
B(  6-C , 19-H ) :   0.9212 B(  6-C , 20-H ) :   0.9211 B(  7-C ,  8-N ) :   2.8933

MP2 TOTAL ENERGY:     -382.623772958 Eh
FINAL SINGLE POINT ENERGY      -382.623772958345

DIPOLE MOMENT
-------------
                                X             Y             Z
Electronic contribution:      5.90523      -5.63451       4.70841
Nuclear contribution   :     -6.93181       6.35323      -5.83119
                        -----------------------------------------
Total Dipole Moment    :     -1.02658       0.71872      -1.12278
                        -----------------------------------------
Magnitude (a.u.)       :      1.68257
Magnitude (Debye)      :      4.27675

                             ****ORCA TERMINATED NORMALLY****
TOTAL RUN TIME: 0 days 0 hours 19 minutes 41 seconds 477 msec
