                         Program Version 3.0.3 - RELEASE   -
|  1> ! RI-MP2 RIJK def2-TZVP def2-TZVP/C def2-TZVP/JK TIGHTSCF
|  2> % maxcore 2000
|  3> % mp2 density relaxed end
|  4> *xyz 0 1
|  5>  C        0.0470889865     1.4873195042    -0.0951969344
|  6>  C       -0.0366853172    -0.0411954613    -0.0693807448
|  7>  C       -1.4736203370    -0.5301661813     0.0296971632
|  8>  O       -1.4456177951    -1.9618477490     0.0419842114
|  9>  C       -2.6379741846    -2.5984359855     0.1181892886
| 10>  C       -2.4271516929    -4.0970989328     0.1067136423
| 11>  N       -3.7185377046    -1.9406308712     0.1779591790
| 12>  C       -4.9997243608    -2.6152460114     0.2616271425
| 13>  C       -5.8043632877    -2.0872543904     1.4526423475
| 14>  H        1.0856612600     1.8226593478    -0.1670483702
| 15>  H       -0.4964779803     1.9019515564    -0.9512239272
| 16>  H       -0.3821176372     1.9260392582     0.8122856824
| 17>  H        0.4192721157    -0.4603250393    -0.9739539018
| 18>  H        0.5330590759    -0.4374716631     0.7792525592
| 19>  H       -1.9652058424    -0.1684449839     0.9403955026
| 20>  H       -2.0803120612    -0.1857440718    -0.8159502416
| 21>  H       -1.3605869580    -4.3202869794     0.1301550989
| 22>  H       -2.9070956174    -4.5675363427     0.9692068201
| 23>  H       -2.8597342043    -4.5423896648    -0.7942889628
| 24>  H       -5.5552603276    -2.4021003149    -0.6622699463
| 25>  H       -4.9200851681    -3.7106996319     0.3306004159
| 26>  H       -6.8012502473    -2.5389707790     1.4802851888
| 27>  H       -5.2972776457    -2.3162139952     2.3954968842
| 28>  H       -5.9135021187    -1.0010885776     1.3863934423
| 29> *
| 30>
| 31>                          ****END OF INPUT****

CARTESIAN COORDINATES (ANGSTROEM)
---------------------------------
  C      0.047089    1.487320   -0.095197
  C     -0.036685   -0.041195   -0.069381
  C     -1.473620   -0.530166    0.029697
  O     -1.445618   -1.961848    0.041984
  C     -2.637974   -2.598436    0.118189
  C     -2.427152   -4.097099    0.106714
  N     -3.718538   -1.940631    0.177959
  C     -4.999724   -2.615246    0.261627
  C     -5.804363   -2.087254    1.452642
  H      1.085661    1.822659   -0.167048
  H     -0.496478    1.901952   -0.951224
  H     -0.382118    1.926039    0.812286
  H      0.419272   -0.460325   -0.973954
  H      0.533059   -0.437472    0.779253
  H     -1.965206   -0.168445    0.940396
  H     -2.080312   -0.185744   -0.815950
  H     -1.360587   -4.320287    0.130155
  H     -2.907096   -4.567536    0.969207
  H     -2.859734   -4.542390   -0.794289
  H     -5.555260   -2.402100   -0.662270
  H     -4.920085   -3.710700    0.330600
  H     -6.801250   -2.538971    1.480285
  H     -5.297278   -2.316214    2.395497
  H     -5.913502   -1.001089    1.386393

 Total Charge           Charge          ....    0
 Multiplicity           Mult            ....    1
 Number of Electrons    NEL             ....   72
 Basis Dimension        Dim             ....  369

ORBITAL ENERGIES
----------------

  NO   OCC          E(Eh)            E(eV)
   0   2.0000     -20.576546      -559.9163
   1   2.0000     -15.525270      -422.4641
   2   2.0000     -11.327651      -308.2410
   3   2.0000     -11.268298      -306.6260
   4   2.0000     -11.245367      -306.0020
   5   2.0000     -11.232246      -305.6449
   6   2.0000     -11.218357      -305.2670
   7   2.0000     -11.214815      -305.1706
   8   2.0000     -11.206849      -304.9539
   9   2.0000      -1.412473       -38.4353
  10   2.0000      -1.206747       -32.8373
  11   2.0000      -1.060215       -28.8499
  12   2.0000      -1.014481       -27.6054
  13   2.0000      -0.984218       -26.7819
  14   2.0000      -0.920535       -25.0490
  15   2.0000      -0.845865       -23.0172
  16   2.0000      -0.809833       -22.0367
  17   2.0000      -0.740919       -20.1614
  18   2.0000      -0.677296       -18.4302
  19   2.0000      -0.668207       -18.1828
  20   2.0000      -0.647888       -17.6299
  21   2.0000      -0.613903       -16.7052
  22   2.0000      -0.593100       -16.1391
  23   2.0000      -0.582315       -15.8456
  24   2.0000      -0.567118       -15.4321
  25   2.0000      -0.563222       -15.3260
  26   2.0000      -0.538858       -14.6631
  27   2.0000      -0.518547       -14.1104
  28   2.0000      -0.512706       -13.9514
  29   2.0000      -0.504013       -13.7149
  30   2.0000      -0.497600       -13.5404
  31   2.0000      -0.489371       -13.3165
  32   2.0000      -0.473218       -12.8769
  33   2.0000      -0.461778       -12.5656
  34   2.0000      -0.394958       -10.7474
  35   2.0000      -0.371365       -10.1054
  36   0.0000       0.132312         3.6004
  37   0.0000       0.143636         3.9085
  38   0.0000       0.161819         4.4033
  39   0.0000       0.184296         5.0149
  40   0.0000       0.184678         5.0254

MULLIKEN ATOMIC CHARGES
-----------------------
   0 C :   -0.407752
   1 C :   -0.149888
   2 C :   -0.062480
   3 O :   -0.255357
   4 C :    0.233005
   5 C :   -0.431108
   6 N :   -0.292451
   7 C :   -0.121393
   8 C :   -0.351442
   9 H :    0.137242
  10 H :    0.124962
  11 H :    0.124944
  12 H :    0.109694
  13 H :    0.109769
  14 H :    0.106567
  15 H :    0.106203
  16 H :    0.156318
  17 H :    0.150446
  18 H :    0.152567
  19 H :    0.113991
  20 H :    0.086838
  21 H :    0.117171
  22 H :    0.114894
  23 H :    0.127262
Sum of atomic charges:   -0.0000000

LOEWDIN ATOMIC CHARGES
----------------------
   0 C :   -0.318559
   1 C :   -0.297758
   2 C :   -0.295654
   3 O :    0.244976
   4 C :   -0.401253
   5 C :   -0.282330
   6 N :    0.087901
   7 C :   -0.324099
   8 C :   -0.320004
   9 H :    0.122246
  10 H :    0.121339
  11 H :    0.121334
  12 H :    0.136403
  13 H :    0.136341
  14 H :    0.126839
  15 H :    0.126993
  16 H :    0.135152
  17 H :    0.133955
  18 H :    0.135920
  19 H :    0.130920
  20 H :    0.119770
  21 H :    0.118923
  22 H :    0.118354
  23 H :    0.122293

  Mayer bond orders larger than 0.1
B(  0-C ,  1-C ) :   0.9185 B(  0-C ,  9-H ) :   0.9403 B(  0-C , 10-H ) :   0.9370
B(  0-C , 11-H ) :   0.9369 B(  1-C ,  2-C ) :   0.9319 B(  1-C , 12-H ) :   0.9275
B(  1-C , 13-H ) :   0.9277 B(  2-C ,  3-O ) :   0.8515 B(  2-C , 14-H ) :   0.9276
B(  2-C , 15-H ) :   0.9276 B(  3-O ,  4-C ) :   1.1093 B(  4-C ,  5-C ) :   0.8969
B(  4-C ,  6-N ) :   1.7567 B(  5-C , 16-H ) :   0.9333 B(  5-C , 17-H ) :   0.9312
B(  5-C , 18-H ) :   0.9262 B(  6-N ,  7-C ) :   0.9004 B(  7-C ,  8-C ) :   0.9326
B(  7-C , 19-H ) :   0.9281 B(  7-C , 20-H ) :   0.9212 B(  8-C , 21-H ) :   0.9344
B(  8-C , 22-H ) :   0.9348 B(  8-C , 23-H ) :   0.9373

MP2 TOTAL ENERGY:     -404.867185325 Eh
FINAL SINGLE POINT ENERGY      -404.867185325349

DIPOLE MOMENT
-------------
                                X             Y             Z
Electronic contribution:      1.04970      -2.98032      -1.33456
Nuclear contribution   :     -1.01793       2.68827       1.31726
                        -----------------------------------------
Total Dipole Moment    :      0.03177      -0.29204      -0.01730
                        -----------------------------------------
Magnitude (a.u.)       :      0.29428
Magnitude (Debye)      :      0.74799

                             ****ORCA TERMINATED NORMALLY****
TOTAL RUN TIME: 0 days 0 hours 17 minutes 53 seconds 516 msec
