                         Program Version 3.0.3 - RELEASE   -
|  1> ! RI-MP2 RIJK def2-TZVP def2-TZVP/C def2-TZVP/JK TIGHTSCF
|  2> % maxcore 2000
|  3> % mp2 density relaxed end
|  4> *xyz 0 1
|  5>  C       -0.0002850603     1.4826475975    -0.0919336028
|  6>  N        0.1666784865     0.0444249382    -0.0152659412
|  7>  C        0.7010162809    -0.6112496209    -1.2142368982
|  8>  C        1.1020315367    -2.0022742732    -0.7400496479
|  9>  C        2.4423959378    -2.1467048016    -0.0721442932
| 10>  C        1.2101152466    -1.9323585286     0.7674129076
| 11>  C        0.8446102853    -0.4966857283     1.1648228253
| 12>  C        2.0351428062     0.2920072058     1.5754987053
| 13>  N        2.9448296119     0.9467837206     1.8609537714
| 14>  H        0.9480095130     2.0344984651    -0.2079109230
| 15>  H       -0.6428971763     1.7209894736    -0.9452234362
| 16>  H       -0.4962456884     1.8478818899     0.8131701396
| 17>  H       -0.0768200305    -0.6478429673    -1.9852465310
| 18>  H        1.5614392985    -0.0681521632    -1.6446714541
| 19>  H        0.6537274925    -2.8631264122    -1.2206934887
| 20>  H        2.8896381723    -3.1341467818    -0.0420039865
| 21>  H        3.1587093077    -1.3350094749    -0.1565619319
| 22>  H        0.8530933542    -2.7288578012     1.4073195959
| 23>  H        0.1567999156    -0.4923656175     2.0195839996
| 24> *
| 25>
| 26>                          ****END OF INPUT****

CARTESIAN COORDINATES (ANGSTROEM)
---------------------------------
  C     -0.000285    1.482648   -0.091934
  N      0.166678    0.044425   -0.015266
  C      0.701016   -0.611250   -1.214237
  C      1.102032   -2.002274   -0.740050
  C      2.442396   -2.146705   -0.072144
  C      1.210115   -1.932359    0.767413
  C      0.844610   -0.496686    1.164823
  C      2.035143    0.292007    1.575499
  N      2.944830    0.946784    1.860954
  H      0.948010    2.034498   -0.207911
  H     -0.642897    1.720989   -0.945223
  H     -0.496246    1.847882    0.813170
  H     -0.076820   -0.647843   -1.985247
  H      1.561439   -0.068152   -1.644671
  H      0.653727   -2.863126   -1.220693
  H      2.889638   -3.134147   -0.042004
  H      3.158709   -1.335009   -0.156562
  H      0.853093   -2.728858    1.407320
  H      0.156800   -0.492366    2.019584

 Total Charge           Charge          ....    0
 Multiplicity           Mult            ....    1
 Number of Electrons    NEL             ....   66
 Basis Dimension        Dim             ....  339

ORBITAL ENERGIES
----------------

  NO   OCC          E(Eh)            E(eV)
   0   2.0000     -15.566532      -423.5869
   1   2.0000     -15.566529      -423.5868
   2   2.0000     -11.311989      -307.8149
   3   2.0000     -11.266421      -306.5749
   4   2.0000     -11.265437      -306.5481
   5   2.0000     -11.253934      -306.2351
   6   2.0000     -11.253296      -306.2178
   7   2.0000     -11.246958      -306.0453
   8   2.0000     -11.241695      -305.9021
   9   2.0000      -1.272421       -34.6243
  10   2.0000      -1.209859       -32.9219
  11   2.0000      -1.152431       -31.3592
  12   2.0000      -1.024454       -27.8768
  13   2.0000      -0.970183       -26.4000
  14   2.0000      -0.851465       -23.1695
  15   2.0000      -0.830701       -22.6045
  16   2.0000      -0.795042       -21.6342
  17   2.0000      -0.719476       -19.5779
  18   2.0000      -0.696299       -18.9473
  19   2.0000      -0.640109       -17.4182
  20   2.0000      -0.630625       -17.1602
  21   2.0000      -0.600883       -16.3509
  22   2.0000      -0.595233       -16.1971
  23   2.0000      -0.563111       -15.3230
  24   2.0000      -0.552861       -15.0441
  25   2.0000      -0.540801       -14.7160
  26   2.0000      -0.520576       -14.1656
  27   2.0000      -0.501316       -13.6415
  28   2.0000      -0.462529       -12.5860
  29   2.0000      -0.458047       -12.4641
  30   2.0000      -0.433587       -11.7985
  31   2.0000      -0.422859       -11.5066
  32   2.0000      -0.373158       -10.1541
  33   0.0000       0.128464         3.4957
  34   0.0000       0.147503         4.0138
  35   0.0000       0.158700         4.3184
  36   0.0000       0.169391         4.6094
  37   0.0000       0.180017         4.8985

MULLIKEN ATOMIC CHARGES
-----------------------
   0 C :   -0.340702
   1 N :   -0.116624
   2 C :   -0.179977
   3 C :   -0.114066
   4 C :   -0.287446
   5 C :   -0.089200
   6 C :    0.027718
   7 C :   -0.210581
   8 N :   -0.053928
   9 H :    0.132281
  10 H :    0.140139
  11 H :    0.141109
  12 H :    0.125679
  13 H :    0.111802
  14 H :    0.138030
  15 H :    0.136726
  16 H :    0.155737
  17 H :    0.142633
  18 H :    0.140672
Sum of atomic charges:   -0.0000000

LOEWDIN ATOMIC CHARGES
----------------------
   0 C :   -0.322821
   1 N :    0.104144
   2 C :   -0.244018
   3 C :   -0.187422
   4 C :   -0.191618
   5 C :   -0.158872
   6 C :   -0.247778
   7 C :   -0.173258
   8 N :    0.057302
   9 H :    0.110856
  10 H :    0.121886
  11 H :    0.123052
  12 H :    0.135281
  13 H :    0.127767
  14 H :    0.145975
  15 H :    0.137910
  16 H :    0.142864
  17 H :    0.147522
  18 H :    0.171229

  Mayer bond orders larger than 0.1
B(  0-C ,  1-N ) :   0.9077 B(  0-C ,  9-H ) :   0.9251 B(  0-C , 10-H ) :   0.9324
B(  0-C , 11-H ) :   0.9355 B(  1-N ,  2-C ) :   0.9215 B(  1-N ,  6-C ) :   1.0370
B(  2-C ,  3-C ) :   0.9516 B(  2-C , 12-H ) :   0.9252 B(  2-C , 13-H ) :   0.9131
B(  3-C ,  4-C ) :   0.8946 B(  3-C ,  5-C ) :   0.8523 B(  3-C , 14-H ) :   0.9239
B(  4-C ,  5-C ) :   0.8977 B(  4-C , 15-H ) :   0.9280 B(  4-C , 16-H ) :   0.9174
B(  5-C ,  6-C ) :   0.9012 B(  5-C , 17-H ) :   0.9164 B(  6-C ,  7-C ) :   0.8906
B(  6-C , 18-H ) :   0.9173 B(  7-C ,  8-N ) :   2.8546

MP2 TOTAL ENERGY:     -381.388809337 Eh
FINAL SINGLE POINT ENERGY      -381.388809337396

DIPOLE MOMENT
-------------
                                X             Y             Z
Electronic contribution:      2.34748       0.12024       4.32952
Nuclear contribution   :     -3.27964      -0.93865      -4.94928
                        -----------------------------------------
Total Dipole Moment    :     -0.93216      -0.81841      -0.61976
                        -----------------------------------------
Magnitude (a.u.)       :      1.38666
Magnitude (Debye)      :      3.52462

                             ****ORCA TERMINATED NORMALLY****
TOTAL RUN TIME: 0 days 0 hours 20 minutes 14 seconds 155 msec
