                         Program Version 3.0.3 - RELEASE   -
|  1> ! RI-MP2 RIJK def2-TZVP def2-TZVP/C def2-TZVP/JK TIGHTSCF
|  2> % maxcore 2000
|  3> % mp2 density relaxed end
|  4> *xyz 0 1
|  5>  C       -0.1318736683     1.5512384864    -0.0632612033
|  6>  C        0.0495491342     0.0407364781    -0.0444253249
|  7>  O       -1.2339227211    -0.5510166970    -0.2992089302
|  8>  C        1.2967756307    -0.6414715598    -0.7044175285
|  9>  C        2.1284613747    -0.1307201063     0.5137049895
| 10>  C        0.8169280998    -0.6732768524     1.1252263989
| 11>  O        0.5065702147    -0.6492344777     2.4686383895
| 12>  C        1.0266705358    -1.9144366756     0.1777177582
| 13>  O        0.0203229323    -2.8360523156    -0.0859862657
| 14>  H       -0.5187968889     1.8728885615    -1.0392074086
| 15>  H       -0.8628983828     1.8402856034     0.6977577676
| 16>  H        0.7879703905     2.1073114092     0.1161110144
| 17>  H       -1.6069130933    -0.1355914197    -1.0840058377
| 18>  H        1.5892659464    -0.6089575577    -1.7520192806
| 19>  H        3.0264997077    -0.7064858246     0.7444674345
| 20>  H        2.3187356671     0.9372903601     0.5845312169
| 21>  H       -0.2149994964    -1.2721891473     2.6137440211
| 22>  H        1.9289073381    -2.4883695480     0.4056215679
| 23>  H       -0.7707101613    -2.3197621470    -0.3004705490
| 24> *
| 25>
| 26>                          ****END OF INPUT****

CARTESIAN COORDINATES (ANGSTROEM)
---------------------------------
  C     -0.131874    1.551238   -0.063261
  C      0.049549    0.040736   -0.044425
  O     -1.233923   -0.551017   -0.299209
  C      1.296776   -0.641472   -0.704418
  C      2.128461   -0.130720    0.513705
  C      0.816928   -0.673277    1.125226
  O      0.506570   -0.649234    2.468638
  C      1.026671   -1.914437    0.177718
  O      0.020323   -2.836052   -0.085986
  H     -0.518797    1.872889   -1.039207
  H     -0.862898    1.840286    0.697758
  H      0.787970    2.107311    0.116111
  H     -1.606913   -0.135591   -1.084006
  H      1.589266   -0.608958   -1.752019
  H      3.026500   -0.706486    0.744467
  H      2.318736    0.937290    0.584531
  H     -0.214999   -1.272189    2.613744
  H      1.928907   -2.488370    0.405622
  H     -0.770710   -2.319762   -0.300471

 Total Charge           Charge          ....    0
 Multiplicity           Mult            ....    1
 Number of Electrons    NEL             ....   70
 Basis Dimension        Dim             ....  339

ORBITAL ENERGIES
----------------

  NO   OCC          E(Eh)            E(eV)
   0   2.0000     -20.578990      -559.9828
   1   2.0000     -20.569075      -559.7130
   2   2.0000     -20.542632      -558.9934
   3   2.0000     -11.305140      -307.6285
   4   2.0000     -11.299932      -307.4868
   5   2.0000     -11.287338      -307.1441
   6   2.0000     -11.248102      -306.0764
   7   2.0000     -11.236302      -305.7553
   8   2.0000     -11.229459      -305.5691
   9   2.0000      -1.399440       -38.0807
  10   2.0000      -1.376090       -37.4453
  11   2.0000      -1.353284       -36.8247
  12   2.0000      -1.197726       -32.5918
  13   2.0000      -1.003296       -27.3011
  14   2.0000      -0.897157       -24.4129
  15   2.0000      -0.869290       -23.6546
  16   2.0000      -0.858347       -23.3568
  17   2.0000      -0.753764       -20.5110
  18   2.0000      -0.733019       -19.9465
  19   2.0000      -0.705696       -19.2030
  20   2.0000      -0.661300       -17.9949
  21   2.0000      -0.632476       -17.2105
  22   2.0000      -0.630327       -17.1521
  23   2.0000      -0.595450       -16.2030
  24   2.0000      -0.580316       -15.7912
  25   2.0000      -0.565885       -15.3985
  26   2.0000      -0.552419       -15.0321
  27   2.0000      -0.537284       -14.6203
  28   2.0000      -0.528986       -14.3944
  29   2.0000      -0.521671       -14.1954
  30   2.0000      -0.483551       -13.1581
  31   2.0000      -0.480147       -13.0655
  32   2.0000      -0.428478       -11.6595
  33   2.0000      -0.414674       -11.2839
  34   2.0000      -0.387697       -10.5498
  35   0.0000       0.121605         3.3090
  36   0.0000       0.156072         4.2469
  37   0.0000       0.157133         4.2758
  38   0.0000       0.173558         4.7228
  39   0.0000       0.184364         5.0168

MULLIKEN ATOMIC CHARGES
-----------------------
   0 C :   -0.441679
   1 C :    0.201932
   2 O :   -0.523315
   3 C :   -0.131955
   4 C :   -0.269568
   5 C :    0.155229
   6 O :   -0.465617
   7 C :    0.043846
   8 O :   -0.479405
   9 H :    0.123294
  10 H :    0.154935
  11 H :    0.128130
  12 H :    0.328733
  13 H :    0.149765
  14 H :    0.123432
  15 H :    0.121143
  16 H :    0.335596
  17 H :    0.105683
  18 H :    0.339820
Sum of atomic charges:   -0.0000000

LOEWDIN ATOMIC CHARGES
----------------------
   0 C :   -0.278197
   1 C :   -0.304436
   2 O :   -0.003123
   3 C :   -0.142120
   4 C :   -0.168457
   5 C :   -0.307542
   6 O :    0.030829
   7 C :   -0.282152
   8 O :   -0.009630
   9 H :    0.124897
  10 H :    0.134576
  11 H :    0.128558
  12 H :    0.179125
  13 H :    0.129106
  14 H :    0.136152
  15 H :    0.129230
  16 H :    0.192750
  17 H :    0.141975
  18 H :    0.168459

  Mayer bond orders larger than 0.1
B(  0-C ,  1-C ) :   0.9264 B(  0-C ,  9-H ) :   0.9231 B(  0-C , 10-H ) :   0.9404
B(  0-C , 11-H ) :   0.9294 B(  1-C ,  2-O ) :   0.8578 B(  1-C ,  3-C ) :   0.8673
B(  1-C ,  5-C ) :   0.8251 B(  2-O , 12-H ) :   0.8320 B(  3-C ,  4-C ) :   0.8920
B(  3-C ,  7-C ) :   0.8539 B(  3-C , 13-H ) :   0.8788 B(  4-C ,  5-C ) :   0.9013
B(  4-C , 14-H ) :   0.9232 B(  4-C , 15-H ) :   0.9243 B(  5-C ,  6-O ) :   0.9692
B(  5-C ,  7-C ) :   0.8794 B(  6-O , 16-H ) :   0.8294 B(  7-C ,  8-O ) :   1.0029
B(  7-C , 17-H ) :   0.9698 B(  8-O , 18-H ) :   0.7981

MP2 TOTAL ENERGY:     -459.395233881 Eh
FINAL SINGLE POINT ENERGY      -459.395233881401

DIPOLE MOMENT
-------------
                                X             Y             Z
Electronic contribution:     -1.46314      -4.62162       1.70593
Nuclear contribution   :      1.20847       5.48627      -2.40385
                        -----------------------------------------
Total Dipole Moment    :     -0.25467       0.86465      -0.69792
                        -----------------------------------------
Magnitude (a.u.)       :      1.13999
Magnitude (Debye)      :      2.89762

                             ****ORCA TERMINATED NORMALLY****
TOTAL RUN TIME: 0 days 0 hours 17 minutes 31 seconds 745 msec
