                         Program Version 3.0.3 - RELEASE   -
|  1> ! RI-MP2 RIJK def2-TZVP def2-TZVP/C def2-TZVP/JK TIGHTSCF
|  2> % maxcore 2000
|  3> % mp2 density relaxed end
|  4> *xyz 0 1
|  5>  O        0.0855653307     1.4426867924    -0.1047285586
|  6>  C        0.0490128894     0.0370552050    -0.0101501779
|  7>  C        0.3766959709    -0.6389750879     1.3553524092
|  8>  C       -0.9484778589    -1.4540665611     1.2445824623
|  9>  C       -2.0605473365    -1.2979800520     2.3043459981
| 10>  N       -2.9859806028    -0.2251397465     1.8853881428
| 11>  C       -2.3648720561     1.0992088500     1.7730491200
| 12>  C       -2.5365740004     0.2665001460     0.5568942721
| 13>  C       -1.3818792105    -0.5697805728     0.0293697328
| 14>  H        1.0071249086     1.7162957869    -0.1537779426
| 15>  H        0.6328345471    -0.4214467192    -0.8207216612
| 16>  H        1.2991911247    -1.2249403477     1.3886964225
| 17>  H        0.3898466126     0.0704535268     2.1866233977
| 18>  H       -0.7687847992    -2.5038029027     1.0047367476
| 19>  H       -2.6459369860    -2.2213517029     2.3714199822
| 20>  H       -1.6651326097    -1.0878694140     3.3047319329
| 21>  H       -3.0414972352     1.9317183546     1.9483489982
| 22>  H       -1.3640072236     1.2562266421     2.1581591177
| 23>  H       -3.3257701920     0.5209570681    -0.1442653219
| 24>  H       -1.6810223031    -1.0835962551    -0.8866970937
| 25> *
| 26>
| 27>                          ****END OF INPUT****

CARTESIAN COORDINATES (ANGSTROEM)
---------------------------------
  O      0.085565    1.442687   -0.104729
  C      0.049013    0.037055   -0.010150
  C      0.376696   -0.638975    1.355352
  C     -0.948478   -1.454067    1.244582
  C     -2.060547   -1.297980    2.304346
  N     -2.985981   -0.225140    1.885388
  C     -2.364872    1.099209    1.773049
  C     -2.536574    0.266500    0.556894
  C     -1.381879   -0.569781    0.029370
  H      1.007125    1.716296   -0.153778
  H      0.632835   -0.421447   -0.820722
  H      1.299191   -1.224940    1.388696
  H      0.389847    0.070454    2.186623
  H     -0.768785   -2.503803    1.004737
  H     -2.645937   -2.221352    2.371420
  H     -1.665133   -1.087869    3.304732
  H     -3.041497    1.931718    1.948349
  H     -1.364007    1.256227    2.158159
  H     -3.325770    0.520957   -0.144265
  H     -1.681022   -1.083596   -0.886697

 Total Charge           Charge          ....    0
 Multiplicity           Mult            ....    1
 Number of Electrons    NEL             ....   68
 Basis Dimension        Dim             ....  345

ORBITAL ENERGIES
----------------

  NO   OCC          E(Eh)            E(eV)
   0   2.0000     -20.559222      -559.4449
   1   2.0000     -15.546156      -423.0324
   2   2.0000     -11.284133      -307.0569
   3   2.0000     -11.247719      -306.0660
   4   2.0000     -11.243999      -305.9648
   5   2.0000     -11.239881      -305.8527
   6   2.0000     -11.229684      -305.5752
   7   2.0000     -11.228476      -305.5424
   8   2.0000     -11.223965      -305.4196
   9   2.0000      -1.366822       -37.1931
  10   2.0000      -1.268436       -34.5159
  11   2.0000      -1.118067       -30.4242
  12   2.0000      -0.999981       -27.2109
  13   2.0000      -0.934196       -25.4208
  14   2.0000      -0.873079       -23.7577
  15   2.0000      -0.822116       -22.3709
  16   2.0000      -0.776827       -21.1385
  17   2.0000      -0.738562       -20.0973
  18   2.0000      -0.712396       -19.3853
  19   2.0000      -0.668135       -18.1809
  20   2.0000      -0.640620       -17.4321
  21   2.0000      -0.616872       -16.7859
  22   2.0000      -0.591698       -16.1009
  23   2.0000      -0.582315       -15.8456
  24   2.0000      -0.566546       -15.4165
  25   2.0000      -0.538726       -14.6595
  26   2.0000      -0.519084       -14.1250
  27   2.0000      -0.473127       -12.8744
  28   2.0000      -0.461351       -12.5540
  29   2.0000      -0.451680       -12.2908
  30   2.0000      -0.443783       -12.0759
  31   2.0000      -0.425439       -11.5768
  32   2.0000      -0.410120       -11.1599
  33   2.0000      -0.358060        -9.7433
  34   0.0000       0.129046         3.5115
  35   0.0000       0.146940         3.9984
  36   0.0000       0.161235         4.3874
  37   0.0000       0.176794         4.8108
  38   0.0000       0.185052         5.0355

MULLIKEN ATOMIC CHARGES
-----------------------
   0 O :   -0.443677
   1 C :   -0.028526
   2 C :   -0.235493
   3 C :   -0.110820
   4 C :   -0.167179
   5 N :   -0.224478
   6 C :   -0.151223
   7 C :   -0.101871
   8 C :    0.014265
   9 H :    0.314661
  10 H :    0.080951
  11 H :    0.122695
  12 H :    0.107521
  13 H :    0.111795
  14 H :    0.122700
  15 H :    0.118871
  16 H :    0.121763
  17 H :    0.115784
  18 H :    0.112958
  19 H :    0.119303
Sum of atomic charges:   -0.0000000

LOEWDIN ATOMIC CHARGES
----------------------
   0 O :   -0.012207
   1 C :   -0.310234
   2 C :   -0.214557
   3 C :   -0.191653
   4 C :   -0.259730
   5 N :    0.104279
   6 C :   -0.241408
   7 C :   -0.215158
   8 C :   -0.167176
   9 H :    0.175515
  10 H :    0.129668
  11 H :    0.125003
  12 H :    0.131628
  13 H :    0.144659
  14 H :    0.133601
  15 H :    0.132222
  16 H :    0.125215
  17 H :    0.124708
  18 H :    0.139937
  19 H :    0.145689

  Mayer bond orders larger than 0.1
B(  0-O ,  1-C ) :   1.1527 B(  0-O ,  9-H ) :   0.8445 B(  1-C ,  2-C ) :   0.9239
B(  1-C ,  8-C ) :   0.8578 B(  1-C , 10-H ) :   0.9510 B(  2-C ,  3-C ) :   0.9218
B(  2-C , 11-H ) :   0.9176 B(  2-C , 12-H ) :   0.9099 B(  3-C ,  4-C ) :   0.9234
B(  3-C ,  8-C ) :   0.9086 B(  3-C , 13-H ) :   0.9119 B(  4-C ,  5-N ) :   0.9289
B(  4-C , 14-H ) :   0.9326 B(  4-C , 15-H ) :   0.9328 B(  5-N ,  6-C ) :   0.8923
B(  5-N ,  7-C ) :   0.8972 B(  6-C ,  7-C ) :   0.9265 B(  6-C , 16-H ) :   0.9218
B(  6-C , 17-H ) :   0.9126 B(  7-C ,  8-C ) :   0.9524 B(  7-C , 18-H ) :   0.9168
B(  8-C , 19-H ) :   0.9105

MP2 TOTAL ENERGY:     -402.422578612 Eh
FINAL SINGLE POINT ENERGY      -402.422578611546

DIPOLE MOMENT
-------------
                                X             Y             Z
Electronic contribution:     -1.46313       1.41600      -1.56214
Nuclear contribution   :      2.58098      -1.69321       1.33298
                        -----------------------------------------
Total Dipole Moment    :      1.11785      -0.27722      -0.22915
                        -----------------------------------------
Magnitude (a.u.)       :      1.17429
Magnitude (Debye)      :      2.98480

                             ****ORCA TERMINATED NORMALLY****
TOTAL RUN TIME: 0 days 0 hours 19 minutes 21 seconds 966 msec
