                         Program Version 3.0.3 - RELEASE   -
|  1> ! RI-MP2 RIJK def2-TZVP def2-TZVP/C def2-TZVP/JK TIGHTSCF
|  2> % maxcore 2000
|  3> % mp2 density relaxed end
|  4> *xyz 0 1
|  5>  C        0.0040639761     1.4762295518     0.0268419835
|  6>  N        0.0090918198     0.0302931749    -0.0246744707
|  7>  C        0.0347455009    -0.7470869665    -1.1797475032
|  8>  C        0.0333121778    -2.0686879187    -0.9056384439
|  9>  C        0.0036715462    -2.2185999477     0.6028158971
| 10>  C       -0.0117905562    -0.7741072946     1.1121610029
| 11>  O       -0.0350773124    -0.3708356922     2.2520612706
| 12>  C        0.0552939190    -3.1346904576    -1.8212116741
| 13>  C        0.0735065049    -4.0800116718    -2.5705289101
| 14>  H        0.9036341910     1.8930329206    -0.4388393443
| 15>  H       -0.8779189103     1.8880956157    -0.4754283521
| 16>  H       -0.0183622202     1.7577058470     1.0808414188
| 17>  H        0.0528828732    -0.2656462900    -2.1470103029
| 18>  H       -0.8816267013    -2.7510046593     0.9657113945
| 19>  H        0.8774805100    -2.7447941870     1.0009251431
| 20>  H        0.0896886315    -4.9039657346    -3.2394806593
| 21> *
| 22>
| 23>                          ****END OF INPUT****

CARTESIAN COORDINATES (ANGSTROEM)
---------------------------------
  C      0.004064    1.476230    0.026842
  N      0.009092    0.030293   -0.024674
  C      0.034746   -0.747087   -1.179748
  C      0.033312   -2.068688   -0.905638
  C      0.003672   -2.218600    0.602816
  C     -0.011791   -0.774107    1.112161
  O     -0.035077   -0.370836    2.252061
  C      0.055294   -3.134690   -1.821212
  C      0.073507   -4.080012   -2.570529
  H      0.903634    1.893033   -0.438839
  H     -0.877919    1.888096   -0.475428
  H     -0.018362    1.757706    1.080841
  H      0.052883   -0.265646   -2.147010
  H     -0.881627   -2.751005    0.965711
  H      0.877481   -2.744794    1.000925
  H      0.089689   -4.903966   -3.239481

 Total Charge           Charge          ....    0
 Multiplicity           Mult            ....    1
 Number of Electrons    NEL             ....   64
 Basis Dimension        Dim             ....  321

ORBITAL ENERGIES
----------------

  NO   OCC          E(Eh)            E(eV)
   0   2.0000     -20.533590      -558.7474
   1   2.0000     -15.610369      -424.7797
   2   2.0000     -11.361942      -309.1741
   3   2.0000     -11.302150      -307.5471
   4   2.0000     -11.274990      -306.8081
   5   2.0000     -11.258919      -306.3707
   6   2.0000     -11.256485      -306.3045
   7   2.0000     -11.244797      -305.9865
   8   2.0000     -11.231669      -305.6292
   9   2.0000      -1.399487       -38.0820
  10   2.0000      -1.293050       -35.1857
  11   2.0000      -1.117731       -30.4150
  12   2.0000      -1.033398       -28.1202
  13   2.0000      -0.983276       -26.7563
  14   2.0000      -0.955029       -25.9877
  15   2.0000      -0.847912       -23.0729
  16   2.0000      -0.772492       -21.0206
  17   2.0000      -0.725047       -19.7295
  18   2.0000      -0.704128       -19.1603
  19   2.0000      -0.666267       -18.1301
  20   2.0000      -0.661130       -17.9903
  21   2.0000      -0.624695       -16.9988
  22   2.0000      -0.607042       -16.5185
  23   2.0000      -0.601800       -16.3758
  24   2.0000      -0.563469       -15.3328
  25   2.0000      -0.556782       -15.1508
  26   2.0000      -0.528420       -14.3790
  27   2.0000      -0.488865       -13.3027
  28   2.0000      -0.437290       -11.8993
  29   2.0000      -0.428765       -11.6673
  30   2.0000      -0.396042       -10.7768
  31   2.0000      -0.306495        -8.3401
  32   0.0000       0.098016         2.6672
  33   0.0000       0.131779         3.5859
  34   0.0000       0.149609         4.0711
  35   0.0000       0.160043         4.3550
  36   0.0000       0.166283         4.5248

MULLIKEN ATOMIC CHARGES
-----------------------
   0 C :   -0.347185
   1 N :   -0.055590
   2 C :   -0.078843
   3 C :   -0.223514
   4 C :   -0.135031
   5 C :    0.156008
   6 O :   -0.337884
   7 C :    0.028859
   8 C :   -0.138802
   9 H :    0.146458
  10 H :    0.146448
  11 H :    0.183274
  12 H :    0.157585
  13 H :    0.152531
  14 H :    0.152588
  15 H :    0.193098
Sum of atomic charges:    0.0000000

LOEWDIN ATOMIC CHARGES
----------------------
   0 C :   -0.279370
   1 N :    0.203362
   2 C :   -0.128620
   3 C :   -0.174188
   4 C :   -0.152690
   5 C :   -0.385116
   6 O :    0.099613
   7 C :   -0.087131
   8 C :   -0.083334
   9 H :    0.121665
  10 H :    0.121660
  11 H :    0.138784
  12 H :    0.147983
  13 H :    0.164932
  14 H :    0.164961
  15 H :    0.127488

  Mayer bond orders larger than 0.1
B(  0-C ,  1-N ) :   0.8603 B(  0-C ,  9-H ) :   0.9307 B(  0-C , 10-H ) :   0.9307
B(  0-C , 11-H ) :   0.9229 B(  1-N ,  2-C ) :   1.0287 B(  1-N ,  5-C ) :   1.0855
B(  2-C ,  3-C ) :   1.6239 B(  2-C , 12-H ) :   0.9082 B(  3-C ,  4-C ) :   0.9335
B(  3-C ,  7-C ) :   1.2089 B(  3-C ,  8-C ) :  -0.1566 B(  4-C ,  5-C ) :   0.9445
B(  4-C , 13-H ) :   0.8834 B(  4-C , 14-H ) :   0.8833 B(  5-C ,  6-O ) :   1.9741
B(  7-C ,  8-C ) :   2.5976 B(  8-C , 15-H ) :   0.8744

MP2 TOTAL ENERGY:     -400.056709122 Eh
FINAL SINGLE POINT ENERGY      -400.056709122390

DIPOLE MOMENT
-------------
                                X             Y             Z
Electronic contribution:     -0.00661      -3.00316       0.68051
Nuclear contribution   :      0.02597       3.30760      -1.68831
                        -----------------------------------------
Total Dipole Moment    :      0.01935       0.30445      -1.00780
                        -----------------------------------------
Magnitude (a.u.)       :      1.05295
Magnitude (Debye)      :      2.67640

                             ****ORCA TERMINATED NORMALLY****
TOTAL RUN TIME: 0 days 0 hours 15 minutes 57 seconds 556 msec
