                         Program Version 3.0.3 - RELEASE   -
|  1> ! RI-MP2 RIJK def2-TZVP def2-TZVP/C def2-TZVP/JK TIGHTSCF
|  2> % maxcore 2000
|  3> % mp2 density relaxed end
|  4> *xyz 0 1
|  5>  C        0.0103988116     1.5644525489    -0.1214337715
|  6>  C       -0.1229579844     0.0490005466    -0.2535954640
|  7>  C       -1.4417534797    -0.4961758794     0.2451677079
|  8>  N       -2.3374541968     0.2690113936     0.7109601510
|  9>  N       -1.6396036743    -1.9168666821     0.0687863161
| 10>  C       -2.8373871949    -2.3310860113    -0.5668416274
| 11>  O       -3.2002491962    -3.4607213920    -0.7147220522
| 12>  C       -0.6632653896    -2.8302606765     0.5225777385
| 13>  O       -0.6885438731    -4.0167353330     0.3671718366
| 14>  H        0.9835824192     1.8883345705    -0.5003238076
| 15>  H       -0.7728849564     2.0766841124    -0.6842828622
| 16>  H       -0.0799088470     1.8768616889     0.9213773269
| 17>  H       -0.0104931968    -0.2684046855    -1.2989896610
| 18>  H        0.6974821974    -0.4474453914     0.2805332580
| 19>  H       -3.1622499313    -0.2451538884     1.0230966577
| 20>  H       -3.4006625910    -1.4502170742    -0.9259925060
| 21>  H        0.1398335734    -2.3095596671     1.0736635992
| 22> *
| 23>
| 24>                          ****END OF INPUT****

CARTESIAN COORDINATES (ANGSTROEM)
---------------------------------
  C      0.010399    1.564453   -0.121434
  C     -0.122958    0.049001   -0.253595
  C     -1.441753   -0.496176    0.245168
  N     -2.337454    0.269011    0.710960
  N     -1.639604   -1.916867    0.068786
  C     -2.837387   -2.331086   -0.566842
  O     -3.200249   -3.460721   -0.714722
  C     -0.663265   -2.830261    0.522578
  O     -0.688544   -4.016735    0.367172
  H      0.983582    1.888335   -0.500324
  H     -0.772885    2.076684   -0.684283
  H     -0.079909    1.876862    0.921377
  H     -0.010493   -0.268405   -1.298990
  H      0.697482   -0.447445    0.280533
  H     -3.162250   -0.245154    1.023097
  H     -3.400663   -1.450217   -0.925993
  H      0.139834   -2.309560    1.073664

 Total Charge           Charge          ....    0
 Multiplicity           Mult            ....    1
 Number of Electrons    NEL             ....   68
 Basis Dimension        Dim             ....  327

ORBITAL ENERGIES
----------------

  NO   OCC          E(Eh)            E(eV)
   0   2.0000     -20.567784      -559.6779
   1   2.0000     -20.567460      -559.6690
   2   2.0000     -15.643402      -425.6786
   3   2.0000     -15.581849      -424.0037
   4   2.0000     -11.386708      -309.8481
   5   2.0000     -11.385281      -309.8092
   6   2.0000     -11.358387      -309.0774
   7   2.0000     -11.267256      -306.5976
   8   2.0000     -11.234418      -305.7041
   9   2.0000      -1.439703       -39.1763
  10   2.0000      -1.412373       -38.4326
  11   2.0000      -1.317945       -35.8631
  12   2.0000      -1.213163       -33.0118
  13   2.0000      -1.070690       -29.1349
  14   2.0000      -0.952748       -25.9256
  15   2.0000      -0.920142       -25.0383
  16   2.0000      -0.827783       -22.5251
  17   2.0000      -0.795607       -21.6496
  18   2.0000      -0.760707       -20.6999
  19   2.0000      -0.699076       -19.0228
  20   2.0000      -0.674591       -18.3566
  21   2.0000      -0.657798       -17.8996
  22   2.0000      -0.651686       -17.7333
  23   2.0000      -0.639323       -17.3969
  24   2.0000      -0.618288       -16.8245
  25   2.0000      -0.553309       -15.0563
  26   2.0000      -0.548740       -14.9320
  27   2.0000      -0.533584       -14.5196
  28   2.0000      -0.529776       -14.4159
  29   2.0000      -0.511647       -13.9226
  30   2.0000      -0.486442       -13.2367
  31   2.0000      -0.459929       -12.5153
  32   2.0000      -0.439446       -11.9579
  33   2.0000      -0.423883       -11.5345
  34   0.0000       0.095321         2.5938
  35   0.0000       0.115900         3.1538
  36   0.0000       0.119692         3.2570
  37   0.0000       0.146077         3.9750
  38   0.0000       0.161054         4.3825

MULLIKEN ATOMIC CHARGES
-----------------------
   0 C :   -0.360767
   1 C :   -0.180279
   2 C :    0.040740
   3 N :   -0.328045
   4 N :   -0.052767
   5 C :    0.091470
   6 O :   -0.232505
   7 C :    0.128579
   8 O :   -0.237109
   9 H :    0.136564
  10 H :    0.139039
  11 H :    0.137105
  12 H :    0.142020
  13 H :    0.126134
  14 H :    0.225248
  15 H :    0.120128
  16 H :    0.104446
Sum of atomic charges:   -0.0000000

LOEWDIN ATOMIC CHARGES
----------------------
   0 C :   -0.303046
   1 C :   -0.259386
   2 C :   -0.314915
   3 N :   -0.000658
   4 N :    0.189200
   5 C :   -0.358021
   6 O :    0.153851
   7 C :   -0.353626
   8 O :    0.151711
   9 H :    0.123815
  10 H :    0.128806
  11 H :    0.128684
  12 H :    0.154019
  13 H :    0.148025
  14 H :    0.167270
  15 H :    0.123216
  16 H :    0.121055

  Mayer bond orders larger than 0.1
B(  0-C ,  1-C ) :   0.9427 B(  0-C ,  9-H ) :   0.9325 B(  0-C , 10-H ) :   0.9355
B(  0-C , 11-H ) :   0.9334 B(  1-C ,  2-C ) :   0.9259 B(  1-C , 12-H ) :   0.9180
B(  1-C , 13-H ) :   0.9100 B(  2-C ,  3-N ) :   2.0039 B(  2-C ,  4-N ) :   0.9457
B(  3-N , 14-H ) :   0.8573 B(  4-N ,  5-C ) :   0.9315 B(  4-N ,  7-C ) :   0.9397
B(  5-C ,  6-O ) :   2.0174 B(  5-C , 15-H ) :   0.9261 B(  7-C ,  8-O ) :   2.0142
B(  7-C , 16-H ) :   0.9270

MP2 TOTAL ENERGY:     -454.437666198 Eh
FINAL SINGLE POINT ENERGY      -454.437666198450

DIPOLE MOMENT
-------------
                                X             Y             Z
Electronic contribution:     -4.94920     -10.73177       0.36795
Nuclear contribution   :      5.51512      12.13100      -0.29090
                        -----------------------------------------
Total Dipole Moment    :      0.56593       1.39923       0.07705
                        -----------------------------------------
Magnitude (a.u.)       :      1.51131
Magnitude (Debye)      :      3.84144

                             ****ORCA TERMINATED NORMALLY****
TOTAL RUN TIME: 0 days 0 hours 14 minutes 31 seconds 155 msec
