                         Program Version 3.0.3 - RELEASE   -
|  1> ! RI-MP2 RIJK def2-TZVP def2-TZVP/C def2-TZVP/JK TIGHTSCF
|  2> % maxcore 2000
|  3> % mp2 density relaxed end
|  4> *xyz 0 1
|  5>  C       -0.1679018618    -1.1035749691    -0.6619094059
|  6>  C       -0.0599234005     0.0252763014    -0.2637705479
|  7>  C        0.0763397577     1.3857879757     0.2286406237
|  8>  C       -0.4989361661     1.6109136735     1.6582396479
|  9>  N        0.4349245584     2.5493012690     2.3121529309
| 10>  C        1.3985843657     3.0558230938     1.3343278714
| 11>  C        1.5389350379     1.8745028039     0.3586741308
| 12>  C        0.9385702861     4.2795144911     0.6389054569
| 13>  N        0.5443590308     5.2408346569     0.1305963358
| 14>  H       -0.2675005027    -2.0987857409    -1.0187267998
| 15>  H       -0.4404661442     2.0637061439    -0.4613157522
| 16>  H       -1.5219823739     1.9987287703     1.6048049900
| 17>  H       -0.5275389341     0.6674120660     2.2131046879
| 18>  H       -0.0341438213     3.2889876117     2.8175860739
| 19>  H        2.3517389770     3.2921611082     1.8200458134
| 20>  H        2.1564259307     1.1043930330     0.8270618719
| 21>  H        1.9823539201     2.1534820515    -0.5975885087
| 22> *
| 23>
| 24>                          ****END OF INPUT****

CARTESIAN COORDINATES (ANGSTROEM)
---------------------------------
  C     -0.167902   -1.103575   -0.661909
  C     -0.059923    0.025276   -0.263771
  C      0.076340    1.385788    0.228641
  C     -0.498936    1.610914    1.658240
  N      0.434925    2.549301    2.312153
  C      1.398584    3.055823    1.334328
  C      1.538935    1.874503    0.358674
  C      0.938570    4.279514    0.638905
  N      0.544359    5.240835    0.130596
  H     -0.267501   -2.098786   -1.018727
  H     -0.440466    2.063706   -0.461316
  H     -1.521982    1.998729    1.604805
  H     -0.527539    0.667412    2.213105
  H     -0.034144    3.288988    2.817586
  H      2.351739    3.292161    1.820046
  H      2.156426    1.104393    0.827062
  H      1.982354    2.153482   -0.597589

 Total Charge           Charge          ....    0
 Multiplicity           Mult            ....    1
 Number of Electrons    NEL             ....   64
 Basis Dimension        Dim             ....  327

ORBITAL ENERGIES
----------------

  NO   OCC          E(Eh)            E(eV)
   0   2.0000     -15.577000      -423.8717
   1   2.0000     -15.572812      -423.7577
   2   2.0000     -11.318270      -307.9858
   3   2.0000     -11.275575      -306.8240
   4   2.0000     -11.275396      -306.8191
   5   2.0000     -11.274772      -306.8022
   6   2.0000     -11.259978      -306.3996
   7   2.0000     -11.243889      -305.9618
   8   2.0000     -11.232619      -305.6551
   9   2.0000      -1.263928       -34.3932
  10   2.0000      -1.216960       -33.1152
  11   2.0000      -1.097752       -29.8713
  12   2.0000      -1.043317       -28.3901
  13   2.0000      -1.004349       -27.3297
  14   2.0000      -0.874111       -23.7858
  15   2.0000      -0.852905       -23.2087
  16   2.0000      -0.743561       -20.2333
  17   2.0000      -0.741640       -20.1810
  18   2.0000      -0.703802       -19.1514
  19   2.0000      -0.662429       -18.0256
  20   2.0000      -0.612723       -16.6730
  21   2.0000      -0.579507       -15.7692
  22   2.0000      -0.572652       -15.5826
  23   2.0000      -0.568717       -15.4756
  24   2.0000      -0.554862       -15.0986
  25   2.0000      -0.529021       -14.3954
  26   2.0000      -0.523554       -14.2466
  27   2.0000      -0.472958       -12.8698
  28   2.0000      -0.465901       -12.6778
  29   2.0000      -0.404904       -11.0180
  30   2.0000      -0.394897       -10.7457
  31   2.0000      -0.392750       -10.6873
  32   0.0000       0.116743         3.1767
  33   0.0000       0.143921         3.9163
  34   0.0000       0.150343         4.0911
  35   0.0000       0.156078         4.2471
  36   0.0000       0.166578         4.5328

MULLIKEN ATOMIC CHARGES
-----------------------
   0 C :   -0.111310
   1 C :   -0.022968
   2 C :   -0.243442
   3 C :   -0.151147
   4 N :   -0.354096
   5 C :    0.209468
   6 C :   -0.265561
   7 C :   -0.274386
   8 N :   -0.052095
   9 H :    0.195286
  10 H :    0.145404
  11 H :    0.131899
  12 H :    0.125024
  13 H :    0.224457
  14 H :    0.148190
  15 H :    0.143088
  16 H :    0.152189
Sum of atomic charges:    0.0000000

LOEWDIN ATOMIC CHARGES
----------------------
   0 C :   -0.091445
   1 C :   -0.091121
   2 C :   -0.228611
   3 C :   -0.237891
   4 N :    0.021394
   5 C :   -0.289169
   6 C :   -0.175349
   7 C :   -0.177874
   8 N :    0.059676
   9 H :    0.128154
  10 H :    0.176666
  11 H :    0.129340
  12 H :    0.134501
  13 H :    0.171920
  14 H :    0.168177
  15 H :    0.152852
  16 H :    0.148779

  Mayer bond orders larger than 0.1
B(  0-C ,  1-C ) :   2.6104 B(  0-C ,  2-C ) :  -0.1330 B(  0-C ,  9-H ) :   0.8810
B(  1-C ,  2-C ) :   1.1593 B(  2-C ,  3-C ) :   0.9291 B(  2-C ,  6-C ) :   0.9384
B(  2-C , 10-H ) :   0.9146 B(  3-C ,  4-N ) :   0.9453 B(  3-C , 11-H ) :   0.9258
B(  3-C , 12-H ) :   0.9283 B(  4-N ,  5-C ) :   0.9779 B(  4-N , 13-H ) :   0.8837
B(  5-C ,  6-C ) :   0.8843 B(  5-C ,  7-C ) :   0.9254 B(  5-C , 14-H ) :   0.9016
B(  6-C , 15-H ) :   0.9170 B(  6-C , 16-H ) :   0.9203 B(  7-C ,  8-N ) :   2.8618

MP2 TOTAL ENERGY:     -380.169600873 Eh
FINAL SINGLE POINT ENERGY      -380.169600872695

DIPOLE MOMENT
-------------
                                X             Y             Z
Electronic contribution:      0.21139       3.29031      -1.27308
Nuclear contribution   :     -0.03935      -4.23151       1.70396
                        -----------------------------------------
Total Dipole Moment    :      0.17204      -0.94119       0.43088
                        -----------------------------------------
Magnitude (a.u.)       :      1.04934
Magnitude (Debye)      :      2.66720

                             ****ORCA TERMINATED NORMALLY****
TOTAL RUN TIME: 0 days 0 hours 16 minutes 36 seconds 977 msec
