                         Program Version 3.0.3 - RELEASE   -
|  1> ! RI-MP2 RIJK def2-TZVP def2-TZVP/C def2-TZVP/JK TIGHTSCF
|  2> % maxcore 2000
|  3> % mp2 density relaxed end
|  4> *xyz 0 1
|  5>  C        0.0223459486    -1.1862813715     0.1346486505
|  6>  C        0.0554618621     0.0108422723     0.0277337972
|  7>  C        0.0550402811     1.4218852690    -0.1395863996
|  8>  C       -0.7214082543     2.2616292878    -1.1802292970
|  9>  C        0.4827680822     3.2347231208    -1.1665002957
| 10>  C        1.0847234968     3.9621509462    -2.2824296895
| 11>  O        0.4249899976     4.6408521744    -1.2014119886
| 12>  C        1.1682595120     2.4127630987    -0.0938303845
| 13>  O        0.2508842521     2.2823219474     0.9951326456
| 14>  H        0.0010203009    -2.2429634654     0.2402443869
| 15>  H       -0.8655057831     1.7627502737    -2.1405186471
| 16>  H       -1.6663382284     2.6610045316    -0.8084340448
| 17>  H        2.1643876083     4.0994081952    -2.3278228215
| 18>  H        0.5690925286     3.9947323548    -3.2410478310
| 19>  H        2.2228177354     2.2798769251     0.1186509391
| 20> *
| 21>
| 22>                          ****END OF INPUT****

CARTESIAN COORDINATES (ANGSTROEM)
---------------------------------
  C      0.022346   -1.186281    0.134649
  C      0.055462    0.010842    0.027734
  C      0.055040    1.421885   -0.139586
  C     -0.721408    2.261629   -1.180229
  C      0.482768    3.234723   -1.166500
  C      1.084723    3.962151   -2.282430
  O      0.424990    4.640852   -1.201412
  C      1.168260    2.412763   -0.093830
  O      0.250884    2.282322    0.995133
  H      0.001020   -2.242963    0.240244
  H     -0.865506    1.762750   -2.140519
  H     -1.666338    2.661005   -0.808434
  H      2.164388    4.099408   -2.327823
  H      0.569093    3.994732   -3.241048
  H      2.222818    2.279877    0.118651

 Total Charge           Charge          ....    0
 Multiplicity           Mult            ....    1
 Number of Electrons    NEL             ....   64
 Basis Dimension        Dim             ....  315

ORBITAL ENERGIES
----------------

  NO   OCC          E(Eh)            E(eV)
   0   2.0000     -20.590397      -560.2932
   1   2.0000     -20.581282      -560.0451
   2   2.0000     -11.329050      -308.2791
   3   2.0000     -11.313456      -307.8548
   4   2.0000     -11.309355      -307.7432
   5   2.0000     -11.297456      -307.4194
   6   2.0000     -11.255157      -306.2684
   7   2.0000     -11.252581      -306.1983
   8   2.0000     -11.246413      -306.0305
   9   2.0000      -1.446860       -39.3711
  10   2.0000      -1.422621       -38.7115
  11   2.0000      -1.099187       -29.9104
  12   2.0000      -1.052630       -28.6435
  13   2.0000      -0.940140       -25.5825
  14   2.0000      -0.914880       -24.8951
  15   2.0000      -0.897961       -24.4348
  16   2.0000      -0.779016       -21.1981
  17   2.0000      -0.755937       -20.5701
  18   2.0000      -0.718270       -19.5451
  19   2.0000      -0.700150       -19.0521
  20   2.0000      -0.653636       -17.7863
  21   2.0000      -0.624378       -16.9902
  22   2.0000      -0.604723       -16.4553
  23   2.0000      -0.592508       -16.1230
  24   2.0000      -0.542834       -14.7713
  25   2.0000      -0.528167       -14.3721
  26   2.0000      -0.489205       -13.3119
  27   2.0000      -0.473338       -12.8802
  28   2.0000      -0.452447       -12.3117
  29   2.0000      -0.442410       -12.0386
  30   2.0000      -0.409034       -11.1304
  31   2.0000      -0.376181       -10.2364
  32   0.0000       0.140945         3.8353
  33   0.0000       0.146537         3.9875
  34   0.0000       0.153392         4.1740
  35   0.0000       0.155112         4.2208
  36   0.0000       0.167492         4.5577

MULLIKEN ATOMIC CHARGES
-----------------------
   0 C :   -0.070200
   1 C :    0.016923
   2 C :   -0.071006
   3 C :   -0.184475
   4 C :    0.154337
   5 C :   -0.105646
   6 O :   -0.323511
   7 C :    0.007031
   8 O :   -0.290903
   9 H :    0.201198
  10 H :    0.135286
  11 H :    0.131817
  12 H :    0.123389
  13 H :    0.124585
  14 H :    0.151174
Sum of atomic charges:   -0.0000000

LOEWDIN ATOMIC CHARGES
----------------------
   0 C :   -0.059393
   1 C :   -0.068139
   2 C :   -0.258256
   3 C :   -0.131405
   4 C :   -0.301633
   5 C :   -0.227767
   6 O :    0.182005
   7 C :   -0.165495
   8 O :    0.221628
   9 H :    0.130579
  10 H :    0.145318
  11 H :    0.145740
  12 H :    0.123483
  13 H :    0.123799
  14 H :    0.139536

  Mayer bond orders larger than 0.1
B(  0-C ,  1-C ) :   2.6283 B(  0-C ,  2-C ) :  -0.1791 B(  0-C ,  9-H ) :   0.8670
B(  1-C ,  2-C ) :   1.2026 B(  2-C ,  3-C ) :   0.9415 B(  2-C ,  7-C ) :   0.9010
B(  2-C ,  8-O ) :   0.8943 B(  3-C ,  4-C ) :   0.9492 B(  3-C , 10-H ) :   0.9108
B(  3-C , 11-H ) :   0.8849 B(  4-C ,  5-C ) :   0.9702 B(  4-C ,  6-O ) :   0.8932
B(  4-C ,  7-C ) :   0.9157 B(  5-C ,  6-O ) :   0.8959 B(  5-C , 12-H ) :   0.9134
B(  5-C , 13-H ) :   0.9122 B(  7-C ,  8-O ) :   0.9088 B(  7-C , 14-H ) :   0.9137

MP2 TOTAL ENERGY:     -419.800494552 Eh
FINAL SINGLE POINT ENERGY      -419.800494552198

DIPOLE MOMENT
-------------
                                X             Y             Z
Electronic contribution:     -0.07342      -0.17970       3.49119
Nuclear contribution   :      0.47620      -0.58163      -4.50774
                        -----------------------------------------
Total Dipole Moment    :      0.40279      -0.76132      -1.01656
                        -----------------------------------------
Magnitude (a.u.)       :      1.33238
Magnitude (Debye)      :      3.38664

                             ****ORCA TERMINATED NORMALLY****
TOTAL RUN TIME: 0 days 0 hours 14 minutes 34 seconds 562 msec
