                         Program Version 3.0.3 - RELEASE   -
|  1> ! RI-MP2 RIJK def2-TZVP def2-TZVP/C def2-TZVP/JK TIGHTSCF
|  2> % maxcore 2000
|  3> % mp2 density relaxed end
|  4> *xyz 0 1
|  5>  O       -0.0048955616     1.4524895940     0.0895614577
|  6>  C        0.0757918234     0.0611163604    -0.1237532930
|  7>  C       -1.3194295974    -0.5709982733    -0.0968153915
|  8>  C       -1.4758681514    -2.0925362814     0.0829703549
|  9>  O       -2.1009632974    -1.8803294128     1.3964459037
| 10>  C       -1.9564202046    -0.5241982871     1.2896635586
| 11>  O       -2.2075447367     0.3121977212     2.1014642640
| 12>  H       -0.4728048799     1.5943131009     0.9226199483
| 13>  H        0.5414907691    -0.0820740251    -1.1039803519
| 14>  H        0.7178317289    -0.4354879849     0.6225706880
| 15>  H       -1.9489117423    -0.1296843422    -0.8726026555
| 16>  H       -2.1638540214    -2.5979216619    -0.5961286922
| 17>  H       -0.5510081788    -2.6633072780     0.1928478789
| 18> *
| 19>
| 20>                          ****END OF INPUT****

CARTESIAN COORDINATES (ANGSTROEM)
---------------------------------
  O     -0.004896    1.452490    0.089561
  C      0.075792    0.061116   -0.123753
  C     -1.319430   -0.570998   -0.096815
  C     -1.475868   -2.092536    0.082970
  O     -2.100963   -1.880329    1.396446
  C     -1.956420   -0.524198    1.289664
  O     -2.207545    0.312198    2.101464
  H     -0.472805    1.594313    0.922620
  H      0.541491   -0.082074   -1.103980
  H      0.717832   -0.435488    0.622571
  H     -1.948912   -0.129684   -0.872603
  H     -2.163854   -2.597922   -0.596129
  H     -0.551008   -2.663307    0.192848

 Total Charge           Charge          ....    0
 Multiplicity           Mult            ....    1
 Number of Electrons    NEL             ....   54
 Basis Dimension        Dim             ....  253

ORBITAL ENERGIES
----------------

  NO   OCC          E(Eh)            E(eV)
   0   2.0000     -20.615289      -560.9705
   1   2.0000     -20.569689      -559.7297
   2   2.0000     -20.566639      -559.6467
   3   2.0000     -11.395681      -310.0923
   4   2.0000     -11.322943      -308.1129
   5   2.0000     -11.306501      -307.6655
   6   2.0000     -11.275001      -306.8084
   7   2.0000      -1.477342       -40.2005
   8   2.0000      -1.392898       -37.9027
   9   2.0000      -1.377848       -37.4932
  10   2.0000      -1.086322       -29.5603
  11   2.0000      -0.947321       -25.7779
  12   2.0000      -0.907606       -24.6972
  13   2.0000      -0.761737       -20.7279
  14   2.0000      -0.736134       -20.0312
  15   2.0000      -0.707696       -19.2574
  16   2.0000      -0.695485       -18.9251
  17   2.0000      -0.678509       -18.4632
  18   2.0000      -0.626005       -17.0345
  19   2.0000      -0.595446       -16.2029
  20   2.0000      -0.582421       -15.8485
  21   2.0000      -0.566129       -15.4052
  22   2.0000      -0.551401       -15.0044
  23   2.0000      -0.510663       -13.8958
  24   2.0000      -0.478145       -13.0110
  25   2.0000      -0.462326       -12.5805
  26   2.0000      -0.448238       -12.1972
  27   0.0000       0.123751         3.3674
  28   0.0000       0.148496         4.0408
  29   0.0000       0.155400         4.2286
  30   0.0000       0.162884         4.4323
  31   0.0000       0.179586         4.8868

MULLIKEN ATOMIC CHARGES
-----------------------
   0 O :   -0.466771
   1 C :   -0.044718
   2 C :   -0.151451
   3 C :   -0.055009
   4 O :   -0.230354
   5 C :    0.273006
   6 O :   -0.287696
   7 H :    0.332978
   8 H :    0.124621
   9 H :    0.108327
  10 H :    0.142003
  11 H :    0.129227
  12 H :    0.125838
Sum of atomic charges:    0.0000000

LOEWDIN ATOMIC CHARGES
----------------------
   0 O :   -0.030403
   1 C :   -0.324561
   2 C :   -0.221388
   3 C :   -0.207288
   4 O :    0.236635
   5 C :   -0.453029
   6 O :    0.144554
   7 H :    0.182335
   8 H :    0.132209
   9 H :    0.123886
  10 H :    0.163679
  11 H :    0.126077
  12 H :    0.127296

  Mayer bond orders larger than 0.1
B(  0-O ,  1-C ) :   0.9423 B(  0-O ,  7-H ) :   0.8279 B(  1-C ,  2-C ) :   0.9273
B(  1-C ,  8-H ) :   0.9319 B(  1-C ,  9-H ) :   0.9118 B(  2-C ,  3-C ) :   0.9376
B(  2-C ,  5-C ) :   0.9087 B(  2-C , 10-H ) :   0.8992 B(  3-C ,  4-O ) :   0.8821
B(  3-C , 11-H ) :   0.9179 B(  3-C , 12-H ) :   0.9113 B(  4-O ,  5-C ) :   1.1087
B(  5-C ,  6-O ) :   1.9789

MP2 TOTAL ENERGY:     -381.017994782 Eh
FINAL SINGLE POINT ENERGY      -381.017994781729

DIPOLE MOMENT
-------------
                                X             Y             Z
Electronic contribution:     -3.12844       0.68606       3.61837
Nuclear contribution   :      3.47212      -1.61768      -4.64194
                        -----------------------------------------
Total Dipole Moment    :      0.34367      -0.93162      -1.02357
                        -----------------------------------------
Magnitude (a.u.)       :      1.42609
Magnitude (Debye)      :      3.62482

                             ****ORCA TERMINATED NORMALLY****
TOTAL RUN TIME: 0 days 0 hours 6 minutes 26 seconds 583 msec
