                         Program Version 3.0.3 - RELEASE   -
|  1> ! RI-MP2 RIJK def2-TZVP def2-TZVP/C def2-TZVP/JK TIGHTSCF
|  2> % maxcore 2000
|  3> % mp2 density relaxed end
|  4> *xyz 0 1
|  5>  C       -0.0998231671     1.4335383409     0.0222316844
|  6>  N       -0.0563343227    -0.0186889783     0.0273622109
|  7>  C        0.5363749354    -0.6104937600    -0.9234720201
|  8>  C        1.2332164251    -0.0044884378    -2.1138216075
|  9>  O        0.6058409977    -1.9629465370    -0.9627494696
| 10>  C       -0.0104252085    -2.6544596324     0.1037174878
| 11>  C        0.1962784877    -4.1530563152    -0.0781514159
| 12>  C       -0.4936072098    -5.0120055902     0.9683518687
| 13>  O        0.8503671178    -4.6187456702    -0.9771132939
| 14>  H        0.9020957771     1.8850189761     0.0607322247
| 15>  H       -0.6060190244     1.8376528503    -0.8663862613
| 16>  H       -0.6507094548     1.7784346410     0.9010316379
| 17>  H        2.0414674988     0.6567400126    -1.7846831089
| 18>  H        1.6457958825    -0.7831729998    -2.7546948017
| 19>  H        0.5335632720     0.6063630458    -2.6936395723
| 20>  H        0.4065444790    -2.3359042069     1.0687663005
| 21>  H       -1.0826638806    -2.4222222869     0.1547687705
| 22>  H       -0.2439663048    -4.6778087020     1.9812082734
| 23>  H       -1.5817106552    -4.9293554364     0.8636778626
| 24>  H       -0.1976851051    -6.0532197235     0.8372306097
| 25> *
| 26>
| 27>                          ****END OF INPUT****

CARTESIAN COORDINATES (ANGSTROEM)
---------------------------------
  C     -0.099823    1.433538    0.022232
  N     -0.056334   -0.018689    0.027362
  C      0.536375   -0.610494   -0.923472
  C      1.233216   -0.004488   -2.113822
  O      0.605841   -1.962947   -0.962749
  C     -0.010425   -2.654460    0.103717
  C      0.196278   -4.153056   -0.078151
  C     -0.493607   -5.012006    0.968352
  O      0.850367   -4.618746   -0.977113
  H      0.902096    1.885019    0.060732
  H     -0.606019    1.837653   -0.866386
  H     -0.650709    1.778435    0.901032
  H      2.041467    0.656740   -1.784683
  H      1.645796   -0.783173   -2.754695
  H      0.533563    0.606363   -2.693640
  H      0.406544   -2.335904    1.068766
  H     -1.082664   -2.422222    0.154769
  H     -0.243966   -4.677809    1.981208
  H     -1.581711   -4.929355    0.863678
  H     -0.197685   -6.053220    0.837231

 Total Charge           Charge          ....    0
 Multiplicity           Mult            ....    1
 Number of Electrons    NEL             ....   70
 Basis Dimension        Dim             ....  345

ORBITAL ENERGIES
----------------

  NO   OCC          E(Eh)            E(eV)
   0   2.0000     -20.591418      -560.3210
   1   2.0000     -20.545328      -559.0668
   2   2.0000     -15.536099      -422.7587
   3   2.0000     -11.337140      -308.4993
   4   2.0000     -11.332241      -308.3659
   5   2.0000     -11.293611      -307.3148
   6   2.0000     -11.247879      -306.0703
   7   2.0000     -11.238197      -305.8069
   8   2.0000     -11.237544      -305.7891
   9   2.0000      -1.433174       -38.9986
  10   2.0000      -1.386900       -37.7395
  11   2.0000      -1.215064       -33.0636
  12   2.0000      -1.048784       -28.5389
  13   2.0000      -1.010118       -27.4867
  14   2.0000      -0.951232       -25.8843
  15   2.0000      -0.933021       -25.3888
  16   2.0000      -0.772996       -21.0343
  17   2.0000      -0.746252       -20.3065
  18   2.0000      -0.679900       -18.5010
  19   2.0000      -0.677425       -18.4337
  20   2.0000      -0.674174       -18.3452
  21   2.0000      -0.621567       -16.9137
  22   2.0000      -0.616360       -16.7720
  23   2.0000      -0.612433       -16.6652
  24   2.0000      -0.587573       -15.9887
  25   2.0000      -0.568178       -15.4609
  26   2.0000      -0.562613       -15.3095
  27   2.0000      -0.558130       -15.1875
  28   2.0000      -0.548258       -14.9189
  29   2.0000      -0.523694       -14.2504
  30   2.0000      -0.511409       -13.9161
  31   2.0000      -0.484671       -13.1886
  32   2.0000      -0.417860       -11.3705
  33   2.0000      -0.405262       -11.0277
  34   2.0000      -0.383321       -10.4307
  35   0.0000       0.127169         3.4604
  36   0.0000       0.136058         3.7023
  37   0.0000       0.146322         3.9816
  38   0.0000       0.174456         4.7472
  39   0.0000       0.179762         4.8916

MULLIKEN ATOMIC CHARGES
-----------------------
   0 C :   -0.318726
   1 N :   -0.280788
   2 C :    0.205075
   3 C :   -0.408802
   4 O :   -0.225648
   5 C :   -0.063289
   6 C :    0.219671
   7 C :   -0.420752
   8 O :   -0.267252
   9 H :    0.126442
  10 H :    0.125551
  11 H :    0.145384
  12 H :    0.145578
  13 H :    0.169082
  14 H :    0.145549
  15 H :    0.130469
  16 H :    0.127104
  17 H :    0.142050
  18 H :    0.146623
  19 H :    0.156680
Sum of atomic charges:    0.0000000

LOEWDIN ATOMIC CHARGES
----------------------
   0 C :   -0.337269
   1 N :    0.054096
   2 C :   -0.402861
   3 C :   -0.272578
   4 O :    0.269029
   5 C :   -0.280352
   6 C :   -0.356128
   7 C :   -0.280466
   8 O :    0.161456
   9 H :    0.112312
  10 H :    0.112100
  11 H :    0.115414
  12 H :    0.137269
  13 H :    0.138790
  14 H :    0.137087
  15 H :    0.142422
  16 H :    0.141386
  17 H :    0.135206
  18 H :    0.138184
  19 H :    0.134903

  Mayer bond orders larger than 0.1
B(  0-C ,  1-N ) :   0.8959 B(  0-C ,  9-H ) :   0.9317 B(  0-C , 10-H ) :   0.9316
B(  0-C , 11-H ) :   0.9472 B(  1-N ,  2-C ) :   1.7960 B(  2-C ,  3-C ) :   0.9187
B(  2-C ,  4-O ) :   1.0909 B(  3-C , 12-H ) :   0.9245 B(  3-C , 13-H ) :   0.9311
B(  3-C , 14-H ) :   0.9247 B(  4-O ,  5-C ) :   0.8835 B(  5-C ,  6-C ) :   0.8810
B(  5-C , 15-H ) :   0.9070 B(  5-C , 16-H ) :   0.9098 B(  6-C ,  7-C ) :   0.9156
B(  6-C ,  8-O ) :   2.0438 B(  7-C , 17-H ) :   0.9155 B(  7-C , 18-H ) :   0.9112
B(  7-C , 19-H ) :   0.9336

MP2 TOTAL ENERGY:     -439.573843015 Eh
FINAL SINGLE POINT ENERGY      -439.573843015185

DIPOLE MOMENT
-------------
                                X             Y             Z
Electronic contribution:      1.70098      -5.89420      -1.99088
Nuclear contribution   :     -2.09463       6.58105       2.46161
                        -----------------------------------------
Total Dipole Moment    :     -0.39364       0.68685       0.47073
                        -----------------------------------------
Magnitude (a.u.)       :      0.92103
Magnitude (Debye)      :      2.34108

                             ****ORCA TERMINATED NORMALLY****
TOTAL RUN TIME: 0 days 0 hours 14 minutes 33 seconds 325 msec
