                         Program Version 3.0.3 - RELEASE   -
|  1> ! RI-MP2 RIJK def2-TZVP def2-TZVP/C def2-TZVP/JK TIGHTSCF
|  2> % maxcore 2000
|  3> % mp2 density relaxed end
|  4> *xyz 0 1
|  5>  O       -0.0312853082     1.4473166747     0.0495958000
|  6>  C        0.0132028259     0.0291411084     0.0052164034
|  7>  C       -1.3866832734    -0.4840156213     0.0018789234
|  8>  C       -2.5289259316     0.2376939723    -0.0145775340
|  9>  N       -3.6702194786    -0.5573120685    -0.0640450070
| 10>  C       -3.3113182990    -1.9041529502     0.0060922730
| 11>  N       -4.0279212076    -2.9472423221     0.0647132434
| 12>  C       -1.7623976752    -1.8988038548     0.0043825971
| 13>  O       -1.0567876409    -2.8817635986     0.0030446978
| 14>  H        0.8718258985     1.7756084689     0.0328656869
| 15>  H        0.5420078182    -0.3311779920    -0.8923899204
| 16>  H        0.5543765985    -0.3877566483     0.8700165438
| 17>  H       -2.6234545722     1.3141299333    -0.0134183053
| 18>  H       -4.5964984220    -0.2135360149     0.1239226007
| 19>  H       -5.0273696024    -2.7261462469     0.0556168073
| 20> *
| 21>
| 22>                          ****END OF INPUT****

CARTESIAN COORDINATES (ANGSTROEM)
---------------------------------
  O     -0.031285    1.447317    0.049596
  C      0.013203    0.029141    0.005216
  C     -1.386683   -0.484016    0.001879
  C     -2.528926    0.237694   -0.014578
  N     -3.670219   -0.557312   -0.064045
  C     -3.311318   -1.904153    0.006092
  N     -4.027921   -2.947242    0.064713
  C     -1.762398   -1.898804    0.004383
  O     -1.056788   -2.881764    0.003045
  H      0.871826    1.775608    0.032866
  H      0.542008   -0.331178   -0.892390
  H      0.554377   -0.387757    0.870017
  H     -2.623455    1.314130   -0.013418
  H     -4.596498   -0.213536    0.123923
  H     -5.027370   -2.726146    0.055617

 Total Charge           Charge          ....    0
 Multiplicity           Mult            ....    1
 Number of Electrons    NEL             ....   66
 Basis Dimension        Dim             ....  315

ORBITAL ENERGIES
----------------

  NO   OCC          E(Eh)            E(eV)
   0   2.0000     -20.573247      -559.8265
   1   2.0000     -20.548238      -559.1460
   2   2.0000     -15.614479      -424.8916
   3   2.0000     -15.562907      -423.4882
   4   2.0000     -11.338056      -308.5242
   5   2.0000     -11.333271      -308.3940
   6   2.0000     -11.316646      -307.9416
   7   2.0000     -11.296399      -307.3907
   8   2.0000     -11.237195      -305.7796
   9   2.0000      -1.390275       -37.8313
  10   2.0000      -1.377691       -37.4889
  11   2.0000      -1.318498       -35.8782
  12   2.0000      -1.200405       -32.6647
  13   2.0000      -1.080710       -29.4076
  14   2.0000      -0.949994       -25.8507
  15   2.0000      -0.934521       -25.4296
  16   2.0000      -0.798115       -21.7178
  17   2.0000      -0.761345       -20.7172
  18   2.0000      -0.746003       -20.2998
  19   2.0000      -0.698481       -19.0066
  20   2.0000      -0.660318       -17.9682
  21   2.0000      -0.651154       -17.7188
  22   2.0000      -0.638165       -17.3654
  23   2.0000      -0.611471       -16.6390
  24   2.0000      -0.605838       -16.4857
  25   2.0000      -0.597795       -16.2668
  26   2.0000      -0.528285       -14.3754
  27   2.0000      -0.521049       -14.1785
  28   2.0000      -0.472170       -12.8484
  29   2.0000      -0.470225       -12.7955
  30   2.0000      -0.434626       -11.8268
  31   2.0000      -0.411383       -11.1943
  32   2.0000      -0.333939        -9.0869
  33   0.0000       0.057779         1.5722
  34   0.0000       0.115267         3.1366
  35   0.0000       0.128053         3.4845
  36   0.0000       0.158865         4.3229
  37   0.0000       0.175688         4.7807

MULLIKEN ATOMIC CHARGES
-----------------------
   0 O :   -0.475994
   1 C :   -0.051932
   2 C :   -0.022542
   3 C :   -0.015303
   4 N :   -0.307569
   5 C :    0.044905
   6 N :   -0.278764
   7 C :    0.184647
   8 O :   -0.272373
   9 H :    0.321685
  10 H :    0.119397
  11 H :    0.120448
  12 H :    0.175847
  13 H :    0.246860
  14 H :    0.210687
Sum of atomic charges:    0.0000000

LOEWDIN ATOMIC CHARGES
----------------------
   0 O :   -0.041885
   1 C :   -0.300501
   2 C :   -0.175844
   3 C :   -0.124984
   4 N :    0.125216
   5 C :   -0.308074
   6 N :   -0.008226
   7 C :   -0.270599
   8 O :    0.168127
   9 H :    0.176193
  10 H :    0.130356
  11 H :    0.131011
  12 H :    0.148872
  13 H :    0.185575
  14 H :    0.164763

  Mayer bond orders larger than 0.1
B(  0-O ,  1-C ) :   1.0294 B(  0-O ,  2-C ) :  -0.1147 B(  0-O ,  9-H ) :   0.8464
B(  1-C ,  2-C ) :   0.9089 B(  1-C , 10-H ) :   0.9306 B(  1-C , 11-H ) :   0.9286
B(  2-C ,  3-C ) :   1.6109 B(  2-C ,  5-C ) :  -0.1059 B(  2-C ,  7-C ) :   0.9934
B(  3-C ,  4-N ) :   1.0587 B(  3-C , 12-H ) :   0.8832 B(  4-N ,  5-C ) :   1.0255
B(  4-N , 13-H ) :   0.8673 B(  5-C ,  6-N ) :   2.1044 B(  5-C ,  7-C ) :   0.8756
B(  6-N , 14-H ) :   0.8535 B(  7-C ,  8-O ) :   1.9937

MP2 TOTAL ENERGY:     -453.222100724 Eh
FINAL SINGLE POINT ENERGY      -453.222100724206

DIPOLE MOMENT
-------------
                                X             Y             Z
Electronic contribution:     -1.77149      -2.98415      -0.06467
Nuclear contribution   :      1.24066       4.86086       0.11857
                        -----------------------------------------
Total Dipole Moment    :     -0.53083       1.87672       0.05390
                        -----------------------------------------
Magnitude (a.u.)       :      1.95109
Magnitude (Debye)      :      4.95928

                             ****ORCA TERMINATED NORMALLY****
TOTAL RUN TIME: 0 days 0 hours 13 minutes 56 seconds 772 msec
