                         Program Version 3.0.3 - RELEASE   -
|  1> ! RI-MP2 RIJK def2-TZVP def2-TZVP/C def2-TZVP/JK TIGHTSCF
|  2> % maxcore 2000
|  3> % mp2 density relaxed end
|  4> *xyz 0 1
|  5>  C        0.0432800612     1.6018122908     0.0581765054
|  6>  C        0.0000666320     0.0943421473    -0.1147097482
|  7>  C        0.8807590312    -0.5259724461    -1.2280474014
|  8>  C        1.3468699261    -1.4836454283    -0.1072690683
|  9>  O        0.8140624416    -0.5738596406     0.8970807644
| 10>  C        0.6483100304    -2.8171586185    -0.0732202079
| 11>  C       -0.6677144649    -2.9660228179    -0.2345954012
| 12>  C       -1.6748190645    -1.8859429808    -0.5610300220
| 13>  C       -1.4335309602    -0.4534487109    -0.0342122918
| 14>  H        1.0788254028     1.9465490760     0.1212087306
| 15>  H       -0.4437868153     2.1037204158    -0.7850154214
| 16>  H       -0.4729301962     1.9013730603     0.9767225037
| 17>  H        0.3902444530    -0.9624850047    -2.0988434158
| 18>  H        1.6713596722     0.1534026940    -1.5535366303
| 19>  H        2.4280335301    -1.6013602242     0.0114920978
| 20>  H        1.2611791855    -3.6941447240     0.1182359068
| 21>  H       -1.0803297429    -3.9717093149    -0.1805909845
| 22>  H       -1.7760688242    -1.8506751420    -1.6566395500
| 23>  H       -2.6601451799    -2.2095994903    -0.2059515572
| 24>  H       -1.7098731164    -0.4051343653     1.0254323826
| 25>  H       -2.1149316515     0.2200167742    -0.5687797810
| 26> *
| 27>
| 28>                          ****END OF INPUT****

CARTESIAN COORDINATES (ANGSTROEM)
---------------------------------
  C      0.043280    1.601812    0.058177
  C      0.000067    0.094342   -0.114710
  C      0.880759   -0.525972   -1.228047
  C      1.346870   -1.483645   -0.107269
  O      0.814062   -0.573860    0.897081
  C      0.648310   -2.817159   -0.073220
  C     -0.667714   -2.966023   -0.234595
  C     -1.674819   -1.885943   -0.561030
  C     -1.433531   -0.453449   -0.034212
  H      1.078825    1.946549    0.121209
  H     -0.443787    2.103720   -0.785015
  H     -0.472930    1.901373    0.976723
  H      0.390244   -0.962485   -2.098843
  H      1.671360    0.153403   -1.553537
  H      2.428034   -1.601360    0.011492
  H      1.261179   -3.694145    0.118236
  H     -1.080330   -3.971709   -0.180591
  H     -1.776069   -1.850675   -1.656640
  H     -2.660145   -2.209599   -0.205952
  H     -1.709873   -0.405134    1.025432
  H     -2.114932    0.220017   -0.568780

 Total Charge           Charge          ....    0
 Multiplicity           Mult            ....    1
 Number of Electrons    NEL             ....   68
 Basis Dimension        Dim             ....  351

ORBITAL ENERGIES
----------------

  NO   OCC          E(Eh)            E(eV)
   0   2.0000     -20.534697      -558.7775
   1   2.0000     -11.284437      -307.0651
   2   2.0000     -11.280215      -306.9503
   3   2.0000     -11.231631      -305.6282
   4   2.0000     -11.230615      -305.6006
   5   2.0000     -11.223779      -305.4146
   6   2.0000     -11.222785      -305.3875
   7   2.0000     -11.219403      -305.2955
   8   2.0000     -11.213403      -305.1322
   9   2.0000      -1.369355       -37.2620
  10   2.0000      -1.090686       -29.6791
  11   2.0000      -1.052649       -28.6440
  12   2.0000      -1.006758       -27.3953
  13   2.0000      -0.957296       -26.0493
  14   2.0000      -0.886297       -24.1174
  15   2.0000      -0.857272       -23.3275
  16   2.0000      -0.723886       -19.6979
  17   2.0000      -0.705681       -19.2026
  18   2.0000      -0.683243       -18.5920
  19   2.0000      -0.646395       -17.5893
  20   2.0000      -0.635294       -17.2872
  21   2.0000      -0.604298       -16.4438
  22   2.0000      -0.592281       -16.1168
  23   2.0000      -0.564992       -15.3742
  24   2.0000      -0.551193       -14.9987
  25   2.0000      -0.529705       -14.4140
  26   2.0000      -0.528237       -14.3741
  27   2.0000      -0.504294       -13.7225
  28   2.0000      -0.501403       -13.6439
  29   2.0000      -0.462199       -12.5771
  30   2.0000      -0.454769       -12.3749
  31   2.0000      -0.434781       -11.8310
  32   2.0000      -0.402538       -10.9536
  33   2.0000      -0.349072        -9.4987
  34   0.0000       0.127210         3.4616
  35   0.0000       0.146337         3.9820
  36   0.0000       0.157451         4.2845
  37   0.0000       0.163609         4.4520
  38   0.0000       0.178011         4.8439

MULLIKEN ATOMIC CHARGES
-----------------------
   0 C :   -0.402297
   1 C :    0.233544
   2 C :   -0.287539
   3 C :    0.226511
   4 O :   -0.341882
   5 C :   -0.296012
   6 C :   -0.131369
   7 C :   -0.209883
   8 C :   -0.283291
   9 H :    0.133449
  10 H :    0.127399
  11 H :    0.135414
  12 H :    0.129978
  13 H :    0.121915
  14 H :    0.110027
  15 H :    0.116368
  16 H :    0.121216
  17 H :    0.124974
  18 H :    0.136965
  19 H :    0.116599
  20 H :    0.117913
Sum of atomic charges:    0.0000000

LOEWDIN ATOMIC CHARGES
----------------------
   0 C :   -0.273042
   1 C :   -0.340155
   2 C :   -0.173417
   3 C :   -0.262185
   4 O :    0.173339
   5 C :   -0.163362
   6 C :   -0.158524
   7 C :   -0.251216
   8 C :   -0.220474
   9 H :    0.128122
  10 H :    0.128359
  11 H :    0.130780
  12 H :    0.133576
  13 H :    0.137109
  14 H :    0.135357
  15 H :    0.143006
  16 H :    0.144544
  17 H :    0.148542
  18 H :    0.146143
  19 H :    0.149774
  20 H :    0.143725

  Mayer bond orders larger than 0.1
B(  0-C ,  1-C ) :   0.8851 B(  0-C ,  9-H ) :   0.9398 B(  0-C , 10-H ) :   0.9323
B(  0-C , 11-H ) :   0.9377 B(  1-C ,  2-C ) :   0.9232 B(  1-C ,  4-O ) :   0.9238
B(  1-C ,  8-C ) :   0.9304 B(  2-C ,  3-C ) :   0.9109 B(  2-C , 12-H ) :   0.9216
B(  2-C , 13-H ) :   0.9233 B(  3-C ,  4-O ) :   0.9297 B(  3-C ,  5-C ) :   0.9170
B(  3-C , 14-H ) :   0.9201 B(  5-C ,  6-C ) :   1.8171 B(  5-C , 15-H ) :   0.9287
B(  6-C ,  7-C ) :   0.9293 B(  6-C , 16-H ) :   0.9258 B(  7-C ,  8-C ) :   0.9426
B(  7-C , 17-H ) :   0.9135 B(  7-C , 18-H ) :   0.9320 B(  8-C , 19-H ) :   0.9173
B(  8-C , 20-H ) :   0.9234

MP2 TOTAL ENERGY:     -386.408435040 Eh
FINAL SINGLE POINT ENERGY      -386.408435040491

DIPOLE MOMENT
-------------
                                X             Y             Z
Electronic contribution:      2.85772      -2.92794       2.15024
Nuclear contribution   :     -3.13885       2.93621      -2.84829
                        -----------------------------------------
Total Dipole Moment    :     -0.28113       0.00827      -0.69804
                        -----------------------------------------
Magnitude (a.u.)       :      0.75257
Magnitude (Debye)      :      1.91289

                             ****ORCA TERMINATED NORMALLY****
TOTAL RUN TIME: 0 days 0 hours 19 minutes 49 seconds 560 msec
