                         Program Version 3.0.3 - RELEASE   -
|  1> ! RI-MP2 RIJK def2-TZVP def2-TZVP/C def2-TZVP/JK TIGHTSCF
|  2> % maxcore 2000
|  3> % mp2 density relaxed end
|  4> *xyz 0 1
|  5>  O        0.0705808656     1.3610532305     0.1686974809
|  6>  C        0.0568419840     0.0240987415     0.0200906058
|  7>  C        0.0821450085    -0.7893779032    -1.0917367609
|  8>  O        0.0793299602    -0.3040090657    -2.3738187199
|  9>  C        0.0294902297    -2.1137577160    -0.5740335230
| 10>  C        0.0169854817    -3.3555399254    -1.3547146363
| 11>  O       -0.0122912936    -4.4768858089    -0.9082377280
| 12>  N       -0.0111321155    -2.1042381473     0.7662690839
| 13>  N       -0.0041306046    -0.8021672794     1.0926980116
| 14>  H        0.1182069792     1.7491738716    -0.7141541793
| 15>  H        0.7358232844    -0.7725031038    -2.8994060727
| 16>  H        0.0316716097    -3.1789630108    -2.4562181208
| 17>  H       -0.0368045694    -0.5292191432     2.0618711287
| 18> *
| 19>
| 20>                          ****END OF INPUT****

CARTESIAN COORDINATES (ANGSTROEM)
---------------------------------
  O      0.070581    1.361053    0.168697
  C      0.056842    0.024099    0.020091
  C      0.082145   -0.789378   -1.091737
  O      0.079330   -0.304009   -2.373819
  C      0.029490   -2.113758   -0.574034
  C      0.016985   -3.355540   -1.354715
  O     -0.012291   -4.476886   -0.908238
  N     -0.011132   -2.104238    0.766269
  N     -0.004131   -0.802167    1.092698
  H      0.118207    1.749174   -0.714154
  H      0.735823   -0.772503   -2.899406
  H      0.031672   -3.178963   -2.456218
  H     -0.036805   -0.529219    2.061871

 Total Charge           Charge          ....    0
 Multiplicity           Mult            ....    1
 Number of Electrons    NEL             ....   66
 Basis Dimension        Dim             ....  303

ORBITAL ENERGIES
----------------

  NO   OCC          E(Eh)            E(eV)
   0   2.0000     -20.629920      -561.3687
   1   2.0000     -20.613550      -560.9232
   2   2.0000     -20.558512      -559.4255
   3   2.0000     -15.662304      -426.1930
   4   2.0000     -15.613070      -424.8532
   5   2.0000     -11.355646      -309.0028
   6   2.0000     -11.340919      -308.6021
   7   2.0000     -11.302342      -307.5524
   8   2.0000     -11.279157      -306.9215
   9   2.0000      -1.462062       -39.7847
  10   2.0000      -1.420582       -38.6560
  11   2.0000      -1.398075       -38.0436
  12   2.0000      -1.384343       -37.6699
  13   2.0000      -1.124102       -30.5884
  14   2.0000      -1.064791       -28.9744
  15   2.0000      -0.934762       -25.4362
  16   2.0000      -0.857366       -23.3301
  17   2.0000      -0.800598       -21.7854
  18   2.0000      -0.774992       -21.0886
  19   2.0000      -0.732087       -19.9211
  20   2.0000      -0.716830       -19.5059
  21   2.0000      -0.674322       -18.3492
  22   2.0000      -0.651783       -17.7359
  23   2.0000      -0.643833       -17.5196
  24   2.0000      -0.622356       -16.9352
  25   2.0000      -0.610098       -16.6016
  26   2.0000      -0.584611       -15.9081
  27   2.0000      -0.558120       -15.1872
  28   2.0000      -0.535130       -14.5616
  29   2.0000      -0.477256       -12.9868
  30   2.0000      -0.434889       -11.8339
  31   2.0000      -0.381013       -10.3679
  32   2.0000      -0.336668        -9.1612
  33   0.0000       0.076158         2.0724
  34   0.0000       0.109534         2.9806
  35   0.0000       0.132191         3.5971
  36   0.0000       0.149091         4.0570
  37   0.0000       0.196253         5.3403

MULLIKEN ATOMIC CHARGES
-----------------------
   0 O :   -0.424832
   1 C :    0.185208
   2 C :    0.094837
   3 O :   -0.471029
   4 C :    0.087910
   5 C :    0.020705
   6 O :   -0.254318
   7 N :   -0.198817
   8 N :   -0.086153
   9 H :    0.358863
  10 H :    0.353686
  11 H :    0.063378
  12 H :    0.270563
Sum of atomic charges:    0.0000000

LOEWDIN ATOMIC CHARGES
----------------------
   0 O :    0.083499
   1 C :   -0.357879
   2 C :   -0.291600
   3 O :    0.043912
   4 C :   -0.286254
   5 C :   -0.283523
   6 O :    0.141001
   7 N :    0.071434
   8 N :    0.163036
   9 H :    0.211950
  10 H :    0.196068
  11 H :    0.110605
  12 H :    0.197751

  Mayer bond orders larger than 0.1
B(  0-O ,  1-C ) :   1.1319 B(  0-O ,  9-H ) :   0.8123 B(  1-C ,  2-C ) :   1.3792
B(  1-C ,  7-N ) :   0.1228 B(  1-C ,  8-N ) :   1.1865 B(  2-C ,  3-O ) :   1.0575
B(  2-C ,  4-C ) :   1.1393 B(  3-O , 10-H ) :   0.8230 B(  4-C ,  5-C ) :   0.8048
B(  4-C ,  7-N ) :   1.4759 B(  4-C , 11-H ) :  -0.1413 B(  5-C ,  6-O ) :   2.0361
B(  5-C , 11-H ) :   1.0089 B(  7-N ,  8-N ) :   1.0446 B(  8-N , 12-H ) :   0.8622

MP2 TOTAL ENERGY:     -489.128859776 Eh
FINAL SINGLE POINT ENERGY      -489.128859775716

DIPOLE MOMENT
-------------
                                X             Y             Z
Electronic contribution:     -0.18611      -0.67712       1.39370
Nuclear contribution   :      0.64760       2.51596      -1.89765
                        -----------------------------------------
Total Dipole Moment    :      0.46148       1.83885      -0.50394
                        -----------------------------------------
Magnitude (a.u.)       :      1.96170
Magnitude (Debye)      :      4.98625

                             ****ORCA TERMINATED NORMALLY****
TOTAL RUN TIME: 0 days 0 hours 13 minutes 4 seconds 990 msec
