                         Program Version 3.0.3 - RELEASE   -
|  1> ! RI-MP2 RIJK def2-TZVP def2-TZVP/C def2-TZVP/JK TIGHTSCF
|  2> % maxcore 2000
|  3> % mp2 density relaxed end
|  4> *xyz 0 1
|  5>  C        0.7528399356     1.2814086375     0.0097357430
|  6>  O        0.8825381748    -0.0990933667    -0.2299255821
|  7>  C       -0.0692004236    -0.5898600404    -1.1550509248
|  8>  C        0.1437816692    -2.0893889675    -1.2370214716
|  9>  N       -0.7095420881    -2.9006645846    -2.2337207444
| 10>  C        0.2963064605    -2.4341368522    -3.3038946579
| 11>  C        1.2360974753    -2.7612245427    -2.1163941543
| 12>  C        2.7357025028    -2.6452633828    -2.0138431673
| 13>  C        0.3277200184    -4.0090947243    -1.9730628621
| 14>  H        0.8980161448     1.8729001615    -0.9085125804
| 15>  H       -0.2364410727     1.5326356152     0.4241077359
| 16>  H        1.5211530873     1.5617593509     0.7345392336
| 17>  H       -1.0961042744    -0.3909453869    -0.8033315014
| 18>  H        0.0445732545    -0.0774628461    -2.1216851141
| 19>  H        0.0616454069    -2.4904300980    -0.2202242699
| 20>  H        0.3328457072    -3.0963906167    -4.1740072062
| 21>  H        0.1714322841    -1.3981397182    -3.6221748751
| 22>  H        3.0533699597    -1.6024853374    -2.1141506760
| 23>  H        3.0882684325    -3.0065229384    -1.0419014452
| 24>  H        3.2332231036    -3.2314942612    -2.7942482582
| 25>  H        0.2351961989    -4.4704217175    -0.9852038827
| 26>  H        0.3597541929    -4.7630043435    -2.7648158287
| 27> *
| 28>
| 29>                          ****END OF INPUT****

CARTESIAN COORDINATES (ANGSTROEM)
---------------------------------
  C      0.752840    1.281409    0.009736
  O      0.882538   -0.099093   -0.229926
  C     -0.069200   -0.589860   -1.155051
  C      0.143782   -2.089389   -1.237021
  N     -0.709542   -2.900665   -2.233721
  C      0.296306   -2.434137   -3.303895
  C      1.236097   -2.761225   -2.116394
  C      2.735703   -2.645263   -2.013843
  C      0.327720   -4.009095   -1.973063
  H      0.898016    1.872900   -0.908513
  H     -0.236441    1.532636    0.424108
  H      1.521153    1.561759    0.734539
  H     -1.096104   -0.390945   -0.803332
  H      0.044573   -0.077463   -2.121685
  H      0.061645   -2.490430   -0.220224
  H      0.332846   -3.096391   -4.174007
  H      0.171432   -1.398140   -3.622175
  H      3.053370   -1.602485   -2.114151
  H      3.088268   -3.006523   -1.041901
  H      3.233223   -3.231494   -2.794248
  H      0.235196   -4.470422   -0.985204
  H      0.359754   -4.763004   -2.764816

 Total Charge           Charge          ....    0
 Multiplicity           Mult            ....    1
 Number of Electrons    NEL             ....   70
 Basis Dimension        Dim             ....  357

ORBITAL ENERGIES
----------------

  NO   OCC          E(Eh)            E(eV)
   0   2.0000     -20.558325      -559.4205
   1   2.0000     -15.563808      -423.5127
   2   2.0000     -11.274736      -306.8012
   3   2.0000     -11.272947      -306.7525
   4   2.0000     -11.257009      -306.3188
   5   2.0000     -11.253803      -306.2315
   6   2.0000     -11.252933      -306.2079
   7   2.0000     -11.249530      -306.1153
   8   2.0000     -11.216256      -305.2098
   9   2.0000      -1.378893       -37.5216
  10   2.0000      -1.288756       -35.0688
  11   2.0000      -1.009546       -27.4712
  12   2.0000      -1.004665       -27.3383
  13   2.0000      -0.919066       -25.0091
  14   2.0000      -0.909316       -24.7437
  15   2.0000      -0.864767       -23.5315
  16   2.0000      -0.840665       -22.8757
  17   2.0000      -0.735773       -20.0214
  18   2.0000      -0.676272       -18.4023
  19   2.0000      -0.656519       -17.8648
  20   2.0000      -0.645861       -17.5748
  21   2.0000      -0.618435       -16.8285
  22   2.0000      -0.595824       -16.2132
  23   2.0000      -0.583103       -15.8670
  24   2.0000      -0.570987       -15.5374
  25   2.0000      -0.566644       -15.4192
  26   2.0000      -0.546179       -14.8623
  27   2.0000      -0.501997       -13.6600
  28   2.0000      -0.491060       -13.3624
  29   2.0000      -0.476063       -12.9543
  30   2.0000      -0.468670       -12.7532
  31   2.0000      -0.442833       -12.0501
  32   2.0000      -0.434292       -11.8177
  33   2.0000      -0.423115       -11.5135
  34   2.0000      -0.368185       -10.0188
  35   0.0000       0.134290         3.6542
  36   0.0000       0.150511         4.0956
  37   0.0000       0.169814         4.6209
  38   0.0000       0.176562         4.8045
  39   0.0000       0.184363         5.0168

MULLIKEN ATOMIC CHARGES
-----------------------
   0 C :   -0.221849
   1 O :   -0.303660
   2 C :   -0.103291
   3 C :    0.028704
   4 N :   -0.210390
   5 C :   -0.185362
   6 C :   -0.001904
   7 C :   -0.367229
   8 C :   -0.137870
   9 H :    0.110515
  10 H :    0.114123
  11 H :    0.139335
  12 H :    0.110923
  13 H :    0.088270
  14 H :    0.095069
  15 H :    0.110229
  16 H :    0.113563
  17 H :    0.136265
  18 H :    0.132567
  19 H :    0.128425
  20 H :    0.110112
  21 H :    0.113456
Sum of atomic charges:   -0.0000000

LOEWDIN ATOMIC CHARGES
----------------------
   0 C :   -0.362356
   1 O :    0.135987
   2 C :   -0.305031
   3 C :   -0.212025
   4 N :    0.101184
   5 C :   -0.207636
   6 C :   -0.248183
   7 C :   -0.283388
   8 C :   -0.207817
   9 H :    0.100891
  10 H :    0.102185
  11 H :    0.113551
  12 H :    0.127005
  13 H :    0.119816
  14 H :    0.147693
  15 H :    0.123776
  16 H :    0.118707
  17 H :    0.130554
  18 H :    0.130729
  19 H :    0.126785
  20 H :    0.124076
  21 H :    0.123496

  Mayer bond orders larger than 0.1
B(  0-C ,  1-O ) :   0.9215 B(  0-C ,  9-H ) :   0.9368 B(  0-C , 10-H ) :   0.9376
B(  0-C , 11-H ) :   0.9392 B(  1-O ,  2-C ) :   0.9481 B(  2-C ,  3-C ) :   0.9552
B(  2-C , 12-H ) :   0.9240 B(  2-C , 13-H ) :   0.9122 B(  3-C ,  4-N ) :   0.9235
B(  3-C ,  6-C ) :   0.9137 B(  3-C , 14-H ) :   0.9176 B(  4-N ,  5-C ) :   0.9278
B(  4-N ,  8-C ) :   0.9267 B(  5-C ,  6-C ) :   0.9334 B(  5-C , 15-H ) :   0.9264
B(  5-C , 16-H ) :   0.9255 B(  6-C ,  7-C ) :   0.8443 B(  6-C ,  8-C ) :   0.9319
B(  7-C , 17-H ) :   0.9342 B(  7-C , 18-H ) :   0.9357 B(  7-C , 19-H ) :   0.9325
B(  8-C , 20-H ) :   0.9193 B(  8-C , 21-H ) :   0.9254

MP2 TOTAL ENERGY:     -403.569126717 Eh
FINAL SINGLE POINT ENERGY      -403.569126716842

DIPOLE MOMENT
-------------
                                X             Y             Z
Electronic contribution:     -2.64839      -2.46978       0.11081
Nuclear contribution   :      3.16687       2.86397      -0.21233
                        -----------------------------------------
Total Dipole Moment    :      0.51848       0.39419      -0.10152
                        -----------------------------------------
Magnitude (a.u.)       :      0.65917
Magnitude (Debye)      :      1.67548

                             ****ORCA TERMINATED NORMALLY****
TOTAL RUN TIME: 0 days 0 hours 17 minutes 45 seconds 772 msec
