                         Program Version 3.0.3 - RELEASE   -
|  1> ! RI-MP2 RIJK def2-TZVP def2-TZVP/C def2-TZVP/JK TIGHTSCF
|  2> % maxcore 2000
|  3> % mp2 density relaxed end
|  4> *xyz 0 1
|  5>  O        0.0878379982     1.4951309192     0.4509742059
|  6>  C        0.0670804530     0.1262420618     0.1046493214
|  7>  C       -1.3578215056    -0.4511335739    -0.0198910423
|  8>  C       -1.4459992603    -2.0002753448    -0.0446087152
|  9>  N       -2.1008234679    -1.9263940546     1.2661997624
| 10>  C       -2.1144943122    -0.5627192763     1.3657521398
| 11>  O       -2.5374769605     0.2080550836     2.1784935080
| 12>  C       -2.1925513784     0.2580851389    -1.0552455991
| 13>  O       -2.8425245062    -0.2888466740    -1.9115604260
| 14>  H        0.0110201103     2.0235179611    -0.3481843613
| 15>  H        0.6205404571    -0.0698717569    -0.8257342039
| 16>  H        0.5853326554    -0.4082373422     0.9081611620
| 17>  H       -2.0780332075    -2.3864403139    -0.8467712756
| 18>  H       -0.4819581403    -2.5189322552    -0.0318350398
| 19>  H       -2.5168768624    -2.6333136352     1.8540271896
| 20>  H       -2.1870043826     1.3643640622    -0.9591409459
| 21> *
| 22>
| 23>                          ****END OF INPUT****

CARTESIAN COORDINATES (ANGSTROEM)
---------------------------------
  O      0.087838    1.495131    0.450974
  C      0.067080    0.126242    0.104649
  C     -1.357822   -0.451134   -0.019891
  C     -1.445999   -2.000275   -0.044609
  N     -2.100823   -1.926394    1.266200
  C     -2.114494   -0.562719    1.365752
  O     -2.537477    0.208055    2.178494
  C     -2.192551    0.258085   -1.055246
  O     -2.842525   -0.288847   -1.911560
  H      0.011020    2.023518   -0.348184
  H      0.620540   -0.069872   -0.825734
  H      0.585333   -0.408237    0.908161
  H     -2.078033   -2.386440   -0.846771
  H     -0.481958   -2.518932   -0.031835
  H     -2.516877   -2.633314    1.854027
  H     -2.187004    1.364364   -0.959141

 Total Charge           Charge          ....    0
 Multiplicity           Mult            ....    1
 Number of Electrons    NEL             ....   68
 Basis Dimension        Dim             ....  321

ORBITAL ENERGIES
----------------

  NO   OCC          E(Eh)            E(eV)
   0   2.0000     -20.581621      -560.0544
   1   2.0000     -20.576985      -559.9282
   2   2.0000     -20.539959      -558.9207
   3   2.0000     -15.599230      -424.4766
   4   2.0000     -11.368396      -309.3498
   5   2.0000     -11.351278      -308.8840
   6   2.0000     -11.314118      -307.8728
   7   2.0000     -11.292678      -307.2894
   8   2.0000     -11.277813      -306.8849
   9   2.0000      -1.416377       -38.5416
  10   2.0000      -1.403095       -38.1801
  11   2.0000      -1.388104       -37.7722
  12   2.0000      -1.284185       -34.9445
  13   2.0000      -1.076791       -29.3010
  14   2.0000      -0.938328       -25.5332
  15   2.0000      -0.921154       -25.0659
  16   2.0000      -0.867284       -23.6000
  17   2.0000      -0.752668       -20.4811
  18   2.0000      -0.728092       -19.8124
  19   2.0000      -0.711895       -19.3716
  20   2.0000      -0.688936       -18.7469
  21   2.0000      -0.671081       -18.2611
  22   2.0000      -0.656100       -17.8534
  23   2.0000      -0.627879       -17.0855
  24   2.0000      -0.602904       -16.4059
  25   2.0000      -0.579360       -15.7652
  26   2.0000      -0.563342       -15.3293
  27   2.0000      -0.556748       -15.1499
  28   2.0000      -0.536571       -14.6008
  29   2.0000      -0.526179       -14.3180
  30   2.0000      -0.478630       -13.0242
  31   2.0000      -0.440632       -11.9902
  32   2.0000      -0.415526       -11.3070
  33   2.0000      -0.411906       -11.2085
  34   0.0000       0.095724         2.6048
  35   0.0000       0.130957         3.5635
  36   0.0000       0.137934         3.7534
  37   0.0000       0.147137         4.0038
  38   0.0000       0.174072         4.7367

MULLIKEN ATOMIC CHARGES
-----------------------
   0 O :   -0.457278
   1 C :   -0.122908
   2 C :    0.211687
   3 C :   -0.172358
   4 N :   -0.323966
   5 C :    0.172126
   6 O :   -0.286385
   7 C :    0.028458
   8 O :   -0.269153
   9 H :    0.323171
  10 H :    0.133839
  11 H :    0.132568
  12 H :    0.155888
  13 H :    0.129741
  14 H :    0.242379
  15 H :    0.102190
Sum of atomic charges:    0.0000000

LOEWDIN ATOMIC CHARGES
----------------------
   0 O :   -0.019942
   1 C :   -0.301185
   2 C :   -0.228380
   3 C :   -0.195728
   4 N :    0.132572
   5 C :   -0.405985
   6 O :    0.127535
   7 C :   -0.250388
   8 O :    0.142193
   9 H :    0.174312
  10 H :    0.126294
  11 H :    0.141292
  12 H :    0.134593
  13 H :    0.127468
  14 H :    0.173180
  15 H :    0.122169

  Mayer bond orders larger than 0.1
B(  0-O ,  1-C ) :   1.0007 B(  0-O ,  9-H ) :   0.8430 B(  1-C ,  2-C ) :   0.8480
B(  1-C , 10-H ) :   0.9408 B(  1-C , 11-H ) :   0.9241 B(  2-C ,  3-C ) :   0.8533
B(  2-C ,  5-C ) :   0.7613 B(  2-C ,  7-C ) :   0.8107 B(  3-C ,  4-N ) :   0.9043
B(  3-C , 12-H ) :   0.9104 B(  3-C , 13-H ) :   0.9304 B(  4-N ,  5-C ) :   1.1949
B(  4-N , 14-H ) :   0.8576 B(  5-C ,  6-O ) :   2.0384 B(  7-C ,  8-O ) :   1.9716
B(  7-C , 15-H ) :   0.9488

MP2 TOTAL ENERGY:     -474.285437344 Eh
FINAL SINGLE POINT ENERGY      -474.285437344116

DIPOLE MOMENT
-------------
                                X             Y             Z
Electronic contribution:     -3.82328       1.28612       1.28407
Nuclear contribution   :      4.73266      -2.25131      -1.91702
                        -----------------------------------------
Total Dipole Moment    :      0.90938      -0.96518      -0.63295
                        -----------------------------------------
Magnitude (a.u.)       :      1.46942
Magnitude (Debye)      :      3.73496

                             ****ORCA TERMINATED NORMALLY****
TOTAL RUN TIME: 0 days 0 hours 15 minutes 26 seconds 954 msec
