                         Program Version 3.0.3 - RELEASE   -
|  1> ! RI-MP2 RIJK def2-TZVP def2-TZVP/C def2-TZVP/JK TIGHTSCF
|  2> % maxcore 2000
|  3> % mp2 density relaxed end
|  4> *xyz 0 1
|  5>  C        0.0708081943     1.4140028823     0.0439007828
|  6>  N        0.0074099225    -0.0322634160     0.0280863642
|  7>  C       -0.1429735579    -0.8245819102    -1.0741830746
|  8>  N       -0.1498512406    -2.1000537379    -0.7707144544
|  9>  C       -0.0044239828    -2.1491091815     0.5994856466
| 10>  C        0.0222094675    -3.4594373458     1.3294965998
| 11>  O        1.0624822833    -3.5475428536     2.3044760132
| 12>  C        0.0994741151    -0.8766913307     1.1209227887
| 13>  C        0.2638892727    -0.3855964119     2.5200996705
| 14>  H        1.0320142750     1.7644385013     0.4336851316
| 15>  H       -0.0447468568     1.7833652341    -0.9767015263
| 16>  H       -0.7288109982     1.8372351278     0.6599195489
| 17>  H       -0.2340778599    -0.4037289103    -2.0654002567
| 18>  H       -0.9025297812    -3.6224328629     1.8952654835
| 19>  H        0.0929522606    -4.2615029174     0.5820760842
| 20>  H        1.8879199239    -3.3488379412     1.8495858188
| 21>  H        1.1025826723     0.3151702611     2.6166492914
| 22>  H       -0.6316194940     0.1299450309     2.8907670346
| 23>  H        0.4657479840    -1.2376794579     3.1710969934
| 24> *
| 25>
| 26>                          ****END OF INPUT****

CARTESIAN COORDINATES (ANGSTROEM)
---------------------------------
  C      0.070808    1.414003    0.043901
  N      0.007410   -0.032263    0.028086
  C     -0.142974   -0.824582   -1.074183
  N     -0.149851   -2.100054   -0.770714
  C     -0.004424   -2.149109    0.599486
  C      0.022209   -3.459437    1.329497
  O      1.062482   -3.547543    2.304476
  C      0.099474   -0.876691    1.120923
  C      0.263889   -0.385596    2.520100
  H      1.032014    1.764439    0.433685
  H     -0.044747    1.783365   -0.976702
  H     -0.728811    1.837235    0.659920
  H     -0.234078   -0.403729   -2.065400
  H     -0.902530   -3.622433    1.895265
  H      0.092952   -4.261503    0.582076
  H      1.887920   -3.348838    1.849586
  H      1.102583    0.315170    2.616649
  H     -0.631619    0.129945    2.890767
  H      0.465748   -1.237679    3.171097

 Total Charge           Charge          ....    0
 Multiplicity           Mult            ....    1
 Number of Electrons    NEL             ....   68
 Basis Dimension        Dim             ....  339

ORBITAL ENERGIES
----------------

  NO   OCC          E(Eh)            E(eV)
   0   2.0000     -20.549061      -559.1684
   1   2.0000     -15.616809      -424.9550
   2   2.0000     -15.538422      -422.8219
   3   2.0000     -11.286886      -307.1318
   4   2.0000     -11.285137      -307.0842
   5   2.0000     -11.269839      -306.6679
   6   2.0000     -11.258254      -306.3527
   7   2.0000     -11.235271      -305.7273
   8   2.0000     -11.231729      -305.6309
   9   2.0000      -1.352950       -36.8156
  10   2.0000      -1.339193       -36.4413
  11   2.0000      -1.183495       -32.2045
  12   2.0000      -1.052648       -28.6440
  13   2.0000      -0.981413       -26.7056
  14   2.0000      -0.956512       -26.0280
  15   2.0000      -0.894532       -24.3414
  16   2.0000      -0.790799       -21.5187
  17   2.0000      -0.756880       -20.5958
  18   2.0000      -0.702607       -19.1189
  19   2.0000      -0.667514       -18.1640
  20   2.0000      -0.655717       -17.8430
  21   2.0000      -0.609400       -16.5826
  22   2.0000      -0.606345       -16.4995
  23   2.0000      -0.596872       -16.2417
  24   2.0000      -0.573678       -15.6106
  25   2.0000      -0.571284       -15.5454
  26   2.0000      -0.555352       -15.1119
  27   2.0000      -0.543287       -14.7836
  28   2.0000      -0.537073       -14.6145
  29   2.0000      -0.494025       -13.4431
  30   2.0000      -0.449508       -12.2317
  31   2.0000      -0.427655       -11.6371
  32   2.0000      -0.379907       -10.3378
  33   2.0000      -0.302280        -8.2254
  34   0.0000       0.120591         3.2815
  35   0.0000       0.148589         4.0433
  36   0.0000       0.158390         4.3100
  37   0.0000       0.165704         4.5090
  38   0.0000       0.184589         5.0229

MULLIKEN ATOMIC CHARGES
-----------------------
   0 C :   -0.331991
   1 N :   -0.035203
   2 C :   -0.005002
   3 N :   -0.278984
   4 C :   -0.095583
   5 C :   -0.014232
   6 O :   -0.484517
   7 C :    0.035033
   8 C :   -0.418886
   9 H :    0.154379
  10 H :    0.153392
  11 H :    0.154915
  12 H :    0.144718
  13 H :    0.116800
  14 H :    0.128918
  15 H :    0.314283
  16 H :    0.134353
  17 H :    0.142844
  18 H :    0.184763
Sum of atomic charges:   -0.0000000

LOEWDIN ATOMIC CHARGES
----------------------
   0 C :   -0.267730
   1 N :    0.239955
   2 C :   -0.308871
   3 N :    0.105049
   4 C :   -0.264119
   5 C :   -0.306469
   6 O :   -0.057517
   7 C :   -0.214188
   8 C :   -0.277988
   9 H :    0.124382
  10 H :    0.130421
  11 H :    0.125343
  12 H :    0.130455
  13 H :    0.133528
  14 H :    0.130114
  15 H :    0.172898
  16 H :    0.129431
  17 H :    0.130115
  18 H :    0.145191

  Mayer bond orders larger than 0.1
B(  0-C ,  1-N ) :   0.8696 B(  0-C ,  9-H ) :   0.9308 B(  0-C , 10-H ) :   0.9303
B(  0-C , 11-H ) :   0.9300 B(  1-N ,  2-C ) :   1.1622 B(  1-N ,  7-C ) :   1.1427
B(  2-C ,  3-N ) :   1.5533 B(  2-C , 12-H ) :   0.9225 B(  3-N ,  4-C ) :   1.3552
B(  4-C ,  5-C ) :   0.9119 B(  4-C ,  7-C ) :   1.5025 B(  5-C ,  6-O ) :   0.8716
B(  5-C , 13-H ) :   0.9328 B(  5-C , 14-H ) :   0.9434 B(  6-O , 15-H ) :   0.8444
B(  7-C ,  8-C ) :   0.8309 B(  8-C , 16-H ) :   0.9324 B(  8-C , 17-H ) :   0.9345
B(  8-C , 18-H ) :   0.9367

MP2 TOTAL ENERGY:     -418.542148219 Eh
FINAL SINGLE POINT ENERGY      -418.542148218600

DIPOLE MOMENT
-------------
                                X             Y             Z
Electronic contribution:     -0.18229      -4.19151      -3.50210
Nuclear contribution   :      0.37944       5.94218       3.53261
                        -----------------------------------------
Total Dipole Moment    :      0.19715       1.75067       0.03051
                        -----------------------------------------
Magnitude (a.u.)       :      1.76200
Magnitude (Debye)      :      4.47865

                             ****ORCA TERMINATED NORMALLY****
TOTAL RUN TIME: 0 days 0 hours 18 minutes 9 seconds 582 msec
