                         Program Version 3.0.3 - RELEASE   -
|  1> ! RI-MP2 RIJK def2-TZVP def2-TZVP/C def2-TZVP/JK TIGHTSCF
|  2> % maxcore 2000
|  3> % mp2 density relaxed end
|  4> *xyz 0 1
|  5>  C        0.4602210962     1.4269088602    -0.4612996111
|  6>  C       -0.0127143119     0.0571661259     0.0444037477
|  7>  C        0.7672164650    -0.4818934628     1.2614342292
|  8>  C        0.2708041008     0.2014918756     2.5375319919
|  9>  C        0.9217783243    -2.0588118010     1.2635011882
| 10>  C        2.0785234223    -1.8712986108     0.2293291041
| 11>  C        2.3226369707    -0.6251544000     1.1042669932
| 12>  O        2.7303671793    -1.1986599462     2.3616116530
| 13>  C        1.7639244706    -2.2674795967     2.5253296119
| 14>  H        1.4760760685     1.3739190563    -0.8664749673
| 15>  H       -0.1942154496     1.7926215949    -1.2587282587
| 16>  H        0.4614650011     2.1795870344     0.3333788507
| 17>  H       -1.0682099824     0.1281148746     0.3375127924
| 18>  H        0.0084217205    -0.6509943928    -0.7886457231
| 19>  H       -0.7022317944    -0.2032947225     2.8405950131
| 20>  H        0.9719062317     0.0795488325     3.3641077394
| 21>  H        0.1367528205     1.2761106723     2.3772156223
| 22>  H        0.0759550915    -2.7269799512     1.0972551630
| 23>  H        2.8754803787    -2.6184310728     0.2240802106
| 24>  H        1.7477196378    -1.6629113116    -0.7856451929
| 25>  H        2.9947839928     0.1929158989     0.8483321451
| 26>  H        1.2108493789    -2.1364808734     3.4613669512
| 27>  H        2.2759992870    -3.2365689638     2.5496007262
| 28> *
| 29>
| 30>                          ****END OF INPUT****

CARTESIAN COORDINATES (ANGSTROEM)
---------------------------------
  C      0.460221    1.426909   -0.461300
  C     -0.012714    0.057166    0.044404
  C      0.767216   -0.481893    1.261434
  C      0.270804    0.201492    2.537532
  C      0.921778   -2.058812    1.263501
  C      2.078523   -1.871299    0.229329
  C      2.322637   -0.625154    1.104267
  O      2.730367   -1.198660    2.361612
  C      1.763924   -2.267480    2.525330
  H      1.476076    1.373919   -0.866475
  H     -0.194215    1.792622   -1.258728
  H      0.461465    2.179587    0.333379
  H     -1.068210    0.128115    0.337513
  H      0.008422   -0.650994   -0.788646
  H     -0.702232   -0.203295    2.840595
  H      0.971906    0.079549    3.364108
  H      0.136753    1.276111    2.377216
  H      0.075955   -2.726980    1.097255
  H      2.875480   -2.618431    0.224080
  H      1.747720   -1.662911   -0.785645
  H      2.994784    0.192916    0.848332
  H      1.210849   -2.136481    3.461367
  H      2.275999   -3.236569    2.549601

 Total Charge           Charge          ....    0
 Multiplicity           Mult            ....    1
 Number of Electrons    NEL             ....   70
 Basis Dimension        Dim             ....  363

ORBITAL ENERGIES
----------------

  NO   OCC          E(Eh)            E(eV)
   0   2.0000     -20.544075      -559.0327
   1   2.0000     -11.277712      -306.8821
   2   2.0000     -11.268460      -306.6304
   3   2.0000     -11.237328      -305.7832
   4   2.0000     -11.236360      -305.7569
   5   2.0000     -11.223103      -305.3962
   6   2.0000     -11.221793      -305.3605
   7   2.0000     -11.215669      -305.1939
   8   2.0000     -11.206474      -304.9437
   9   2.0000      -1.374399       -37.3993
  10   2.0000      -1.131703       -30.7952
  11   2.0000      -1.033353       -28.1190
  12   2.0000      -0.975390       -26.5417
  13   2.0000      -0.968716       -26.3601
  14   2.0000      -0.866393       -23.5757
  15   2.0000      -0.833799       -22.6888
  16   2.0000      -0.783954       -21.3325
  17   2.0000      -0.729502       -19.8508
  18   2.0000      -0.687724       -18.7139
  19   2.0000      -0.660867       -17.9831
  20   2.0000      -0.628219       -17.0947
  21   2.0000      -0.591091       -16.0844
  22   2.0000      -0.587127       -15.9765
  23   2.0000      -0.564285       -15.3550
  24   2.0000      -0.546700       -14.8765
  25   2.0000      -0.532723       -14.4961
  26   2.0000      -0.519177       -14.1275
  27   2.0000      -0.515771       -14.0349
  28   2.0000      -0.501454       -13.6453
  29   2.0000      -0.489415       -13.3177
  30   2.0000      -0.485218       -13.2035
  31   2.0000      -0.454390       -12.3646
  32   2.0000      -0.433575       -11.7982
  33   2.0000      -0.420236       -11.4352
  34   2.0000      -0.385665       -10.4945
  35   0.0000       0.136693         3.7196
  36   0.0000       0.156889         4.2692
  37   0.0000       0.161995         4.4081
  38   0.0000       0.172798         4.7021
  39   0.0000       0.189147         5.1470

MULLIKEN ATOMIC CHARGES
-----------------------
   0 C :   -0.411172
   1 C :   -0.236711
   2 C :    0.085933
   3 C :   -0.487649
   4 C :   -0.082248
   5 C :   -0.286391
   6 C :    0.066225
   7 O :   -0.344089
   8 C :   -0.085250
   9 H :    0.127474
  10 H :    0.136108
  11 H :    0.127288
  12 H :    0.114953
  13 H :    0.115456
  14 H :    0.136913
  15 H :    0.164482
  16 H :    0.127369
  17 H :    0.131255
  18 H :    0.118784
  19 H :    0.126224
  20 H :    0.126762
  21 H :    0.115950
  22 H :    0.112334
Sum of atomic charges:   -0.0000000

LOEWDIN ATOMIC CHARGES
----------------------
   0 C :   -0.313203
   1 C :   -0.249769
   2 C :   -0.230648
   3 C :   -0.273245
   4 C :   -0.181712
   5 C :   -0.201654
   6 C :   -0.238944
   7 O :    0.147089
   8 C :   -0.264519
   9 H :    0.120787
  10 H :    0.121656
  11 H :    0.120183
  12 H :    0.142865
  13 H :    0.137486
  14 H :    0.127190
  15 H :    0.132291
  16 H :    0.126091
  17 H :    0.136716
  18 H :    0.130851
  19 H :    0.134909
  20 H :    0.130728
  21 H :    0.122484
  22 H :    0.122368

  Mayer bond orders larger than 0.1
B(  0-C ,  1-C ) :   0.9229 B(  0-C ,  9-H ) :   0.9396 B(  0-C , 10-H ) :   0.9410
B(  0-C , 11-H ) :   0.9378 B(  1-C ,  2-C ) :   0.8831 B(  1-C , 12-H ) :   0.9329
B(  1-C , 13-H ) :   0.9297 B(  2-C ,  3-C ) :   0.8983 B(  2-C ,  4-C ) :   0.8669
B(  2-C ,  6-C ) :   0.8981 B(  3-C , 14-H ) :   0.9370 B(  3-C , 15-H ) :   0.9343
B(  3-C , 16-H ) :   0.9333 B(  4-C ,  5-C ) :   0.9178 B(  4-C ,  8-C ) :   0.9398
B(  4-C , 17-H ) :   0.8990 B(  5-C ,  6-C ) :   0.9263 B(  5-C , 18-H ) :   0.9164
B(  5-C , 19-H ) :   0.9269 B(  6-C ,  7-O ) :   0.9132 B(  6-C , 20-H ) :   0.9063
B(  7-O ,  8-C ) :   0.9177 B(  8-C , 21-H ) :   0.9358 B(  8-C , 22-H ) :   0.9201

MP2 TOTAL ENERGY:     -387.600184082 Eh
FINAL SINGLE POINT ENERGY      -387.600184081907

DIPOLE MOMENT
-------------
                                X             Y             Z
Electronic contribution:      4.46151      -3.96489       2.66868
Nuclear contribution   :     -5.01600       3.83640      -3.10271
                        -----------------------------------------
Total Dipole Moment    :     -0.55450      -0.12849      -0.43403
                        -----------------------------------------
Magnitude (a.u.)       :      0.71579
Magnitude (Debye)      :      1.81940

                             ****ORCA TERMINATED NORMALLY****
TOTAL RUN TIME: 0 days 0 hours 22 minutes 1 seconds 544 msec
