                         Program Version 3.0.3 - RELEASE   -
|  1> ! RI-MP2 RIJK def2-TZVP def2-TZVP/C def2-TZVP/JK TIGHTSCF
|  2> % maxcore 2000
|  3> % mp2 density relaxed end
|  4> *xyz 0 1
|  5>  C        0.4914417737     1.5609060801     0.0399261486
|  6>  C        0.0910734138     0.0877600257    -0.0432628878
|  7>  O        1.0599511980    -0.5465190186    -0.8497258662
|  8>  C        0.6932956424    -1.7737343578    -1.4373768878
|  9>  C        0.7500529944    -2.9779990446    -0.5362309176
| 10>  C        0.5846574401    -3.0200078205     0.7855113198
| 11>  C        0.2447243310    -1.9111603698     1.7125387277
| 12>  O        1.2047612124    -0.8653844611     1.9960440300
| 13>  C       -0.0115368864    -0.5066138551     1.3538854306
| 14>  H        1.4725174579     1.6482671305     0.5145314465
| 15>  H        0.5476353241     1.9913239560    -0.9625361510
| 16>  H       -0.2344366061     2.1306779995     0.6273891771
| 17>  H       -0.9049701851     0.0046062074    -0.5146871795
| 18>  H       -0.3121772733    -1.6995096013    -1.8920633374
| 19>  H        1.3958538217    -1.9245200986    -2.2653881942
| 20>  H        0.9533844109    -3.9138788894    -1.0545228980
| 21>  H        0.6693398943    -3.9885813564     1.2731651754
| 22>  H       -0.2486155438    -2.2627652175     2.6205303881
| 23>  H       -0.7136507200     0.0411121716     1.9909663256
| 24> *
| 25>
| 26>                          ****END OF INPUT****

CARTESIAN COORDINATES (ANGSTROEM)
---------------------------------
  C      0.491442    1.560906    0.039926
  C      0.091073    0.087760   -0.043263
  O      1.059951   -0.546519   -0.849726
  C      0.693296   -1.773734   -1.437377
  C      0.750053   -2.977999   -0.536231
  C      0.584657   -3.020008    0.785511
  C      0.244724   -1.911160    1.712539
  O      1.204761   -0.865384    1.996044
  C     -0.011537   -0.506614    1.353885
  H      1.472517    1.648267    0.514531
  H      0.547635    1.991324   -0.962536
  H     -0.234437    2.130678    0.627389
  H     -0.904970    0.004606   -0.514687
  H     -0.312177   -1.699510   -1.892063
  H      1.395854   -1.924520   -2.265388
  H      0.953384   -3.913879   -1.054523
  H      0.669340   -3.988581    1.273165
  H     -0.248616   -2.262765    2.620530
  H     -0.713651    0.041112    1.990966

 Total Charge           Charge          ....    0
 Multiplicity           Mult            ....    1
 Number of Electrons    NEL             ....   68
 Basis Dimension        Dim             ....  339

ORBITAL ENERGIES
----------------

  NO   OCC          E(Eh)            E(eV)
   0   2.0000     -20.563480      -559.5607
   1   2.0000     -20.558183      -559.4166
   2   2.0000     -11.290532      -307.2310
   3   2.0000     -11.290455      -307.2289
   4   2.0000     -11.287878      -307.1588
   5   2.0000     -11.285224      -307.0866
   6   2.0000     -11.242796      -305.9320
   7   2.0000     -11.236471      -305.7599
   8   2.0000     -11.215743      -305.1959
   9   2.0000      -1.410710       -38.3874
  10   2.0000      -1.379267       -37.5318
  11   2.0000      -1.086050       -29.5529
  12   2.0000      -1.043968       -28.4078
  13   2.0000      -0.957449       -26.0535
  14   2.0000      -0.918568       -24.9955
  15   2.0000      -0.880044       -23.9472
  16   2.0000      -0.788832       -21.4652
  17   2.0000      -0.745395       -20.2832
  18   2.0000      -0.714943       -19.4546
  19   2.0000      -0.678110       -18.4523
  20   2.0000      -0.659600       -17.9486
  21   2.0000      -0.641285       -17.4502
  22   2.0000      -0.604652       -16.4534
  23   2.0000      -0.566245       -15.4083
  24   2.0000      -0.562128       -15.2963
  25   2.0000      -0.543727       -14.7956
  26   2.0000      -0.541995       -14.7484
  27   2.0000      -0.522212       -14.2101
  28   2.0000      -0.511701       -13.9241
  29   2.0000      -0.485521       -13.2117
  30   2.0000      -0.447164       -12.1680
  31   2.0000      -0.436666       -11.8823
  32   2.0000      -0.423123       -11.5138
  33   2.0000      -0.358941        -9.7673
  34   0.0000       0.125656         3.4193
  35   0.0000       0.142216         3.8699
  36   0.0000       0.154489         4.2039
  37   0.0000       0.165975         4.5164
  38   0.0000       0.176089         4.7916

MULLIKEN ATOMIC CHARGES
-----------------------
   0 C :   -0.390209
   1 C :    0.102623
   2 O :   -0.295738
   3 C :   -0.014530
   4 C :   -0.151701
   5 C :   -0.205767
   6 C :    0.067997
   7 O :   -0.329397
   8 C :    0.030690
   9 H :    0.150366
  10 H :    0.137889
  11 H :    0.121886
  12 H :    0.067083
  13 H :    0.099018
  14 H :    0.136257
  15 H :    0.122062
  16 H :    0.126035
  17 H :    0.103726
  18 H :    0.121709
Sum of atomic charges:    0.0000000

LOEWDIN ATOMIC CHARGES
----------------------
   0 C :   -0.283377
   1 C :   -0.339632
   2 O :    0.203398
   3 C :   -0.309792
   4 C :   -0.158125
   5 C :   -0.161770
   6 C :   -0.245448
   7 O :    0.172386
   8 C :   -0.258112
   9 H :    0.133719
  10 H :    0.126134
  11 H :    0.125115
  12 H :    0.140451
  13 H :    0.130251
  14 H :    0.139507
  15 H :    0.149022
  16 H :    0.151207
  17 H :    0.143064
  18 H :    0.142004

  Mayer bond orders larger than 0.1
B(  0-C ,  1-C ) :   0.9051 B(  0-C ,  9-H ) :   0.9360 B(  0-C , 10-H ) :   0.9392
B(  0-C , 11-H ) :   0.9308 B(  1-C ,  2-O ) :   0.9460 B(  1-C ,  8-C ) :   0.9267
B(  1-C , 12-H ) :   0.9313 B(  2-O ,  3-C ) :   0.9490 B(  3-C ,  4-C ) :   0.9182
B(  3-C , 13-H ) :   0.9164 B(  3-C , 14-H ) :   0.9291 B(  4-C ,  5-C ) :   1.7933
B(  4-C , 15-H ) :   0.9161 B(  5-C ,  6-C ) :   0.9248 B(  5-C , 16-H ) :   0.9312
B(  6-C ,  7-O ) :   0.9213 B(  6-C ,  8-C ) :   0.9719 B(  6-C , 17-H ) :   0.9335
B(  7-O ,  8-C ) :   0.8380 B(  8-C , 18-H ) :   0.9001

MP2 TOTAL ENERGY:     -422.288373236 Eh
FINAL SINGLE POINT ENERGY      -422.288373235832

DIPOLE MOMENT
-------------
                                X             Y             Z
Electronic contribution:      1.99378      -2.75637       2.36815
Nuclear contribution   :     -2.95241       2.43646      -2.74014
                        -----------------------------------------
Total Dipole Moment    :     -0.95862      -0.31991      -0.37199
                        -----------------------------------------
Magnitude (a.u.)       :      1.07688
Magnitude (Debye)      :      2.73721

                             ****ORCA TERMINATED NORMALLY****
TOTAL RUN TIME: 0 days 0 hours 17 minutes 51 seconds 452 msec
