                         Program Version 3.0.3 - RELEASE   -
|  1> ! RI-MP2 RIJK def2-TZVP def2-TZVP/C def2-TZVP/JK TIGHTSCF
|  2> % maxcore 2000
|  3> % mp2 density relaxed end
|  4> *xyz 0 1
|  5>  N       -0.1219589257     1.3145934455    -0.0704274185
|  6>  C       -0.1486976433     0.0650813843    -0.2422559656
|  7>  O       -1.0608738420    -0.6843257796     0.4176655878
|  8>  C       -0.9762237283    -2.0749982307     0.2396022503
|  9>  C       -1.2648607356    -2.6929856933    -1.1100396605
| 10>  C       -2.2244982562    -2.9030812693     0.0446154132
| 11>  C       -2.0786032931    -4.1576914889     0.9030281161
| 12>  C       -0.6936197382    -4.0180738710     1.5033498938
| 13>  C       -0.1085380508    -2.8689193303     1.1615530379
| 14>  H        0.6102775023     1.7256847090    -0.6459656387
| 15>  H        0.5016714893    -0.5244687926    -0.9008047206
| 16>  H       -1.6149658281    -2.0253880857    -1.8908457308
| 17>  H       -0.6366025993    -3.5106582711    -1.4488982601
| 18>  H       -3.1849025453    -2.4077228794    -0.0237997150
| 19>  H       -2.8489286292    -4.2097303820     1.6831964921
| 20>  H       -2.1764151114    -5.0764803764     0.3107920957
| 21>  H       -0.2436014152    -4.7924916980     2.1138686963
| 22>  H        0.8748536800    -2.5313915904     1.4672012165
| 23> *
| 24>
| 25>                          ****END OF INPUT****

CARTESIAN COORDINATES (ANGSTROEM)
---------------------------------
  N     -0.121959    1.314593   -0.070427
  C     -0.148698    0.065081   -0.242256
  O     -1.060874   -0.684326    0.417666
  C     -0.976224   -2.074998    0.239602
  C     -1.264861   -2.692986   -1.110040
  C     -2.224498   -2.903081    0.044615
  C     -2.078603   -4.157691    0.903028
  C     -0.693620   -4.018074    1.503350
  C     -0.108538   -2.868919    1.161553
  H      0.610278    1.725685   -0.645966
  H      0.501671   -0.524469   -0.900805
  H     -1.614966   -2.025388   -1.890846
  H     -0.636603   -3.510658   -1.448898
  H     -3.184903   -2.407723   -0.023800
  H     -2.848929   -4.209730    1.683196
  H     -2.176415   -5.076480    0.310792
  H     -0.243601   -4.792492    2.113869
  H      0.874854   -2.531392    1.467201

 Total Charge           Charge          ....    0
 Multiplicity           Mult            ....    1
 Number of Electrons    NEL             ....   66
 Basis Dimension        Dim             ....  333

ORBITAL ENERGIES
----------------

  NO   OCC          E(Eh)            E(eV)
   0   2.0000     -20.594790      -560.4127
   1   2.0000     -15.539168      -422.8422
   2   2.0000     -11.336440      -308.4802
   3   2.0000     -11.303345      -307.5797
   4   2.0000     -11.242514      -305.9244
   5   2.0000     -11.241837      -305.9059
   6   2.0000     -11.240354      -305.8656
   7   2.0000     -11.239584      -305.8446
   8   2.0000     -11.237048      -305.7756
   9   2.0000      -1.432395       -38.9775
  10   2.0000      -1.210543       -32.9405
  11   2.0000      -1.177079       -32.0299
  12   2.0000      -1.051218       -28.6051
  13   2.0000      -0.970727       -26.4148
  14   2.0000      -0.876920       -23.8622
  15   2.0000      -0.814858       -22.1734
  16   2.0000      -0.792742       -21.5716
  17   2.0000      -0.756384       -20.5823
  18   2.0000      -0.726528       -19.7698
  19   2.0000      -0.669457       -18.2168
  20   2.0000      -0.651229       -17.7208
  21   2.0000      -0.628147       -17.0927
  22   2.0000      -0.613819       -16.7029
  23   2.0000      -0.576245       -15.6804
  24   2.0000      -0.570828       -15.5330
  25   2.0000      -0.540577       -14.7099
  26   2.0000      -0.532595       -14.4926
  27   2.0000      -0.495492       -13.4830
  28   2.0000      -0.455131       -12.3848
  29   2.0000      -0.441840       -12.0231
  30   2.0000      -0.420686       -11.4474
  31   2.0000      -0.395623       -10.7655
  32   2.0000      -0.350132        -9.5276
  33   0.0000       0.135266         3.6808
  34   0.0000       0.142895         3.8884
  35   0.0000       0.149593         4.0706
  36   0.0000       0.157846         4.2952
  37   0.0000       0.171374         4.6633

MULLIKEN ATOMIC CHARGES
-----------------------
   0 N :   -0.335047
   1 C :    0.054804
   2 O :   -0.202514
   3 C :    0.234063
   4 C :   -0.322526
   5 C :   -0.137226
   6 C :   -0.174230
   7 C :   -0.174265
   8 C :   -0.218724
   9 H :    0.225775
  10 H :    0.096933
  11 H :    0.149260
  12 H :    0.137355
  13 H :    0.145164
  14 H :    0.129213
  15 H :    0.127462
  16 H :    0.132937
  17 H :    0.131568
Sum of atomic charges:    0.0000000

LOEWDIN ATOMIC CHARGES
----------------------
   0 N :   -0.080040
   1 C :   -0.389530
   2 O :    0.295581
   3 C :   -0.297113
   4 C :   -0.181689
   5 C :   -0.157779
   6 C :   -0.216867
   7 C :   -0.140332
   8 C :   -0.119788
   9 H :    0.167948
  10 H :    0.112288
  11 H :    0.142508
  12 H :    0.138130
  13 H :    0.152512
  14 H :    0.146303
  15 H :    0.146293
  16 H :    0.137917
  17 H :    0.143658

  Mayer bond orders larger than 0.1
B(  0-N ,  1-C ) :   1.9620 B(  0-N ,  9-H ) :   0.8486 B(  1-C ,  2-O ) :   1.0230
B(  1-C , 10-H ) :   0.9258 B(  2-O ,  3-C ) :   0.9268 B(  3-C ,  4-C ) :   0.8772
B(  3-C ,  5-C ) :   0.8533 B(  3-C ,  8-C ) :   0.9379 B(  4-C ,  5-C ) :   0.9112
B(  4-C , 11-H ) :   0.9210 B(  4-C , 12-H ) :   0.9056 B(  5-C ,  6-C ) :   0.9550
B(  5-C , 13-H ) :   0.9145 B(  6-C ,  7-C ) :   0.9685 B(  6-C , 14-H ) :   0.9104
B(  6-C , 15-H ) :   0.9086 B(  7-C ,  8-C ) :   1.7697 B(  7-C , 16-H ) :   0.9241
B(  8-C , 17-H ) :   0.9251

MP2 TOTAL ENERGY:     -401.235159643 Eh
FINAL SINGLE POINT ENERGY      -401.235159642781

DIPOLE MOMENT
-------------
                                X             Y             Z
Electronic contribution:      0.56790       4.20249       1.22597
Nuclear contribution   :     -0.12123      -5.41165      -1.87159
                        -----------------------------------------
Total Dipole Moment    :      0.44666      -1.20916      -0.64562
                        -----------------------------------------
Magnitude (a.u.)       :      1.44166
Magnitude (Debye)      :      3.66441

                             ****ORCA TERMINATED NORMALLY****
TOTAL RUN TIME: 0 days 0 hours 16 minutes 40 seconds 906 msec
