                         Program Version 3.0.3 - RELEASE   -
|  1> ! RI-MP2 RIJK def2-TZVP def2-TZVP/C def2-TZVP/JK TIGHTSCF
|  2> % maxcore 2000
|  3> % mp2 density relaxed end
|  4> *xyz 0 1
|  5>  O        0.5312074318     0.3066647284    -0.9468983136
|  6>  C       -0.0591491117    -0.4831432842     0.0224448529
|  7>  C        0.5499933608    -0.2539305984     1.3984425018
|  8>  N        1.5430126757     0.5118547192     1.5252107972
|  9>  O       -0.0762999337    -0.8863801567     2.4247370786
| 10>  C       -1.2048277629    -1.6622084638     2.0439291470
| 11>  O       -2.1053686870    -0.9325780370     1.2476555843
| 12>  C       -1.5701184651    -0.2920541291     0.1462528283
| 13>  N       -2.2618985691     0.3828334763    -0.6541818112
| 14>  H        1.1814633011     0.8553392039    -0.4779605547
| 15>  H        0.0942696515    -1.5523079695    -0.2222069170
| 16>  H        1.8483030638     0.6049556184     2.4929603868
| 17>  H       -0.8721313675    -2.5722817879     1.5270741849
| 18>  H       -1.7267580004    -1.9183261333     2.9650873103
| 19>  H       -3.2462184973     0.3690512036    -0.3799669157
| 20> *
| 21>
| 22>                          ****END OF INPUT****

CARTESIAN COORDINATES (ANGSTROEM)
---------------------------------
  O      0.531207    0.306665   -0.946898
  C     -0.059149   -0.483143    0.022445
  C      0.549993   -0.253931    1.398443
  N      1.543013    0.511855    1.525211
  O     -0.076300   -0.886380    2.424737
  C     -1.204828   -1.662208    2.043929
  O     -2.105369   -0.932578    1.247656
  C     -1.570118   -0.292054    0.146253
  N     -2.261899    0.382833   -0.654182
  H      1.181463    0.855339   -0.477961
  H      0.094270   -1.552308   -0.222207
  H      1.848303    0.604956    2.492960
  H     -0.872131   -2.572282    1.527074
  H     -1.726758   -1.918326    2.965087
  H     -3.246218    0.369051   -0.379967

 Total Charge           Charge          ....    0
 Multiplicity           Mult            ....    1
 Number of Electrons    NEL             ....   68
 Basis Dimension        Dim             ....  315

ORBITAL ENERGIES
----------------

  NO   OCC          E(Eh)            E(eV)
   0   2.0000     -20.635558      -561.5221
   1   2.0000     -20.625842      -561.2577
   2   2.0000     -20.567790      -559.6780
   3   2.0000     -15.565718      -423.5647
   4   2.0000     -15.550829      -423.1596
   5   2.0000     -11.385362      -309.8115
   6   2.0000     -11.372294      -309.4559
   7   2.0000     -11.357547      -309.0546
   8   2.0000     -11.331014      -308.3326
   9   2.0000      -1.500863       -40.8406
  10   2.0000      -1.429595       -38.9013
  11   2.0000      -1.391549       -37.8660
  12   2.0000      -1.230874       -33.4938
  13   2.0000      -1.213668       -33.0256
  14   2.0000      -1.033354       -28.1190
  15   2.0000      -0.980400       -26.6780
  16   2.0000      -0.854658       -23.2564
  17   2.0000      -0.791766       -21.5451
  18   2.0000      -0.770394       -20.9635
  19   2.0000      -0.759225       -20.6596
  20   2.0000      -0.734006       -19.9733
  21   2.0000      -0.672362       -18.2959
  22   2.0000      -0.660091       -17.9620
  23   2.0000      -0.657043       -17.8791
  24   2.0000      -0.636486       -17.3197
  25   2.0000      -0.606891       -16.5143
  26   2.0000      -0.582108       -15.8400
  27   2.0000      -0.545378       -14.8405
  28   2.0000      -0.520930       -14.1752
  29   2.0000      -0.481116       -13.0918
  30   2.0000      -0.474011       -12.8985
  31   2.0000      -0.454538       -12.3686
  32   2.0000      -0.432086       -11.7577
  33   2.0000      -0.418909       -11.3991
  34   0.0000       0.123432         3.3587
  35   0.0000       0.140300         3.8178
  36   0.0000       0.154491         4.2039
  37   0.0000       0.169664         4.6168
  38   0.0000       0.173432         4.7193

MULLIKEN ATOMIC CHARGES
-----------------------
   0 O :   -0.440757
   1 C :    0.118122
   2 C :    0.177684
   3 N :   -0.432788
   4 O :   -0.241262
   5 C :    0.037654
   6 O :   -0.250350
   7 C :    0.115758
   8 N :   -0.313583
   9 H :    0.345796
  10 H :    0.135521
  11 H :    0.233248
  12 H :    0.131575
  13 H :    0.155135
  14 H :    0.228248
Sum of atomic charges:   -0.0000000

LOEWDIN ATOMIC CHARGES
----------------------
   0 O :    0.040154
   1 C :   -0.311295
   2 C :   -0.390022
   3 N :   -0.048341
   4 O :    0.248663
   5 C :   -0.337283
   6 O :    0.234497
   7 C :   -0.377558
   8 N :   -0.018360
   9 H :    0.191833
  10 H :    0.166705
  11 H :    0.174405
  12 H :    0.119887
  13 H :    0.132989
  14 H :    0.173726

  Mayer bond orders larger than 0.1
B(  0-O ,  1-C ) :   1.1606 B(  0-O ,  9-H ) :   0.7951 B(  1-C ,  2-C ) :   0.8866
B(  1-C ,  7-C ) :   0.8222 B(  1-C , 10-H ) :   0.9474 B(  2-C ,  3-N ) :   1.9348
B(  2-C ,  4-O ) :   1.0708 B(  3-N , 11-H ) :   0.8543 B(  4-O ,  5-C ) :   0.9105
B(  5-C ,  6-O ) :   0.9525 B(  5-C , 12-H ) :   0.9304 B(  5-C , 13-H ) :   0.9272
B(  6-O ,  7-C ) :   1.0098 B(  7-C ,  8-N ) :   2.1126 B(  8-N , 14-H ) :   0.8484

MP2 TOTAL ENERGY:     -490.328199399 Eh
FINAL SINGLE POINT ENERGY      -490.328199398574

DIPOLE MOMENT
-------------
                                X             Y             Z
Electronic contribution:     -0.48890       0.72590       0.39137
Nuclear contribution   :      0.33095      -1.86298       0.99168
                        -----------------------------------------
Total Dipole Moment    :     -0.15795      -1.13708       1.38305
                        -----------------------------------------
Magnitude (a.u.)       :      1.79742
Magnitude (Debye)      :      4.56868

                             ****ORCA TERMINATED NORMALLY****
TOTAL RUN TIME: 0 days 0 hours 13 minutes 27 seconds 300 msec
