                         Program Version 3.0.3 - RELEASE   -
|  1> ! RI-MP2 RIJK def2-TZVP def2-TZVP/C def2-TZVP/JK TIGHTSCF
|  2> % maxcore 2000
|  3> % mp2 density relaxed end
|  4> *xyz 0 1
|  5>  O       -0.1675206625     1.4324154135     0.3832696220
|  6>  C        0.0364278811     0.0849555373    -0.0393877979
|  7>  C        0.9943628138    -0.6228401085     0.8831330154
|  8>  C        0.7931159049    -1.8193543722     1.4304071332
|  9>  C       -0.4226637901    -2.6709174584     1.1925268046
| 10>  C       -1.5352885125    -1.9453382787     0.4675180403
| 11>  N       -2.0431618105    -0.7129211936     1.0983757208
| 12>  C       -1.2977110961    -0.6260971215    -0.1735280110
| 13>  H       -0.6863916924     1.3610534049     1.1954940467
| 14>  H        0.4912261441     0.1705061056    -1.0350771463
| 15>  H        1.8980850351    -0.0615664746     1.1061705981
| 16>  H        1.5463892895    -2.2369201542     2.0946346571
| 17>  H       -0.1388065582    -3.5590047494     0.6091968611
| 18>  H       -0.8003648020    -3.0549726689     2.1500014224
| 19>  H       -2.2742961268    -2.5915822854    -0.0017894455
| 20>  H       -3.0399992679    -0.6181005052     0.9267629861
| 21>  H       -1.8637865994    -0.3787921509    -1.0680507570
| 22> *
| 23>
| 24>                          ****END OF INPUT****

CARTESIAN COORDINATES (ANGSTROEM)
---------------------------------
  O     -0.167521    1.432415    0.383270
  C      0.036428    0.084956   -0.039388
  C      0.994363   -0.622840    0.883133
  C      0.793116   -1.819354    1.430407
  C     -0.422664   -2.670917    1.192527
  C     -1.535289   -1.945338    0.467518
  N     -2.043162   -0.712921    1.098376
  C     -1.297711   -0.626097   -0.173528
  H     -0.686392    1.361053    1.195494
  H      0.491226    0.170506   -1.035077
  H      1.898085   -0.061566    1.106171
  H      1.546389   -2.236920    2.094635
  H     -0.138807   -3.559005    0.609197
  H     -0.800365   -3.054973    2.150001
  H     -2.274296   -2.591582   -0.001789
  H     -3.039999   -0.618101    0.926763
  H     -1.863787   -0.378792   -1.068051

 Total Charge           Charge          ....    0
 Multiplicity           Mult            ....    1
 Number of Electrons    NEL             ....   60
 Basis Dimension        Dim             ....  302

ORBITAL ENERGIES
----------------

  NO   OCC          E(Eh)            E(eV)
   0   2.0000     -20.545156      -559.0621
   1   2.0000     -15.562690      -423.4823
   2   2.0000     -11.282367      -307.0088
   3   2.0000     -11.269608      -306.6616
   4   2.0000     -11.262399      -306.4654
   5   2.0000     -11.235344      -305.7293
   6   2.0000     -11.231247      -305.6178
   7   2.0000     -11.221289      -305.3468
   8   2.0000      -1.354666       -36.8623
   9   2.0000      -1.269276       -34.5388
  10   2.0000      -1.085450       -29.5366
  11   2.0000      -1.000881       -27.2354
  12   2.0000      -0.940060       -25.5803
  13   2.0000      -0.833982       -22.6938
  14   2.0000      -0.827555       -22.5189
  15   2.0000      -0.734679       -19.9916
  16   2.0000      -0.705270       -19.1914
  17   2.0000      -0.663066       -18.0429
  18   2.0000      -0.623990       -16.9796
  19   2.0000      -0.618825       -16.8391
  20   2.0000      -0.601075       -16.3561
  21   2.0000      -0.584137       -15.8952
  22   2.0000      -0.542362       -14.7584
  23   2.0000      -0.509988       -13.8775
  24   2.0000      -0.497788       -13.5455
  25   2.0000      -0.472411       -12.8549
  26   2.0000      -0.462896       -12.5961
  27   2.0000      -0.436771       -11.8851
  28   2.0000      -0.396181       -10.7806
  29   2.0000      -0.355356        -9.6697
  30   0.0000       0.128430         3.4947
  31   0.0000       0.147791         4.0216
  32   0.0000       0.159406         4.3377
  33   0.0000       0.171706         4.6723
  34   0.0000       0.183294         4.9877

MULLIKEN ATOMIC CHARGES
-----------------------
   0 O :   -0.481241
   1 C :    0.220016
   2 C :   -0.262143
   3 C :   -0.172659
   4 C :   -0.092214
   5 C :   -0.076543
   6 N :   -0.434635
   7 C :   -0.084009
   8 H :    0.325120
   9 H :    0.097237
  10 H :    0.123462
  11 H :    0.121964
  12 H :    0.117101
  13 H :    0.117404
  14 H :    0.128294
  15 H :    0.222610
  16 H :    0.130236
Sum of atomic charges:   -0.0000000

LOEWDIN ATOMIC CHARGES
----------------------
   0 O :   -0.020797
   1 C :   -0.321316
   2 C :   -0.155855
   3 C :   -0.158937
   4 C :   -0.235409
   5 C :   -0.244795
   6 N :   -0.000101
   7 C :   -0.234334
   8 H :    0.179794
   9 H :    0.153171
  10 H :    0.147570
  11 H :    0.143814
  12 H :    0.150979
  13 H :    0.150905
  14 H :    0.138792
  15 H :    0.167430
  16 H :    0.139088

  Mayer bond orders larger than 0.1
B(  0-O ,  1-C ) :   0.8945 B(  0-O ,  8-H ) :   0.8302 B(  1-C ,  2-C ) :   0.9720
B(  1-C ,  7-C ) :   0.9611 B(  1-C ,  9-H ) :   0.9202 B(  2-C ,  3-C ) :   1.7688
B(  2-C , 10-H ) :   0.9345 B(  3-C ,  4-C ) :   0.9585 B(  3-C , 11-H ) :   0.9269
B(  4-C ,  5-C ) :   0.9448 B(  4-C , 12-H ) :   0.9022 B(  4-C , 13-H ) :   0.9050
B(  5-C ,  6-N ) :   0.9177 B(  5-C ,  7-C ) :   0.8688 B(  5-C , 14-H ) :   0.9275
B(  6-N ,  7-C ) :   0.8527 B(  6-N , 15-H ) :   0.8669 B(  7-C , 16-H ) :   0.9246

MP2 TOTAL ENERGY:     -363.230507954 Eh
FINAL SINGLE POINT ENERGY      -363.230507954368

DIPOLE MOMENT
-------------
                                X             Y             Z
Electronic contribution:     -0.02177       2.53084      -0.29144
Nuclear contribution   :     -0.51399      -3.46559       0.08237
                        -----------------------------------------
Total Dipole Moment    :     -0.53576      -0.93474      -0.20907
                        -----------------------------------------
Magnitude (a.u.)       :      1.09749
Magnitude (Debye)      :      2.78961

                             ****ORCA TERMINATED NORMALLY****
TOTAL RUN TIME: 0 days 0 hours 11 minutes 52 seconds 366 msec
