                         Program Version 3.0.3 - RELEASE   -
|  1> ! RI-MP2 RIJK def2-TZVP def2-TZVP/C def2-TZVP/JK TIGHTSCF
|  2> % maxcore 2000
|  3> % mp2 density relaxed end
|  4> *xyz 0 1
|  5>  C       -0.3115301323     1.5581590341     0.0565566844
|  6>  C        0.0036295870     0.0625761334    -0.1001199243
|  7>  C       -1.2684465252    -0.7721434447    -0.1069950706
|  8>  C       -1.2780935201    -2.1521015436     0.4347000633
|  9>  N       -1.9767106274    -1.0637930860     1.1474011527
| 10>  C        0.7360968323    -0.1746394419    -1.4268070804
| 11>  N        1.9171382182    -0.8514779936    -1.3381072522
| 12>  O        0.2823560265     0.2114459068    -2.4870989032
| 13>  H        0.6053262528     2.1497695792     0.1395157851
| 14>  H       -0.8635509149     1.9097247849    -0.8183262931
| 15>  H       -0.9176883743     1.7332496792     0.9499661407
| 16>  H        0.6297284074    -0.2714294380     0.7389912122
| 17>  H       -1.9290998874    -0.5404470750    -0.9389413221
| 18>  H       -1.9267574729    -2.9086276457     0.0029753005
| 19>  H       -0.3543902361    -2.5408517335     0.8579697823
| 20>  H       -1.4150079712    -0.7601143992     1.9405331085
| 21>  H        2.2679091825    -1.2147214848    -0.4703122247
| 22>  H        2.4024181151    -1.0775173416    -2.1913837193
| 23> *
| 24>
| 25>                          ****END OF INPUT****

CARTESIAN COORDINATES (ANGSTROEM)
---------------------------------
  C     -0.311530    1.558159    0.056557
  C      0.003630    0.062576   -0.100120
  C     -1.268447   -0.772143   -0.106995
  C     -1.278094   -2.152102    0.434700
  N     -1.976711   -1.063793    1.147401
  C      0.736097   -0.174639   -1.426807
  N      1.917138   -0.851478   -1.338107
  O      0.282356    0.211446   -2.487099
  H      0.605326    2.149770    0.139516
  H     -0.863551    1.909725   -0.818326
  H     -0.917688    1.733250    0.949966
  H      0.629728   -0.271429    0.738991
  H     -1.929100   -0.540447   -0.938941
  H     -1.926757   -2.908628    0.002975
  H     -0.354390   -2.540852    0.857970
  H     -1.415008   -0.760114    1.940533
  H      2.267909   -1.214721   -0.470312
  H      2.402418   -1.077517   -2.191384

 Total Charge           Charge          ....    0
 Multiplicity           Mult            ....    1
 Number of Electrons    NEL             ....   62
 Basis Dimension        Dim             ....  308

ORBITAL ENERGIES
----------------

  NO   OCC          E(Eh)            E(eV)
   0   2.0000     -20.519066      -558.3522
   1   2.0000     -15.589802      -424.2201
   2   2.0000     -15.562546      -423.4784
   3   2.0000     -11.353779      -308.9520
   4   2.0000     -11.266095      -306.5660
   5   2.0000     -11.259564      -306.3883
   6   2.0000     -11.256621      -306.3082
   7   2.0000     -11.224367      -305.4306
   8   2.0000      -1.385096       -37.6904
   9   2.0000      -1.266387       -34.4602
  10   2.0000      -1.216008       -33.0893
  11   2.0000      -1.067495       -29.0480
  12   2.0000      -0.919826       -25.0297
  13   2.0000      -0.880371       -23.9561
  14   2.0000      -0.837751       -22.7964
  15   2.0000      -0.782334       -21.2884
  16   2.0000      -0.731025       -19.8922
  17   2.0000      -0.691187       -18.8082
  18   2.0000      -0.669099       -18.2071
  19   2.0000      -0.640073       -17.4173
  20   2.0000      -0.605743       -16.4831
  21   2.0000      -0.582771       -15.8580
  22   2.0000      -0.573854       -15.6154
  23   2.0000      -0.530619       -14.4389
  24   2.0000      -0.523476       -14.2445
  25   2.0000      -0.501650       -13.6506
  26   2.0000      -0.483403       -13.1541
  27   2.0000      -0.466683       -12.6991
  28   2.0000      -0.430115       -11.7040
  29   2.0000      -0.419525       -11.4159
  30   2.0000      -0.388657       -10.5759
  31   0.0000       0.111539         3.0351
  32   0.0000       0.142650         3.8817
  33   0.0000       0.155423         4.2293
  34   0.0000       0.176893         4.8135
  35   0.0000       0.179857         4.8942

MULLIKEN ATOMIC CHARGES
-----------------------
   0 C :   -0.401897
   1 C :   -0.082012
   2 C :   -0.046936
   3 C :   -0.185012
   4 N :   -0.355389
   5 C :    0.282231
   6 N :   -0.473287
   7 O :   -0.354592
   8 H :    0.133799
   9 H :    0.156961
  10 H :    0.134732
  11 H :    0.078321
  12 H :    0.142114
  13 H :    0.127372
  14 H :    0.112416
  15 H :    0.215201
  16 H :    0.256849
  17 H :    0.259130
Sum of atomic charges:    0.0000000

LOEWDIN ATOMIC CHARGES
----------------------
   0 C :   -0.276088
   1 C :   -0.248383
   2 C :   -0.254165
   3 C :   -0.264771
   4 N :   -0.016368
   5 C :   -0.453712
   6 N :   -0.013454
   7 O :    0.089329
   8 H :    0.125600
   9 H :    0.135902
  10 H :    0.125665
  11 H :    0.149408
  12 H :    0.152854
  13 H :    0.125609
  14 H :    0.117515
  15 H :    0.163115
  16 H :    0.168245
  17 H :    0.173699

  Mayer bond orders larger than 0.1
B(  0-C ,  1-C ) :   0.9152 B(  0-C ,  8-H ) :   0.9341 B(  0-C ,  9-H ) :   0.9313
B(  0-C , 10-H ) :   0.9344 B(  1-C ,  2-C ) :   0.9255 B(  1-C ,  5-C ) :   0.8709
B(  1-C , 11-H ) :   0.9152 B(  2-C ,  3-C ) :   0.9271 B(  2-C ,  4-N ) :   0.9045
B(  2-C , 12-H ) :   0.9146 B(  3-C ,  4-N ) :   0.9429 B(  3-C , 13-H ) :   0.9163
B(  3-C , 14-H ) :   0.9209 B(  4-N , 15-H ) :   0.8687 B(  5-C ,  6-N ) :   1.1460
B(  5-C ,  7-O ) :   1.9894 B(  6-N , 16-H ) :   0.8698 B(  6-N , 17-H ) :   0.8571

MP2 TOTAL ENERGY:     -380.498310926 Eh
FINAL SINGLE POINT ENERGY      -380.498310925912

DIPOLE MOMENT
-------------
                                X             Y             Z
Electronic contribution:      0.86506      -0.97333      -3.88159
Nuclear contribution   :      0.51364       0.37718       4.77325
                        -----------------------------------------
Total Dipole Moment    :      1.37870      -0.59615       0.89166
                        -----------------------------------------
Magnitude (a.u.)       :      1.74679
Magnitude (Debye)      :      4.43998

                             ****ORCA TERMINATED NORMALLY****
TOTAL RUN TIME: 0 days 0 hours 12 minutes 11 seconds 733 msec
