                         Program Version 3.0.3 - RELEASE   -
|  1> ! RI-MP2 RIJK def2-TZVP def2-TZVP/C def2-TZVP/JK TIGHTSCF
|  2> % maxcore 2000
|  3> % mp2 density relaxed end
|  4> *xyz 0 1
|  5>  N        0.0462595373     1.3350270474     0.1576321056
|  6>  C       -0.0525802148    -0.0276312089     0.0491356249
|  7>  C       -1.2240213140    -0.7207529220    -0.0090305075
|  8>  O       -2.4164011152    -0.0120420709    -0.0840089253
|  9>  C       -1.1596655862    -2.1399675145    -0.0780429675
| 10>  C        0.0317554209    -2.7893323663    -0.0639455579
| 11>  C        1.2715498073    -2.0573596260     0.0035224620
| 12>  N        2.4334522287    -2.5713440204     0.0238890343
| 13>  O        1.1414595022    -0.6476807201     0.0393373774
| 14>  H        0.9058680193     1.7303142937    -0.1942369661
| 15>  H       -0.7925017524     1.8207952630    -0.1252301663
| 16>  H       -2.8656723996    -0.0616666220     0.7674797410
| 17>  H       -2.0927100562    -2.6908330731    -0.1474086065
| 18>  H        0.1133504727    -3.8661796050    -0.1113377848
| 19>  H        3.1516629001    -1.8496647551     0.0716410768
| 20> *
| 21>
| 22>                          ****END OF INPUT****

CARTESIAN COORDINATES (ANGSTROEM)
---------------------------------
  N      0.046260    1.335027    0.157632
  C     -0.052580   -0.027631    0.049136
  C     -1.224021   -0.720753   -0.009031
  O     -2.416401   -0.012042   -0.084009
  C     -1.159666   -2.139968   -0.078043
  C      0.031755   -2.789332   -0.063946
  C      1.271550   -2.057360    0.003522
  N      2.433452   -2.571344    0.023889
  O      1.141460   -0.647681    0.039337
  H      0.905868    1.730314   -0.194237
  H     -0.792502    1.820795   -0.125230
  H     -2.865672   -0.061667    0.767480
  H     -2.092710   -2.690833   -0.147409
  H      0.113350   -3.866180   -0.111338
  H      3.151663   -1.849665    0.071641

 Total Charge           Charge          ....    0
 Multiplicity           Mult            ....    1
 Number of Electrons    NEL             ....   66
 Basis Dimension        Dim             ....  315

ORBITAL ENERGIES
----------------

  NO   OCC          E(Eh)            E(eV)
   0   2.0000     -20.629883      -561.3676
   1   2.0000     -20.589544      -560.2700
   2   2.0000     -15.592619      -424.2967
   3   2.0000     -15.525558      -422.4719
   4   2.0000     -11.363978      -309.2296
   5   2.0000     -11.347827      -308.7901
   6   2.0000     -11.275789      -306.8298
   7   2.0000     -11.268527      -306.6322
   8   2.0000     -11.231410      -305.6222
   9   2.0000      -1.468285       -39.9541
  10   2.0000      -1.396281       -37.9947
  11   2.0000      -1.246727       -33.9252
  12   2.0000      -1.189674       -32.3727
  13   2.0000      -1.107412       -30.1342
  14   2.0000      -0.993857       -27.0442
  15   2.0000      -0.883727       -24.0474
  16   2.0000      -0.870421       -23.6854
  17   2.0000      -0.751166       -20.4403
  18   2.0000      -0.748043       -20.3553
  19   2.0000      -0.715666       -19.4743
  20   2.0000      -0.680318       -18.5124
  21   2.0000      -0.664886       -18.0925
  22   2.0000      -0.650740       -17.7075
  23   2.0000      -0.634067       -17.2538
  24   2.0000      -0.614713       -16.7272
  25   2.0000      -0.584192       -15.8967
  26   2.0000      -0.545907       -14.8549
  27   2.0000      -0.514662       -14.0047
  28   2.0000      -0.491199       -13.3662
  29   2.0000      -0.455625       -12.3982
  30   2.0000      -0.439765       -11.9666
  31   2.0000      -0.411807       -11.2058
  32   2.0000      -0.280385        -7.6297
  33   0.0000       0.091478         2.4892
  34   0.0000       0.121552         3.3076
  35   0.0000       0.145578         3.9614
  36   0.0000       0.167398         4.5551
  37   0.0000       0.180676         4.9165

MULLIKEN ATOMIC CHARGES
-----------------------
   0 N :   -0.500069
   1 C :    0.302861
   2 C :    0.065586
   3 O :   -0.495066
   4 C :   -0.124076
   5 C :   -0.163981
   6 C :    0.138100
   7 N :   -0.374054
   8 O :   -0.235030
   9 H :    0.264116
  10 H :    0.276472
  11 H :    0.345942
  12 H :    0.136901
  13 H :    0.144086
  14 H :    0.218210
Sum of atomic charges:    0.0000000

LOEWDIN ATOMIC CHARGES
----------------------
   0 N :   -0.036266
   1 C :   -0.335201
   2 C :   -0.314768
   3 O :    0.023340
   4 C :   -0.123569
   5 C :   -0.137111
   6 C :   -0.358635
   7 N :   -0.069399
   8 O :    0.324311
   9 H :    0.177219
  10 H :    0.182154
  11 H :    0.191030
  12 H :    0.155210
  13 H :    0.158159
  14 H :    0.163526

  Mayer bond orders larger than 0.1
B(  0-N ,  1-C ) :   1.1342 B(  0-N ,  9-H ) :   0.8622 B(  0-N , 10-H ) :   0.8576
B(  1-C ,  2-C ) :   1.4638 B(  1-C ,  8-O ) :   1.1060 B(  2-C ,  3-O ) :   0.9901
B(  2-C ,  4-C ) :   1.1370 B(  3-O , 11-H ) :   0.8308 B(  4-C ,  5-C ) :   1.5274
B(  4-C , 12-H ) :   0.9260 B(  5-C ,  6-C ) :   1.0837 B(  5-C , 13-H ) :   0.9244
B(  6-C ,  7-N ) :   2.0243 B(  6-C ,  8-O ) :   0.9570 B(  7-N , 14-H ) :   0.8570

MP2 TOTAL ENERGY:     -453.226756286 Eh
FINAL SINGLE POINT ENERGY      -453.226756286429

DIPOLE MOMENT
-------------
                                X             Y             Z
Electronic contribution:      0.57453       0.15216      -0.01852
Nuclear contribution   :     -1.44863       1.02273       0.20423
                        -----------------------------------------
Total Dipole Moment    :     -0.87410       1.17489       0.18571
                        -----------------------------------------
Magnitude (a.u.)       :      1.47611
Magnitude (Debye)      :      3.75197

                             ****ORCA TERMINATED NORMALLY****
TOTAL RUN TIME: 0 days 0 hours 14 minutes 12 seconds 89 msec
