                         Program Version 3.0.3 - RELEASE   -
|  1> ! RI-MP2 RIJK def2-TZVP def2-TZVP/C def2-TZVP/JK TIGHTSCF
|  2> % maxcore 2000
|  3> % mp2 density relaxed end
|  4> *xyz 0 1
|  5>  C        0.1941325063     1.3545873449    -0.4071965219
|  6>  C       -0.0113176989     0.0074918927     0.2926041422
|  7>  O        0.3834045381     0.0766804684     1.6639690685
|  8>  C       -1.4190299797    -0.5166279097     0.1622254363
|  9>  C       -2.0902580763    -1.2231407058     1.1383485375
| 10>  N       -3.3332041657    -1.5425495669     0.6543435101
| 11>  C       -3.4744820522    -1.0560383226    -0.6193426381
| 12>  C       -2.3056178409    -0.4139881508    -0.9530593950
| 13>  H        1.2207544243     1.6979022084    -0.2538474097
| 14>  H        0.0116199689     1.2767286053    -1.4835677461
| 15>  H       -0.4923460089     2.1081649475    -0.0046254518
| 16>  H        0.6928621565    -0.7145942623    -0.1424172225
| 17>  H       -0.2580003687     0.6442793886     2.1073338872
| 18>  H       -1.7707024267    -1.5282741250     2.1207290806
| 19>  H       -4.0364240994    -2.0501259486     1.1612695970
| 20>  H       -4.3881978414    -1.2001212041    -1.1733109841
| 21>  H       -2.1068753753     0.0756063899    -1.8939425203
| 22> *
| 23>
| 24>                          ****END OF INPUT****

CARTESIAN COORDINATES (ANGSTROEM)
---------------------------------
  C      0.194133    1.354587   -0.407197
  C     -0.011318    0.007492    0.292604
  O      0.383405    0.076680    1.663969
  C     -1.419030   -0.516628    0.162225
  C     -2.090258   -1.223141    1.138349
  N     -3.333204   -1.542550    0.654344
  C     -3.474482   -1.056038   -0.619343
  C     -2.305618   -0.413988   -0.953059
  H      1.220754    1.697902   -0.253847
  H      0.011620    1.276729   -1.483568
  H     -0.492346    2.108165   -0.004625
  H      0.692862   -0.714594   -0.142417
  H     -0.258000    0.644279    2.107334
  H     -1.770702   -1.528274    2.120729
  H     -4.036424   -2.050126    1.161270
  H     -4.388198   -1.200121   -1.173311
  H     -2.106875    0.075606   -1.893943

 Total Charge           Charge          ....    0
 Multiplicity           Mult            ....    1
 Number of Electrons    NEL             ....   60
 Basis Dimension        Dim             ....  302

ORBITAL ENERGIES
----------------

  NO   OCC          E(Eh)            E(eV)
   0   2.0000     -20.546472      -559.0979
   1   2.0000     -15.605085      -424.6359
   2   2.0000     -11.278782      -306.9113
   3   2.0000     -11.254472      -306.2497
   4   2.0000     -11.248708      -306.0929
   5   2.0000     -11.213581      -305.1371
   6   2.0000     -11.211166      -305.0713
   7   2.0000     -11.210188      -305.0447
   8   2.0000      -1.352898       -36.8142
   9   2.0000      -1.291417       -35.1412
  10   2.0000      -1.064321       -28.9617
  11   2.0000      -0.999168       -27.1887
  12   2.0000      -0.974445       -26.5160
  13   2.0000      -0.853685       -23.2299
  14   2.0000      -0.790570       -21.5125
  15   2.0000      -0.751413       -20.4470
  16   2.0000      -0.737667       -20.0729
  17   2.0000      -0.651022       -17.7152
  18   2.0000      -0.624011       -16.9802
  19   2.0000      -0.595215       -16.1966
  20   2.0000      -0.582579       -15.8528
  21   2.0000      -0.572468       -15.5776
  22   2.0000      -0.567833       -15.4515
  23   2.0000      -0.552943       -15.0464
  24   2.0000      -0.521834       -14.1998
  25   2.0000      -0.512234       -13.9386
  26   2.0000      -0.475600       -12.9417
  27   2.0000      -0.443054       -12.0561
  28   2.0000      -0.343037        -9.3345
  29   2.0000      -0.298382        -8.1194
  30   0.0000       0.131859         3.5881
  31   0.0000       0.147663         4.0181
  32   0.0000       0.161096         4.3836
  33   0.0000       0.174328         4.7437
  34   0.0000       0.184385         5.0174

MULLIKEN ATOMIC CHARGES
-----------------------
   0 C :   -0.374201
   1 C :    0.141037
   2 O :   -0.475350
   3 C :   -0.005802
   4 C :   -0.162903
   5 N :   -0.247076
   6 C :   -0.056729
   7 C :   -0.279215
   8 H :    0.140203
   9 H :    0.118034
  10 H :    0.118088
  11 H :    0.101214
  12 H :    0.308762
  13 H :    0.157227
  14 H :    0.244190
  15 H :    0.146001
  16 H :    0.126517
Sum of atomic charges:    0.0000000

LOEWDIN ATOMIC CHARGES
----------------------
   0 C :   -0.295956
   1 C :   -0.332390
   2 O :   -0.022300
   3 C :   -0.187497
   4 C :   -0.217438
   5 N :    0.179706
   6 C :   -0.240347
   7 C :   -0.177675
   8 H :    0.124530
   9 H :    0.124331
  10 H :    0.122397
  11 H :    0.150407
  12 H :    0.173001
  13 H :    0.136754
  14 H :    0.190665
  15 H :    0.131710
  16 H :    0.140102

  Mayer bond orders larger than 0.1
B(  0-C ,  1-C ) :   0.9582 B(  0-C ,  8-H ) :   0.9385 B(  0-C ,  9-H ) :   0.9287
B(  0-C , 10-H ) :   0.9259 B(  1-C ,  2-O ) :   0.8948 B(  1-C ,  3-C ) :   0.9541
B(  1-C , 11-H ) :   0.8966 B(  2-O , 12-H ) :   0.8407 B(  3-C ,  4-C ) :   1.4713
B(  3-C ,  7-C ) :   1.2326 B(  4-C ,  5-N ) :   1.1524 B(  4-C , 13-H ) :   0.8953
B(  5-N ,  6-C ) :   1.1247 B(  5-N , 14-H ) :   0.8781 B(  6-C ,  7-C ) :   1.4997
B(  6-C , 15-H ) :   0.9181 B(  7-C , 16-H ) :   0.9312

MP2 TOTAL ENERGY:     -363.278666567 Eh
FINAL SINGLE POINT ENERGY      -363.278666567200

DIPOLE MOMENT
-------------
                                X             Y             Z
Electronic contribution:     -2.87618      -3.64496       2.04602
Nuclear contribution   :      1.81986       3.50131      -1.96665
                        -----------------------------------------
Total Dipole Moment    :     -1.05633      -0.14365       0.07937
                        -----------------------------------------
Magnitude (a.u.)       :      1.06900
Magnitude (Debye)      :      2.71718

                             ****ORCA TERMINATED NORMALLY****
TOTAL RUN TIME: 0 days 0 hours 11 minutes 42 seconds 448 msec
