                         Program Version 3.0.3 - RELEASE   -
|  1> ! RI-MP2 RIJK def2-TZVP def2-TZVP/C def2-TZVP/JK TIGHTSCF
|  2> % maxcore 2000
|  3> % mp2 density relaxed end
|  4> *xyz 0 1
|  5>  C        0.0238550698    -1.2342796318    -0.1353147347
|  6>  C       -0.0218228870    -0.0335102299    -0.1174171378
|  7>  C       -0.0385067704     1.4224416076    -0.0866576668
|  8>  C        1.3722068415     2.0191505516     0.1574781440
|  9>  C        1.3613601282     3.5088660709     0.1955078798
| 10>  C        1.6508876240     4.4284433729     1.1569459011
| 11>  C        1.4144788752     5.6714325560     0.5121878371
| 12>  N        1.0155767272     5.5214454291    -0.7259249212
| 13>  O        0.9810388278     4.1428894112    -0.9309756107
| 14>  H        0.0468501286    -2.2956259474    -0.1570881869
| 15>  H       -0.4321270116     1.8145111080    -1.0309999970
| 16>  H       -0.7183338961     1.7715228164     0.6999469317
| 17>  H        1.7719856235     1.6449792177     1.1030928502
| 18>  H        2.0428092569     1.6737185895    -0.6367901121
| 19>  H        1.9829221743     4.2478456887     2.1654855293
| 20>  H        1.5223117782     6.6712611193     0.9088690141
| 21> *
| 22>
| 23>                          ****END OF INPUT****

CARTESIAN COORDINATES (ANGSTROEM)
---------------------------------
  C      0.023855   -1.234280   -0.135315
  C     -0.021823   -0.033510   -0.117417
  C     -0.038507    1.422442   -0.086658
  C      1.372207    2.019151    0.157478
  C      1.361360    3.508866    0.195508
  C      1.650888    4.428443    1.156946
  C      1.414479    5.671433    0.512188
  N      1.015577    5.521445   -0.725925
  O      0.981039    4.142889   -0.930976
  H      0.046850   -2.295626   -0.157088
  H     -0.432127    1.814511   -1.031000
  H     -0.718334    1.771523    0.699947
  H      1.771986    1.644979    1.103093
  H      2.042809    1.673719   -0.636790
  H      1.982922    4.247846    2.165486
  H      1.522312    6.671261    0.908869

 Total Charge           Charge          ....    0
 Multiplicity           Mult            ....    1
 Number of Electrons    NEL             ....   64
 Basis Dimension        Dim             ....  321

ORBITAL ENERGIES
----------------

  NO   OCC          E(Eh)            E(eV)
   0   2.0000     -20.643974      -561.7511
   1   2.0000     -15.622268      -425.1035
   2   2.0000     -11.322815      -308.1095
   3   2.0000     -11.282138      -307.0026
   4   2.0000     -11.268397      -306.6287
   5   2.0000     -11.263501      -306.4955
   6   2.0000     -11.241428      -305.8948
   7   2.0000     -11.238992      -305.8285
   8   2.0000     -11.228747      -305.5497
   9   2.0000      -1.494358       -40.6635
  10   2.0000      -1.170077       -31.8394
  11   2.0000      -1.115920       -30.3657
  12   2.0000      -1.068802       -29.0836
  13   2.0000      -1.005396       -27.3582
  14   2.0000      -0.912921       -24.8418
  15   2.0000      -0.831066       -22.6145
  16   2.0000      -0.795200       -21.6385
  17   2.0000      -0.730346       -19.8737
  18   2.0000      -0.710190       -19.3252
  19   2.0000      -0.668504       -18.1909
  20   2.0000      -0.651149       -17.7187
  21   2.0000      -0.638140       -17.3647
  22   2.0000      -0.614725       -16.7275
  23   2.0000      -0.572239       -15.5714
  24   2.0000      -0.561156       -15.2698
  25   2.0000      -0.555448       -15.1145
  26   2.0000      -0.535433       -14.5699
  27   2.0000      -0.478082       -13.0093
  28   2.0000      -0.429888       -11.6978
  29   2.0000      -0.397759       -10.8236
  30   2.0000      -0.393989       -10.7210
  31   2.0000      -0.360783        -9.8174
  32   0.0000       0.114804         3.1240
  33   0.0000       0.137640         3.7454
  34   0.0000       0.161299         4.3892
  35   0.0000       0.164967         4.4890
  36   0.0000       0.171324         4.6620

MULLIKEN ATOMIC CHARGES
-----------------------
   0 C :   -0.118435
   1 C :   -0.024055
   2 C :   -0.384163
   3 C :   -0.207841
   4 C :    0.166533
   5 C :   -0.222053
   6 C :   -0.079538
   7 N :   -0.123043
   8 O :   -0.111591
   9 H :    0.192957
  10 H :    0.166097
  11 H :    0.151143
  12 H :    0.144554
  13 H :    0.146293
  14 H :    0.152942
  15 H :    0.150201
Sum of atomic charges:    0.0000000

LOEWDIN ATOMIC CHARGES
----------------------
   0 C :   -0.101571
   1 C :   -0.113461
   2 C :   -0.236535
   3 C :   -0.208537
   4 C :   -0.275905
   5 C :   -0.175801
   6 C :   -0.269910
   7 N :    0.034246
   8 O :    0.293436
   9 H :    0.127151
  10 H :    0.162106
  11 H :    0.159527
  12 H :    0.156879
  13 H :    0.157852
  14 H :    0.148306
  15 H :    0.142218

  Mayer bond orders larger than 0.1
B(  0-C ,  1-C ) :   2.6228 B(  0-C ,  2-C ) :  -0.1073 B(  0-C ,  9-H ) :   0.8936
B(  1-C ,  2-C ) :   1.0765 B(  2-C ,  3-C ) :   0.9164 B(  2-C , 10-H ) :   0.9279
B(  2-C , 11-H ) :   0.9239 B(  3-C ,  4-C ) :   0.8840 B(  3-C , 12-H ) :   0.9437
B(  3-C , 13-H ) :   0.9154 B(  4-C ,  5-C ) :   1.5136 B(  4-C ,  8-O ) :   1.0997
B(  5-C ,  6-C ) :   1.2328 B(  5-C , 14-H ) :   0.9136 B(  6-C ,  7-N ) :   1.5943
B(  6-C , 15-H ) :   0.9262 B(  7-N ,  8-O ) :   0.8875

MP2 TOTAL ENERGY:     -400.005791815 Eh
FINAL SINGLE POINT ENERGY      -400.005791814740

DIPOLE MOMENT
-------------
                                X             Y             Z
Electronic contribution:      0.19915       3.89455      -1.96874
Nuclear contribution   :      0.12056      -4.30989       2.94253
                        -----------------------------------------
Total Dipole Moment    :      0.31971      -0.41533       0.97379
                        -----------------------------------------
Magnitude (a.u.)       :      1.10588
Magnitude (Debye)      :      2.81093

                             ****ORCA TERMINATED NORMALLY****
TOTAL RUN TIME: 0 days 0 hours 14 minutes 5 seconds 54 msec
