                         Program Version 3.0.3 - RELEASE   -
|  1> ! RI-MP2 RIJK def2-TZVP def2-TZVP/C def2-TZVP/JK TIGHTSCF
|  2> % maxcore 2000
|  3> % mp2 density relaxed end
|  4> *xyz 0 1
|  5>  C       -0.1715470866     1.5527384778    -0.0552026854
|  6>  C       -0.0596062272     0.0255507415    -0.0122392944
|  7>  C       -1.4454737726    -0.5469996725     0.3164986034
|  8>  O       -1.8891921176    -0.1358760445     1.6066383024
|  9>  C        0.7921774004    -0.6280103071    -1.1784965387
| 10>  C        2.0657103409    -0.2042151573    -0.3770392626
| 11>  C        1.1379586161    -0.5658873817     0.8029238265
| 12>  O        0.9677960293    -1.9912020292     0.6501278860
| 13>  C        0.7650986063    -2.1093575321    -0.7820177985
| 14>  H        0.7850027064     2.0741554756    -0.1073474646
| 15>  H       -0.7637726039     1.8620443360    -0.9245201554
| 16>  H       -0.6970308154     1.8956889215     0.8398814353
| 17>  H       -2.1826908961    -0.1531751299    -0.3929660509
| 18>  H       -1.4632940362    -1.6373928407     0.2443506812
| 19>  H       -1.3891020249    -0.6445614057     2.2528907885
| 20>  H        0.6416991598    -0.3768756085    -2.2284419491
| 21>  H        2.9584379813    -0.8233560107    -0.4912267838
| 22>  H        2.3212440434     0.8483276006    -0.4614761070
| 23>  H        1.3473761755    -0.3340779112     1.8471950375
| 24>  H       -0.1770368151    -2.6262460654    -0.9892884164
| 25>  H        1.5833803561    -2.6841657266    -1.2318680442
| 26> *
| 27>
| 28>                          ****END OF INPUT****

CARTESIAN COORDINATES (ANGSTROEM)
---------------------------------
  C     -0.171547    1.552738   -0.055203
  C     -0.059606    0.025551   -0.012239
  C     -1.445474   -0.547000    0.316499
  O     -1.889192   -0.135876    1.606638
  C      0.792177   -0.628010   -1.178497
  C      2.065710   -0.204215   -0.377039
  C      1.137959   -0.565887    0.802924
  O      0.967796   -1.991202    0.650128
  C      0.765099   -2.109358   -0.782018
  H      0.785003    2.074155   -0.107347
  H     -0.763773    1.862044   -0.924520
  H     -0.697031    1.895689    0.839881
  H     -2.182691   -0.153175   -0.392966
  H     -1.463294   -1.637393    0.244351
  H     -1.389102   -0.644561    2.252891
  H      0.641699   -0.376876   -2.228442
  H      2.958438   -0.823356   -0.491227
  H      2.321244    0.848328   -0.461476
  H      1.347376   -0.334078    1.847195
  H     -0.177037   -2.626246   -0.989288
  H      1.583380   -2.684166   -1.231868

 Total Charge           Charge          ....    0
 Multiplicity           Mult            ....    1
 Number of Electrons    NEL             ....   70
 Basis Dimension        Dim             ....  351

ORBITAL ENERGIES
----------------

  NO   OCC          E(Eh)            E(eV)
   0   2.0000     -20.553590      -559.2916
   1   2.0000     -20.551709      -559.2404
   2   2.0000     -11.286316      -307.1163
   3   2.0000     -11.277025      -306.8635
   4   2.0000     -11.268719      -306.6374
   5   2.0000     -11.245363      -306.0019
   6   2.0000     -11.241762      -305.9039
   7   2.0000     -11.228904      -305.5540
   8   2.0000     -11.214378      -305.1587
   9   2.0000      -1.383223       -37.6394
  10   2.0000      -1.354416       -36.8555
  11   2.0000      -1.133864       -30.8540
  12   2.0000      -1.005911       -27.3722
  13   2.0000      -0.977735       -26.6055
  14   2.0000      -0.920744       -25.0547
  15   2.0000      -0.847967       -23.0743
  16   2.0000      -0.795260       -21.6401
  17   2.0000      -0.742312       -20.1993
  18   2.0000      -0.702067       -19.1042
  19   2.0000      -0.685904       -18.6644
  20   2.0000      -0.667481       -18.1631
  21   2.0000      -0.627204       -17.0671
  22   2.0000      -0.612246       -16.6601
  23   2.0000      -0.565228       -15.3806
  24   2.0000      -0.556241       -15.1361
  25   2.0000      -0.542493       -14.7620
  26   2.0000      -0.537567       -14.6279
  27   2.0000      -0.523612       -14.2482
  28   2.0000      -0.510440       -13.8898
  29   2.0000      -0.503083       -13.6896
  30   2.0000      -0.491327       -13.3697
  31   2.0000      -0.459928       -12.5153
  32   2.0000      -0.433385       -11.7930
  33   2.0000      -0.419108       -11.4045
  34   2.0000      -0.394843       -10.7442
  35   0.0000       0.137830         3.7506
  36   0.0000       0.150095         4.0843
  37   0.0000       0.164132         4.4663
  38   0.0000       0.167783         4.5656
  39   0.0000       0.181920         4.9503

MULLIKEN ATOMIC CHARGES
-----------------------
   0 C :   -0.444341
   1 C :   -0.015094
   2 C :   -0.049901
   3 O :   -0.482992
   4 C :   -0.064650
   5 C :   -0.297474
   6 C :    0.074359
   7 O :   -0.344707
   8 C :   -0.099634
   9 H :    0.125341
  10 H :    0.129849
  11 H :    0.161114
  12 H :    0.110797
  13 H :    0.128128
  14 H :    0.320987
  15 H :    0.137459
  16 H :    0.121409
  17 H :    0.127940
  18 H :    0.133055
  19 H :    0.114500
  20 H :    0.113852
Sum of atomic charges:    0.0000000

LOEWDIN ATOMIC CHARGES
----------------------
   0 C :   -0.267851
   1 C :   -0.243884
   2 C :   -0.299682
   3 O :   -0.044281
   4 C :   -0.177047
   5 C :   -0.199423
   6 C :   -0.241965
   7 O :    0.143223
   8 C :   -0.265933
   9 H :    0.121909
  10 H :    0.128271
  11 H :    0.135246
  12 H :    0.132471
  13 H :    0.125336
  14 H :    0.176256
  15 H :    0.137607
  16 H :    0.131554
  17 H :    0.134562
  18 H :    0.131007
  19 H :    0.119190
  20 H :    0.123432

  Mayer bond orders larger than 0.1
B(  0-C ,  1-C ) :   0.9019 B(  0-C ,  9-H ) :   0.9297 B(  0-C , 10-H ) :   0.9357
B(  0-C , 11-H ) :   0.9369 B(  1-C ,  2-C ) :   0.9308 B(  1-C ,  4-C ) :   0.8510
B(  1-C ,  6-C ) :   0.8924 B(  2-C ,  3-O ) :   0.9083 B(  2-C , 12-H ) :   0.9209
B(  2-C , 13-H ) :   0.9340 B(  3-O , 14-H ) :   0.8475 B(  4-C ,  5-C ) :   0.9172
B(  4-C ,  8-C ) :   0.9304 B(  4-C , 15-H ) :   0.8964 B(  5-C ,  6-C ) :   0.9418
B(  5-C , 16-H ) :   0.9202 B(  5-C , 17-H ) :   0.9268 B(  6-C ,  7-O ) :   0.9073
B(  6-C , 18-H ) :   0.8992 B(  7-O ,  8-C ) :   0.9189 B(  8-C , 19-H ) :   0.9378
B(  8-C , 20-H ) :   0.9185

MP2 TOTAL ENERGY:     -423.499813651 Eh
FINAL SINGLE POINT ENERGY      -423.499813650738

DIPOLE MOMENT
-------------
                                X             Y             Z
Electronic contribution:     -0.08721      -3.27327       2.61362
Nuclear contribution   :      0.53990       3.37669      -3.18195
                        -----------------------------------------
Total Dipole Moment    :      0.45269       0.10342      -0.56833
                        -----------------------------------------
Magnitude (a.u.)       :      0.73391
Magnitude (Debye)      :      1.86546

                             ****ORCA TERMINATED NORMALLY****
TOTAL RUN TIME: 0 days 0 hours 19 minutes 24 seconds 958 msec
