                         Program Version 3.0.3 - RELEASE   -
|  1> ! RI-MP2 RIJK def2-TZVP def2-TZVP/C def2-TZVP/JK TIGHTSCF
|  2> % maxcore 2000
|  3> % mp2 density relaxed end
|  4> *xyz 0 1
|  5>  C       -0.0999991819     1.4502768874    -0.0174663628
|  6>  O       -0.0011831545     0.0478325507     0.0014019016
|  7>  C       -1.2565837609    -0.5886478377     0.0207471740
|  8>  C       -1.0969185714    -2.0729871833     0.0495886101
|  9>  C        0.0411888707    -2.7664971548     0.0474113333
| 10>  C       -0.1872146156    -4.2624888982     0.0365763493
| 11>  C        0.7182894865    -5.0504083422     0.9898367430
| 12>  C       -1.6992782435    -4.3687078444     0.3741405791
| 13>  C       -2.3051342647    -2.9873258056     0.0285622737
| 14>  H        0.9168400760     1.8501215353    -0.0279503211
| 15>  H       -0.6331290670     1.8120756349    -0.9115190053
| 16>  H       -0.6245560224     1.8365217859     0.8714175169
| 17>  H       -1.8438946899    -0.2583305186     0.8994837044
| 18>  H       -1.8547016178    -0.2931393105    -0.8633039638
| 19>  H        1.0281651263    -2.3203224160     0.0207590802
| 20>  H       -0.0077292083    -4.6423956672    -0.9821410092
| 21>  H        0.5958033364    -4.7010644282     2.0211373568
| 22>  H        0.4822847506    -6.1199464109     0.9650702156
| 23>  H        1.7739147625    -4.9364482265     0.7208795414
| 24>  H       -2.1941364078    -5.1941981140    -0.1449127284
| 25>  H       -1.8071008142    -4.5523934688     1.4493518587
| 26>  H       -3.0883590861    -2.6808712245     0.7330631861
| 27>  H       -2.7726271428    -2.9828106128    -0.9672022339
| 28> *
| 29>
| 30>                          ****END OF INPUT****

CARTESIAN COORDINATES (ANGSTROEM)
---------------------------------
  C     -0.099999    1.450277   -0.017466
  O     -0.001183    0.047833    0.001402
  C     -1.256584   -0.588648    0.020747
  C     -1.096919   -2.072987    0.049589
  C      0.041189   -2.766497    0.047411
  C     -0.187215   -4.262489    0.036576
  C      0.718289   -5.050408    0.989837
  C     -1.699278   -4.368708    0.374141
  C     -2.305134   -2.987326    0.028562
  H      0.916840    1.850122   -0.027950
  H     -0.633129    1.812076   -0.911519
  H     -0.624556    1.836522    0.871418
  H     -1.843895   -0.258331    0.899484
  H     -1.854702   -0.293139   -0.863304
  H      1.028165   -2.320322    0.020759
  H     -0.007729   -4.642396   -0.982141
  H      0.595803   -4.701064    2.021137
  H      0.482285   -6.119946    0.965070
  H      1.773915   -4.936448    0.720880
  H     -2.194136   -5.194198   -0.144913
  H     -1.807101   -4.552393    1.449352
  H     -3.088359   -2.680871    0.733063
  H     -2.772627   -2.982811   -0.967202

 Total Charge           Charge          ....    0
 Multiplicity           Mult            ....    1
 Number of Electrons    NEL             ....   70
 Basis Dimension        Dim             ....  363

ORBITAL ENERGIES
----------------

  NO   OCC          E(Eh)            E(eV)
   0   2.0000     -20.554800      -559.3245
   1   2.0000     -11.278434      -306.9018
   2   2.0000     -11.270544      -306.6871
   3   2.0000     -11.222112      -305.3692
   4   2.0000     -11.221226      -305.3451
   5   2.0000     -11.219623      -305.3015
   6   2.0000     -11.214710      -305.1678
   7   2.0000     -11.207359      -304.9677
   8   2.0000     -11.205766      -304.9244
   9   2.0000      -1.377397       -37.4809
  10   2.0000      -1.133931       -30.8558
  11   2.0000      -1.025444       -27.9038
  12   2.0000      -0.977378       -26.5958
  13   2.0000      -0.936809       -25.4919
  14   2.0000      -0.896511       -24.3953
  15   2.0000      -0.853341       -23.2206
  16   2.0000      -0.768326       -20.9072
  17   2.0000      -0.704359       -19.1666
  18   2.0000      -0.669064       -18.2062
  19   2.0000      -0.664653       -18.0861
  20   2.0000      -0.649173       -17.6649
  21   2.0000      -0.625501       -17.0207
  22   2.0000      -0.587594       -15.9892
  23   2.0000      -0.570044       -15.5117
  24   2.0000      -0.554906       -15.0998
  25   2.0000      -0.551069       -14.9953
  26   2.0000      -0.517871       -14.0920
  27   2.0000      -0.508025       -13.8241
  28   2.0000      -0.481730       -13.1085
  29   2.0000      -0.477140       -12.9836
  30   2.0000      -0.473602       -12.8874
  31   2.0000      -0.461251       -12.5513
  32   2.0000      -0.450664       -12.2632
  33   2.0000      -0.425078       -11.5669
  34   2.0000      -0.328577        -8.9410
  35   0.0000       0.137163         3.7324
  36   0.0000       0.146681         3.9914
  37   0.0000       0.158420         4.3108
  38   0.0000       0.168314         4.5801
  39   0.0000       0.183373         4.9898

MULLIKEN ATOMIC CHARGES
-----------------------
   0 C :   -0.222064
   1 O :   -0.290539
   2 C :   -0.084877
   3 C :    0.039034
   4 C :   -0.253597
   5 C :    0.067069
   6 C :   -0.416054
   7 C :   -0.262862
   8 C :   -0.199005
   9 H :    0.139707
  10 H :    0.110234
  11 H :    0.110368
  12 H :    0.100585
  13 H :    0.098488
  14 H :    0.135257
  15 H :    0.088536
  16 H :    0.123838
  17 H :    0.128912
  18 H :    0.128270
  19 H :    0.121202
  20 H :    0.105638
  21 H :    0.119767
  22 H :    0.112095
Sum of atomic charges:   -0.0000000

LOEWDIN ATOMIC CHARGES
----------------------
   0 C :   -0.361252
   1 O :    0.145697
   2 C :   -0.295215
   3 C :   -0.171841
   4 C :   -0.113645
   5 C :   -0.257757
   6 C :   -0.296955
   7 C :   -0.215527
   8 C :   -0.213694
   9 H :    0.113643
  10 H :    0.101088
  11 H :    0.101146
  12 H :    0.128272
  13 H :    0.128351
  14 H :    0.143825
  15 H :    0.152367
  16 H :    0.122337
  17 H :    0.122031
  18 H :    0.122263
  19 H :    0.130486
  20 H :    0.139435
  21 H :    0.135414
  22 H :    0.139530

  Mayer bond orders larger than 0.1
B(  0-C ,  1-O ) :   0.9191 B(  0-C ,  9-H ) :   0.9403 B(  0-C , 10-H ) :   0.9362
B(  0-C , 11-H ) :   0.9363 B(  1-O ,  2-C ) :   0.9896 B(  2-C ,  3-C ) :   0.9396
B(  2-C , 12-H ) :   0.9281 B(  2-C , 13-H ) :   0.9077 B(  3-C ,  4-C ) :   1.7605
B(  3-C ,  8-C ) :   0.9141 B(  4-C ,  5-C ) :   0.9010 B(  4-C , 14-H ) :   0.9205
B(  5-C ,  6-C ) :   0.8977 B(  5-C ,  7-C ) :   0.9347 B(  5-C , 15-H ) :   0.9150
B(  6-C , 16-H ) :   0.9344 B(  6-C , 17-H ) :   0.9396 B(  6-C , 18-H ) :   0.9401
B(  7-C ,  8-C ) :   0.9487 B(  7-C , 19-H ) :   0.9346 B(  7-C , 20-H ) :   0.9244
B(  8-C , 21-H ) :   0.9302 B(  8-C , 22-H ) :   0.9013

MP2 TOTAL ENERGY:     -387.613841560 Eh
FINAL SINGLE POINT ENERGY      -387.613841559931

DIPOLE MOMENT
-------------
                                X             Y             Z
Electronic contribution:      0.58611       2.16008      -1.28816
Nuclear contribution   :     -0.98809      -1.88648       1.23642
                        -----------------------------------------
Total Dipole Moment    :     -0.40198       0.27360      -0.05174
                        -----------------------------------------
Magnitude (a.u.)       :      0.48901
Magnitude (Debye)      :      1.24296

                             ****ORCA TERMINATED NORMALLY****
TOTAL RUN TIME: 0 days 0 hours 17 minutes 42 seconds 475 msec
