                         Program Version 3.0.3 - RELEASE   -
|  1> ! RI-MP2 RIJK def2-TZVP def2-TZVP/C def2-TZVP/JK TIGHTSCF
|  2> % maxcore 2000
|  3> % mp2 density relaxed end
|  4> *xyz 0 1
|  5>  C        0.0770419637     1.5331092408     0.1111657144
|  6>  C       -0.0802279552     0.0475903496    -0.0269156398
|  7>  C       -0.9914375425    -0.7635151831     0.8067226985
|  8>  N        0.4700129769    -0.9314450724     1.0049549673
|  9>  C        1.0036607711    -1.7691596608    -0.1386484789
| 10>  C        0.3180442912    -3.0844144590    -0.5015637517
| 11>  O       -0.7748727573    -2.7493538917    -1.3600257194
| 12>  C       -0.4254256312    -1.5799002133    -2.1057296078
| 13>  C        0.5004575737    -0.7622908427    -1.2034089064
| 14>  H        1.0983410128     1.8493952992    -0.1291210294
| 15>  H       -0.6062005817     2.0625850830    -0.5640395377
| 16>  H       -0.1441547264     1.8512344077     1.1340504946
| 17>  H       -1.4481268209    -0.2563878540     1.6520795811
| 18>  H       -1.5832437579    -1.5670213555     0.3842201159
| 19>  H        2.0830300707    -1.8706103081    -0.0229284745
| 20>  H        1.0293162952    -3.7447150164    -1.0231135871
| 21>  H       -0.0874648354    -3.6223765935     0.3605772509
| 22>  H        0.0950260137    -1.8602979555    -3.0354150532
| 23>  H       -1.3576409132    -1.0714826305    -2.3699038573
| 24>  H        1.2722341426    -0.2218130438    -1.7527357595
| 25> *
| 26>
| 27>                          ****END OF INPUT****

CARTESIAN COORDINATES (ANGSTROEM)
---------------------------------
  C      0.077042    1.533109    0.111166
  C     -0.080228    0.047590   -0.026916
  C     -0.991438   -0.763515    0.806723
  N      0.470013   -0.931445    1.004955
  C      1.003661   -1.769160   -0.138648
  C      0.318044   -3.084414   -0.501564
  O     -0.774873   -2.749354   -1.360026
  C     -0.425426   -1.579900   -2.105730
  C      0.500458   -0.762291   -1.203409
  H      1.098341    1.849395   -0.129121
  H     -0.606201    2.062585   -0.564040
  H     -0.144155    1.851234    1.134050
  H     -1.448127   -0.256388    1.652080
  H     -1.583244   -1.567021    0.384220
  H      2.083030   -1.870610   -0.022928
  H      1.029316   -3.744715   -1.023114
  H     -0.087465   -3.622377    0.360577
  H      0.095026   -1.860298   -3.035415
  H     -1.357641   -1.071483   -2.369904
  H      1.272234   -0.221813   -1.752736

 Total Charge           Charge          ....    0
 Multiplicity           Mult            ....    1
 Number of Electrons    NEL             ....   68
 Basis Dimension        Dim             ....  345

ORBITAL ENERGIES
----------------

  NO   OCC          E(Eh)            E(eV)
   0   2.0000     -20.554100      -559.3055
   1   2.0000     -15.554030      -423.2467
   2   2.0000     -11.277915      -306.8877
   3   2.0000     -11.275268      -306.8156
   4   2.0000     -11.267196      -306.5960
   5   2.0000     -11.259735      -306.3930
   6   2.0000     -11.247622      -306.0633
   7   2.0000     -11.237285      -305.7821
   8   2.0000     -11.223380      -305.4037
   9   2.0000      -1.378849       -37.5204
  10   2.0000      -1.280979       -34.8572
  11   2.0000      -1.038190       -28.2506
  12   2.0000      -1.020704       -27.7748
  13   2.0000      -0.979002       -26.6400
  14   2.0000      -0.885171       -24.0867
  15   2.0000      -0.849210       -23.1082
  16   2.0000      -0.778700       -21.1895
  17   2.0000      -0.718951       -19.5637
  18   2.0000      -0.703484       -19.1428
  19   2.0000      -0.686633       -18.6842
  20   2.0000      -0.625087       -17.0095
  21   2.0000      -0.600916       -16.3518
  22   2.0000      -0.592199       -16.1146
  23   2.0000      -0.576919       -15.6988
  24   2.0000      -0.565503       -15.3881
  25   2.0000      -0.555020       -15.1029
  26   2.0000      -0.543828       -14.7983
  27   2.0000      -0.516994       -14.0681
  28   2.0000      -0.491811       -13.3828
  29   2.0000      -0.476847       -12.9757
  30   2.0000      -0.438981       -11.9453
  31   2.0000      -0.429355       -11.6833
  32   2.0000      -0.396109       -10.7787
  33   2.0000      -0.359195        -9.7742
  34   0.0000       0.134204         3.6519
  35   0.0000       0.157470         4.2850
  36   0.0000       0.169962         4.6249
  37   0.0000       0.175277         4.7695
  38   0.0000       0.190073         5.1722

MULLIKEN ATOMIC CHARGES
-----------------------
   0 C :   -0.427797
   1 C :    0.086654
   2 C :   -0.197185
   3 N :   -0.249401
   4 C :   -0.062005
   5 C :   -0.058681
   6 O :   -0.336464
   7 C :   -0.055187
   8 C :   -0.077763
   9 H :    0.129272
  10 H :    0.132671
  11 H :    0.141020
  12 H :    0.123824
  13 H :    0.157866
  14 H :    0.120077
  15 H :    0.102712
  16 H :    0.129340
  17 H :    0.100032
  18 H :    0.118404
  19 H :    0.122609
Sum of atomic charges:   -0.0000000

LOEWDIN ATOMIC CHARGES
----------------------
   0 C :   -0.272395
   1 C :   -0.253195
   2 C :   -0.223988
   3 N :    0.124302
   4 C :   -0.223517
   5 C :   -0.290409
   6 O :    0.132782
   7 C :   -0.283942
   8 C :   -0.178676
   9 H :    0.128127
  10 H :    0.130576
  11 H :    0.134213
  12 H :    0.133381
  13 H :    0.134628
  14 H :    0.143964
  15 H :    0.125651
  16 H :    0.134209
  17 H :    0.122180
  18 H :    0.130759
  19 H :    0.151350

  Mayer bond orders larger than 0.1
B(  0-C ,  1-C ) :   0.8720 B(  0-C ,  9-H ) :   0.9392 B(  0-C , 10-H ) :   0.9372
B(  0-C , 11-H ) :   0.9382 B(  1-C ,  2-C ) :   0.9654 B(  1-C ,  3-N ) :   0.8205
B(  1-C ,  8-C ) :   0.8517 B(  2-C ,  3-N ) :   0.8992 B(  2-C , 12-H ) :   0.9236
B(  2-C , 13-H ) :   0.8897 B(  3-N ,  4-C ) :   0.9677 B(  4-C ,  5-C ) :   0.9699
B(  4-C ,  8-C ) :   0.9572 B(  4-C , 14-H ) :   0.9102 B(  5-C ,  6-O ) :   0.8984
B(  5-C , 15-H ) :   0.9229 B(  5-C , 16-H ) :   0.9203 B(  6-O ,  7-C ) :   0.9125
B(  7-C ,  8-C ) :   0.9744 B(  7-C , 17-H ) :   0.9236 B(  7-C , 18-H ) :   0.9192
B(  8-C , 19-H ) :   0.9183

MP2 TOTAL ENERGY:     -402.417952260 Eh
FINAL SINGLE POINT ENERGY      -402.417952259507

DIPOLE MOMENT
-------------
                                X             Y             Z
Electronic contribution:     -0.16331      -3.41196       0.40211
Nuclear contribution   :      0.37258       3.76939      -0.93307
                        -----------------------------------------
Total Dipole Moment    :      0.20927       0.35742      -0.53096
                        -----------------------------------------
Magnitude (a.u.)       :      0.67340
Magnitude (Debye)      :      1.71164

                             ****ORCA TERMINATED NORMALLY****
TOTAL RUN TIME: 0 days 0 hours 20 minutes 38 seconds 757 msec
