                         Program Version 3.0.3 - RELEASE   -
|  1> ! RI-MP2 RIJK def2-TZVP def2-TZVP/C def2-TZVP/JK TIGHTSCF
|  2> % maxcore 2000
|  3> % mp2 density relaxed end
|  4> *xyz 0 1
|  5>  C        0.2776080746     1.4437875792     0.2426097982
|  6>  C       -0.0018219576    -0.0546300233     0.0135423679
|  7>  N        0.4805310681    -0.7850512605     1.1949442527
|  8>  C       -1.4688715724    -0.2472233274    -0.1428740234
|  9>  N       -2.6090845112    -0.4254123805    -0.2229099166
| 10>  C        0.7066996823    -0.5540776373    -1.2682282381
| 11>  C        0.1578560617     0.0067982432    -2.5696586355
| 12>  C        2.1936755219    -0.7942529705    -1.1884365801
| 13>  C        1.2478456866    -1.9639993202    -1.3174232811
| 14>  H        1.3515033837     1.5842954476     0.3845487032
| 15>  H       -0.0541740233     2.0456614135    -0.6043639639
| 16>  H       -0.2484232099     1.8014649115     1.1329680320
| 17>  H        0.1478031576    -0.3229080688     2.0359023927
| 18>  H        0.0910968185    -1.7223716567     1.2122420757
| 19>  H        0.2564532086     1.0962290552    -2.6234252023
| 20>  H        0.7072074428    -0.4101348137    -3.4182307512
| 21>  H       -0.8998062690    -0.2430011895    -2.7012328091
| 22>  H        2.7953698791    -0.5095429786    -2.0448826231
| 23>  H        2.6721705339    -0.6672474792    -0.2248675812
| 24>  H        1.1491070176    -2.6101338075    -0.4538865179
| 25>  H        1.1827840965    -2.4843853766    -2.2667757889
| 26> *
| 27>
| 28>                          ****END OF INPUT****

CARTESIAN COORDINATES (ANGSTROEM)
---------------------------------
  C      0.277608    1.443788    0.242610
  C     -0.001822   -0.054630    0.013542
  N      0.480531   -0.785051    1.194944
  C     -1.468872   -0.247223   -0.142874
  N     -2.609085   -0.425412   -0.222910
  C      0.706700   -0.554078   -1.268228
  C      0.157856    0.006798   -2.569659
  C      2.193676   -0.794253   -1.188437
  C      1.247846   -1.963999   -1.317423
  H      1.351503    1.584295    0.384549
  H     -0.054174    2.045661   -0.604364
  H     -0.248423    1.801465    1.132968
  H      0.147803   -0.322908    2.035902
  H      0.091097   -1.722372    1.212242
  H      0.256453    1.096229   -2.623425
  H      0.707207   -0.410135   -3.418231
  H     -0.899806   -0.243001   -2.701233
  H      2.795370   -0.509543   -2.044883
  H      2.672171   -0.667247   -0.224868
  H      1.149107   -2.610134   -0.453887
  H      1.182784   -2.484385   -2.266776

 Total Charge           Charge          ....    0
 Multiplicity           Mult            ....    1
 Number of Electrons    NEL             ....   68
 Basis Dimension        Dim             ....  351

ORBITAL ENERGIES
----------------

  NO   OCC          E(Eh)            E(eV)
   0   2.0000     -15.568783      -423.6481
   1   2.0000     -15.567258      -423.6066
   2   2.0000     -11.321247      -308.0668
   3   2.0000     -11.266440      -306.5754
   4   2.0000     -11.256187      -306.2964
   5   2.0000     -11.240302      -305.8642
   6   2.0000     -11.232504      -305.6520
   7   2.0000     -11.229312      -305.5651
   8   2.0000     -11.225836      -305.4705
   9   2.0000      -1.244208       -33.8566
  10   2.0000      -1.202708       -32.7274
  11   2.0000      -1.150484       -31.3063
  12   2.0000      -1.034863       -28.1601
  13   2.0000      -0.968528       -26.3550
  14   2.0000      -0.900116       -24.4934
  15   2.0000      -0.832790       -22.6614
  16   2.0000      -0.777172       -21.1479
  17   2.0000      -0.707455       -19.2508
  18   2.0000      -0.700034       -19.0489
  19   2.0000      -0.649270       -17.6675
  20   2.0000      -0.633890       -17.2490
  21   2.0000      -0.596485       -16.2312
  22   2.0000      -0.573975       -15.6186
  23   2.0000      -0.563605       -15.3365
  24   2.0000      -0.555362       -15.1122
  25   2.0000      -0.548805       -14.9337
  26   2.0000      -0.541723       -14.7410
  27   2.0000      -0.518744       -14.1157
  28   2.0000      -0.507175       -13.8009
  29   2.0000      -0.472918       -12.8687
  30   2.0000      -0.458587       -12.4788
  31   2.0000      -0.431024       -11.7288
  32   2.0000      -0.418157       -11.3786
  33   2.0000      -0.410580       -11.1724
  34   0.0000       0.122393         3.3305
  35   0.0000       0.146010         3.9731
  36   0.0000       0.155039         4.2188
  37   0.0000       0.172423         4.6919
  38   0.0000       0.178428         4.8553

MULLIKEN ATOMIC CHARGES
-----------------------
   0 C :   -0.426434
   1 C :    0.291611
   2 N :   -0.547722
   3 C :   -0.268626
   4 N :   -0.049794
   5 C :    0.147419
   6 C :   -0.446176
   7 C :   -0.259848
   8 C :   -0.332094
   9 H :    0.156775
  10 H :    0.143195
  11 H :    0.143169
  12 H :    0.236775
  13 H :    0.240151
  14 H :    0.133064
  15 H :    0.135487
  16 H :    0.162902
  17 H :    0.133977
  18 H :    0.144385
  19 H :    0.126488
  20 H :    0.135297
Sum of atomic charges:    0.0000000

LOEWDIN ATOMIC CHARGES
----------------------
   0 C :   -0.241019
   1 C :   -0.332060
   2 N :   -0.088195
   3 C :   -0.160535
   4 N :    0.057712
   5 C :   -0.232602
   6 C :   -0.256577
   7 C :   -0.202235
   8 C :   -0.203191
   9 H :    0.135769
  10 H :    0.132782
  11 H :    0.129508
  12 H :    0.163286
  13 H :    0.162210
  14 H :    0.126017
  15 H :    0.132542
  16 H :    0.135830
  17 H :    0.133371
  18 H :    0.140332
  19 H :    0.132246
  20 H :    0.134807

  Mayer bond orders larger than 0.1
B(  0-C ,  1-C ) :   0.8887 B(  0-C ,  9-H ) :   0.9402 B(  0-C , 10-H ) :   0.9317
B(  0-C , 11-H ) :   0.9250 B(  1-C ,  2-N ) :   0.8870 B(  1-C ,  3-C ) :   0.9196
B(  1-C ,  5-C ) :   0.8859 B(  2-N , 12-H ) :   0.8906 B(  2-N , 13-H ) :   0.8892
B(  3-C ,  4-N ) :   2.8894 B(  5-C ,  6-C ) :   0.9123 B(  5-C ,  7-C ) :   0.8449
B(  5-C ,  8-C ) :   0.8523 B(  6-C , 14-H ) :   0.9370 B(  6-C , 15-H ) :   0.9280
B(  6-C , 16-H ) :   0.9311 B(  7-C ,  8-C ) :   0.9129 B(  7-C , 17-H ) :   0.9285
B(  7-C , 18-H ) :   0.9136 B(  8-C , 19-H ) :   0.9255 B(  8-C , 20-H ) :   0.9275

MP2 TOTAL ENERGY:     -382.603451395 Eh
FINAL SINGLE POINT ENERGY      -382.603451395431

DIPOLE MOMENT
-------------
                                X             Y             Z
Electronic contribution:     -5.99364      -1.59632       2.68172
Nuclear contribution   :      7.04915       1.82230      -2.54413
                        -----------------------------------------
Total Dipole Moment    :      1.05551       0.22598       0.13759
                        -----------------------------------------
Magnitude (a.u.)       :      1.08816
Magnitude (Debye)      :      2.76589

                             ****ORCA TERMINATED NORMALLY****
TOTAL RUN TIME: 0 days 0 hours 25 minutes 45 seconds 672 msec
