                         Program Version 3.0.3 - RELEASE   -
|  1> ! RI-MP2 RIJK def2-TZVP def2-TZVP/C def2-TZVP/JK TIGHTSCF
|  2> % maxcore 2000
|  3> % mp2 density relaxed end
|  4> *xyz 0 1
|  5>  C       -0.0335241848     1.4785416564     0.1794328438
|  6>  C        0.0963973528    -0.0338321556     0.1482648370
|  7>  C        0.5836401906    -0.6367891584    -1.1728838276
|  8>  C        1.1678445778    -1.9828718924    -0.7183596970
|  9>  C        1.6313480524    -1.6979885029     0.7367706781
| 10>  O        1.0981977279    -0.4267896520     1.0957740769
| 11>  C        1.1785279258    -2.7770382465     1.7013595401
| 12>  C        0.6096464631    -2.4647540294     3.0148816401
| 13>  O       -0.2295329387    -2.8661697047     1.9223048846
| 14>  H        0.9168727592     1.9500605057    -0.0896960174
| 15>  H       -0.8018556971     1.8097647245    -0.5262920935
| 16>  H       -0.3167678442     1.8220937661     1.1783417991
| 17>  H       -0.8610605581    -0.4982768473     0.4292677786
| 18>  H       -0.2155699968    -0.7441649448    -1.9107492557
| 19>  H        1.3618544245     0.0040019868    -1.6031000276
| 20>  H        0.3915236007    -2.7537016679    -0.7158018239
| 21>  H        1.9864590820    -2.3328980155    -1.3509350306
| 22>  H        2.7262200038    -1.6256268515     0.7994674113
| 23>  H        1.6756265227    -3.7405486105     1.5643258315
| 24>  H        0.6916673957    -3.1874434796     3.8254962045
| 25>  H        0.5144613105    -1.4220189506     3.3039033079
| 26> *
| 27>
| 28>                          ****END OF INPUT****

CARTESIAN COORDINATES (ANGSTROEM)
---------------------------------
  C     -0.033524    1.478542    0.179433
  C      0.096397   -0.033832    0.148265
  C      0.583640   -0.636789   -1.172884
  C      1.167845   -1.982872   -0.718360
  C      1.631348   -1.697989    0.736771
  O      1.098198   -0.426790    1.095774
  C      1.178528   -2.777038    1.701360
  C      0.609646   -2.464754    3.014882
  O     -0.229533   -2.866170    1.922305
  H      0.916873    1.950061   -0.089696
  H     -0.801856    1.809765   -0.526292
  H     -0.316768    1.822094    1.178342
  H     -0.861061   -0.498277    0.429268
  H     -0.215570   -0.744165   -1.910749
  H      1.361854    0.004002   -1.603100
  H      0.391524   -2.753702   -0.715802
  H      1.986459   -2.332898   -1.350935
  H      2.726220   -1.625627    0.799467
  H      1.675627   -3.740549    1.564326
  H      0.691667   -3.187443    3.825496
  H      0.514461   -1.422019    3.303903

 Total Charge           Charge          ....    0
 Multiplicity           Mult            ....    1
 Number of Electrons    NEL             ....   70
 Basis Dimension        Dim             ....  351

ORBITAL ENERGIES
----------------

  NO   OCC          E(Eh)            E(eV)
   0   2.0000     -20.561993      -559.5203
   1   2.0000     -20.546876      -559.1089
   2   2.0000     -11.282658      -307.0167
   3   2.0000     -11.281397      -306.9824
   4   2.0000     -11.274759      -306.8018
   5   2.0000     -11.272186      -306.7318
   6   2.0000     -11.225960      -305.4739
   7   2.0000     -11.222241      -305.3727
   8   2.0000     -11.211520      -305.0810
   9   2.0000      -1.408092       -38.3161
  10   2.0000      -1.369983       -37.2791
  11   2.0000      -1.060088       -28.8465
  12   2.0000      -1.043086       -28.3838
  13   2.0000      -0.953085       -25.9348
  14   2.0000      -0.904785       -24.6205
  15   2.0000      -0.846422       -23.0323
  16   2.0000      -0.801203       -21.8018
  17   2.0000      -0.767569       -20.8866
  18   2.0000      -0.711989       -19.3742
  19   2.0000      -0.669665       -18.2225
  20   2.0000      -0.657599       -17.8942
  21   2.0000      -0.643677       -17.5153
  22   2.0000      -0.589413       -16.0387
  23   2.0000      -0.574782       -15.6406
  24   2.0000      -0.559335       -15.2203
  25   2.0000      -0.543743       -14.7960
  26   2.0000      -0.528309       -14.3760
  27   2.0000      -0.520592       -14.1660
  28   2.0000      -0.501886       -13.6570
  29   2.0000      -0.491297       -13.3689
  30   2.0000      -0.473683       -12.8896
  31   2.0000      -0.462692       -12.5905
  32   2.0000      -0.453554       -12.3418
  33   2.0000      -0.425782       -11.5861
  34   2.0000      -0.405836       -11.0434
  35   0.0000       0.139702         3.8015
  36   0.0000       0.151809         4.1309
  37   0.0000       0.168060         4.5731
  38   0.0000       0.173823         4.7300
  39   0.0000       0.193333         5.2609

MULLIKEN ATOMIC CHARGES
-----------------------
   0 C :   -0.373020
   1 C :    0.076589
   2 C :   -0.232261
   3 C :   -0.279355
   4 C :    0.153121
   5 O :   -0.332783
   6 C :   -0.026263
   7 C :   -0.076868
   8 O :   -0.350262
   9 H :    0.122068
  10 H :    0.123779
  11 H :    0.138103
  12 H :    0.085903
  13 H :    0.121861
  14 H :    0.109537
  15 H :    0.136650
  16 H :    0.126144
  17 H :    0.102242
  18 H :    0.123170
  19 H :    0.114873
  20 H :    0.136770
Sum of atomic charges:    0.0000000

LOEWDIN ATOMIC CHARGES
----------------------
   0 C :   -0.293730
   1 C :   -0.334082
   2 C :   -0.239275
   3 C :   -0.230584
   4 C :   -0.292957
   5 O :    0.194804
   6 C :   -0.287637
   7 C :   -0.258333
   8 O :    0.140901
   9 H :    0.124526
  10 H :    0.126994
  11 H :    0.126636
  12 H :    0.139343
  13 H :    0.137720
  14 H :    0.139213
  15 H :    0.145097
  16 H :    0.135260
  17 H :    0.144445
  18 H :    0.138831
  19 H :    0.117525
  20 H :    0.125302

  Mayer bond orders larger than 0.1
B(  0-C ,  1-C ) :   0.9079 B(  0-C ,  9-H ) :   0.9341 B(  0-C , 10-H ) :   0.9349
B(  0-C , 11-H ) :   0.9397 B(  1-C ,  2-C ) :   0.9538 B(  1-C ,  5-O ) :   0.9152
B(  1-C , 12-H ) :   0.9208 B(  2-C ,  3-C ) :   0.9302 B(  2-C , 13-H ) :   0.9245
B(  2-C , 14-H ) :   0.9229 B(  3-C ,  4-C ) :   0.9170 B(  3-C , 15-H ) :   0.9237
B(  3-C , 16-H ) :   0.9276 B(  4-C ,  5-O ) :   0.9289 B(  4-C ,  6-C ) :   0.9280
B(  4-C , 17-H ) :   0.9183 B(  6-C ,  7-C ) :   0.9919 B(  6-C ,  8-O ) :   0.8626
B(  6-C , 18-H ) :   0.9126 B(  7-C ,  8-O ) :   0.9055 B(  7-C , 19-H ) :   0.9261
B(  7-C , 20-H ) :   0.8967

MP2 TOTAL ENERGY:     -423.511531036 Eh
FINAL SINGLE POINT ENERGY      -423.511531035851

DIPOLE MOMENT
-------------
                                X             Y             Z
Electronic contribution:      0.32099      -4.10877       3.83996
Nuclear contribution   :      0.10683       4.07008      -4.15633
                        -----------------------------------------
Total Dipole Moment    :      0.42782      -0.03869      -0.31637
                        -----------------------------------------
Magnitude (a.u.)       :      0.53349
Magnitude (Debye)      :      1.35603

                             ****ORCA TERMINATED NORMALLY****
TOTAL RUN TIME: 0 days 0 hours 17 minutes 34 seconds 840 msec
