                         Program Version 3.0.3 - RELEASE   -
|  1> ! RI-MP2 RIJK def2-TZVP def2-TZVP/C def2-TZVP/JK TIGHTSCF
|  2> % maxcore 2000
|  3> % mp2 density relaxed end
|  4> *xyz 0 1
|  5>  C        0.3065300279     1.4721907184     0.3698769584
|  6>  C       -0.0329804618     0.0060352549     0.0323756965
|  7>  O        0.4014291285    -0.8631618845     1.0681286530
|  8>  C       -1.5296833328    -0.2096539217    -0.2790251321
|  9>  C       -2.4371425166     0.2972540243     0.8186164925
| 10>  C       -3.3873296768    -0.5763893209     1.5182170266
| 11>  O       -2.1573416744    -0.1998325469     2.1474772569
| 12>  C        0.8046788547    -0.3846608863    -1.1855608317
| 13>  O        0.4978553092    -0.1550490646    -2.3261767820
| 14>  H        1.3832896413     1.5774463067     0.5310517679
| 15>  H        0.0054933220     2.1451635886    -0.4387948916
| 16>  H       -0.1976775625     1.7723925133     1.2929291703
| 17>  H       -0.2693979911    -0.8282462167     1.7643054345
| 18>  H       -1.7746317917     0.2855978718    -1.2235224801
| 19>  H       -1.6828986875    -1.2841558278    -0.4237519687
| 20>  H       -2.6552046250     1.3645901145     0.8094505704
| 21>  H       -4.2804401847    -0.1551231630     1.9756094499
| 22>  H       -3.4607184740    -1.6226630315     1.2268335838
| 23>  H        1.7548822254    -0.8940056085    -0.9128741344
| 24> *
| 25>
| 26>                          ****END OF INPUT****

CARTESIAN COORDINATES (ANGSTROEM)
---------------------------------
  C      0.306530    1.472191    0.369877
  C     -0.032980    0.006035    0.032376
  O      0.401429   -0.863162    1.068129
  C     -1.529683   -0.209654   -0.279025
  C     -2.437143    0.297254    0.818616
  C     -3.387330   -0.576389    1.518217
  O     -2.157342   -0.199833    2.147477
  C      0.804679   -0.384661   -1.185561
  O      0.497855   -0.155049   -2.326177
  H      1.383290    1.577446    0.531052
  H      0.005493    2.145164   -0.438795
  H     -0.197678    1.772393    1.292929
  H     -0.269398   -0.828246    1.764305
  H     -1.774632    0.285598   -1.223522
  H     -1.682899   -1.284156   -0.423752
  H     -2.655205    1.364590    0.809451
  H     -4.280440   -0.155123    1.975609
  H     -3.460718   -1.622663    1.226834
  H      1.754882   -0.894006   -0.912874

 Total Charge           Charge          ....    0
 Multiplicity           Mult            ....    1
 Number of Electrons    NEL             ....   70
 Basis Dimension        Dim             ....  339

ORBITAL ENERGIES
----------------

  NO   OCC          E(Eh)            E(eV)
   0   2.0000     -20.589514      -560.2692
   1   2.0000     -20.560744      -559.4863
   2   2.0000     -20.557132      -559.3880
   3   2.0000     -11.329711      -308.2971
   4   2.0000     -11.307532      -307.6936
   5   2.0000     -11.305465      -307.6373
   6   2.0000     -11.302416      -307.5544
   7   2.0000     -11.245005      -305.9921
   8   2.0000     -11.231270      -305.6184
   9   2.0000      -1.429781       -38.9063
  10   2.0000      -1.402665       -38.1684
  11   2.0000      -1.369202       -37.2579
  12   2.0000      -1.080601       -29.4046
  13   2.0000      -0.997744       -27.1500
  14   2.0000      -0.932265       -25.3682
  15   2.0000      -0.908556       -24.7231
  16   2.0000      -0.837326       -22.7848
  17   2.0000      -0.761436       -20.7197
  18   2.0000      -0.719142       -19.5689
  19   2.0000      -0.691964       -18.8293
  20   2.0000      -0.684872       -18.6363
  21   2.0000      -0.655330       -17.8324
  22   2.0000      -0.629274       -17.1234
  23   2.0000      -0.620364       -16.8809
  24   2.0000      -0.596594       -16.2341
  25   2.0000      -0.569026       -15.4840
  26   2.0000      -0.557969       -15.1831
  27   2.0000      -0.538025       -14.6404
  28   2.0000      -0.531426       -14.4608
  29   2.0000      -0.519571       -14.1382
  30   2.0000      -0.514741       -14.0068
  31   2.0000      -0.477253       -12.9867
  32   2.0000      -0.467137       -12.7114
  33   2.0000      -0.437791       -11.9129
  34   2.0000      -0.411363       -11.1937
  35   0.0000       0.125742         3.4216
  36   0.0000       0.140650         3.8273
  37   0.0000       0.161106         4.3839
  38   0.0000       0.165784         4.5112
  39   0.0000       0.173634         4.7248

MULLIKEN ATOMIC CHARGES
-----------------------
   0 C :   -0.454845
   1 C :    0.297920
   2 O :   -0.483852
   3 C :   -0.338585
   4 C :    0.038999
   5 C :   -0.070811
   6 O :   -0.370554
   7 C :    0.084774
   8 O :   -0.269537
   9 H :    0.144383
  10 H :    0.143282
  11 H :    0.147626
  12 H :    0.338887
  13 H :    0.146659
  14 H :    0.139639
  15 H :    0.149750
  16 H :    0.126502
  17 H :    0.125789
  18 H :    0.103972
Sum of atomic charges:   -0.0000000

LOEWDIN ATOMIC CHARGES
----------------------
   0 C :   -0.265446
   1 C :   -0.406560
   2 O :    0.012225
   3 C :   -0.214673
   4 C :   -0.281618
   5 C :   -0.255564
   6 O :    0.120715
   7 C :   -0.243796
   8 O :    0.141396
   9 H :    0.132328
  10 H :    0.132116
  11 H :    0.130561
  12 H :    0.176805
  13 H :    0.158498
  14 H :    0.153690
  15 H :    0.141151
  16 H :    0.123261
  17 H :    0.123890
  18 H :    0.121021

  Mayer bond orders larger than 0.1
B(  0-C ,  1-C ) :   0.8868 B(  0-C ,  9-H ) :   0.9308 B(  0-C , 10-H ) :   0.9291
B(  0-C , 11-H ) :   0.9250 B(  1-C ,  2-O ) :   0.9558 B(  1-C ,  3-C ) :   0.8989
B(  1-C ,  7-C ) :   0.8167 B(  2-O , 12-H ) :   0.8086 B(  3-C ,  4-C ) :   0.9243
B(  3-C , 13-H ) :   0.9183 B(  3-C , 14-H ) :   0.9348 B(  4-C ,  5-C ) :   0.9890
B(  4-C ,  6-O ) :   0.7921 B(  4-C , 15-H ) :   0.9159 B(  5-C ,  6-O ) :   0.9030
B(  5-C , 16-H ) :   0.9285 B(  5-C , 17-H ) :   0.9039 B(  7-C ,  8-O ) :   1.9921
B(  7-C , 18-H ) :   0.9306

MP2 TOTAL ENERGY:     -459.416506417 Eh
FINAL SINGLE POINT ENERGY      -459.416506417144

DIPOLE MOMENT
-------------
                                X             Y             Z
Electronic contribution:      1.75274      -2.60806      -1.45314
Nuclear contribution   :     -2.77131       2.90998       1.85459
                        -----------------------------------------
Total Dipole Moment    :     -1.01857       0.30192       0.40145
                        -----------------------------------------
Magnitude (a.u.)       :      1.13570
Magnitude (Debye)      :      2.88671

                             ****ORCA TERMINATED NORMALLY****
TOTAL RUN TIME: 0 days 0 hours 17 minutes 57 seconds 501 msec
