                         Program Version 3.0.3 - RELEASE   -
|  1> ! RI-MP2 RIJK def2-TZVP def2-TZVP/C def2-TZVP/JK TIGHTSCF
|  2> % maxcore 2000
|  3> % mp2 density relaxed end
|  4> *xyz 0 1
|  5>  N        0.1546769763    -1.1343702526    -0.1997355894
|  6>  C        0.0571598712     0.0157894148    -0.1345104789
|  7>  C       -0.0554437342     1.4617229267    -0.0363008229
|  8>  C       -0.3170982096     2.1194352604     1.3851048890
|  9>  C        0.7025493223     3.2504994771     1.0025899360
| 10>  C        1.9788118632     3.6251906352     1.7834054042
| 11>  C        3.1313086319     3.3162505009     0.7679954232
| 12>  C        2.5312117484     2.2394651039    -0.1345526492
| 13>  C        1.2093403243     2.3013103540    -0.0469561778
| 14>  H       -0.8026359203     1.8168735845    -0.7545629589
| 15>  H       -1.3506541553     2.4047812777     1.5895680302
| 16>  H        0.0596649915     1.4763417750     2.1826525363
| 17>  H        0.1727965984     4.1244471683     0.6045512523
| 18>  H        1.9920573453     4.6594313005     2.1374164616
| 19>  H        2.0875719416     2.9751784247     2.6587175972
| 20>  H        3.4199181378     4.2122095999     0.2012913757
| 21>  H        4.0383266590     2.9642430057     1.2701982090
| 22>  H        3.1231251084     1.5100192632    -0.6736724876
| 23> *
| 24>
| 25>                          ****END OF INPUT****

CARTESIAN COORDINATES (ANGSTROEM)
---------------------------------
  N      0.154677   -1.134370   -0.199736
  C      0.057160    0.015789   -0.134510
  C     -0.055444    1.461723   -0.036301
  C     -0.317098    2.119435    1.385105
  C      0.702549    3.250499    1.002590
  C      1.978812    3.625191    1.783405
  C      3.131309    3.316251    0.767995
  C      2.531212    2.239465   -0.134553
  C      1.209340    2.301310   -0.046956
  H     -0.802636    1.816874   -0.754563
  H     -1.350654    2.404781    1.589568
  H      0.059665    1.476342    2.182653
  H      0.172797    4.124447    0.604551
  H      1.992057    4.659431    2.137416
  H      2.087572    2.975178    2.658718
  H      3.419918    4.212210    0.201291
  H      4.038327    2.964243    1.270198
  H      3.123125    1.510019   -0.673672

 Total Charge           Charge          ....    0
 Multiplicity           Mult            ....    1
 Number of Electrons    NEL             ....   64
 Basis Dimension        Dim             ....  333

ORBITAL ENERGIES
----------------

  NO   OCC          E(Eh)            E(eV)
   0   2.0000     -15.567389      -423.6102
   1   2.0000     -11.294358      -307.3351
   2   2.0000     -11.270870      -306.6960
   3   2.0000     -11.260585      -306.4161
   4   2.0000     -11.248193      -306.0789
   5   2.0000     -11.244481      -305.9779
   6   2.0000     -11.239508      -305.8426
   7   2.0000     -11.238883      -305.8256
   8   2.0000     -11.237347      -305.7838
   9   2.0000      -1.220306       -33.2062
  10   2.0000      -1.188499       -32.3407
  11   2.0000      -1.080022       -29.3889
  12   2.0000      -0.991467       -26.9792
  13   2.0000      -0.940504       -25.5924
  14   2.0000      -0.886211       -24.1150
  15   2.0000      -0.801394       -21.8070
  16   2.0000      -0.742674       -20.2092
  17   2.0000      -0.704917       -19.1818
  18   2.0000      -0.673500       -18.3269
  19   2.0000      -0.642873       -17.4935
  20   2.0000      -0.599146       -16.3036
  21   2.0000      -0.570944       -15.5362
  22   2.0000      -0.558228       -15.1902
  23   2.0000      -0.533771       -14.5247
  24   2.0000      -0.529888       -14.4190
  25   2.0000      -0.505581       -13.7576
  26   2.0000      -0.496387       -13.5074
  27   2.0000      -0.486072       -13.2267
  28   2.0000      -0.475692       -12.9442
  29   2.0000      -0.444905       -12.1065
  30   2.0000      -0.441777       -12.0214
  31   2.0000      -0.351303        -9.5594
  32   0.0000       0.122618         3.3366
  33   0.0000       0.135931         3.6989
  34   0.0000       0.142396         3.8748
  35   0.0000       0.148307         4.0357
  36   0.0000       0.159344         4.3360

MULLIKEN ATOMIC CHARGES
-----------------------
   0 N :   -0.052473
   1 C :   -0.231784
   2 C :    0.121526
   3 C :   -0.275779
   4 C :    0.001709
   5 C :   -0.271410
   6 C :   -0.169500
   7 C :   -0.196194
   8 C :   -0.104619
   9 H :    0.151649
  10 H :    0.132956
  11 H :    0.141547
  12 H :    0.115293
  13 H :    0.127841
  14 H :    0.118127
  15 H :    0.120443
  16 H :    0.124217
  17 H :    0.146452
Sum of atomic charges:    0.0000000

LOEWDIN ATOMIC CHARGES
----------------------
   0 N :    0.062369
   1 C :   -0.167414
   2 C :   -0.175002
   3 C :   -0.150978
   4 C :   -0.174969
   5 C :   -0.216582
   6 C :   -0.227145
   7 C :   -0.121000
   8 C :   -0.123595
   9 H :    0.179538
  10 H :    0.129020
  11 H :    0.143940
  12 H :    0.153407
  13 H :    0.131797
  14 H :    0.140311
  15 H :    0.138094
  16 H :    0.136294
  17 H :    0.141915

  Mayer bond orders larger than 0.1
B(  0-N ,  1-C ) :   2.8725 B(  1-C ,  2-C ) :   0.9226 B(  2-C ,  3-C ) :   0.8978
B(  2-C ,  8-C ) :   0.8921 B(  2-C ,  9-H ) :   0.8900 B(  3-C ,  4-C ) :   0.9096
B(  3-C , 10-H ) :   0.9224 B(  3-C , 11-H ) :   0.9110 B(  4-C ,  5-C ) :   0.9027
B(  4-C ,  8-C ) :   0.8983 B(  4-C , 12-H ) :   0.9053 B(  5-C ,  6-C ) :   0.9515
B(  5-C , 13-H ) :   0.9371 B(  5-C , 14-H ) :   0.9233 B(  6-C ,  7-C ) :   0.9176
B(  6-C , 15-H ) :   0.9116 B(  6-C , 16-H ) :   0.9299 B(  7-C ,  8-C ) :   1.7769
B(  7-C , 17-H ) :   0.9152

MP2 TOTAL ENERGY:     -364.142660172 Eh
FINAL SINGLE POINT ENERGY      -364.142660171560

DIPOLE MOMENT
-------------
                                X             Y             Z
Electronic contribution:     -2.99038      -6.57109      -3.90637
Nuclear contribution   :      3.02234       8.16966       4.27890
                        -----------------------------------------
Total Dipole Moment    :      0.03197       1.59857       0.37253
                        -----------------------------------------
Magnitude (a.u.)       :      1.64171
Magnitude (Debye)      :      4.17290

                             ****ORCA TERMINATED NORMALLY****
TOTAL RUN TIME: 0 days 0 hours 18 minutes 32 seconds 463 msec
