                         Program Version 3.0.3 - RELEASE   -
|  1> ! RI-MP2 RIJK def2-TZVP def2-TZVP/C def2-TZVP/JK TIGHTSCF
|  2> % maxcore 2000
|  3> % mp2 density relaxed end
|  4> *xyz 0 1
|  5>  O       -0.0016918313     1.3421058550    -0.1848294587
|  6>  C        0.0123694915    -0.0576279608     0.0251255125
|  7>  C       -1.3759486282    -0.6022607000     0.1732189858
|  8>  C       -2.5159986116    -0.2022721006     1.1333821116
|  9>  C       -3.1200167028    -1.0652568686     0.0130378670
| 10>  O       -2.3014780428    -0.3131137292    -0.9824145210
| 11>  C       -1.9332613737    -2.0634515206     0.1473683081
| 12>  O       -1.6159981011    -2.8656288983    -0.9362569487
| 13>  H       -0.6482332381     1.5082844864    -0.8811469945
| 14>  H        0.5172628699    -0.5918681064    -0.7955862335
| 15>  H        0.5821972282    -0.2427346402     0.9419700205
| 16>  H       -2.4957680506    -0.6104005590     2.1470495380
| 17>  H       -2.7906579660     0.8508529516     1.1000789278
| 18>  H       -4.1628033446    -1.2471170789    -0.2463379471
| 19>  H       -1.8591533395    -2.6531931186     1.0633773342
| 20>  H       -1.7218754093    -2.2922082118    -1.7100774822
| 21> *
| 22>
| 23>                          ****END OF INPUT****

CARTESIAN COORDINATES (ANGSTROEM)
---------------------------------
  O     -0.001692    1.342106   -0.184829
  C      0.012369   -0.057628    0.025126
  C     -1.375949   -0.602261    0.173219
  C     -2.515999   -0.202272    1.133382
  C     -3.120017   -1.065257    0.013038
  O     -2.301478   -0.313114   -0.982415
  C     -1.933261   -2.063452    0.147368
  O     -1.615998   -2.865629   -0.936257
  H     -0.648233    1.508284   -0.881147
  H      0.517263   -0.591868   -0.795586
  H      0.582197   -0.242735    0.941970
  H     -2.495768   -0.610401    2.147050
  H     -2.790658    0.850853    1.100079
  H     -4.162803   -1.247117   -0.246338
  H     -1.859153   -2.653193    1.063377
  H     -1.721875   -2.292208   -1.710077

 Total Charge           Charge          ....    0
 Multiplicity           Mult            ....    1
 Number of Electrons    NEL             ....   62
 Basis Dimension        Dim             ....  296

ORBITAL ENERGIES
----------------

  NO   OCC          E(Eh)            E(eV)
   0   2.0000     -20.568537      -559.6984
   1   2.0000     -20.565552      -559.6171
   2   2.0000     -20.561935      -559.5187
   3   2.0000     -11.311945      -307.8137
   4   2.0000     -11.310697      -307.7797
   5   2.0000     -11.306835      -307.6746
   6   2.0000     -11.289182      -307.1943
   7   2.0000     -11.248891      -306.0979
   8   2.0000      -1.423608       -38.7383
   9   2.0000      -1.371171       -37.3115
  10   2.0000      -1.359570       -36.9958
  11   2.0000      -1.090025       -29.6611
  12   2.0000      -0.989434       -26.9239
  13   2.0000      -0.917528       -24.9672
  14   2.0000      -0.851832       -23.1795
  15   2.0000      -0.785521       -21.3751
  16   2.0000      -0.720856       -19.6155
  17   2.0000      -0.693310       -18.8659
  18   2.0000      -0.660367       -17.9695
  19   2.0000      -0.650485       -17.7006
  20   2.0000      -0.625791       -17.0287
  21   2.0000      -0.594804       -16.1854
  22   2.0000      -0.582079       -15.8392
  23   2.0000      -0.560850       -15.2615
  24   2.0000      -0.542335       -14.7577
  25   2.0000      -0.524798       -14.2805
  26   2.0000      -0.494416       -13.4537
  27   2.0000      -0.483204       -13.1486
  28   2.0000      -0.449447       -12.2301
  29   2.0000      -0.432673       -11.7736
  30   2.0000      -0.418399       -11.3852
  31   0.0000       0.143974         3.9177
  32   0.0000       0.155111         4.2208
  33   0.0000       0.162343         4.4176
  34   0.0000       0.168413         4.5827
  35   0.0000       0.192055         5.2261

MULLIKEN ATOMIC CHARGES
-----------------------
   0 O :   -0.467028
   1 C :    0.014464
   2 C :   -0.100789
   3 C :   -0.122167
   4 C :   -0.065979
   5 O :   -0.357108
   6 C :    0.153672
   7 O :   -0.462106
   8 H :    0.328207
   9 H :    0.113134
  10 H :    0.116986
  11 H :    0.124490
  12 H :    0.125645
  13 H :    0.145724
  14 H :    0.121489
  15 H :    0.331366
Sum of atomic charges:   -0.0000000

LOEWDIN ATOMIC CHARGES
----------------------
   0 O :   -0.036333
   1 C :   -0.312985
   2 C :   -0.269735
   3 C :   -0.176590
   4 C :   -0.213259
   5 O :    0.107139
   6 C :   -0.285117
   7 O :    0.006103
   8 H :    0.180656
   9 H :    0.130252
  10 H :    0.140260
  11 H :    0.134977
  12 H :    0.139937
  13 H :    0.125693
  14 H :    0.141495
  15 H :    0.187508

  Mayer bond orders larger than 0.1
B(  0-O ,  1-C ) :   0.9342 B(  0-O ,  8-H ) :   0.8324 B(  1-C ,  2-C ) :   0.9036
B(  1-C ,  9-H ) :   0.9370 B(  1-C , 10-H ) :   0.9180 B(  2-C ,  3-C ) :   0.8975
B(  2-C ,  5-O ) :   0.8481 B(  2-C ,  6-C ) :   0.8353 B(  3-C ,  4-C ) :   0.9248
B(  3-C , 11-H ) :   0.9247 B(  3-C , 12-H ) :   0.9102 B(  4-C ,  5-O ) :   0.8741
B(  4-C ,  6-C ) :   0.9083 B(  4-C , 13-H ) :   0.8948 B(  6-C ,  7-O ) :   0.9907
B(  6-C , 14-H ) :   0.9399 B(  7-O , 15-H ) :   0.8108

MP2 TOTAL ENERGY:     -420.149683117 Eh
FINAL SINGLE POINT ENERGY      -420.149683117292

DIPOLE MOMENT
-------------
                                X             Y             Z
Electronic contribution:     -0.49982      -0.52854      -2.01846
Nuclear contribution   :      0.01808       0.39393       2.40485
                        -----------------------------------------
Total Dipole Moment    :     -0.48174      -0.13461       0.38639
                        -----------------------------------------
Magnitude (a.u.)       :      0.63205
Magnitude (Debye)      :      1.60654

                             ****ORCA TERMINATED NORMALLY****
TOTAL RUN TIME: 0 days 0 hours 11 minutes 44 seconds 845 msec
