                         Program Version 3.0.3 - RELEASE   -
|  1> ! RI-MP2 RIJK def2-TZVP def2-TZVP/C def2-TZVP/JK TIGHTSCF
|  2> % maxcore 2000
|  3> % mp2 density relaxed end
|  4> *xyz 0 1
|  5>  C       -0.4612524462     1.3691475256     0.0863044001
|  6>  C        0.0408690859    -0.0729575569     0.1462581838
|  7>  C        0.7703272337    -0.5418454591    -1.1361629815
|  8>  C        1.7047638413    -1.6956658970    -0.6933638733
|  9>  C        1.5877421255    -1.7964331156     0.8578508018
| 10>  C        0.6429551373    -2.9302199402     1.2797953641
| 11>  O        2.8550828390    -2.0013076864     1.4835866479
| 12>  C        1.0356641002    -0.4086161142     1.2870292191
| 13>  C        2.1454423803     0.6359908798     1.4678239844
| 14>  H        0.3555190483     2.0744438625    -0.0968342444
| 15>  H       -1.1880433050     1.4908598599    -0.7243374692
| 16>  H       -0.9553137892     1.6627037550     1.0191672070
| 17>  H       -0.8383381979    -0.7152836086     0.2858952867
| 18>  H        0.0626982781    -0.8431798686    -1.9142843470
| 19>  H        1.3552655237     0.2844367967    -1.5546545548
| 20>  H        1.4483472101    -2.6460634062    -1.1729600617
| 21>  H        2.7467277787    -1.4805185878    -0.9448429086
| 22>  H        1.0253806136    -3.8962770876     0.9264969993
| 23>  H        0.5631612239    -2.9711309393     2.3701377323
| 24>  H       -0.3606681188    -2.8098086240     0.8613516107
| 25>  H        3.1551145545    -2.8868598967     1.2545538014
| 26>  H        0.5025645172    -0.5022077262     2.2409855620
| 27>  H        2.6956363477     0.8213354218     0.5390569828
| 28>  H        1.7259284420     1.5890152060     1.8028823120
| 29>  H        2.8672285963     0.2970352768     2.2123251051
| 30> *
| 31>
| 32>                          ****END OF INPUT****

CARTESIAN COORDINATES (ANGSTROEM)
---------------------------------
  C     -0.461252    1.369148    0.086304
  C      0.040869   -0.072958    0.146258
  C      0.770327   -0.541845   -1.136163
  C      1.704764   -1.695666   -0.693364
  C      1.587742   -1.796433    0.857851
  C      0.642955   -2.930220    1.279795
  O      2.855083   -2.001308    1.483587
  C      1.035664   -0.408616    1.287029
  C      2.145442    0.635991    1.467824
  H      0.355519    2.074444   -0.096834
  H     -1.188043    1.490860   -0.724337
  H     -0.955314    1.662704    1.019167
  H     -0.838338   -0.715284    0.285895
  H      0.062698   -0.843180   -1.914284
  H      1.355266    0.284437   -1.554655
  H      1.448347   -2.646063   -1.172960
  H      2.746728   -1.480519   -0.944843
  H      1.025381   -3.896277    0.926497
  H      0.563161   -2.971131    2.370138
  H     -0.360668   -2.809809    0.861352
  H      3.155115   -2.886860    1.254554
  H      0.502565   -0.502208    2.240986
  H      2.695636    0.821335    0.539057
  H      1.725928    1.589015    1.802882
  H      2.867229    0.297035    2.212325

 Total Charge           Charge          ....    0
 Multiplicity           Mult            ....    1
 Number of Electrons    NEL             ....   72
 Basis Dimension        Dim             ....  375

ORBITAL ENERGIES
----------------

  NO   OCC          E(Eh)            E(eV)
   0   2.0000     -20.546453      -559.0974
   1   2.0000     -11.278275      -306.8975
   2   2.0000     -11.220361      -305.3215
   3   2.0000     -11.216804      -305.2248
   4   2.0000     -11.214741      -305.1686
   5   2.0000     -11.214454      -305.1608
   6   2.0000     -11.212874      -305.1178
   7   2.0000     -11.209244      -305.0190
   8   2.0000     -11.199224      -304.7464
   9   2.0000      -1.355786       -36.8928
  10   2.0000      -1.124395       -30.5963
  11   2.0000      -1.014413       -27.6036
  12   2.0000      -0.995464       -27.0879
  13   2.0000      -0.959828       -26.1183
  14   2.0000      -0.875621       -23.8268
  15   2.0000      -0.866158       -23.5694
  16   2.0000      -0.771026       -20.9807
  17   2.0000      -0.727547       -19.7976
  18   2.0000      -0.664020       -18.0689
  19   2.0000      -0.652321       -17.7506
  20   2.0000      -0.633047       -17.2261
  21   2.0000      -0.585960       -15.9448
  22   2.0000      -0.582788       -15.8585
  23   2.0000      -0.568348       -15.4655
  24   2.0000      -0.560328       -15.2473
  25   2.0000      -0.542867       -14.7722
  26   2.0000      -0.540409       -14.7053
  27   2.0000      -0.521308       -14.1855
  28   2.0000      -0.511321       -13.9137
  29   2.0000      -0.496000       -13.4968
  30   2.0000      -0.479337       -13.0434
  31   2.0000      -0.459945       -12.5157
  32   2.0000      -0.442576       -12.0431
  33   2.0000      -0.438199       -11.9240
  34   2.0000      -0.430730       -11.7208
  35   2.0000      -0.414736       -11.2855
  36   0.0000       0.126762         3.4494
  37   0.0000       0.144940         3.9440
  38   0.0000       0.159863         4.3501
  39   0.0000       0.168657         4.5894
  40   0.0000       0.184039         5.0079

MULLIKEN ATOMIC CHARGES
-----------------------
   0 C :   -0.429107
   1 C :   -0.079528
   2 C :   -0.270943
   3 C :   -0.284977
   4 C :    0.269106
   5 C :   -0.474292
   6 O :   -0.465260
   7 C :    0.030253
   8 C :   -0.469811
   9 H :    0.133569
  10 H :    0.133669
  11 H :    0.133563
  12 H :    0.091958
  13 H :    0.116854
  14 H :    0.118036
  15 H :    0.109123
  16 H :    0.121139
  17 H :    0.123193
  18 H :    0.143039
  19 H :    0.130805
  20 H :    0.309423
  21 H :    0.092337
  22 H :    0.124415
  23 H :    0.135910
  24 H :    0.157525
Sum of atomic charges:    0.0000000

LOEWDIN ATOMIC CHARGES
----------------------
   0 C :   -0.296371
   1 C :   -0.254211
   2 C :   -0.230333
   3 C :   -0.219183
   4 C :   -0.363641
   5 C :   -0.282744
   6 O :    0.004884
   7 C :   -0.211797
   8 C :   -0.286164
   9 H :    0.123312
  10 H :    0.124132
  11 H :    0.124022
  12 H :    0.150329
  13 H :    0.132378
  14 H :    0.137025
  15 H :    0.133673
  16 H :    0.138974
  17 H :    0.120905
  18 H :    0.126949
  19 H :    0.126351
  20 H :    0.172793
  21 H :    0.152227
  22 H :    0.124642
  23 H :    0.122202
  24 H :    0.129646

  Mayer bond orders larger than 0.1
B(  0-C ,  1-C ) :   0.8932 B(  0-C ,  9-H ) :   0.9387 B(  0-C , 10-H ) :   0.9415
B(  0-C , 11-H ) :   0.9412 B(  1-C ,  2-C ) :   0.9350 B(  1-C ,  7-C ) :   0.8975
B(  1-C , 12-H ) :   0.9345 B(  2-C ,  3-C ) :   0.9458 B(  2-C , 13-H ) :   0.9221
B(  2-C , 14-H ) :   0.9270 B(  3-C ,  4-C ) :   0.9169 B(  3-C , 15-H ) :   0.9150
B(  3-C , 16-H ) :   0.9315 B(  4-C ,  5-C ) :   0.8991 B(  4-C ,  6-O ) :   0.9524
B(  4-C ,  7-C ) :   0.8726 B(  5-C , 17-H ) :   0.9274 B(  5-C , 18-H ) :   0.9455
B(  5-C , 19-H ) :   0.9335 B(  6-O , 20-H ) :   0.8445 B(  7-C ,  8-C ) :   0.8873
B(  7-C , 21-H ) :   0.9230 B(  8-C , 22-H ) :   0.9333 B(  8-C , 23-H ) :   0.9409
B(  8-C , 24-H ) :   0.9334

MP2 TOTAL ENERGY:     -388.849856095 Eh
FINAL SINGLE POINT ENERGY      -388.849856094550

DIPOLE MOMENT
-------------
                                X             Y             Z
Electronic contribution:      3.08836      -3.14372       1.26626
Nuclear contribution   :     -3.38765       2.74446      -1.57202
                        -----------------------------------------
Total Dipole Moment    :     -0.29928      -0.39926      -0.30576
                        -----------------------------------------
Magnitude (a.u.)       :      0.58521
Magnitude (Debye)      :      1.48748

                             ****ORCA TERMINATED NORMALLY****
TOTAL RUN TIME: 0 days 0 hours 24 minutes 35 seconds 489 msec
