                         Program Version 3.0.3 - RELEASE   -
|  1> ! RI-MP2 RIJK def2-TZVP def2-TZVP/C def2-TZVP/JK TIGHTSCF
|  2> % maxcore 2000
|  3> % mp2 density relaxed end
|  4> *xyz 0 1
|  5>  C       -0.5595624565    -0.0569036090     0.7980396980
|  6>  C        0.3795618082     0.5408819797    -0.2514369668
|  7>  N        0.8184070604    -0.4924042745    -1.1864448066
|  8>  C        2.0365704972    -0.7417095589    -1.3036467766
|  9>  O        3.1535705360    -0.1422311571    -0.6947726387
| 10>  C        4.0254062438    -0.9271117865    -1.5467163715
| 11>  C        3.8490138234    -2.3703447022    -1.2336092956
| 12>  C        2.8514210088    -1.6593884574    -2.1617462992
| 13>  C        2.5096225251    -2.1063207558    -3.5511703948
| 14>  H       -1.4031835627    -0.5597856583     0.3167277735
| 15>  H       -0.0348061001    -0.7928761400     1.4151676786
| 16>  H       -0.9486850444     0.7263421342     1.4563456990
| 17>  H       -0.1651508179     1.2964777601    -0.8313055960
| 18>  H        1.2213182752     1.0477074604     0.2375317189
| 19>  H        4.8844292162    -0.4279815703    -1.9741400426
| 20>  H        4.5117136298    -3.0567130132    -1.7533899560
| 21>  H        3.5665761436    -2.6687540112    -0.2286036665
| 22>  H        1.7150069680    -2.8592232165    -3.5312946217
| 23>  H        2.1585494485    -1.2670993352    -4.1591761371
| 24>  H        3.3790778572    -2.5499876484    -4.0456006283
| 25> *
| 26>
| 27>                          ****END OF INPUT****

CARTESIAN COORDINATES (ANGSTROEM)
---------------------------------
  C     -0.559562   -0.056904    0.798040
  C      0.379562    0.540882   -0.251437
  N      0.818407   -0.492404   -1.186445
  C      2.036570   -0.741710   -1.303647
  O      3.153571   -0.142231   -0.694773
  C      4.025406   -0.927112   -1.546716
  C      3.849014   -2.370345   -1.233609
  C      2.851421   -1.659388   -2.161746
  C      2.509623   -2.106321   -3.551170
  H     -1.403184   -0.559786    0.316728
  H     -0.034806   -0.792876    1.415168
  H     -0.948685    0.726342    1.456346
  H     -0.165151    1.296478   -0.831306
  H      1.221318    1.047707    0.237532
  H      4.884429   -0.427982   -1.974140
  H      4.511714   -3.056713   -1.753390
  H      3.566576   -2.668754   -0.228604
  H      1.715007   -2.859223   -3.531295
  H      2.158549   -1.267099   -4.159176
  H      3.379078   -2.549988   -4.045601

 Total Charge           Charge          ....    0
 Multiplicity           Mult            ....    1
 Number of Electrons    NEL             ....   68
 Basis Dimension        Dim             ....  345

ORBITAL ENERGIES
----------------

  NO   OCC          E(Eh)            E(eV)
   0   2.0000     -20.584528      -560.1335
   1   2.0000     -15.537801      -422.8051
   2   2.0000     -11.331182      -308.3371
   3   2.0000     -11.305884      -307.6487
   4   2.0000     -11.261348      -306.4369
   5   2.0000     -11.252311      -306.1910
   6   2.0000     -11.243584      -305.9535
   7   2.0000     -11.233455      -305.6778
   8   2.0000     -11.205626      -304.9206
   9   2.0000      -1.431493       -38.9529
  10   2.0000      -1.215528       -33.0762
  11   2.0000      -1.146888       -31.2084
  12   2.0000      -1.011888       -27.5349
  13   2.0000      -0.981563       -26.7097
  14   2.0000      -0.887954       -24.1624
  15   2.0000      -0.841626       -22.9018
  16   2.0000      -0.822602       -22.3841
  17   2.0000      -0.699595       -19.0369
  18   2.0000      -0.684660       -18.6305
  19   2.0000      -0.676200       -18.4003
  20   2.0000      -0.649075       -17.6622
  21   2.0000      -0.607258       -16.5243
  22   2.0000      -0.589109       -16.0305
  23   2.0000      -0.579104       -15.7582
  24   2.0000      -0.562976       -15.3194
  25   2.0000      -0.560259       -15.2454
  26   2.0000      -0.532385       -14.4869
  27   2.0000      -0.516729       -14.0609
  28   2.0000      -0.510358       -13.8875
  29   2.0000      -0.486126       -13.2282
  30   2.0000      -0.457959       -12.4617
  31   2.0000      -0.403982       -10.9929
  32   2.0000      -0.400041       -10.8857
  33   2.0000      -0.374151       -10.1812
  34   0.0000       0.139987         3.8092
  35   0.0000       0.152551         4.1511
  36   0.0000       0.165698         4.5089
  37   0.0000       0.171461         4.6657
  38   0.0000       0.190067         5.1720

MULLIKEN ATOMIC CHARGES
-----------------------
   0 C :   -0.376699
   1 C :   -0.069903
   2 N :   -0.250984
   3 C :    0.154983
   4 O :   -0.303038
   5 C :    0.070753
   6 C :   -0.250331
   7 C :   -0.027734
   8 C :   -0.398461
   9 H :    0.127816
  10 H :    0.122896
  11 H :    0.121760
  12 H :    0.113806
  13 H :    0.113891
  14 H :    0.149096
  15 H :    0.133705
  16 H :    0.147486
  17 H :    0.149411
  18 H :    0.141886
  19 H :    0.129660
Sum of atomic charges:    0.0000000

LOEWDIN ATOMIC CHARGES
----------------------
   0 C :   -0.318202
   1 C :   -0.308498
   2 N :    0.111147
   3 C :   -0.311373
   4 O :    0.214292
   5 C :   -0.202438
   6 C :   -0.170356
   7 C :   -0.192975
   8 C :   -0.263040
   9 H :    0.122423
  10 H :    0.120034
  11 H :    0.120599
  12 H :    0.131781
  13 H :    0.125771
  14 H :    0.135483
  15 H :    0.144743
  16 H :    0.139586
  17 H :    0.136557
  18 H :    0.134085
  19 H :    0.130383

  Mayer bond orders larger than 0.1
B(  0-C ,  1-C ) :   0.9298 B(  0-C ,  9-H ) :   0.9364 B(  0-C , 10-H ) :   0.9368
B(  0-C , 11-H ) :   0.9363 B(  1-C ,  2-N ) :   0.8320 B(  1-C , 12-H ) :   0.9280
B(  1-C , 13-H ) :   0.9249 B(  2-N ,  3-C ) :   2.0054 B(  3-C ,  4-O ) :   1.0198
B(  3-C ,  7-C ) :   0.9353 B(  4-O ,  5-C ) :   0.9134 B(  5-C ,  6-C ) :   0.8909
B(  5-C ,  7-C ) :   0.8780 B(  5-C , 14-H ) :   0.9114 B(  6-C ,  7-C ) :   0.8630
B(  6-C , 15-H ) :   0.9206 B(  6-C , 16-H ) :   0.9050 B(  7-C ,  8-C ) :   0.9005
B(  8-C , 17-H ) :   0.9354 B(  8-C , 18-H ) :   0.9344 B(  8-C , 19-H ) :   0.9321

MP2 TOTAL ENERGY:     -402.421247912 Eh
FINAL SINGLE POINT ENERGY      -402.421247911714

DIPOLE MOMENT
-------------
                                X             Y             Z
Electronic contribution:      4.56450       1.15863      -0.60237
Nuclear contribution   :     -3.89355      -1.48280       0.25522
                        -----------------------------------------
Total Dipole Moment    :      0.67095      -0.32416      -0.34715
                        -----------------------------------------
Magnitude (a.u.)       :      0.82205
Magnitude (Debye)      :      2.08950

                             ****ORCA TERMINATED NORMALLY****
TOTAL RUN TIME: 0 days 0 hours 16 minutes 29 seconds 277 msec
