                         Program Version 3.0.3 - RELEASE   -
|  1> ! RI-MP2 RIJK def2-TZVP def2-TZVP/C def2-TZVP/JK TIGHTSCF
|  2> % maxcore 2000
|  3> % mp2 density relaxed end
|  4> *xyz 0 1
|  5>  C       -0.0924668887     1.3784380637     0.1617753316
|  6>  O       -0.0510255223    -0.0151016925    -0.0928754834
|  7>  C       -1.3211248500    -0.6527712676    -0.0831503514
|  8>  C       -1.1596570091    -2.0110282955    -0.7698621449
|  9>  C       -0.5082833097    -3.0253195761     0.1297496917
| 10>  C       -0.6254791243    -2.9203097605     1.4523892885
| 11>  N       -1.3227989005    -1.8632279755     2.0508645654
| 12>  C       -1.7845834643    -0.7565781957     1.3811794881
| 13>  O       -2.4299698461     0.1146959164     1.9332373969
| 14>  H        0.9368238867     1.7379378989     0.0909927980
| 15>  H       -0.7081457064     1.8997458383    -0.5867449369
| 16>  H       -0.4932891597     1.6086566198     1.1559689281
| 17>  H       -2.0605664604    -0.0323117457    -0.6075367477
| 18>  H       -2.1501145853    -2.3693493269    -1.0880596259
| 19>  H       -0.5763097639    -1.8531223792    -1.6826108665
| 20>  H        0.0386243703    -3.8553505990    -0.2987721372
| 21>  H       -0.1998225698    -3.6318374051     2.1493401571
| 22>  H       -1.5162135666    -1.8820373379     3.0410499285
| 23> *
| 24>
| 25>                          ****END OF INPUT****

CARTESIAN COORDINATES (ANGSTROEM)
---------------------------------
  C     -0.092467    1.378438    0.161775
  O     -0.051026   -0.015102   -0.092875
  C     -1.321125   -0.652771   -0.083150
  C     -1.159657   -2.011028   -0.769862
  C     -0.508283   -3.025320    0.129750
  C     -0.625479   -2.920310    1.452389
  N     -1.322799   -1.863228    2.050865
  C     -1.784583   -0.756578    1.381179
  O     -2.429970    0.114696    1.933237
  H      0.936824    1.737938    0.090993
  H     -0.708146    1.899746   -0.586745
  H     -0.493289    1.608657    1.155969
  H     -2.060566   -0.032312   -0.607537
  H     -2.150115   -2.369349   -1.088060
  H     -0.576310   -1.853122   -1.682611
  H      0.038624   -3.855351   -0.298772
  H     -0.199823   -3.631837    2.149340
  H     -1.516214   -1.882037    3.041050

 Total Charge           Charge          ....    0
 Multiplicity           Mult            ....    1
 Number of Electrons    NEL             ....   68
 Basis Dimension        Dim             ....  333

ORBITAL ENERGIES
----------------

  NO   OCC          E(Eh)            E(eV)
   0   2.0000     -20.565391      -559.6127
   1   2.0000     -20.529583      -558.6383
   2   2.0000     -15.599933      -424.4958
   3   2.0000     -11.355023      -308.9859
   4   2.0000     -11.299371      -307.4715
   5   2.0000     -11.280356      -306.9541
   6   2.0000     -11.267932      -306.6160
   7   2.0000     -11.241005      -305.8833
   8   2.0000     -11.229228      -305.5628
   9   2.0000      -1.400947       -38.1217
  10   2.0000      -1.374231       -37.3947
  11   2.0000      -1.257490       -34.2180
  12   2.0000      -1.083267       -29.4772
  13   2.0000      -1.017765       -27.6948
  14   2.0000      -0.921594       -25.0779
  15   2.0000      -0.886023       -24.1099
  16   2.0000      -0.845994       -23.0207
  17   2.0000      -0.751336       -20.4449
  18   2.0000      -0.693230       -18.8638
  19   2.0000      -0.685772       -18.6608
  20   2.0000      -0.670932       -18.2570
  21   2.0000      -0.640614       -17.4320
  22   2.0000      -0.628293       -17.0967
  23   2.0000      -0.616686       -16.7809
  24   2.0000      -0.579970       -15.7818
  25   2.0000      -0.575088       -15.6489
  26   2.0000      -0.550739       -14.9864
  27   2.0000      -0.535512       -14.5720
  28   2.0000      -0.510653       -13.8956
  29   2.0000      -0.485916       -13.2224
  30   2.0000      -0.473100       -12.8737
  31   2.0000      -0.457420       -12.4470
  32   2.0000      -0.405755       -11.0412
  33   2.0000      -0.327856        -8.9214
  34   0.0000       0.131085         3.5670
  35   0.0000       0.133603         3.6355
  36   0.0000       0.154263         4.1977
  37   0.0000       0.166358         4.5268
  38   0.0000       0.175363         4.7719

MULLIKEN ATOMIC CHARGES
-----------------------
   0 C :   -0.231690
   1 O :   -0.310763
   2 C :    0.131555
   3 C :   -0.161634
   4 C :   -0.216912
   5 C :   -0.039094
   6 N :   -0.264601
   7 C :    0.158699
   8 O :   -0.329356
   9 H :    0.136912
  10 H :    0.112238
  11 H :    0.140024
  12 H :    0.096966
  13 H :    0.127873
  14 H :    0.131428
  15 H :    0.134989
  16 H :    0.140856
  17 H :    0.242511
Sum of atomic charges:    0.0000000

LOEWDIN ATOMIC CHARGES
----------------------
   0 C :   -0.346312
   1 O :    0.164733
   2 C :   -0.284305
   3 C :   -0.224546
   4 C :   -0.192358
   5 C :   -0.217293
   6 N :    0.154570
   7 C :   -0.412537
   8 O :    0.094252
   9 H :    0.112904
  10 H :    0.103862
  11 H :    0.109211
  12 H :    0.146953
  13 H :    0.153026
  14 H :    0.153302
  15 H :    0.145435
  16 H :    0.142352
  17 H :    0.196750

  Mayer bond orders larger than 0.1
B(  0-C ,  1-O ) :   0.8965 B(  0-C ,  9-H ) :   0.9358 B(  0-C , 10-H ) :   0.9385
B(  0-C , 11-H ) :   0.9295 B(  1-O ,  2-C ) :   0.9395 B(  2-C ,  3-C ) :   0.8842
B(  2-C ,  7-C ) :   0.8743 B(  2-C , 12-H ) :   0.9317 B(  3-C ,  4-C ) :   0.9490
B(  3-C , 13-H ) :   0.9148 B(  3-C , 14-H ) :   0.9139 B(  4-C ,  5-C ) :   1.7786
B(  4-C , 15-H ) :   0.9237 B(  5-C ,  6-N ) :   0.9998 B(  5-C , 16-H ) :   0.9157
B(  6-N ,  7-C ) :   1.1509 B(  6-N , 17-H ) :   0.8611 B(  7-C ,  8-O ) :   1.9857

MP2 TOTAL ENERGY:     -438.391195562 Eh
FINAL SINGLE POINT ENERGY      -438.391195562112

DIPOLE MOMENT
-------------
                                X             Y             Z
Electronic contribution:     -2.06118      -1.43482       3.61081
Nuclear contribution   :      2.37652       0.72654      -3.76737
                        -----------------------------------------
Total Dipole Moment    :      0.31534      -0.70828      -0.15656
                        -----------------------------------------
Magnitude (a.u.)       :      0.79096
Magnitude (Debye)      :      2.01045

                             ****ORCA TERMINATED NORMALLY****
TOTAL RUN TIME: 0 days 0 hours 28 minutes 44 seconds 692 msec
