                         Program Version 3.0.3 - RELEASE   -
|  1> ! RI-MP2 RIJK def2-TZVP def2-TZVP/C def2-TZVP/JK TIGHTSCF
|  2> % maxcore 2000
|  3> % mp2 density relaxed end
|  4> *xyz 0 1
|  5>  C       -0.0955463393     1.5192785058     0.0178029758
|  6>  C        1.4713323012     1.2860110070     0.0035423712
|  7>  C        1.2661277749     0.0679282582     0.9412457958
|  8>  O        2.1508423967    -1.0029613773     0.6298543752
|  9>  C        1.8323178383    -1.1812797587    -0.7612656926
| 10>  C        0.5335318093    -2.0485932608    -0.8290943823
| 11>  O       -0.5521269354    -1.1967560251    -0.3318433332
| 12>  C        0.1142134565     0.0006633352    -0.0953472743
| 13>  C        1.2685470110     0.2048603262    -1.1014068718
| 14>  H       -0.5249805099     1.9080815371     0.9449547222
| 15>  H       -0.5062908551     2.0265117614    -0.8574152467
| 16>  H        2.2402320346     2.0528138079     0.0591985944
| 17>  H        1.1121420477     0.1741981396     2.0133679190
| 18>  H        2.6841370452    -1.5996542703    -1.2978079019
| 19>  H        0.2914426456    -2.3644285649    -1.8518299518
| 20>  H        0.6240134883    -2.9258871134    -0.1835036826
| 21>  H        1.0318745202     0.4736860021    -2.1295559065
| 22> *
| 23>
| 24>                          ****END OF INPUT****

CARTESIAN COORDINATES (ANGSTROEM)
---------------------------------
  C     -0.095546    1.519279    0.017803
  C      1.471332    1.286011    0.003542
  C      1.266128    0.067928    0.941246
  O      2.150842   -1.002961    0.629854
  C      1.832318   -1.181280   -0.761266
  C      0.533532   -2.048593   -0.829094
  O     -0.552127   -1.196756   -0.331843
  C      0.114213    0.000663   -0.095347
  C      1.268547    0.204860   -1.101407
  H     -0.524981    1.908082    0.944955
  H     -0.506291    2.026512   -0.857415
  H      2.240232    2.052814    0.059199
  H      1.112142    0.174198    2.013368
  H      2.684137   -1.599654   -1.297808
  H      0.291443   -2.364429   -1.851830
  H      0.624013   -2.925887   -0.183504
  H      1.031875    0.473686   -2.129556

 Total Charge           Charge          ....    0
 Multiplicity           Mult            ....    1
 Number of Electrons    NEL             ....   66
 Basis Dimension        Dim             ....  327

ORBITAL ENERGIES
----------------

  NO   OCC          E(Eh)            E(eV)
   0   2.0000     -20.564360      -559.5847
   1   2.0000     -20.558190      -559.4168
   2   2.0000     -11.295775      -307.3737
   3   2.0000     -11.292685      -307.2896
   4   2.0000     -11.285260      -307.0875
   5   2.0000     -11.283239      -307.0325
   6   2.0000     -11.256622      -306.3082
   7   2.0000     -11.250157      -306.1323
   8   2.0000     -11.236384      -305.7575
   9   2.0000      -1.418675       -38.6041
  10   2.0000      -1.361698       -37.0537
  11   2.0000      -1.200313       -32.6622
  12   2.0000      -1.028732       -27.9932
  13   2.0000      -0.922319       -25.0976
  14   2.0000      -0.904284       -24.6068
  15   2.0000      -0.853310       -23.2198
  16   2.0000      -0.792816       -21.5736
  17   2.0000      -0.748639       -20.3715
  18   2.0000      -0.697370       -18.9764
  19   2.0000      -0.691600       -18.8194
  20   2.0000      -0.652697       -17.7608
  21   2.0000      -0.619810       -16.8659
  22   2.0000      -0.595982       -16.2175
  23   2.0000      -0.564812       -15.3693
  24   2.0000      -0.553135       -15.0516
  25   2.0000      -0.527886       -14.3645
  26   2.0000      -0.504756       -13.7351
  27   2.0000      -0.500271       -13.6131
  28   2.0000      -0.489391       -13.3170
  29   2.0000      -0.465295       -12.6613
  30   2.0000      -0.448472       -12.2036
  31   2.0000      -0.405148       -11.0246
  32   2.0000      -0.373375       -10.1600
  33   0.0000       0.146024         3.9735
  34   0.0000       0.156737         4.2650
  35   0.0000       0.164909         4.4874
  36   0.0000       0.178280         4.8512
  37   0.0000       0.196082         5.3357

MULLIKEN ATOMIC CHARGES
-----------------------
   0 C :   -0.208560
   1 C :   -0.144608
   2 C :    0.018226
   3 O :   -0.323390
   4 C :    0.041313
   5 C :   -0.042716
   6 O :   -0.323694
   7 C :    0.146412
   8 C :   -0.170172
   9 H :    0.126113
  10 H :    0.123679
  11 H :    0.150658
  12 H :    0.126263
  13 H :    0.135023
  14 H :    0.103210
  15 H :    0.118420
  16 H :    0.123823
Sum of atomic charges:    0.0000000

LOEWDIN ATOMIC CHARGES
----------------------
   0 C :   -0.159153
   1 C :   -0.133274
   2 C :   -0.213926
   3 O :    0.187130
   4 C :   -0.266828
   5 C :   -0.223705
   6 O :    0.177756
   7 C :   -0.301625
   8 C :   -0.137472
   9 H :    0.130873
  10 H :    0.133515
  11 H :    0.130092
  12 H :    0.138854
  13 H :    0.139139
  14 H :    0.123585
  15 H :    0.129351
  16 H :    0.145687

  Mayer bond orders larger than 0.1
B(  0-C ,  1-C ) :   0.8860 B(  0-C ,  7-C ) :   0.9110 B(  0-C ,  9-H ) :   0.9324
B(  0-C , 10-H ) :   0.9183 B(  1-C ,  2-C ) :   0.8438 B(  1-C ,  8-C ) :   0.8896
B(  1-C , 11-H ) :   0.8823 B(  2-C ,  3-O ) :   0.9483 B(  2-C ,  7-C ) :   0.9123
B(  2-C , 12-H ) :   0.9315 B(  3-O ,  4-C ) :   0.9202 B(  4-C ,  5-C ) :   0.9385
B(  4-C ,  8-C ) :   0.9635 B(  4-C , 13-H ) :   0.9074 B(  5-C ,  6-O ) :   0.8952
B(  5-C , 14-H ) :   0.9131 B(  5-C , 15-H ) :   0.9132 B(  6-O ,  7-C ) :   0.9876
B(  7-C ,  8-C ) :   0.8720 B(  8-C , 16-H ) :   0.9149

MP2 TOTAL ENERGY:     -421.056348428 Eh
FINAL SINGLE POINT ENERGY      -421.056348428298

DIPOLE MOMENT
-------------
                                X             Y             Z
Electronic contribution:      0.26379      -1.58237       1.37855
Nuclear contribution   :     -0.09050       1.99046      -1.85119
                        -----------------------------------------
Total Dipole Moment    :      0.17329       0.40809      -0.47264
                        -----------------------------------------
Magnitude (a.u.)       :      0.64804
Magnitude (Debye)      :      1.64718

                             ****ORCA TERMINATED NORMALLY****
TOTAL RUN TIME: 0 days 0 hours 16 minutes 54 seconds 583 msec
