                         Program Version 3.0.3 - RELEASE   -
|  1> ! RI-MP2 RIJK def2-TZVP def2-TZVP/C def2-TZVP/JK TIGHTSCF
|  2> % maxcore 2000
|  3> % mp2 density relaxed end
|  4> *xyz 0 1
|  5>  C       -0.0044856041     1.6005253301    -0.0181932269
|  6>  C        0.0298582794     0.0619883500    -0.0470656219
|  7>  C        0.6979523143    -0.4837963373    -1.2202599651
|  8>  C        1.2524759636    -0.9344203020    -2.1940624136
|  9>  C        1.9195039891    -1.4652663095    -3.3656712549
| 10>  O        2.0388809990    -2.6601785388    -3.5520350564
| 11>  C        2.4541541464    -0.4285634803    -4.3357690739
| 12>  C        3.1435005172    -1.0429185704    -5.5451564868
| 13>  O        3.5899417265     0.0316702004    -6.3596995091
| 14>  H        1.0080044489     2.0125237402    -0.0211133370
| 15>  H       -0.5329534215     1.9944365980    -0.8902268670
| 16>  H       -0.5166721407     1.9499161637     0.8826558149
| 17>  H        0.5318342533    -0.3186267876     0.8518479580
| 18>  H       -0.9921688791    -0.3365151360    -0.0077043615
| 19>  H        1.6253489424     0.2155965072    -4.6564602703
| 20>  H        3.1455694547     0.2337955312    -3.7991803777
| 21>  H        3.9775242375    -1.6767285695    -5.2120942334
| 22>  H        2.4386191606    -1.6951792207    -6.0798897458
| 23>  H        4.0284471324    -0.3420283986    -7.1293872115
| 24> *
| 25>
| 26>                          ****END OF INPUT****

CARTESIAN COORDINATES (ANGSTROEM)
---------------------------------
  C     -0.004486    1.600525   -0.018193
  C      0.029858    0.061988   -0.047066
  C      0.697952   -0.483796   -1.220260
  C      1.252476   -0.934420   -2.194062
  C      1.919504   -1.465266   -3.365671
  O      2.038881   -2.660179   -3.552035
  C      2.454154   -0.428563   -4.335769
  C      3.143501   -1.042919   -5.545156
  O      3.589942    0.031670   -6.359700
  H      1.008004    2.012524   -0.021113
  H     -0.532953    1.994437   -0.890227
  H     -0.516672    1.949916    0.882656
  H      0.531834   -0.318627    0.851848
  H     -0.992169   -0.336515   -0.007704
  H      1.625349    0.215597   -4.656460
  H      3.145569    0.233796   -3.799180
  H      3.977524   -1.676729   -5.212094
  H      2.438619   -1.695179   -6.079890
  H      4.028447   -0.342028   -7.129387

 Total Charge           Charge          ....    0
 Multiplicity           Mult            ....    1
 Number of Electrons    NEL             ....   68
 Basis Dimension        Dim             ....  339

ORBITAL ENERGIES
----------------

  NO   OCC          E(Eh)            E(eV)
   0   2.0000     -20.559401      -559.4497
   1   2.0000     -20.553521      -559.2897
   2   2.0000     -11.354242      -308.9646
   3   2.0000     -11.279397      -306.9280
   4   2.0000     -11.267021      -306.5912
   5   2.0000     -11.258518      -306.3599
   6   2.0000     -11.240634      -305.8732
   7   2.0000     -11.236894      -305.7714
   8   2.0000     -11.234254      -305.6996
   9   2.0000      -1.395424       -37.9714
  10   2.0000      -1.363367       -37.0991
  11   2.0000      -1.099403       -29.9163
  12   2.0000      -1.058763       -28.8104
  13   2.0000      -1.015500       -27.6332
  14   2.0000      -0.915825       -24.9209
  15   2.0000      -0.877486       -23.8776
  16   2.0000      -0.805862       -21.9286
  17   2.0000      -0.721682       -19.6380
  18   2.0000      -0.676464       -18.4075
  19   2.0000      -0.661401       -17.9976
  20   2.0000      -0.660011       -17.9598
  21   2.0000      -0.639004       -17.3882
  22   2.0000      -0.616322       -16.7710
  23   2.0000      -0.576551       -15.6887
  24   2.0000      -0.575454       -15.6589
  25   2.0000      -0.565170       -15.3791
  26   2.0000      -0.536914       -14.6102
  27   2.0000      -0.526524       -14.3274
  28   2.0000      -0.506977       -13.7955
  29   2.0000      -0.500061       -13.6074
  30   2.0000      -0.448829       -12.2133
  31   2.0000      -0.438352       -11.9282
  32   2.0000      -0.396943       -10.8014
  33   2.0000      -0.394832       -10.7439
  34   0.0000       0.096579         2.6281
  35   0.0000       0.121079         3.2947
  36   0.0000       0.136928         3.7260
  37   0.0000       0.157659         4.2901
  38   0.0000       0.168288         4.5793

MULLIKEN ATOMIC CHARGES
-----------------------
   0 C :   -0.365506
   1 C :   -0.304520
   2 C :    0.052112
   3 C :    0.118141
   4 C :   -0.014210
   5 O :   -0.287501
   6 C :   -0.181397
   7 C :   -0.073644
   8 O :   -0.469343
   9 H :    0.134284
  10 H :    0.134284
  11 H :    0.138179
  12 H :    0.151579
  13 H :    0.151578
  14 H :    0.141618
  15 H :    0.141618
  16 H :    0.106879
  17 H :    0.106881
  18 H :    0.318966
Sum of atomic charges:    0.0000000

LOEWDIN ATOMIC CHARGES
----------------------
   0 C :   -0.296497
   1 C :   -0.271625
   2 C :   -0.034329
   3 C :   -0.034038
   4 C :   -0.326347
   5 O :    0.165421
   6 C :   -0.231937
   7 C :   -0.342315
   8 O :   -0.053206
   9 H :    0.125615
  10 H :    0.125615
  11 H :    0.123549
  12 H :    0.159241
  13 H :    0.159241
  14 H :    0.158778
  15 H :    0.158778
  16 H :    0.120366
  17 H :    0.120367
  18 H :    0.173323

  Mayer bond orders larger than 0.1
B(  0-C ,  1-C ) :   0.9395 B(  0-C ,  9-H ) :   0.9342 B(  0-C , 10-H ) :   0.9342
B(  0-C , 11-H ) :   0.9389 B(  1-C ,  2-C ) :   0.9544 B(  1-C , 12-H ) :   0.9346
B(  1-C , 13-H ) :   0.9346 B(  2-C ,  3-C ) :   2.6695 B(  3-C ,  4-C ) :   0.9601
B(  3-C ,  6-C ) :  -0.1214 B(  4-C ,  5-O ) :   1.9797 B(  4-C ,  6-C ) :   0.9857
B(  6-C ,  7-C ) :   0.9465 B(  6-C , 14-H ) :   0.8959 B(  6-C , 15-H ) :   0.8959
B(  7-C ,  8-O ) :   1.0174 B(  7-C , 16-H ) :   0.9333 B(  7-C , 17-H ) :   0.9333
B(  8-O , 18-H ) :   0.8491

MP2 TOTAL ENERGY:     -422.296555137 Eh
FINAL SINGLE POINT ENERGY      -422.296555136682

DIPOLE MOMENT
-------------
                                X             Y             Z
Electronic contribution:      2.22917      -6.59345      -3.81430
Nuclear contribution   :     -2.44360       7.26897       4.18028
                        -----------------------------------------
Total Dipole Moment    :     -0.21443       0.67551       0.36598
                        -----------------------------------------
Magnitude (a.u.)       :      0.79765
Magnitude (Debye)      :      2.02745

                             ****ORCA TERMINATED NORMALLY****
TOTAL RUN TIME: 0 days 0 hours 13 minutes 35 seconds 4 msec
