                         Program Version 3.0.3 - RELEASE   -
|  1> ! RI-MP2 RIJK def2-TZVP def2-TZVP/C def2-TZVP/JK TIGHTSCF
|  2> % maxcore 2000
|  3> % mp2 density relaxed end
|  4> *xyz 0 1
|  5>  C       -0.1898611363     1.3574930564     0.2021372037
|  6>  C        0.0160912673    -0.1017988222    -0.0024105287
|  7>  N       -0.2932580428    -0.7796376022    -1.0308829178
|  8>  C        0.1238233875    -2.1593262009    -0.7745113774
|  9>  C        0.5847183647    -2.1391572163     0.7221522949
| 10>  O        0.6146553632    -0.7488579946     1.0449543455
| 11>  C       -0.4010386283    -2.8769670256     1.6109589308
| 12>  O       -1.1904217301    -2.3511261052     2.3467218983
| 13>  H        0.7667013856     1.8486930786     0.4058619667
| 14>  H       -0.6451449075     1.7923776459    -0.6866885714
| 15>  H       -0.8348761325     1.5253312034     1.0699055804
| 16>  H       -0.7051052768    -2.8540926879    -0.9482507644
| 17>  H        0.9355470340    -2.4436124588    -1.4528475999
| 18>  H        1.5836734727    -2.5656142308     0.8630094902
| 19>  H       -0.3526624906    -3.9848908599     1.4894019189
| 20> *
| 21>
| 22>                          ****END OF INPUT****

CARTESIAN COORDINATES (ANGSTROEM)
---------------------------------
  C     -0.189861    1.357493    0.202137
  C      0.016091   -0.101799   -0.002411
  N     -0.293258   -0.779638   -1.030883
  C      0.123823   -2.159326   -0.774511
  C      0.584718   -2.139157    0.722152
  O      0.614655   -0.748858    1.044954
  C     -0.401039   -2.876967    1.610959
  O     -1.190422   -2.351126    2.346722
  H      0.766701    1.848693    0.405862
  H     -0.645145    1.792378   -0.686689
  H     -0.834876    1.525331    1.069906
  H     -0.705105   -2.854093   -0.948251
  H      0.935547   -2.443612   -1.452848
  H      1.583673   -2.565614    0.863009
  H     -0.352662   -3.984891    1.489402

 Total Charge           Charge          ....    0
 Multiplicity           Mult            ....    1
 Number of Electrons    NEL             ....   60
 Basis Dimension        Dim             ....  290

ORBITAL ENERGIES
----------------

  NO   OCC          E(Eh)            E(eV)
   0   2.0000     -20.602429      -560.6206
   1   2.0000     -20.570327      -559.7470
   2   2.0000     -15.549808      -423.1318
   3   2.0000     -11.343526      -308.6730
   4   2.0000     -11.342072      -308.6335
   5   2.0000     -11.315674      -307.9151
   6   2.0000     -11.278473      -306.9029
   7   2.0000     -11.239167      -305.8333
   8   2.0000      -1.452024       -39.5116
   9   2.0000      -1.406112       -38.2623
  10   2.0000      -1.220847       -33.2209
  11   2.0000      -1.077975       -29.3332
  12   2.0000      -0.988593       -26.9010
  13   2.0000      -0.901991       -24.5444
  14   2.0000      -0.821257       -22.3475
  15   2.0000      -0.759177       -20.6583
  16   2.0000      -0.723050       -19.6752
  17   2.0000      -0.695723       -18.9316
  18   2.0000      -0.659262       -17.9394
  19   2.0000      -0.642069       -17.4716
  20   2.0000      -0.604231       -16.4420
  21   2.0000      -0.588928       -16.0256
  22   2.0000      -0.561678       -15.2840
  23   2.0000      -0.556526       -15.1438
  24   2.0000      -0.551495       -15.0069
  25   2.0000      -0.532629       -14.4936
  26   2.0000      -0.513460       -13.9720
  27   2.0000      -0.446913       -12.1611
  28   2.0000      -0.432865       -11.7788
  29   2.0000      -0.386568       -10.5191
  30   0.0000       0.118115         3.2141
  31   0.0000       0.136583         3.7166
  32   0.0000       0.147401         4.0110
  33   0.0000       0.170267         4.6332
  34   0.0000       0.178591         4.8597

MULLIKEN ATOMIC CHARGES
-----------------------
   0 C :   -0.400021
   1 C :    0.214221
   2 N :   -0.268669
   3 C :   -0.136325
   4 C :    0.117453
   5 O :   -0.269454
   6 C :    0.050283
   7 O :   -0.246733
   8 H :    0.149085
   9 H :    0.159756
  10 H :    0.158771
  11 H :    0.132286
  12 H :    0.122621
  13 H :    0.132568
  14 H :    0.084157
Sum of atomic charges:    0.0000000

LOEWDIN ATOMIC CHARGES
----------------------
   0 C :   -0.257965
   1 C :   -0.385529
   2 N :    0.085884
   3 C :   -0.249004
   4 C :   -0.286158
   5 O :    0.266702
   6 C :   -0.284640
   7 O :    0.153811
   8 H :    0.139633
   9 H :    0.140964
  10 H :    0.142759
  11 H :    0.136373
  12 H :    0.132770
  13 H :    0.150253
  14 H :    0.114148

  Mayer bond orders larger than 0.1
B(  0-C ,  1-C ) :   0.8896 B(  0-C ,  8-H ) :   0.9233 B(  0-C ,  9-H ) :   0.9466
B(  0-C , 10-H ) :   0.9223 B(  1-C ,  2-N ) :   1.8516 B(  1-C ,  5-O ) :   1.0463
B(  2-N ,  3-C ) :   0.9382 B(  3-C ,  4-C ) :   0.8893 B(  3-C , 11-H ) :   0.9210
B(  3-C , 12-H ) :   0.9191 B(  4-C ,  5-O ) :   0.8997 B(  4-C ,  6-C ) :   0.8349
B(  4-C , 13-H ) :   0.9090 B(  6-C ,  7-O ) :   2.0265 B(  6-C , 14-H ) :   0.9315

MP2 TOTAL ENERGY:     -399.170566804 Eh
FINAL SINGLE POINT ENERGY      -399.170566804111

DIPOLE MOMENT
-------------
                                X             Y             Z
Electronic contribution:     -0.54181      -2.19312       2.57424
Nuclear contribution   :      1.33140       1.75658      -2.86157
                        -----------------------------------------
Total Dipole Moment    :      0.78959      -0.43654      -0.28733
                        -----------------------------------------
Magnitude (a.u.)       :      0.94688
Magnitude (Debye)      :      2.40677

                             ****ORCA TERMINATED NORMALLY****
TOTAL RUN TIME: 0 days 0 hours 11 minutes 10 seconds 104 msec
