                         Program Version 3.0.3 - RELEASE   -
|  1> ! RI-MP2 RIJK def2-TZVP def2-TZVP/C def2-TZVP/JK TIGHTSCF
|  2> % maxcore 2000
|  3> % mp2 density relaxed end
|  4> *xyz 0 1
|  5>  C        0.0165333446     1.4719195648    -0.0888040767
|  6>  N       -0.0497974341     0.0203800353    -0.0925860039
|  7>  C       -1.2312876870    -0.6207599160     0.1155808588
|  8>  O       -2.2863278912    -0.0791689174     0.3564780692
|  9>  N       -1.1359864407    -2.0416382098     0.0441176671
| 10>  C       -2.2352687977    -2.8774122539    -0.0772101576
| 11>  C       -1.7325126841    -4.1438621015    -0.0987284872
| 12>  N       -0.3537821119    -4.1280815577     0.0203471317
| 13>  C       -0.0304122732    -2.8664634078     0.1037674318
| 14>  H        0.9852005082     1.7950787922     0.3006035496
| 15>  H       -0.1243074396     1.8946932668    -1.0908075036
| 16>  H       -0.7773964307     1.8467344982     0.5569646726
| 17>  H        0.7024600942    -0.4872365383    -0.5272213002
| 18>  H       -3.2275022177    -2.4660492230    -0.1335364875
| 19>  H       -2.2745084341    -5.0723128326    -0.1903905576
| 20>  H        0.9683050650    -2.4851584994     0.2533455434
| 21> *
| 22>
| 23>                          ****END OF INPUT****

CARTESIAN COORDINATES (ANGSTROEM)
---------------------------------
  C      0.016533    1.471920   -0.088804
  N     -0.049797    0.020380   -0.092586
  C     -1.231288   -0.620760    0.115581
  O     -2.286328   -0.079169    0.356478
  N     -1.135986   -2.041638    0.044118
  C     -2.235269   -2.877412   -0.077210
  C     -1.732513   -4.143862   -0.098728
  N     -0.353782   -4.128082    0.020347
  C     -0.030412   -2.866463    0.103767
  H      0.985201    1.795079    0.300604
  H     -0.124307    1.894693   -1.090808
  H     -0.777396    1.846734    0.556965
  H      0.702460   -0.487237   -0.527221
  H     -3.227502   -2.466049   -0.133536
  H     -2.274508   -5.072313   -0.190391
  H      0.968305   -2.485158    0.253346

 Total Charge           Charge          ....    0
 Multiplicity           Mult            ....    1
 Number of Electrons    NEL             ....   66
 Basis Dimension        Dim             ....  321

ORBITAL ENERGIES
----------------

  NO   OCC          E(Eh)            E(eV)
   0   2.0000     -20.542027      -558.9770
   1   2.0000     -15.639444      -425.5709
   2   2.0000     -15.609951      -424.7684
   3   2.0000     -15.562751      -423.4840
   4   2.0000     -11.409895      -310.4790
   5   2.0000     -11.313823      -307.8648
   6   2.0000     -11.277597      -306.8790
   7   2.0000     -11.268492      -306.6313
   8   2.0000     -11.253239      -306.2162
   9   2.0000      -1.429752       -38.9055
  10   2.0000      -1.349422       -36.7196
  11   2.0000      -1.261016       -34.3140
  12   2.0000      -1.188853       -32.3503
  13   2.0000      -1.027092       -27.9486
  14   2.0000      -0.972960       -26.4756
  15   2.0000      -0.879758       -23.9394
  16   2.0000      -0.817851       -22.2549
  17   2.0000      -0.799670       -21.7601
  18   2.0000      -0.778928       -21.1957
  19   2.0000      -0.675500       -18.3813
  20   2.0000      -0.664217       -18.0743
  21   2.0000      -0.657596       -17.8941
  22   2.0000      -0.616037       -16.7632
  23   2.0000      -0.612610       -16.6700
  24   2.0000      -0.605844       -16.4859
  25   2.0000      -0.580153       -15.7868
  26   2.0000      -0.566993       -15.4287
  27   2.0000      -0.550174       -14.9710
  28   2.0000      -0.485426       -13.2091
  29   2.0000      -0.445400       -12.1200
  30   2.0000      -0.423735       -11.5304
  31   2.0000      -0.411137       -11.1876
  32   2.0000      -0.335110        -9.1188
  33   0.0000       0.108867         2.9624
  34   0.0000       0.122687         3.3385
  35   0.0000       0.155751         4.2382
  36   0.0000       0.183689         4.9984
  37   0.0000       0.185351         5.0436

MULLIKEN ATOMIC CHARGES
-----------------------
   0 C :   -0.291302
   1 N :   -0.343215
   2 C :    0.356891
   3 O :   -0.359865
   4 N :   -0.034134
   5 C :   -0.111269
   6 C :   -0.093599
   7 N :   -0.279764
   8 C :   -0.014598
   9 H :    0.144149
  10 H :    0.143606
  11 H :    0.175011
  12 H :    0.247943
  13 H :    0.173352
  14 H :    0.140505
  15 H :    0.146288
Sum of atomic charges:   -0.0000000

LOEWDIN ATOMIC CHARGES
----------------------
   0 C :   -0.302411
   1 N :    0.082043
   2 C :   -0.479219
   3 O :    0.104049
   4 N :    0.262626
   5 C :   -0.188835
   6 C :   -0.246490
   7 N :    0.094943
   8 C :   -0.297937
   9 H :    0.119757
  10 H :    0.117422
  11 H :    0.134831
  12 H :    0.186722
  13 H :    0.147054
  14 H :    0.135252
  15 H :    0.130194

  Mayer bond orders larger than 0.1
B(  0-C ,  1-N ) :   0.8621 B(  0-C ,  9-H ) :   0.9320 B(  0-C , 10-H ) :   0.9368
B(  0-C , 11-H ) :   0.9286 B(  1-N ,  2-C ) :   1.1891 B(  1-N , 12-H ) :   0.8655
B(  2-C ,  3-O ) :   1.9148 B(  2-C ,  4-N ) :   0.9284 B(  4-N ,  5-C ) :   1.0672
B(  4-N ,  8-C ) :   1.1126 B(  5-C ,  6-C ) :   1.5392 B(  5-C , 13-H ) :   0.9167
B(  6-C ,  7-N ) :   1.2291 B(  6-C , 14-H ) :   0.9385 B(  7-N ,  8-C ) :   1.6169
B(  8-C , 15-H ) :   0.9172

MP2 TOTAL ENERGY:     -433.408544342 Eh
FINAL SINGLE POINT ENERGY      -433.408544342323

DIPOLE MOMENT
-------------
                                X             Y             Z
Electronic contribution:     -2.21529      -4.80699       0.58026
Nuclear contribution   :      3.00873       5.89510      -0.98160
                        -----------------------------------------
Total Dipole Moment    :      0.79344       1.08812      -0.40134
                        -----------------------------------------
Magnitude (a.u.)       :      1.40521
Magnitude (Debye)      :      3.57177

                             ****ORCA TERMINATED NORMALLY****
TOTAL RUN TIME: 0 days 0 hours 14 minutes 24 seconds 398 msec
