                         Program Version 3.0.3 - RELEASE   -
|  1> ! RI-MP2 RIJK def2-TZVP def2-TZVP/C def2-TZVP/JK TIGHTSCF
|  2> % maxcore 2000
|  3> % mp2 density relaxed end
|  4> *xyz 0 1
|  5>  C       -0.0107482539     1.5676175034    -0.0550455476
|  6>  C        0.0693574654     0.0541610185     0.0497000631
|  7>  O        0.9199603358    -0.5019572285    -0.9903097070
|  8>  C        1.8405178709    -1.2958474568    -0.2305931290
|  9>  C        2.2656570552    -0.3562019343     0.9224004894
| 10>  C        0.7579163529    -0.5448673879     1.2996660390
| 11>  C        0.2010052769    -0.2033613261     2.6610422385
| 12>  O       -1.1861443758    -0.4977281721     2.7767771041
| 13>  C        0.9366983596    -2.0221723895     0.7944535814
| 14>  H        0.9542016099     2.0467844424     0.1329668438
| 15>  H       -0.3351751474     1.8502848696    -1.0607623644
| 16>  H       -0.7427884372     1.9575182146     0.6596907979
| 17>  H       -0.9389690182    -0.3632371658    -0.0609488030
| 18>  H        2.5363990598    -1.7995154538    -0.8996864559
| 19>  H        2.9356630210    -0.8282831525     1.6439908636
| 20>  H        2.6242926171     0.6394380650     0.6549438304
| 21>  H        0.7850889641    -0.7145680862     3.4427950132
| 22>  H        0.2895078629     0.8732095334     2.8462310662
| 23>  H       -1.2943496606    -1.4461232091     2.6509295053
| 24>  H        0.0638963152    -2.5481189349     0.3975092169
| 25>  H        1.4879208563    -2.6479034095     1.5000443341
| 26> *
| 27>
| 28>                          ****END OF INPUT****

CARTESIAN COORDINATES (ANGSTROEM)
---------------------------------
  C     -0.010748    1.567618   -0.055046
  C      0.069357    0.054161    0.049700
  O      0.919960   -0.501957   -0.990310
  C      1.840518   -1.295847   -0.230593
  C      2.265657   -0.356202    0.922400
  C      0.757916   -0.544867    1.299666
  C      0.201005   -0.203361    2.661042
  O     -1.186144   -0.497728    2.776777
  C      0.936698   -2.022172    0.794454
  H      0.954202    2.046784    0.132967
  H     -0.335175    1.850285   -1.060762
  H     -0.742788    1.957518    0.659691
  H     -0.938969   -0.363237   -0.060949
  H      2.536399   -1.799515   -0.899686
  H      2.935663   -0.828283    1.643991
  H      2.624293    0.639438    0.654944
  H      0.785089   -0.714568    3.442795
  H      0.289508    0.873210    2.846231
  H     -1.294350   -1.446123    2.650930
  H      0.063896   -2.548119    0.397509
  H      1.487921   -2.647903    1.500044

 Total Charge           Charge          ....    0
 Multiplicity           Mult            ....    1
 Number of Electrons    NEL             ....   70
 Basis Dimension        Dim             ....  351

ORBITAL ENERGIES
----------------

  NO   OCC          E(Eh)            E(eV)
   0   2.0000     -20.561164      -559.4977
   1   2.0000     -20.545733      -559.0778
   2   2.0000     -11.286119      -307.1109
   3   2.0000     -11.281227      -306.9778
   4   2.0000     -11.275492      -306.8217
   5   2.0000     -11.247032      -306.0473
   6   2.0000     -11.231021      -305.6116
   7   2.0000     -11.230197      -305.5892
   8   2.0000     -11.211823      -305.0892
   9   2.0000      -1.379691       -37.5433
  10   2.0000      -1.363867       -37.1127
  11   2.0000      -1.130327       -30.7578
  12   2.0000      -1.031682       -28.0735
  13   2.0000      -0.954035       -25.9606
  14   2.0000      -0.916144       -24.9295
  15   2.0000      -0.876222       -23.8432
  16   2.0000      -0.782617       -21.2961
  17   2.0000      -0.748056       -20.3556
  18   2.0000      -0.706917       -19.2362
  19   2.0000      -0.676463       -18.4075
  20   2.0000      -0.647402       -17.6167
  21   2.0000      -0.635097       -17.2819
  22   2.0000      -0.613362       -16.6904
  23   2.0000      -0.577309       -15.7094
  24   2.0000      -0.559853       -15.2344
  25   2.0000      -0.554613       -15.0918
  26   2.0000      -0.525514       -14.3000
  27   2.0000      -0.517715       -14.0877
  28   2.0000      -0.514732       -14.0066
  29   2.0000      -0.505714       -13.7612
  30   2.0000      -0.496366       -13.5068
  31   2.0000      -0.449182       -12.2229
  32   2.0000      -0.438691       -11.9374
  33   2.0000      -0.425703       -11.5840
  34   2.0000      -0.396723       -10.7954
  35   0.0000       0.126131         3.4322
  36   0.0000       0.149679         4.0730
  37   0.0000       0.157906         4.2969
  38   0.0000       0.168906         4.5962
  39   0.0000       0.191505         5.2111

MULLIKEN ATOMIC CHARGES
-----------------------
   0 C :   -0.436584
   1 C :    0.112751
   2 O :   -0.331922
   3 C :    0.073903
   4 C :   -0.268424
   5 C :   -0.063533
   6 C :    0.011386
   7 O :   -0.470517
   8 C :   -0.287658
   9 H :    0.122212
  10 H :    0.146628
  11 H :    0.140668
  12 H :    0.085456
  13 H :    0.128157
  14 H :    0.121080
  15 H :    0.122237
  16 H :    0.107979
  17 H :    0.122705
  18 H :    0.316769
  19 H :    0.123691
  20 H :    0.123018
Sum of atomic charges:    0.0000000

LOEWDIN ATOMIC CHARGES
----------------------
   0 C :   -0.290174
   1 C :   -0.270655
   2 O :    0.171202
   3 C :   -0.272625
   4 C :   -0.178313
   5 C :   -0.246599
   6 C :   -0.307833
   7 O :   -0.042687
   8 C :   -0.188937
   9 H :    0.122384
  10 H :    0.130852
  11 H :    0.130318
  12 H :    0.142245
  13 H :    0.128875
  14 H :    0.139831
  15 H :    0.129268
  16 H :    0.123128
  17 H :    0.136625
  18 H :    0.174946
  19 H :    0.130249
  20 H :    0.137899

  Mayer bond orders larger than 0.1
B(  0-C ,  1-C ) :   0.9117 B(  0-C ,  9-H ) :   0.9374 B(  0-C , 10-H ) :   0.9372
B(  0-C , 11-H ) :   0.9350 B(  1-C ,  2-O ) :   0.9036 B(  1-C ,  5-C ) :   0.9148
B(  1-C , 12-H ) :   0.9132 B(  2-O ,  3-C ) :   0.9421 B(  3-C ,  4-C ) :   0.9116
B(  3-C ,  8-C ) :   0.9163 B(  3-C , 13-H ) :   0.9242 B(  4-C ,  5-C ) :   0.8822
B(  4-C , 14-H ) :   0.9196 B(  4-C , 15-H ) :   0.9179 B(  5-C ,  6-C ) :   0.8966
B(  5-C ,  8-C ) :   0.8965 B(  6-C ,  7-O ) :   0.8836 B(  6-C , 16-H ) :   0.9360
B(  6-C , 17-H ) :   0.9269 B(  7-O , 18-H ) :   0.8464 B(  8-C , 19-H ) :   0.9205
B(  8-C , 20-H ) :   0.9241

MP2 TOTAL ENERGY:     -423.509435499 Eh
FINAL SINGLE POINT ENERGY      -423.509435499227

DIPOLE MOMENT
-------------
                                X             Y             Z
Electronic contribution:     -0.61057      -2.28296      -1.37267
Nuclear contribution   :      1.06640       1.82459       1.86773
                        -----------------------------------------
Total Dipole Moment    :      0.45583      -0.45837       0.49505
                        -----------------------------------------
Magnitude (a.u.)       :      0.81423
Magnitude (Debye)      :      2.06960

                             ****ORCA TERMINATED NORMALLY****
TOTAL RUN TIME: 0 days 0 hours 19 minutes 17 seconds 799 msec
