                         Program Version 3.0.3 - RELEASE   -
|  1> ! RI-MP2 RIJK def2-TZVP def2-TZVP/C def2-TZVP/JK TIGHTSCF
|  2> % maxcore 2000
|  3> % mp2 density relaxed end
|  4> *xyz 0 1
|  5>  C       -0.0788050197     1.4325619983    -0.0446579951
|  6>  C        1.3294246760     0.8268149566    -0.0466313720
|  7>  C        2.1587066022     0.3969945795    -1.2518287854
|  8>  C        1.4651561187    -0.8842690416    -1.7211984762
|  9>  C        0.9461724705    -1.9860514545    -0.7704584900
| 10>  C        0.9312886165    -1.9158339338     0.7718046134
| 11>  O       -0.0330859224    -0.8990715948     1.1234698802
| 12>  C        0.0905434474    -0.0383125399     0.0220545201
| 13>  C        0.0419170952    -0.8851626736    -1.2382110851
| 14>  H       -0.3399202497     1.9757659977     0.8573577242
| 15>  H       -0.5112742756     1.8416719793    -0.9537047586
| 16>  H        1.8548020551     0.9740486628     0.8907604363
| 17>  H        2.1659322791     1.1261011251    -2.0729146067
| 18>  H        3.2040994223     0.2422862757    -0.9609416048
| 19>  H        1.6902775142    -1.2458312767    -2.7212700360
| 20>  H        0.8871013145    -2.9724305126    -1.2167732096
| 21>  H        0.5953240617    -2.8611858300     1.2065114316
| 22>  H        1.9109089998    -1.6597594919     1.1972133652
| 23>  H       -0.8508528458    -1.0008370955    -1.8411296314
| 24> *
| 25>
| 26>                          ****END OF INPUT****

CARTESIAN COORDINATES (ANGSTROEM)
---------------------------------
  C     -0.078805    1.432562   -0.044658
  C      1.329425    0.826815   -0.046631
  C      2.158707    0.396995   -1.251829
  C      1.465156   -0.884269   -1.721198
  C      0.946172   -1.986051   -0.770458
  C      0.931289   -1.915834    0.771805
  O     -0.033086   -0.899072    1.123470
  C      0.090543   -0.038313    0.022055
  C      0.041917   -0.885163   -1.238211
  H     -0.339920    1.975766    0.857358
  H     -0.511274    1.841672   -0.953705
  H      1.854802    0.974049    0.890760
  H      2.165932    1.126101   -2.072915
  H      3.204099    0.242286   -0.960942
  H      1.690278   -1.245831   -2.721270
  H      0.887101   -2.972431   -1.216773
  H      0.595324   -2.861186    1.206511
  H      1.910909   -1.659759    1.197213
  H     -0.850853   -1.000837   -1.841130

 Total Charge           Charge          ....    0
 Multiplicity           Mult            ....    1
 Number of Electrons    NEL             ....   66
 Basis Dimension        Dim             ....  339

ORBITAL ENERGIES
----------------

  NO   OCC          E(Eh)            E(eV)
   0   2.0000     -20.552652      -559.2661
   1   2.0000     -11.277245      -306.8694
   2   2.0000     -11.277087      -306.8651
   3   2.0000     -11.240349      -305.8654
   4   2.0000     -11.236826      -305.7696
   5   2.0000     -11.236567      -305.7625
   6   2.0000     -11.229110      -305.5596
   7   2.0000     -11.226542      -305.4898
   8   2.0000     -11.220138      -305.3155
   9   2.0000      -1.381982       -37.6057
  10   2.0000      -1.184673       -32.2366
  11   2.0000      -1.111503       -30.2455
  12   2.0000      -0.980558       -26.6823
  13   2.0000      -0.941726       -25.6257
  14   2.0000      -0.842921       -22.9371
  15   2.0000      -0.798677       -21.7331
  16   2.0000      -0.763291       -20.7702
  17   2.0000      -0.744094       -20.2478
  18   2.0000      -0.687926       -18.7194
  19   2.0000      -0.663510       -18.0550
  20   2.0000      -0.622437       -16.9374
  21   2.0000      -0.599853       -16.3228
  22   2.0000      -0.592127       -16.1126
  23   2.0000      -0.574848       -15.6424
  24   2.0000      -0.555350       -15.1118
  25   2.0000      -0.519921       -14.1478
  26   2.0000      -0.499988       -13.6054
  27   2.0000      -0.488662       -13.2972
  28   2.0000      -0.450392       -12.2558
  29   2.0000      -0.431373       -11.7382
  30   2.0000      -0.405299       -11.0287
  31   2.0000      -0.398374       -10.8403
  32   2.0000      -0.363132        -9.8813
  33   0.0000       0.142308         3.8724
  34   0.0000       0.158845         4.3224
  35   0.0000       0.163890         4.4597
  36   0.0000       0.176626         4.8062
  37   0.0000       0.190552         5.1852

MULLIKEN ATOMIC CHARGES
-----------------------
   0 C :   -0.270949
   1 C :   -0.161342
   2 C :   -0.184177
   3 C :   -0.149584
   4 C :   -0.144749
   5 C :   -0.043899
   6 O :   -0.310837
   7 C :    0.255802
   8 C :   -0.206547
   9 H :    0.138461
  10 H :    0.137168
  11 H :    0.119904
  12 H :    0.115209
  13 H :    0.112122
  14 H :    0.114679
  15 H :    0.130808
  16 H :    0.120221
  17 H :    0.091026
  18 H :    0.136682
Sum of atomic charges:   -0.0000000

LOEWDIN ATOMIC CHARGES
----------------------
   0 C :   -0.167846
   1 C :   -0.170025
   2 C :   -0.221446
   3 C :   -0.162310
   4 C :   -0.171242
   5 C :   -0.253622
   6 O :    0.190623
   7 C :   -0.304718
   8 C :   -0.137939
   9 H :    0.143973
  10 H :    0.139496
  11 H :    0.150329
  12 H :    0.140002
  13 H :    0.140079
  14 H :    0.144683
  15 H :    0.147700
  16 H :    0.128820
  17 H :    0.122653
  18 H :    0.140791

  Mayer bond orders larger than 0.1
B(  0-C ,  1-C ) :   0.9225 B(  0-C ,  7-C ) :   0.9289 B(  0-C ,  9-H ) :   0.9089
B(  0-C , 10-H ) :   0.9121 B(  1-C ,  2-C ) :   0.9337 B(  1-C ,  7-C ) :   0.8379
B(  1-C , 11-H ) :   0.9187 B(  2-C ,  3-C ) :   0.9626 B(  2-C , 12-H ) :   0.9074
B(  2-C , 13-H ) :   0.9204 B(  3-C ,  4-C ) :   0.8610 B(  3-C ,  8-C ) :   0.8877
B(  3-C , 14-H ) :   0.9281 B(  4-C ,  5-C ) :   0.9656 B(  4-C ,  8-C ) :   0.8870
B(  4-C , 15-H ) :   0.9271 B(  5-C ,  6-O ) :   0.9295 B(  5-C , 16-H ) :   0.9167
B(  5-C , 17-H ) :   0.9228 B(  6-O ,  7-C ) :   1.0252 B(  7-C ,  8-C ) :   0.8866
B(  8-C , 18-H ) :   0.9128

MP2 TOTAL ENERGY:     -385.179027140 Eh
FINAL SINGLE POINT ENERGY      -385.179027139596

DIPOLE MOMENT
-------------
                                X             Y             Z
Electronic contribution:     -2.45569      -0.91506       1.71816
Nuclear contribution   :      2.80853       0.83252      -2.24512
                        -----------------------------------------
Total Dipole Moment    :      0.35284      -0.08254      -0.52697
                        -----------------------------------------
Magnitude (a.u.)       :      0.63953
Magnitude (Debye)      :      1.62556

                             ****ORCA TERMINATED NORMALLY****
TOTAL RUN TIME: 0 days 0 hours 18 minutes 55 seconds 812 msec
