                         Program Version 3.0.3 - RELEASE   -
|  1> ! RI-MP2 RIJK def2-TZVP def2-TZVP/C def2-TZVP/JK TIGHTSCF
|  2> % maxcore 2000
|  3> % mp2 density relaxed end
|  4> *xyz 0 1
|  5>  C        0.5056986050     1.4694691969    -0.0675568587
|  6>  O        1.0927715808     0.1797577807    -0.3110023113
|  7>  C        0.3869666224    -0.6350319989    -1.0939733266
|  8>  O       -0.6595044936    -0.3714851021    -1.6294590011
|  9>  C        1.0363445749    -1.9866845440    -1.2440921348
| 10>  O        2.4193873301    -2.1355276663    -0.9589253410
| 11>  C        1.5099220944    -2.7792984879    -0.0791251980
| 12>  C        1.4250855760    -2.2899173398     1.2808387727
| 13>  N        1.3464494945    -1.9636169900     2.3861955153
| 14>  H        0.3790601977     2.0106576471    -1.0078869862
| 15>  H       -0.4672103487     1.3575568553     0.4159345945
| 16>  H        1.2037167756     1.9885212937     0.5873172044
| 17>  H        0.6630230455    -2.5379728228    -2.1042400830
| 18>  H        1.4727082554    -3.8645356219    -0.1598076063
| 19> *
| 20>
| 21>                          ****END OF INPUT****

CARTESIAN COORDINATES (ANGSTROEM)
---------------------------------
  C      0.505699    1.469469   -0.067557
  O      1.092772    0.179758   -0.311002
  C      0.386967   -0.635032   -1.093973
  O     -0.659504   -0.371485   -1.629459
  C      1.036345   -1.986685   -1.244092
  O      2.419387   -2.135528   -0.958925
  C      1.509922   -2.779298   -0.079125
  C      1.425086   -2.289917    1.280839
  N      1.346449   -1.963617    2.386196
  H      0.379060    2.010658   -1.007887
  H     -0.467210    1.357557    0.415935
  H      1.203717    1.988521    0.587317
  H      0.663023   -2.537973   -2.104240
  H      1.472708   -3.864536   -0.159808

 Total Charge           Charge          ....    0
 Multiplicity           Mult            ....    1
 Number of Electrons    NEL             ....   66
 Basis Dimension        Dim             ....  309

ORBITAL ENERGIES
----------------

  NO   OCC          E(Eh)            E(eV)
   0   2.0000     -20.632628      -561.4424
   1   2.0000     -20.625228      -561.2410
   2   2.0000     -20.570696      -559.7571
   3   2.0000     -15.596704      -424.4079
   4   2.0000     -11.409243      -310.4613
   5   2.0000     -11.371262      -309.4278
   6   2.0000     -11.349572      -308.8376
   7   2.0000     -11.299198      -307.4668
   8   2.0000     -11.295831      -307.3752
   9   2.0000      -1.496013       -40.7086
  10   2.0000      -1.471587       -40.0439
  11   2.0000      -1.387578       -37.7579
  12   2.0000      -1.239360       -33.7247
  13   2.0000      -1.038722       -28.2651
  14   2.0000      -1.006914       -27.3995
  15   2.0000      -0.951237       -25.8845
  16   2.0000      -0.823563       -22.4103
  17   2.0000      -0.778178       -21.1753
  18   2.0000      -0.751956       -20.4618
  19   2.0000      -0.700915       -19.0729
  20   2.0000      -0.691484       -18.8162
  21   2.0000      -0.686578       -18.6827
  22   2.0000      -0.624642       -16.9974
  23   2.0000      -0.605465       -16.4755
  24   2.0000      -0.581756       -15.8304
  25   2.0000      -0.580184       -15.7876
  26   2.0000      -0.549286       -14.9468
  27   2.0000      -0.535559       -14.5733
  28   2.0000      -0.530758       -14.4427
  29   2.0000      -0.493058       -13.4168
  30   2.0000      -0.481027       -13.0894
  31   2.0000      -0.475401       -12.9363
  32   2.0000      -0.456068       -12.4102
  33   0.0000       0.110461         3.0058
  34   0.0000       0.126505         3.4424
  35   0.0000       0.136366         3.7107
  36   0.0000       0.146589         3.9889
  37   0.0000       0.167636         4.5616

MULLIKEN ATOMIC CHARGES
-----------------------
   0 C :   -0.225291
   1 O :   -0.226882
   2 C :    0.302772
   3 O :   -0.314803
   4 C :    0.040690
   5 O :   -0.277564
   6 C :    0.123173
   7 C :   -0.152030
   8 N :   -0.048789
   9 H :    0.146361
  10 H :    0.148463
  11 H :    0.156000
  12 H :    0.161393
  13 H :    0.166507
Sum of atomic charges:    0.0000000

LOEWDIN ATOMIC CHARGES
----------------------
   0 C :   -0.290869
   1 O :    0.264693
   2 C :   -0.487555
   3 O :    0.141493
   4 C :   -0.206084
   5 O :    0.224638
   6 C :   -0.246574
   7 C :   -0.164383
   8 N :    0.089411
   9 H :    0.117290
  10 H :    0.117939
  11 H :    0.119947
  12 H :    0.156642
  13 H :    0.163412

  Mayer bond orders larger than 0.1
B(  0-C ,  1-O ) :   0.8240 B(  0-C ,  9-H ) :   0.9373 B(  0-C , 10-H ) :   0.9367
B(  0-C , 11-H ) :   0.9322 B(  1-O ,  2-C ) :   1.1588 B(  2-C ,  3-O ) :   1.9044
B(  2-C ,  4-C ) :   0.9202 B(  4-C ,  5-O ) :   0.9055 B(  4-C ,  6-C ) :   0.9189
B(  4-C , 12-H ) :   0.9203 B(  5-O ,  6-C ) :   0.9199 B(  6-C ,  7-C ) :   0.9309
B(  6-C , 13-H ) :   0.9074 B(  7-C ,  8-N ) :   2.8137

MP2 TOTAL ENERGY:     -473.074161718 Eh
FINAL SINGLE POINT ENERGY      -473.074161718437

DIPOLE MOMENT
-------------
                                X             Y             Z
Electronic contribution:      1.57010      -4.34357       0.40009
Nuclear contribution   :     -1.60727       4.21494      -1.04996
                        -----------------------------------------
Total Dipole Moment    :     -0.03717      -0.12863      -0.64987
                        -----------------------------------------
Magnitude (a.u.)       :      0.66352
Magnitude (Debye)      :      1.68653

                             ****ORCA TERMINATED NORMALLY****
TOTAL RUN TIME: 0 days 0 hours 13 minutes 22 seconds 152 msec
