                         Program Version 3.0.3 - RELEASE   -
|  1> ! RI-MP2 RIJK def2-TZVP def2-TZVP/C def2-TZVP/JK TIGHTSCF
|  2> % maxcore 2000
|  3> % mp2 density relaxed end
|  4> *xyz 0 1
|  5>  C       -0.1981107699     1.5142589543     0.0168747275
|  6>  C        0.0679365302     0.0010222389     0.0230675934
|  7>  O        0.9226869304    -0.2499453202     1.1378577551
|  8>  C       -1.2813860259    -0.6761759103     0.3026593689
|  9>  O       -2.2071960163    -0.7440808034    -0.4678096296
| 10>  C        0.7381437352    -0.4872627008    -1.2756259848
| 11>  C        2.0686233668     0.1734107810    -1.5896082889
| 12>  C        0.5224137594    -1.9080009045    -1.6861999806
| 13>  N       -0.0710914377    -0.8044864278    -2.4554121954
| 14>  H        0.7432322726     2.0580948901    -0.0789000510
| 15>  H       -0.8599980063     1.7770330607    -0.8114000635
| 16>  H       -0.6693213009     1.8184892729     0.9560898084
| 17>  H        1.2651566595    -1.1468819548     1.0496792619
| 18>  H       -1.3488442810    -1.0807281067     1.3375189488
| 19>  H        2.7405963092     0.1388825674    -0.7275776053
| 20>  H        2.5426591971    -0.3359736073    -2.4316015609
| 21>  H        1.9311065925     1.2203311986    -1.8762964079
| 22>  H        1.3208337902    -2.4488150061    -2.1874007202
| 23>  H       -0.1405458998    -2.5362519787    -1.0946458187
| 24>  H       -1.0622735454    -0.7329729432    -2.2305767870
| 25> *
| 26>
| 27>                          ****END OF INPUT****

CARTESIAN COORDINATES (ANGSTROEM)
---------------------------------
  C     -0.198111    1.514259    0.016875
  C      0.067937    0.001022    0.023068
  O      0.922687   -0.249945    1.137858
  C     -1.281386   -0.676176    0.302659
  O     -2.207196   -0.744081   -0.467810
  C      0.738144   -0.487263   -1.275626
  C      2.068623    0.173411   -1.589608
  C      0.522414   -1.908001   -1.686200
  N     -0.071091   -0.804486   -2.455412
  H      0.743232    2.058095   -0.078900
  H     -0.859998    1.777033   -0.811400
  H     -0.669321    1.818489    0.956090
  H      1.265157   -1.146882    1.049679
  H     -1.348844   -1.080728    1.337519
  H      2.740596    0.138883   -0.727578
  H      2.542659   -0.335974   -2.431602
  H      1.931107    1.220331   -1.876296
  H      1.320834   -2.448815   -2.187401
  H     -0.140546   -2.536252   -1.094646
  H     -1.062274   -0.732973   -2.230577

 Total Charge           Charge          ....    0
 Multiplicity           Mult            ....    1
 Number of Electrons    NEL             ....   70
 Basis Dimension        Dim             ....  345

ORBITAL ENERGIES
----------------

  NO   OCC          E(Eh)            E(eV)
   0   2.0000     -20.580501      -560.0239
   1   2.0000     -20.576911      -559.9262
   2   2.0000     -15.557842      -423.3504
   3   2.0000     -11.346677      -308.7588
   4   2.0000     -11.317373      -307.9614
   5   2.0000     -11.280483      -306.9576
   6   2.0000     -11.262304      -306.4629
   7   2.0000     -11.234230      -305.6989
   8   2.0000     -11.222384      -305.3766
   9   2.0000      -1.419219       -38.6189
  10   2.0000      -1.389131       -37.8002
  11   2.0000      -1.271216       -34.5915
  12   2.0000      -1.060260       -28.8512
  13   2.0000      -0.990711       -26.9586
  14   2.0000      -0.919901       -25.0318
  15   2.0000      -0.882745       -24.0207
  16   2.0000      -0.835410       -22.7327
  17   2.0000      -0.767147       -20.8751
  18   2.0000      -0.739091       -20.1117
  19   2.0000      -0.694671       -18.9030
  20   2.0000      -0.671126       -18.2623
  21   2.0000      -0.634349       -17.2615
  22   2.0000      -0.609766       -16.5926
  23   2.0000      -0.589082       -16.0297
  24   2.0000      -0.584804       -15.9133
  25   2.0000      -0.564393       -15.3579
  26   2.0000      -0.558542       -15.1987
  27   2.0000      -0.547432       -14.8964
  28   2.0000      -0.530632       -14.4392
  29   2.0000      -0.515327       -14.0228
  30   2.0000      -0.507345       -13.8056
  31   2.0000      -0.470432       -12.8011
  32   2.0000      -0.461877       -12.5683
  33   2.0000      -0.425082       -11.5671
  34   2.0000      -0.386350       -10.5131
  35   0.0000       0.105691         2.8760
  36   0.0000       0.130418         3.5489
  37   0.0000       0.159879         4.3505
  38   0.0000       0.165941         4.5155
  39   0.0000       0.177093         4.8189

MULLIKEN ATOMIC CHARGES
-----------------------
   0 C :   -0.423926
   1 C :    0.315887
   2 O :   -0.454119
   3 C :    0.041355
   4 O :   -0.277004
   5 C :    0.026153
   6 C :   -0.432181
   7 C :   -0.210424
   8 N :   -0.376104
   9 H :    0.151342
  10 H :    0.150878
  11 H :    0.145618
  12 H :    0.320060
  13 H :    0.109835
  14 H :    0.134723
  15 H :    0.144466
  16 H :    0.140607
  17 H :    0.125704
  18 H :    0.126587
  19 H :    0.240542
Sum of atomic charges:    0.0000000

LOEWDIN ATOMIC CHARGES
----------------------
   0 C :   -0.249278
   1 C :   -0.372433
   2 O :    0.020949
   3 C :   -0.255127
   4 O :    0.137514
   5 C :   -0.307256
   6 C :   -0.263018
   7 C :   -0.250954
   8 N :    0.025257
   9 H :    0.133667
  10 H :    0.137379
  11 H :    0.133659
  12 H :    0.179121
  13 H :    0.120014
  14 H :    0.128463
  15 H :    0.133237
  16 H :    0.129218
  17 H :    0.126381
  18 H :    0.124317
  19 H :    0.168891

  Mayer bond orders larger than 0.1
B(  0-C ,  1-C ) :   0.8525 B(  0-C ,  9-H ) :   0.9382 B(  0-C , 10-H ) :   0.9284
B(  0-C , 11-H ) :   0.9288 B(  1-C ,  2-O ) :   0.9571 B(  1-C ,  3-C ) :   0.7902
B(  1-C ,  5-C ) :   0.9338 B(  2-O , 12-H ) :   0.8332 B(  3-C ,  4-O ) :   1.9426
B(  3-C , 13-H ) :   0.9340 B(  5-C ,  6-C ) :   0.9023 B(  5-C ,  7-C ) :   0.9131
B(  5-C ,  8-N ) :   0.8404 B(  6-C , 14-H ) :   0.9332 B(  6-C , 15-H ) :   0.9317
B(  6-C , 16-H ) :   0.9426 B(  7-C ,  8-N ) :   0.9484 B(  7-C , 17-H ) :   0.9088
B(  7-C , 18-H ) :   0.9169 B(  8-N , 19-H ) :   0.8590

MP2 TOTAL ENERGY:     -439.552661372 Eh
FINAL SINGLE POINT ENERGY      -439.552661372470

DIPOLE MOMENT
-------------
                                X             Y             Z
Electronic contribution:     -4.88408      -2.68531       1.56466
Nuclear contribution   :      5.40227       2.40302      -0.99322
                        -----------------------------------------
Total Dipole Moment    :      0.51819      -0.28229       0.57144
                        -----------------------------------------
Magnitude (a.u.)       :      0.82143
Magnitude (Debye)      :      2.08791

                             ****ORCA TERMINATED NORMALLY****
TOTAL RUN TIME: 0 days 0 hours 23 minutes 19 seconds 774 msec
