                         Program Version 3.0.3 - RELEASE   -
|  1> ! RI-MP2 RIJK def2-TZVP def2-TZVP/C def2-TZVP/JK TIGHTSCF
|  2> % maxcore 2000
|  3> % mp2 density relaxed end
|  4> *xyz 0 1
|  5>  O       -0.0044878543     0.0627706115    -0.3163668378
|  6>  C        0.0119813954     1.2147397403     0.0034318128
|  7>  C       -1.1305682391     2.2669188574     0.2058916344
|  8>  C       -0.0473217590     3.3360014597    -0.0193874300
|  9>  C        0.9885425649     3.3414942379     1.0478738463
| 10>  C        1.0794231460     2.2877688561    -0.0517788976
| 11>  O        1.8933341189     2.6081244526    -1.1353781346
| 12>  C        1.0444156304     3.3766015527    -1.9933498298
| 13>  O        0.1377274405     4.1181745013    -1.1567966416
| 14>  H       -1.8448098764     2.1785707932    -0.6170776537
| 15>  H       -1.6698429181     2.3073828261     1.1550598725
| 16>  H        1.7633105848     4.0926659547     0.9553944579
| 17>  H        0.7262110786     3.0563059000     2.0616825556
| 18>  H        1.6564340288     4.0781554990    -2.5635924270
| 19>  H        0.4755615485     2.7128469876    -2.6612381775
| 20> *
| 21>
| 22>                          ****END OF INPUT****

CARTESIAN COORDINATES (ANGSTROEM)
---------------------------------
  O     -0.004488    0.062771   -0.316367
  C      0.011981    1.214740    0.003432
  C     -1.130568    2.266919    0.205892
  C     -0.047322    3.336001   -0.019387
  C      0.988543    3.341494    1.047874
  C      1.079423    2.287769   -0.051779
  O      1.893334    2.608124   -1.135378
  C      1.044416    3.376602   -1.993350
  O      0.137727    4.118175   -1.156797
  H     -1.844810    2.178571   -0.617078
  H     -1.669843    2.307383    1.155060
  H      1.763311    4.092666    0.955394
  H      0.726211    3.056306    2.061683
  H      1.656434    4.078155   -2.563592
  H      0.475562    2.712847   -2.661238

 Total Charge           Charge          ....    0
 Multiplicity           Mult            ....    1
 Number of Electrons    NEL             ....   66
 Basis Dimension        Dim             ....  315

ORBITAL ENERGIES
----------------

  NO   OCC          E(Eh)            E(eV)
   0   2.0000     -20.598950      -560.5259
   1   2.0000     -20.598672      -560.5184
   2   2.0000     -20.562940      -559.5460
   3   2.0000     -11.356493      -309.0259
   4   2.0000     -11.355451      -308.9975
   5   2.0000     -11.316673      -307.9423
   6   2.0000     -11.307182      -307.6841
   7   2.0000     -11.277217      -306.8687
   8   2.0000     -11.268333      -306.6269
   9   2.0000      -1.473116       -40.0855
  10   2.0000      -1.406941       -38.2848
  11   2.0000      -1.366689       -37.1895
  12   2.0000      -1.205115       -32.7928
  13   2.0000      -1.016823       -27.6692
  14   2.0000      -0.939291       -25.5594
  15   2.0000      -0.893875       -24.3236
  16   2.0000      -0.814353       -22.1597
  17   2.0000      -0.751126       -20.4392
  18   2.0000      -0.724435       -19.7129
  19   2.0000      -0.707576       -19.2541
  20   2.0000      -0.667424       -18.1615
  21   2.0000      -0.646799       -17.6003
  22   2.0000      -0.639610       -17.4047
  23   2.0000      -0.616402       -16.7732
  24   2.0000      -0.590951       -16.0806
  25   2.0000      -0.584124       -15.8948
  26   2.0000      -0.577572       -15.7165
  27   2.0000      -0.548948       -14.9376
  28   2.0000      -0.519401       -14.1336
  29   2.0000      -0.486479       -13.2378
  30   2.0000      -0.447124       -12.1669
  31   2.0000      -0.413688       -11.2570
  32   2.0000      -0.378173       -10.2906
  33   0.0000       0.121958         3.3187
  34   0.0000       0.136117         3.7039
  35   0.0000       0.157942         4.2978
  36   0.0000       0.165282         4.4975
  37   0.0000       0.181550         4.9402

MULLIKEN ATOMIC CHARGES
-----------------------
   0 O :   -0.235675
   1 C :    0.037029
   2 C :   -0.188637
   3 C :    0.132501
   4 C :   -0.289083
   5 C :    0.252098
   6 O :   -0.311692
   7 C :    0.073475
   8 O :   -0.312303
   9 H :    0.142201
  10 H :    0.148076
  11 H :    0.158075
  12 H :    0.147182
  13 H :    0.137268
  14 H :    0.109485
Sum of atomic charges:    0.0000000

LOEWDIN ATOMIC CHARGES
----------------------
   0 O :    0.174436
   1 C :   -0.291964
   2 C :   -0.161227
   3 C :   -0.279912
   4 C :   -0.138109
   5 C :   -0.248878
   6 O :    0.211861
   7 C :   -0.305517
   8 O :    0.202056
   9 H :    0.156230
  10 H :    0.140187
  11 H :    0.159094
  12 H :    0.144309
  13 H :    0.122818
  14 H :    0.114616

  Mayer bond orders larger than 0.1
B(  0-O ,  1-C ) :   2.0308 B(  1-C ,  2-C ) :   0.8997 B(  1-C ,  5-C ) :   0.8446
B(  2-C ,  3-C ) :   0.9130 B(  2-C ,  5-C ) :  -0.1243 B(  2-C ,  9-H ) :   0.8881
B(  2-C , 10-H ) :   0.8991 B(  3-C ,  4-C ) :   0.9413 B(  3-C ,  5-C ) :   0.7344
B(  3-C ,  8-O ) :   1.0030 B(  4-C ,  5-C ) :   0.8565 B(  4-C , 11-H ) :   0.9026
B(  4-C , 12-H ) :   0.8995 B(  5-C ,  6-O ) :   0.9824 B(  6-O ,  7-C ) :   0.9437
B(  7-C ,  8-O ) :   0.9328 B(  7-C , 13-H ) :   0.9248 B(  7-C , 14-H ) :   0.9186

MP2 TOTAL ENERGY:     -456.972465001 Eh
FINAL SINGLE POINT ENERGY      -456.972465000950

DIPOLE MOMENT
-------------
                                X             Y             Z
Electronic contribution:      1.23008      -2.22695      -0.56620
Nuclear contribution   :     -1.49219       3.11496       0.78435
                        -----------------------------------------
Total Dipole Moment    :     -0.26212       0.88801       0.21814
                        -----------------------------------------
Magnitude (a.u.)       :      0.95124
Magnitude (Debye)      :      2.41785

                             ****ORCA TERMINATED NORMALLY****
TOTAL RUN TIME: 0 days 0 hours 17 minutes 25 seconds 422 msec
