                         Program Version 3.0.3 - RELEASE   -
|  1> ! RI-MP2 RIJK def2-TZVP def2-TZVP/C def2-TZVP/JK TIGHTSCF
|  2> % maxcore 2000
|  3> % mp2 density relaxed end
|  4> *xyz 0 1
|  5>  C        0.0616345142     1.3112212072    -0.4238838206
|  6>  C        0.0466742272    -0.1157131554     0.1579139283
|  7>  C        0.6619459598    -0.1376966182     1.5630361004
|  8>  C       -1.3425819456    -0.6966712768     0.1283762151
|  9>  C       -2.1236618587    -1.0541339876     1.1784519710
| 10>  O       -3.3382145417    -1.5351321863     0.7355514772
| 11>  C       -3.3097499099    -1.4803045337    -0.6149134157
| 12>  N       -4.4860849549    -1.8605603070    -1.2476843022
| 13>  C       -2.1219399266    -0.9798820034    -1.0549996569
| 14>  H        1.0836879247     1.7028187509    -0.4663382341
| 15>  H       -0.3538467761     1.3353894049    -1.4354647114
| 16>  H       -0.5371880771     1.9855656106     0.1977544730
| 17>  H        0.6774045915    -0.7383650438    -0.4933786234
| 18>  H        0.0853584852     0.4891484364     2.2527702080
| 19>  H        0.6896767803    -1.1526658771     1.9708506238
| 20>  H        1.6855196152     0.2489394419     1.5424394647
| 21>  H       -1.9961108554    -1.0492154582     2.2463865902
| 22>  H       -4.9760270536    -2.5911648644    -0.7465391974
| 23>  H       -4.3404642857    -2.1263062354    -2.2117093205
| 24>  H       -1.8258432329    -0.8337447046    -2.0819390393
| 25> *
| 26>
| 27>                          ****END OF INPUT****

CARTESIAN COORDINATES (ANGSTROEM)
---------------------------------
  C      0.061635    1.311221   -0.423884
  C      0.046674   -0.115713    0.157914
  C      0.661946   -0.137697    1.563036
  C     -1.342582   -0.696671    0.128376
  C     -2.123662   -1.054134    1.178452
  O     -3.338215   -1.535132    0.735551
  C     -3.309750   -1.480305   -0.614913
  N     -4.486085   -1.860560   -1.247684
  C     -2.121940   -0.979882   -1.055000
  H      1.083688    1.702819   -0.466338
  H     -0.353847    1.335389   -1.435465
  H     -0.537188    1.985566    0.197754
  H      0.677405   -0.738365   -0.493379
  H      0.085358    0.489148    2.252770
  H      0.689677   -1.152666    1.970851
  H      1.685520    0.248939    1.542439
  H     -1.996111   -1.049215    2.246387
  H     -4.976027   -2.591165   -0.746539
  H     -4.340464   -2.126306   -2.211709
  H     -1.825843   -0.833745   -2.081939

 Total Charge           Charge          ....    0
 Multiplicity           Mult            ....    1
 Number of Electrons    NEL             ....   68
 Basis Dimension        Dim             ....  345

ORBITAL ENERGIES
----------------

  NO   OCC          E(Eh)            E(eV)
   0   2.0000     -20.608168      -560.7768
   1   2.0000     -15.574927      -423.8153
   2   2.0000     -11.324104      -308.1445
   3   2.0000     -11.260276      -306.4077
   4   2.0000     -11.234237      -305.6991
   5   2.0000     -11.225085      -305.4501
   6   2.0000     -11.211967      -305.0931
   7   2.0000     -11.211696      -305.0858
   8   2.0000     -11.202931      -304.8473
   9   2.0000      -1.451465       -39.4964
  10   2.0000      -1.214031       -33.0355
  11   2.0000      -1.106418       -30.1072
  12   2.0000      -1.033673       -28.1277
  13   2.0000      -0.964794       -26.2534
  14   2.0000      -0.926712       -25.2171
  15   2.0000      -0.838928       -22.8284
  16   2.0000      -0.785231       -21.3672
  17   2.0000      -0.750912       -20.4334
  18   2.0000      -0.707354       -19.2481
  19   2.0000      -0.668321       -18.1859
  20   2.0000      -0.639213       -17.3939
  21   2.0000      -0.623380       -16.9630
  22   2.0000      -0.607176       -16.5221
  23   2.0000      -0.588639       -16.0177
  24   2.0000      -0.565845       -15.3974
  25   2.0000      -0.556764       -15.1503
  26   2.0000      -0.532807       -14.4984
  27   2.0000      -0.526836       -14.3359
  28   2.0000      -0.485849       -13.2206
  29   2.0000      -0.484068       -13.1722
  30   2.0000      -0.476616       -12.9694
  31   2.0000      -0.466569       -12.6960
  32   2.0000      -0.374361       -10.1869
  33   2.0000      -0.280539        -7.6338
  34   0.0000       0.132698         3.6109
  35   0.0000       0.140003         3.8097
  36   0.0000       0.165403         4.5008
  37   0.0000       0.175520         4.7762
  38   0.0000       0.179579         4.8866

MULLIKEN ATOMIC CHARGES
-----------------------
   0 C :   -0.382636
   1 C :   -0.028427
   2 C :   -0.420263
   3 C :    0.110083
   4 C :   -0.120274
   5 O :   -0.236463
   6 C :    0.333118
   7 N :   -0.513461
   8 C :   -0.404535
   9 H :    0.124711
  10 H :    0.127673
  11 H :    0.125026
  12 H :    0.092809
  13 H :    0.125392
  14 H :    0.139244
  15 H :    0.134528
  16 H :    0.148136
  17 H :    0.258261
  18 H :    0.253493
  19 H :    0.133582
Sum of atomic charges:    0.0000000

LOEWDIN ATOMIC CHARGES
----------------------
   0 C :   -0.283347
   1 C :   -0.268731
   2 C :   -0.287961
   3 C :   -0.174227
   4 C :   -0.226406
   5 O :    0.334565
   6 C :   -0.361204
   7 N :   -0.080124
   8 C :   -0.173107
   9 H :    0.120708
  10 H :    0.122372
  11 H :    0.125349
  12 H :    0.158011
  13 H :    0.124272
  14 H :    0.124846
  15 H :    0.123345
  16 H :    0.132952
  17 H :    0.173600
  18 H :    0.173988
  19 H :    0.141099

  Mayer bond orders larger than 0.1
B(  0-C ,  1-C ) :   0.9031 B(  0-C ,  9-H ) :   0.9360 B(  0-C , 10-H ) :   0.9385
B(  0-C , 11-H ) :   0.9322 B(  1-C ,  2-C ) :   0.9225 B(  1-C ,  3-C ) :   0.9169
B(  1-C , 12-H ) :   0.9265 B(  2-C , 13-H ) :   0.9311 B(  2-C , 14-H ) :   0.9398
B(  2-C , 15-H ) :   0.9402 B(  3-C ,  4-C ) :   1.5444 B(  3-C ,  8-C ) :   1.1425
B(  4-C ,  5-O ) :   1.0068 B(  4-C , 16-H ) :   0.9297 B(  5-O ,  6-C ) :   1.0661
B(  6-C ,  7-N ) :   1.0463 B(  6-C ,  8-C ) :   1.5446 B(  7-N , 17-H ) :   0.8683
B(  7-N , 18-H ) :   0.8788 B(  8-C , 19-H ) :   0.9034

MP2 TOTAL ENERGY:     -402.486674628 Eh
FINAL SINGLE POINT ENERGY      -402.486674627829

DIPOLE MOMENT
-------------
                                X             Y             Z
Electronic contribution:     -9.10983      -5.40885      -0.60910
Nuclear contribution   :      9.20840       4.94391       0.21126
                        -----------------------------------------
Total Dipole Moment    :      0.09856      -0.46494      -0.39784
                        -----------------------------------------
Magnitude (a.u.)       :      0.61981
Magnitude (Debye)      :      1.57543

                             ****ORCA TERMINATED NORMALLY****
TOTAL RUN TIME: 0 days 0 hours 18 minutes 23 seconds 371 msec
