                         Program Version 3.0.3 - RELEASE   -
|  1> ! RI-MP2 RIJK def2-TZVP def2-TZVP/C def2-TZVP/JK TIGHTSCF
|  2> % maxcore 2000
|  3> % mp2 density relaxed end
|  4> *xyz 0 1
|  5>  C       -0.0077086528     1.2660386704     0.4618745563
|  6>  O       -0.0832348369    -0.1352822299     0.3713044926
|  7>  C       -1.3373614937    -0.5899599626    -0.0902480578
|  8>  C       -1.2912958090    -2.1115114401    -0.1642197086
|  9>  C       -2.6325164333    -2.7682112966    -0.5363288059
| 10>  C       -3.1207242702    -2.4043187173    -1.9473620524
| 11>  C       -2.5125164690    -4.2731517432    -0.4084767550
| 12>  C       -2.8922200349    -4.9967625711     0.8100443401
| 13>  O       -3.7336399817    -5.0130139698    -0.3464369935
| 14>  H        0.9922512683     1.5184049519     0.8234041556
| 15>  H       -0.1640706692     1.7498250259    -0.5158499729
| 16>  H       -0.7522126995     1.6726683841     1.1653448053
| 17>  H       -2.1400028908    -0.2640039577     0.5956863989
| 18>  H       -1.5598732145    -0.1489004437    -1.0758785851
| 19>  H       -0.5181763929    -2.4041988427    -0.8861888891
| 20>  H       -0.9609732433    -2.4817917082     0.8134921808
| 21>  H       -3.3953091449    -2.4465948955     0.1859974785
| 22>  H       -4.0396976333    -2.9495672777    -2.1803321591
| 23>  H       -3.3300628244    -1.3353670076    -2.0434805734
| 24>  H       -2.3697236964    -2.6673429285    -2.7019141372
| 25>  H       -1.7559391697    -4.7302318981    -1.0517188788
| 26>  H       -2.4150621073    -5.9445748094     1.0554950550
| 27>  H       -3.2828515706    -4.4412861127     1.6622253759
| 28> *
| 29>
| 30>                          ****END OF INPUT****

CARTESIAN COORDINATES (ANGSTROEM)
---------------------------------
  C     -0.007709    1.266039    0.461875
  O     -0.083235   -0.135282    0.371304
  C     -1.337361   -0.589960   -0.090248
  C     -1.291296   -2.111511   -0.164220
  C     -2.632516   -2.768211   -0.536329
  C     -3.120724   -2.404319   -1.947362
  C     -2.512516   -4.273152   -0.408477
  C     -2.892220   -4.996763    0.810044
  O     -3.733640   -5.013014   -0.346437
  H      0.992251    1.518405    0.823404
  H     -0.164071    1.749825   -0.515850
  H     -0.752213    1.672668    1.165345
  H     -2.140003   -0.264004    0.595686
  H     -1.559873   -0.148900   -1.075879
  H     -0.518176   -2.404199   -0.886189
  H     -0.960973   -2.481792    0.813492
  H     -3.395309   -2.446595    0.185997
  H     -4.039698   -2.949567   -2.180332
  H     -3.330063   -1.335367   -2.043481
  H     -2.369724   -2.667343   -2.701914
  H     -1.755939   -4.730232   -1.051719
  H     -2.415062   -5.944575    1.055495
  H     -3.282852   -4.441286    1.662225

 Total Charge           Charge          ....    0
 Multiplicity           Mult            ....    1
 Number of Electrons    NEL             ....   72
 Basis Dimension        Dim             ....  363

ORBITAL ENERGIES
----------------

  NO   OCC          E(Eh)            E(eV)
   0   2.0000     -20.564107      -559.5778
   1   2.0000     -20.556325      -559.3660
   2   2.0000     -11.283285      -307.0338
   3   2.0000     -11.279907      -306.9419
   4   2.0000     -11.276643      -306.8531
   5   2.0000     -11.271825      -306.7219
   6   2.0000     -11.236793      -305.7687
   7   2.0000     -11.224151      -305.4247
   8   2.0000     -11.216131      -305.2064
   9   2.0000      -1.407623       -38.3034
  10   2.0000      -1.377683       -37.4887
  11   2.0000      -1.093741       -29.7622
  12   2.0000      -0.998345       -27.1663
  13   2.0000      -0.934285       -25.4232
  14   2.0000      -0.912015       -24.8172
  15   2.0000      -0.875838       -23.8328
  16   2.0000      -0.830738       -22.6055
  17   2.0000      -0.783213       -21.3123
  18   2.0000      -0.687781       -18.7155
  19   2.0000      -0.675322       -18.3765
  20   2.0000      -0.665984       -18.1223
  21   2.0000      -0.641791       -17.4640
  22   2.0000      -0.628355       -17.0984
  23   2.0000      -0.606077       -16.4922
  24   2.0000      -0.574808       -15.6413
  25   2.0000      -0.565652       -15.3922
  26   2.0000      -0.546298       -14.8655
  27   2.0000      -0.531518       -14.4634
  28   2.0000      -0.516416       -14.0524
  29   2.0000      -0.494559       -13.4576
  30   2.0000      -0.483763       -13.1638
  31   2.0000      -0.475817       -12.9476
  32   2.0000      -0.474615       -12.9149
  33   2.0000      -0.437113       -11.8945
  34   2.0000      -0.430260       -11.7080
  35   2.0000      -0.424135       -11.5413
  36   0.0000       0.135857         3.6968
  37   0.0000       0.152995         4.1632
  38   0.0000       0.155397         4.2286
  39   0.0000       0.165090         4.4923
  40   0.0000       0.185358         5.0438

MULLIKEN ATOMIC CHARGES
-----------------------
   0 C :   -0.215398
   1 O :   -0.299692
   2 C :   -0.080749
   3 C :   -0.195721
   4 C :   -0.052193
   5 C :   -0.432807
   6 C :    0.045975
   7 C :   -0.076674
   8 O :   -0.335643
   9 H :    0.139081
  10 H :    0.110342
  11 H :    0.110143
  12 H :    0.089981
  13 H :    0.097404
  14 H :    0.115182
  15 H :    0.124632
  16 H :    0.092650
  17 H :    0.155237
  18 H :    0.134915
  19 H :    0.122811
  20 H :    0.122202
  21 H :    0.115297
  22 H :    0.113025
Sum of atomic charges:   -0.0000000

LOEWDIN ATOMIC CHARGES
----------------------
   0 C :   -0.363702
   1 O :    0.133958
   2 C :   -0.328553
   3 C :   -0.240158
   4 C :   -0.271740
   5 C :   -0.286660
   6 C :   -0.275803
   7 C :   -0.265412
   8 O :    0.143083
   9 H :    0.113353
  10 H :    0.100664
  11 H :    0.100709
  12 H :    0.118913
  13 H :    0.118331
  14 H :    0.142858
  15 H :    0.145989
  16 H :    0.158181
  17 H :    0.130981
  18 H :    0.121305
  19 H :    0.125029
  20 H :    0.140150
  21 H :    0.118596
  22 H :    0.119928

  Mayer bond orders larger than 0.1
B(  0-C ,  1-O ) :   0.9218 B(  0-C ,  9-H ) :   0.9395 B(  0-C , 10-H ) :   0.9374
B(  0-C , 11-H ) :   0.9368 B(  1-O ,  2-C ) :   0.9666 B(  2-C ,  3-C ) :   0.9392
B(  2-C , 12-H ) :   0.9223 B(  2-C , 13-H ) :   0.9312 B(  3-C ,  4-C ) :   0.9064
B(  3-C , 14-H ) :   0.9181 B(  3-C , 15-H ) :   0.9294 B(  4-C ,  5-C ) :   0.9095
B(  4-C ,  6-C ) :   0.9090 B(  4-C , 16-H ) :   0.9232 B(  5-C , 17-H ) :   0.9372
B(  5-C , 18-H ) :   0.9414 B(  5-C , 19-H ) :   0.9297 B(  6-C ,  7-C ) :   0.9919
B(  6-C ,  8-O ) :   0.8803 B(  6-C , 20-H ) :   0.9095 B(  7-C ,  8-O ) :   0.9215
B(  7-C , 21-H ) :   0.9185 B(  7-C , 22-H ) :   0.9078

MP2 TOTAL ENERGY:     -424.686026696 Eh
FINAL SINGLE POINT ENERGY      -424.686026696109

DIPOLE MOMENT
-------------
                                X             Y             Z
Electronic contribution:     -1.14286      -6.14678       1.42966
Nuclear contribution   :      1.38700       6.73638      -1.23655
                        -----------------------------------------
Total Dipole Moment    :      0.24414       0.58960       0.19311
                        -----------------------------------------
Magnitude (a.u.)       :      0.66673
Magnitude (Debye)      :      1.69469

                             ****ORCA TERMINATED NORMALLY****
TOTAL RUN TIME: 0 days 0 hours 16 minutes 11 seconds 515 msec
