                         Program Version 3.0.3 - RELEASE   -
|  1> ! RI-MP2 RIJK def2-TZVP def2-TZVP/C def2-TZVP/JK TIGHTSCF
|  2> % maxcore 2000
|  3> % mp2 density relaxed end
|  4> *xyz 0 1
|  5>  O        0.0477573406     1.3638719273    -0.2784994350
|  6>  C        0.0595720373    -0.0294911660    -0.0577238915
|  7>  C       -1.3570242615    -0.5451726017     0.2305376281
|  8>  O       -2.2025829613    -0.1657763974    -0.8682054083
|  9>  C       -2.7712184687    -1.3146296257    -1.4857018949
| 10>  C       -2.2692935082    -2.4907462097    -0.6706045555
| 11>  C       -1.4802439287    -2.0358507417     0.3093356213
| 12>  C       -2.6327285185    -3.8228537427    -0.9664706692
| 13>  C       -2.9757789972    -4.9392781278    -1.2620810461
| 14>  H       -0.6360793553     1.5174670169    -0.9420875382
| 15>  H        0.4683346041    -0.5791255689    -0.9210461500
| 16>  H        0.7110313772    -0.2164054017     0.8031752947
| 17>  H       -1.7245957737    -0.0429298517     1.1391535015
| 18>  H       -3.8681731829    -1.2447823382    -1.4693956535
| 19>  H       -2.4588828176    -1.3838756154    -2.5377162631
| 20>  H       -0.9810719545    -2.6392056730     1.0555867431
| 21>  H       -3.2688480410    -5.9298648724    -1.5083766133
| 22> *
| 23>
| 24>                          ****END OF INPUT****

CARTESIAN COORDINATES (ANGSTROEM)
---------------------------------
  O      0.047757    1.363872   -0.278499
  C      0.059572   -0.029491   -0.057724
  C     -1.357024   -0.545173    0.230538
  O     -2.202583   -0.165776   -0.868205
  C     -2.771218   -1.314630   -1.485702
  C     -2.269294   -2.490746   -0.670605
  C     -1.480244   -2.035851    0.309336
  C     -2.632729   -3.822854   -0.966471
  C     -2.975779   -4.939278   -1.262081
  H     -0.636079    1.517467   -0.942088
  H      0.468335   -0.579126   -0.921046
  H      0.711031   -0.216405    0.803175
  H     -1.724596   -0.042930    1.139154
  H     -3.868173   -1.244782   -1.469396
  H     -2.458883   -1.383876   -2.537716
  H     -0.981072   -2.639206    1.055587
  H     -3.268848   -5.929865   -1.508377

 Total Charge           Charge          ....    0
 Multiplicity           Mult            ....    1
 Number of Electrons    NEL             ....   66
 Basis Dimension        Dim             ....  327

ORBITAL ENERGIES
----------------

  NO   OCC          E(Eh)            E(eV)
   0   2.0000     -20.569019      -559.7115
   1   2.0000     -20.552916      -559.2733
   2   2.0000     -11.296760      -307.4005
   3   2.0000     -11.296142      -307.3837
   4   2.0000     -11.279273      -306.9246
   5   2.0000     -11.272042      -306.7278
   6   2.0000     -11.256721      -306.3110
   7   2.0000     -11.252154      -306.1867
   8   2.0000     -11.244471      -305.9776
   9   2.0000      -1.398404       -38.0525
  10   2.0000      -1.356694       -36.9175
  11   2.0000      -1.121148       -30.5080
  12   2.0000      -1.049352       -28.5543
  13   2.0000      -1.015874       -27.6433
  14   2.0000      -0.919361       -25.0171
  15   2.0000      -0.845276       -23.0011
  16   2.0000      -0.807018       -21.9601
  17   2.0000      -0.741190       -20.1688
  18   2.0000      -0.711847       -19.3703
  19   2.0000      -0.710139       -19.3239
  20   2.0000      -0.649719       -17.6797
  21   2.0000      -0.632804       -17.2195
  22   2.0000      -0.619480       -16.8569
  23   2.0000      -0.584204       -15.8970
  24   2.0000      -0.575198       -15.6519
  25   2.0000      -0.553503       -15.0616
  26   2.0000      -0.519322       -14.1315
  27   2.0000      -0.497760       -13.5447
  28   2.0000      -0.484920       -13.1953
  29   2.0000      -0.458386       -12.4733
  30   2.0000      -0.422127       -11.4867
  31   2.0000      -0.405854       -11.0439
  32   2.0000      -0.343709        -9.3528
  33   0.0000       0.095178         2.5899
  34   0.0000       0.142052         3.8654
  35   0.0000       0.154212         4.1963
  36   0.0000       0.160037         4.3548
  37   0.0000       0.170195         4.6312

MULLIKEN ATOMIC CHARGES
-----------------------
   0 O :   -0.475022
   1 C :   -0.017429
   2 C :    0.111742
   3 O :   -0.361413
   4 C :   -0.023967
   5 C :   -0.167746
   6 C :   -0.230115
   7 C :    0.054692
   8 C :   -0.111698
   9 H :    0.328369
  10 H :    0.097302
  11 H :    0.104172
  12 H :    0.106651
  13 H :    0.119515
  14 H :    0.114987
  15 H :    0.151570
  16 H :    0.198389
Sum of atomic charges:    0.0000000

LOEWDIN ATOMIC CHARGES
----------------------
   0 O :   -0.041766
   1 C :   -0.329467
   2 C :   -0.298365
   3 O :    0.162937
   4 C :   -0.238039
   5 C :   -0.160709
   6 C :   -0.081472
   7 C :   -0.071101
   8 C :   -0.064032
   9 H :    0.179013
  10 H :    0.119635
  11 H :    0.129994
  12 H :    0.147746
  13 H :    0.133080
  14 H :    0.131692
  15 H :    0.150890
  16 H :    0.129963

  Mayer bond orders larger than 0.1
B(  0-O ,  1-C ) :   0.9365 B(  0-O ,  9-H ) :   0.8296 B(  1-C ,  2-C ) :   0.9251
B(  1-C , 10-H ) :   0.9103 B(  1-C , 11-H ) :   0.9265 B(  2-C ,  3-O ) :   0.8764
B(  2-C ,  6-C ) :   0.9460 B(  2-C , 12-H ) :   0.9086 B(  3-O ,  4-C ) :   0.9489
B(  4-C ,  5-C ) :   1.0007 B(  4-C , 13-H ) :   0.9119 B(  4-C , 14-H ) :   0.9070
B(  5-C ,  6-C ) :   1.6962 B(  5-C ,  7-C ) :   1.1308 B(  5-C ,  8-C ) :  -0.1621
B(  6-C , 15-H ) :   0.9131 B(  7-C ,  8-C ) :   2.5974 B(  8-C , 16-H ) :   0.8764

MP2 TOTAL ENERGY:     -421.076341646 Eh
FINAL SINGLE POINT ENERGY      -421.076341646318

DIPOLE MOMENT
-------------
                                X             Y             Z
Electronic contribution:     -1.85643      -1.64523      -0.20606
Nuclear contribution   :      1.53743       0.69484       0.10001
                        -----------------------------------------
Total Dipole Moment    :     -0.31900      -0.95039      -0.10604
                        -----------------------------------------
Magnitude (a.u.)       :      1.00809
Magnitude (Debye)      :      2.56236

                             ****ORCA TERMINATED NORMALLY****
TOTAL RUN TIME: 0 days 0 hours 25 minutes 18 seconds 440 msec
