                         Program Version 3.0.3 - RELEASE   -
|  1> ! RI-MP2 RIJK def2-TZVP def2-TZVP/C def2-TZVP/JK TIGHTSCF
|  2> % maxcore 2000
|  3> % mp2 density relaxed end
|  4> *xyz 0 1
|  5>  C        0.0069553806     1.3826326178    -0.0317288521
|  6>  O        0.0002431542    -0.0272951458     0.0084859830
|  7>  C        0.6295539235    -0.6006637179    -1.0944488535
|  8>  C        0.5829232573    -2.1123131536    -0.9821083006
|  9>  O        0.0749073976    -2.7158077087    -0.0698564061
| 10>  C        1.2503022670    -2.8706367249    -2.1496352956
| 11>  O        1.7585347809    -2.2679513441    -3.0621296829
| 12>  C        1.2043823640    -4.3820109273    -2.0384177739
| 13>  O        1.8408401816    -4.9447994595    -3.1536172472
| 14>  H        1.0315657525     1.7856104210    -0.0400983669
| 15>  H       -0.5219853359     1.7679809983    -0.9171752451
| 16>  H       -0.5047153680     1.7317959802     0.8675806172
| 17>  H        0.1583305013    -0.3123950844    -2.0511480988
| 18>  H        1.6872222428    -0.2954855909    -1.1875479610
| 19>  H        1.6743473930    -4.6561828554    -1.0792911824
| 20>  H        0.1449808436    -4.6731126377    -1.9436734194
| 21>  H        1.8024864541    -5.9014617570    -3.0654356248
| 22> *
| 23>
| 24>                          ****END OF INPUT****

CARTESIAN COORDINATES (ANGSTROEM)
---------------------------------
  C      0.006955    1.382633   -0.031729
  O      0.000243   -0.027295    0.008486
  C      0.629554   -0.600664   -1.094449
  C      0.582923   -2.112313   -0.982108
  O      0.074907   -2.715808   -0.069856
  C      1.250302   -2.870637   -2.149635
  O      1.758535   -2.267951   -3.062130
  C      1.204382   -4.382011   -2.038418
  O      1.840840   -4.944799   -3.153617
  H      1.031566    1.785610   -0.040098
  H     -0.521985    1.767981   -0.917175
  H     -0.504715    1.731796    0.867581
  H      0.158331   -0.312395   -2.051148
  H      1.687222   -0.295486   -1.187548
  H      1.674347   -4.656183   -1.079291
  H      0.144981   -4.673113   -1.943673
  H      1.802486   -5.901462   -3.065436

 Total Charge           Charge          ....    0
 Multiplicity           Mult            ....    1
 Number of Electrons    NEL             ....   70
 Basis Dimension        Dim             ....  327

ORBITAL ENERGIES
----------------

  NO   OCC          E(Eh)            E(eV)
   0   2.0000     -20.582335      -560.0738
   1   2.0000     -20.582066      -560.0665
   2   2.0000     -20.576340      -559.9107
   3   2.0000     -20.572352      -559.8022
   4   2.0000     -11.354895      -308.9824
   5   2.0000     -11.354139      -308.9618
   6   2.0000     -11.305848      -307.6478
   7   2.0000     -11.302799      -307.5648
   8   2.0000     -11.282461      -307.0114
   9   2.0000      -1.435374       -39.0585
  10   2.0000      -1.417414       -38.5698
  11   2.0000      -1.391769       -37.8720
  12   2.0000      -1.380805       -37.5736
  13   2.0000      -1.034304       -28.1449
  14   2.0000      -1.009370       -27.4664
  15   2.0000      -0.924598       -25.1596
  16   2.0000      -0.849388       -23.1130
  17   2.0000      -0.745143       -20.2764
  18   2.0000      -0.737856       -20.0781
  19   2.0000      -0.689552       -18.7637
  20   2.0000      -0.688752       -18.7419
  21   2.0000      -0.685185       -18.6448
  22   2.0000      -0.664511       -18.0823
  23   2.0000      -0.646959       -17.6047
  24   2.0000      -0.640596       -17.4315
  25   2.0000      -0.594926       -16.1888
  26   2.0000      -0.580744       -15.8028
  27   2.0000      -0.548650       -14.9295
  28   2.0000      -0.545738       -14.8503
  29   2.0000      -0.517556       -14.0834
  30   2.0000      -0.510808       -13.8998
  31   2.0000      -0.502888       -13.6843
  32   2.0000      -0.469210       -12.7679
  33   2.0000      -0.441098       -12.0029
  34   2.0000      -0.410580       -11.1725
  35   0.0000       0.063337         1.7235
  36   0.0000       0.120997         3.2925
  37   0.0000       0.135201         3.6790
  38   0.0000       0.163992         4.4624
  39   0.0000       0.188371         5.1258

MULLIKEN ATOMIC CHARGES
-----------------------
   0 C :   -0.214520
   1 O :   -0.274631
   2 C :   -0.062191
   3 C :    0.167330
   4 O :   -0.248677
   5 C :    0.170951
   6 O :   -0.249235
   7 C :   -0.076019
   8 O :   -0.435561
   9 H :    0.115048
  10 H :    0.115053
  11 H :    0.146186
  12 H :    0.128632
  13 H :    0.128597
  14 H :    0.132459
  15 H :    0.132381
  16 H :    0.324195
Sum of atomic charges:   -0.0000000

LOEWDIN ATOMIC CHARGES
----------------------
   0 C :   -0.350939
   1 O :    0.156748
   2 C :   -0.315115
   3 C :   -0.292681
   4 O :    0.193848
   5 C :   -0.297790
   6 O :    0.195251
   7 C :   -0.335713
   8 O :   -0.018842
   9 H :    0.103262
  10 H :    0.103262
  11 H :    0.116259
  12 H :    0.142217
  13 H :    0.142224
  14 H :    0.139086
  15 H :    0.139100
  16 H :    0.179824

  Mayer bond orders larger than 0.1
B(  0-C ,  1-O ) :   0.9037 B(  0-C ,  9-H ) :   0.9363 B(  0-C , 10-H ) :   0.9363
B(  0-C , 11-H ) :   0.9388 B(  1-O ,  2-C ) :   0.9948 B(  2-C ,  3-C ) :   0.9507
B(  2-C , 12-H ) :   0.9027 B(  2-C , 13-H ) :   0.9027 B(  3-C ,  4-O ) :   1.9544
B(  3-C ,  5-C ) :   0.8061 B(  5-C ,  6-O ) :   1.9419 B(  5-C ,  7-C ) :   0.9400
B(  7-C ,  8-O ) :   1.0513 B(  7-C , 14-H ) :   0.9133 B(  7-C , 15-H ) :   0.9132
B(  8-O , 16-H ) :   0.8429

MP2 TOTAL ENERGY:     -495.321597916 Eh
FINAL SINGLE POINT ENERGY      -495.321597915700

DIPOLE MOMENT
-------------
                                X             Y             Z
Electronic contribution:      0.95044      -5.63258      -1.57103
Nuclear contribution   :     -1.02042       5.58390       1.69639
                        -----------------------------------------
Total Dipole Moment    :     -0.06998      -0.04868       0.12536
                        -----------------------------------------
Magnitude (a.u.)       :      0.15160
Magnitude (Debye)      :      0.38533

                             ****ORCA TERMINATED NORMALLY****
TOTAL RUN TIME: 0 days 0 hours 12 minutes 48 seconds 236 msec
