                         Program Version 3.0.3 - RELEASE   -
|  1> ! RI-MP2 RIJK def2-TZVP def2-TZVP/C def2-TZVP/JK TIGHTSCF
|  2> % maxcore 2000
|  3> % mp2 density relaxed end
|  4> *xyz 0 1
|  5>  O        0.2036803428    -0.2085045670    -0.1183922702
|  6>  C        0.1012451038     0.9864642474    -0.0174321883
|  7>  C        1.2764638006     1.9380135983     0.0518110338
|  8>  C        1.3046797936     2.9350011980    -1.1376304749
|  9>  C        1.9925156699     4.2255019133    -0.6042862362
| 10>  C        2.3262962632     3.9477079568     0.8769690169
| 11>  C        1.3110181403     2.8591438648     1.3071396727
| 12>  C        0.0030229087     3.4515808012     1.6058370250
| 13>  N       -1.0220412647     3.9352644817     1.8343624192
| 14>  H       -0.8945188698     1.4825027325     0.0115425121
| 15>  H        2.1866815135     1.3323295785     0.0674717107
| 16>  H        1.8243558894     2.4964894063    -1.9919849603
| 17>  H        0.2832232336     3.1550984386    -1.4656613927
| 18>  H        2.8905777755     4.4763974701    -1.1733304555
| 19>  H        1.3131579188     5.0775246920    -0.6876466709
| 20>  H        3.3300171724     3.5226328432     0.9765034969
| 21>  H        2.2771114658     4.8373808435     1.5080730612
| 22>  H        1.6414087427     2.3111408007     2.1943556806
| 23> *
| 24>
| 25>                          ****END OF INPUT****

CARTESIAN COORDINATES (ANGSTROEM)
---------------------------------
  O      0.203680   -0.208505   -0.118392
  C      0.101245    0.986464   -0.017432
  C      1.276464    1.938014    0.051811
  C      1.304680    2.935001   -1.137630
  C      1.992516    4.225502   -0.604286
  C      2.326296    3.947708    0.876969
  C      1.311018    2.859144    1.307140
  C      0.003023    3.451581    1.605837
  N     -1.022041    3.935264    1.834362
  H     -0.894519    1.482503    0.011543
  H      2.186682    1.332330    0.067472
  H      1.824356    2.496489   -1.991985
  H      0.283223    3.155098   -1.465661
  H      2.890578    4.476397   -1.173330
  H      1.313158    5.077525   -0.687647
  H      3.330017    3.522633    0.976503
  H      2.277111    4.837381    1.508073
  H      1.641409    2.311141    2.194356

 Total Charge           Charge          ....    0
 Multiplicity           Mult            ....    1
 Number of Electrons    NEL             ....   66
 Basis Dimension        Dim             ....  333

ORBITAL ENERGIES
----------------

  NO   OCC          E(Eh)            E(eV)
   0   2.0000     -20.568268      -559.6910
   1   2.0000     -15.580776      -423.9745
   2   2.0000     -11.340902      -308.6016
   3   2.0000     -11.300731      -307.5085
   4   2.0000     -11.282875      -307.0226
   5   2.0000     -11.270519      -306.6864
   6   2.0000     -11.260772      -306.4212
   7   2.0000     -11.254376      -306.2471
   8   2.0000     -11.248684      -306.0923
   9   2.0000      -1.406698       -38.2782
  10   2.0000      -1.233350       -33.5611
  11   2.0000      -1.168364       -31.7928
  12   2.0000      -1.025262       -27.8988
  13   2.0000      -1.021930       -27.8081
  14   2.0000      -0.884816       -24.0771
  15   2.0000      -0.835870       -22.7452
  16   2.0000      -0.801832       -21.8189
  17   2.0000      -0.711445       -19.3594
  18   2.0000      -0.708966       -19.2919
  19   2.0000      -0.662376       -18.0242
  20   2.0000      -0.649515       -17.6742
  21   2.0000      -0.615207       -16.7406
  22   2.0000      -0.580617       -15.7994
  23   2.0000      -0.570176       -15.5153
  24   2.0000      -0.560611       -15.2550
  25   2.0000      -0.541605       -14.7378
  26   2.0000      -0.528117       -14.3708
  27   2.0000      -0.513653       -13.9772
  28   2.0000      -0.505070       -13.7437
  29   2.0000      -0.490938       -13.3591
  30   2.0000      -0.465258       -12.6603
  31   2.0000      -0.463067       -12.6007
  32   2.0000      -0.425567       -11.5803
  33   0.0000       0.110143         2.9971
  34   0.0000       0.117726         3.2035
  35   0.0000       0.135515         3.6876
  36   0.0000       0.153152         4.1675
  37   0.0000       0.156991         4.2719

MULLIKEN ATOMIC CHARGES
-----------------------
   0 O :   -0.251288
   1 C :    0.066175
   2 C :   -0.058112
   3 C :   -0.291282
   4 C :   -0.239389
   5 C :   -0.259906
   6 C :    0.134973
   7 C :   -0.282563
   8 N :   -0.041024
   9 H :    0.107361
  10 H :    0.117610
  11 H :    0.143902
  12 H :    0.140355
  13 H :    0.132952
  14 H :    0.139551
  15 H :    0.133648
  16 H :    0.151429
  17 H :    0.155607
Sum of atomic charges:   -0.0000000

LOEWDIN ATOMIC CHARGES
----------------------
   0 O :    0.142779
   1 C :   -0.270973
   2 C :   -0.209508
   3 C :   -0.214007
   4 C :   -0.242169
   5 C :   -0.212166
   6 C :   -0.206502
   7 C :   -0.172254
   8 N :    0.065555
   9 H :    0.123795
  10 H :    0.164578
  11 H :    0.140922
  12 H :    0.145280
  13 H :    0.137475
  14 H :    0.142212
  15 H :    0.144213
  16 H :    0.144089
  17 H :    0.176681

  Mayer bond orders larger than 0.1
B(  0-O ,  1-C ) :   1.9888 B(  1-C ,  2-C ) :   0.8682 B(  1-C ,  9-H ) :   0.9291
B(  2-C ,  3-C ) :   0.9234 B(  2-C ,  6-C ) :   0.8505 B(  2-C , 10-H ) :   0.9022
B(  3-C ,  4-C ) :   0.9106 B(  3-C , 11-H ) :   0.9310 B(  3-C , 12-H ) :   0.9211
B(  4-C ,  5-C ) :   0.9470 B(  4-C , 13-H ) :   0.9312 B(  4-C , 14-H ) :   0.9301
B(  5-C ,  6-C ) :   0.8505 B(  5-C , 15-H ) :   0.9272 B(  5-C , 16-H ) :   0.9247
B(  6-C ,  7-C ) :   0.9092 B(  6-C , 17-H ) :   0.9040 B(  7-C ,  8-N ) :   2.8581

MP2 TOTAL ENERGY:     -401.296868717 Eh
FINAL SINGLE POINT ENERGY      -401.296868716609

DIPOLE MOMENT
-------------
                                X             Y             Z
Electronic contribution:     -5.31024      -4.03887       3.43599
Nuclear contribution   :      6.79831       4.59698      -3.83342
                        -----------------------------------------
Total Dipole Moment    :      1.48806       0.55811      -0.39743
                        -----------------------------------------
Magnitude (a.u.)       :      1.63822
Magnitude (Debye)      :      4.16403

                             ****ORCA TERMINATED NORMALLY****
TOTAL RUN TIME: 0 days 0 hours 18 minutes 2 seconds 841 msec
