                         Program Version 3.0.3 - RELEASE   -
|  1> ! RI-MP2 RIJK def2-TZVP def2-TZVP/C def2-TZVP/JK TIGHTSCF
|  2> % maxcore 2000
|  3> % mp2 density relaxed end
|  4> *xyz 0 1
|  5>  C       -0.1245629471     1.4346109633     0.1781408484
|  6>  N       -0.0594556826     0.0576062784    -0.3054952937
|  7>  C       -1.1547255229    -0.7640202907    -0.1507625185
|  8>  C       -1.3080145596    -2.1052451336     0.0386420353
|  9>  C       -2.7300907280    -2.3458900556     0.0026723141
| 10>  C       -3.4294766788    -3.6219358830     0.1560690064
| 11>  O       -4.6331948175    -3.7594534162     0.1274635326
| 12>  C       -3.3207474003    -1.1314825610    -0.1915479332
| 13>  O       -2.3720841653    -0.1619885484    -0.2890733223
| 14>  H        0.8098707827     1.9365366443    -0.0812307046
| 15>  H       -0.9417275753     1.9572588055    -0.3220465640
| 16>  H       -0.2795369326     1.5108481057     1.2644515964
| 17>  H        0.7979121236    -0.4173268461    -0.0640023903
| 18>  H       -0.5260382898    -2.8326171250     0.1873917229
| 19>  H       -2.7587153491    -4.4972482440     0.3077892436
| 20>  H       -4.3453483775    -0.8123146036    -0.2670324131
| 21> *
| 22>
| 23>                          ****END OF INPUT****

CARTESIAN COORDINATES (ANGSTROEM)
---------------------------------
  C     -0.124563    1.434611    0.178141
  N     -0.059456    0.057606   -0.305495
  C     -1.154726   -0.764020   -0.150763
  C     -1.308015   -2.105245    0.038642
  C     -2.730091   -2.345890    0.002672
  C     -3.429477   -3.621936    0.156069
  O     -4.633195   -3.759453    0.127464
  C     -3.320747   -1.131483   -0.191548
  O     -2.372084   -0.161989   -0.289073
  H      0.809871    1.936537   -0.081231
  H     -0.941728    1.957259   -0.322047
  H     -0.279537    1.510848    1.264452
  H      0.797912   -0.417327   -0.064002
  H     -0.526038   -2.832617    0.187392
  H     -2.758715   -4.497248    0.307789
  H     -4.345348   -0.812315   -0.267032

 Total Charge           Charge          ....    0
 Multiplicity           Mult            ....    1
 Number of Electrons    NEL             ....   66
 Basis Dimension        Dim             ....  321

ORBITAL ENERGIES
----------------

  NO   OCC          E(Eh)            E(eV)
   0   2.0000     -20.638692      -561.6074
   1   2.0000     -20.546888      -559.1092
   2   2.0000     -15.587506      -424.1576
   3   2.0000     -11.341968      -308.6306
   4   2.0000     -11.332603      -308.3758
   5   2.0000     -11.303316      -307.5789
   6   2.0000     -11.269544      -306.6599
   7   2.0000     -11.241366      -305.8931
   8   2.0000     -11.227455      -305.5146
   9   2.0000      -1.481025       -40.3007
  10   2.0000      -1.384102       -37.6633
  11   2.0000      -1.248384       -33.9703
  12   2.0000      -1.105015       -30.0690
  13   2.0000      -1.015430       -27.6312
  14   2.0000      -0.930036       -25.3076
  15   2.0000      -0.899431       -24.4748
  16   2.0000      -0.817181       -22.2366
  17   2.0000      -0.758561       -20.6415
  18   2.0000      -0.730543       -19.8791
  19   2.0000      -0.678592       -18.4654
  20   2.0000      -0.667303       -18.1583
  21   2.0000      -0.644729       -17.5440
  22   2.0000      -0.638031       -17.3617
  23   2.0000      -0.612669       -16.6716
  24   2.0000      -0.601670       -16.3723
  25   2.0000      -0.580907       -15.8073
  26   2.0000      -0.554201       -15.0806
  27   2.0000      -0.545632       -14.8474
  28   2.0000      -0.536274       -14.5928
  29   2.0000      -0.461435       -12.5563
  30   2.0000      -0.427061       -11.6209
  31   2.0000      -0.403224       -10.9723
  32   2.0000      -0.294499        -8.0137
  33   0.0000       0.089510         2.4357
  34   0.0000       0.125427         3.4130
  35   0.0000       0.153882         4.1874
  36   0.0000       0.167354         4.5539
  37   0.0000       0.182435         4.9643

MULLIKEN ATOMIC CHARGES
-----------------------
   0 C :   -0.278928
   1 N :   -0.331854
   2 C :    0.317643
   3 C :   -0.365448
   4 C :    0.090047
   5 C :    0.069404
   6 O :   -0.287748
   7 C :   -0.039879
   8 O :   -0.221153
   9 H :    0.141984
  10 H :    0.154675
  11 H :    0.127531
  12 H :    0.234282
  13 H :    0.146744
  14 H :    0.075899
  15 H :    0.166803
Sum of atomic charges:    0.0000000

LOEWDIN ATOMIC CHARGES
----------------------
   0 C :   -0.320922
   1 N :    0.039447
   2 C :   -0.322800
   3 C :   -0.161781
   4 C :   -0.206397
   5 C :   -0.269731
   6 O :    0.120108
   7 C :   -0.179662
   8 O :    0.360040
   9 H :    0.119388
  10 H :    0.123491
  11 H :    0.108193
  12 H :    0.189251
  13 H :    0.144678
  14 H :    0.115295
  15 H :    0.141401

  Mayer bond orders larger than 0.1
B(  0-C ,  1-N ) :   0.8898 B(  0-C ,  9-H ) :   0.9353 B(  0-C , 10-H ) :   0.9353
B(  0-C , 11-H ) :   0.9289 B(  1-N ,  2-C ) :   1.1362 B(  1-N , 12-H ) :   0.8765
B(  2-C ,  3-C ) :   1.5117 B(  2-C ,  8-O ) :   1.0161 B(  3-C ,  4-C ) :   1.1518
B(  3-C , 13-H ) :   0.8944 B(  4-C ,  5-C ) :   0.8495 B(  4-C ,  6-O ) :  -0.1172
B(  4-C ,  7-C ) :   1.4870 B(  4-C , 14-H ) :  -0.1044 B(  5-C ,  6-O ) :   1.9900
B(  5-C , 14-H ) :   0.9835 B(  7-C ,  8-O ) :   1.0465 B(  7-C , 15-H ) :   0.9136

MP2 TOTAL ENERGY:     -437.180629781 Eh
FINAL SINGLE POINT ENERGY      -437.180629781302

DIPOLE MOMENT
-------------
                                X             Y             Z
Electronic contribution:     -5.48130      -4.99943      -0.95473
Nuclear contribution   :      7.09125       5.82664       1.24449
                        -----------------------------------------
Total Dipole Moment    :      1.60995       0.82721       0.28976
                        -----------------------------------------
Magnitude (a.u.)       :      1.83308
Magnitude (Debye)      :      4.65931

                             ****ORCA TERMINATED NORMALLY****
TOTAL RUN TIME: 0 days 0 hours 14 minutes 5 seconds 679 msec
