                         Program Version 3.0.3 - RELEASE   -
|  1> ! RI-MP2 RIJK def2-TZVP def2-TZVP/C def2-TZVP/JK TIGHTSCF
|  2> % maxcore 2000
|  3> % mp2 density relaxed end
|  4> *xyz 0 1
|  5>  O        0.2664534074     1.2678581992    -0.4228326670
|  6>  C        0.0584875611    -0.0840456175    -0.1059324467
|  7>  C        0.1746191895    -0.3946489258     1.4284541738
|  8>  O        0.4033176777     0.7549039390     2.2214743242
|  9>  C       -1.3181046714    -0.8695105014     1.4441783181
| 10>  O       -2.2372298718    -0.0377746519     2.1075549047
| 11>  C       -2.5968297467     1.0397431147     1.2414410832
| 12>  C       -2.5111838051     0.4838079382    -0.1915501689
| 13>  C       -1.4236214999    -0.5919976441    -0.0885996770
| 14>  H        0.3120065547     1.7273093532     0.4296898211
| 15>  H        0.7142640163    -0.6930454609    -0.7375597126
| 16>  H        0.8825748003    -1.1948691127     1.6704473197
| 17>  H        1.3451301976     0.8146173682     2.4080617711
| 18>  H       -1.4600864277    -1.8889007169     1.8112715103
| 19>  H       -3.6009430173     1.3666636557     1.5251163156
| 20>  H       -1.9070580772     1.8831975048     1.3789578629
| 21>  H       -3.4614386415     0.0278776237    -0.4829473617
| 22>  H       -2.2539791373     1.2588262144    -0.9163254684
| 23>  H       -1.6094129488    -1.4515378999    -0.7341890223
| 24> *
| 25>
| 26>                          ****END OF INPUT****

CARTESIAN COORDINATES (ANGSTROEM)
---------------------------------
  O      0.266453    1.267858   -0.422833
  C      0.058488   -0.084046   -0.105932
  C      0.174619   -0.394649    1.428454
  O      0.403318    0.754904    2.221474
  C     -1.318105   -0.869511    1.444178
  O     -2.237230   -0.037775    2.107555
  C     -2.596830    1.039743    1.241441
  C     -2.511184    0.483808   -0.191550
  C     -1.423621   -0.591998   -0.088600
  H      0.312007    1.727309    0.429690
  H      0.714264   -0.693045   -0.737560
  H      0.882575   -1.194869    1.670447
  H      1.345130    0.814617    2.408062
  H     -1.460086   -1.888901    1.811272
  H     -3.600943    1.366664    1.525116
  H     -1.907058    1.883198    1.378958
  H     -3.461439    0.027878   -0.482947
  H     -2.253979    1.258826   -0.916325
  H     -1.609413   -1.451538   -0.734189

 Total Charge           Charge          ....    0
 Multiplicity           Mult            ....    1
 Number of Electrons    NEL             ....   70
 Basis Dimension        Dim             ....  339

ORBITAL ENERGIES
----------------

  NO   OCC          E(Eh)            E(eV)
   0   2.0000     -20.579628      -560.0002
   1   2.0000     -20.552573      -559.2640
   2   2.0000     -20.550115      -559.1971
   3   2.0000     -11.288241      -307.1687
   4   2.0000     -11.279470      -306.9300
   5   2.0000     -11.277809      -306.8848
   6   2.0000     -11.266941      -306.5890
   7   2.0000     -11.226953      -305.5009
   8   2.0000     -11.220372      -305.3219
   9   2.0000      -1.398597       -38.0578
  10   2.0000      -1.370808       -37.3016
  11   2.0000      -1.355205       -36.8770
  12   2.0000      -1.105352       -30.0782
  13   2.0000      -1.024485       -27.8777
  14   2.0000      -0.912166       -24.8213
  15   2.0000      -0.873964       -23.7818
  16   2.0000      -0.799329       -21.7508
  17   2.0000      -0.756241       -20.5784
  18   2.0000      -0.732252       -19.9256
  19   2.0000      -0.697822       -18.9887
  20   2.0000      -0.669537       -18.2190
  21   2.0000      -0.661223       -17.9928
  22   2.0000      -0.625895       -17.0315
  23   2.0000      -0.617773       -16.8105
  24   2.0000      -0.580346       -15.7920
  25   2.0000      -0.563884       -15.3441
  26   2.0000      -0.547782       -14.9059
  27   2.0000      -0.523964       -14.2578
  28   2.0000      -0.511483       -13.9182
  29   2.0000      -0.494045       -13.4437
  30   2.0000      -0.477316       -12.9884
  31   2.0000      -0.470914       -12.8142
  32   2.0000      -0.421427       -11.4676
  33   2.0000      -0.411273       -11.1913
  34   2.0000      -0.400480       -10.8976
  35   0.0000       0.119351         3.2477
  36   0.0000       0.149251         4.0613
  37   0.0000       0.159257         4.3336
  38   0.0000       0.182927         4.9777
  39   0.0000       0.193084         5.2541

MULLIKEN ATOMIC CHARGES
-----------------------
   0 O :   -0.479987
   1 C :    0.037730
   2 C :   -0.059343
   3 O :   -0.466766
   4 C :    0.068757
   5 O :   -0.316756
   6 C :   -0.070125
   7 C :   -0.268182
   8 C :   -0.024235
   9 H :    0.329347
  10 H :    0.104325
  11 H :    0.097494
  12 H :    0.333359
  13 H :    0.119025
  14 H :    0.119230
  15 H :    0.096159
  16 H :    0.120586
  17 H :    0.139694
  18 H :    0.119687
Sum of atomic charges:   -0.0000000

LOEWDIN ATOMIC CHARGES
----------------------
   0 O :   -0.010872
   1 C :   -0.299192
   2 C :   -0.292597
   3 O :   -0.006687
   4 C :   -0.261199
   5 O :    0.183706
   6 C :   -0.295057
   7 C :   -0.241781
   8 C :   -0.192484
   9 H :    0.173594
  10 H :    0.130575
  11 H :    0.128548
  12 H :    0.181469
  13 H :    0.133393
  14 H :    0.124745
  15 H :    0.116940
  16 H :    0.138568
  17 H :    0.145433
  18 H :    0.142899

  Mayer bond orders larger than 0.1
B(  0-O ,  1-C ) :   1.0360 B(  0-O ,  9-H ) :   0.8123 B(  1-C ,  2-C ) :   0.9146
B(  1-C ,  3-O ) :  -0.1401 B(  1-C ,  8-C ) :   0.8470 B(  1-C , 10-H ) :   0.9511
B(  2-C ,  3-O ) :   1.1424 B(  2-C ,  4-C ) :   0.8939 B(  2-C , 11-H ) :   0.9489
B(  3-O , 12-H ) :   0.8363 B(  4-C ,  5-O ) :   0.9671 B(  4-C ,  8-C ) :   0.9051
B(  4-C , 13-H ) :   0.9269 B(  5-O ,  6-C ) :   0.9001 B(  6-C ,  7-C ) :   0.9641
B(  6-C , 14-H ) :   0.9311 B(  6-C , 15-H ) :   0.9267 B(  7-C ,  8-C ) :   0.8785
B(  7-C , 16-H ) :   0.9275 B(  7-C , 17-H ) :   0.9179 B(  8-C , 18-H ) :   0.9083

MP2 TOTAL ENERGY:     -459.420108035 Eh
FINAL SINGLE POINT ENERGY      -459.420108035106

DIPOLE MOMENT
-------------
                                X             Y             Z
Electronic contribution:      1.69691      -0.12920       2.18442
Nuclear contribution   :     -1.13131      -0.30769      -2.21585
                        -----------------------------------------
Total Dipole Moment    :      0.56560      -0.43688      -0.03143
                        -----------------------------------------
Magnitude (a.u.)       :      0.71538
Magnitude (Debye)      :      1.81834

                             ****ORCA TERMINATED NORMALLY****
TOTAL RUN TIME: 0 days 0 hours 17 minutes 22 seconds 952 msec
