                         Program Version 3.0.3 - RELEASE   -
|  1> ! RI-MP2 RIJK def2-TZVP def2-TZVP/C def2-TZVP/JK TIGHTSCF
|  2> % maxcore 2000
|  3> % mp2 density relaxed end
|  4> *xyz 0 1
|  5>  C       -0.1550711501     1.6335686142    -0.0750829869
|  6>  C        0.1332254081     0.1453910501     0.0344729674
|  7>  C        1.3973996197    -0.6529458601    -0.2172561987
|  8>  C        2.7019380930    -0.1661724908     0.4830070324
|  9>  C        4.0738443867    -0.5946484296     0.0706838811
| 10>  N        2.4386617642     1.1279668932     1.1624135146
| 11>  C        2.0192807571    -0.1571730744     1.7919465686
| 12>  C        0.6998130173    -0.6910001810     1.1553595282
| 13>  C       -0.0338907436    -1.8263973432     1.8116808080
| 14>  H       -0.2647813555     1.9093768308    -1.1308686117
| 15>  H       -1.1080236314     1.8581910900     0.4193153102
| 16>  H        0.6263725977     2.2423879888     0.3671451056
| 17>  H       -0.6902588494    -0.4244641856    -0.4046004136
| 18>  H        1.4282483761    -1.4445808079    -0.9584644746
| 19>  H        4.3896038716    -0.0869838600    -0.8491225467
| 20>  H        4.8078488391    -0.3662315876     0.8515434152
| 21>  H        4.1090442980    -1.6734702590    -0.1175817632
| 22>  H        3.3115145169     1.3952819452     1.6206933707
| 23>  H        2.3804063980    -0.4390583160     2.7742131411
| 24>  H       -0.5950893905    -1.4860681731     2.6914978808
| 25>  H       -0.7482744548    -2.2848573039     1.1203550500
| 26>  H        0.6562415617    -2.6108888102     2.1467836515
| 27> *
| 28>
| 29>                          ****END OF INPUT****

CARTESIAN COORDINATES (ANGSTROEM)
---------------------------------
  C     -0.155071    1.633569   -0.075083
  C      0.133225    0.145391    0.034473
  C      1.397400   -0.652946   -0.217256
  C      2.701938   -0.166172    0.483007
  C      4.073844   -0.594648    0.070684
  N      2.438662    1.127967    1.162414
  C      2.019281   -0.157173    1.791947
  C      0.699813   -0.691000    1.155360
  C     -0.033891   -1.826397    1.811681
  H     -0.264781    1.909377   -1.130869
  H     -1.108024    1.858191    0.419315
  H      0.626373    2.242388    0.367145
  H     -0.690259   -0.424464   -0.404600
  H      1.428248   -1.444581   -0.958464
  H      4.389604   -0.086984   -0.849123
  H      4.807849   -0.366232    0.851543
  H      4.109044   -1.673470   -0.117582
  H      3.311515    1.395282    1.620693
  H      2.380406   -0.439058    2.774213
  H     -0.595089   -1.486068    2.691498
  H     -0.748274   -2.284857    1.120355
  H      0.656242   -2.610889    2.146784

 Total Charge           Charge          ....    0
 Multiplicity           Mult            ....    1
 Number of Electrons    NEL             ....   68
 Basis Dimension        Dim             ....  357

ORBITAL ENERGIES
----------------

  NO   OCC          E(Eh)            E(eV)
   0   2.0000     -15.551466      -423.1769
   1   2.0000     -11.262889      -306.4788
   2   2.0000     -11.252584      -306.1984
   3   2.0000     -11.234311      -305.7012
   4   2.0000     -11.231122      -305.6144
   5   2.0000     -11.227518      -305.5163
   6   2.0000     -11.222288      -305.3740
   7   2.0000     -11.217526      -305.2444
   8   2.0000     -11.192685      -304.5685
   9   2.0000      -1.278855       -34.7994
  10   2.0000      -1.132147       -30.8073
  11   2.0000      -0.997595       -27.1459
  12   2.0000      -0.982731       -26.7415
  13   2.0000      -0.946800       -25.7637
  14   2.0000      -0.879302       -23.9270
  15   2.0000      -0.817175       -22.2365
  16   2.0000      -0.725424       -19.7398
  17   2.0000      -0.722841       -19.6695
  18   2.0000      -0.659246       -17.9390
  19   2.0000      -0.614252       -16.7146
  20   2.0000      -0.601560       -16.3693
  21   2.0000      -0.582528       -15.8514
  22   2.0000      -0.577852       -15.7241
  23   2.0000      -0.564027       -15.3480
  24   2.0000      -0.545845       -14.8532
  25   2.0000      -0.541652       -14.7391
  26   2.0000      -0.527728       -14.3602
  27   2.0000      -0.494395       -13.4532
  28   2.0000      -0.483779       -13.1643
  29   2.0000      -0.482134       -13.1195
  30   2.0000      -0.438033       -11.9195
  31   2.0000      -0.393952       -10.7200
  32   2.0000      -0.383647       -10.4396
  33   2.0000      -0.312052        -8.4914
  34   0.0000       0.130573         3.5531
  35   0.0000       0.150723         4.1014
  36   0.0000       0.168806         4.5934
  37   0.0000       0.170690         4.6447
  38   0.0000       0.184698         5.0259

MULLIKEN ATOMIC CHARGES
-----------------------
   0 C :   -0.353469
   1 C :   -0.174445
   2 C :   -0.109703
   3 C :    0.104305
   4 C :   -0.403969
   5 N :   -0.381763
   6 C :   -0.225844
   7 C :    0.194795
   8 C :   -0.408489
   9 H :    0.114031
  10 H :    0.113760
  11 H :    0.165669
  12 H :    0.099726
  13 H :    0.131616
  14 H :    0.142595
  15 H :    0.123801
  16 H :    0.135770
  17 H :    0.204369
  18 H :    0.134739
  19 H :    0.135844
  20 H :    0.129951
  21 H :    0.126712
Sum of atomic charges:    0.0000000

LOEWDIN ATOMIC CHARGES
----------------------
   0 C :   -0.299728
   1 C :   -0.184595
   2 C :   -0.111184
   3 C :   -0.265311
   4 C :   -0.277800
   5 N :    0.024814
   6 C :   -0.175481
   7 C :   -0.184961
   8 C :   -0.276534
   9 H :    0.122516
  10 H :    0.121758
  11 H :    0.127084
  12 H :    0.163089
  13 H :    0.138358
  14 H :    0.131179
  15 H :    0.128503
  16 H :    0.132386
  17 H :    0.169193
  18 H :    0.132812
  19 H :    0.128578
  20 H :    0.129262
  21 H :    0.126060

  Mayer bond orders larger than 0.1
B(  0-C ,  1-C ) :   0.8600 B(  0-C ,  9-H ) :   0.9309 B(  0-C , 10-H ) :   0.9314
B(  0-C , 11-H ) :   0.9365 B(  1-C ,  2-C ) :   0.8670 B(  1-C ,  7-C ) :   0.8911
B(  1-C , 12-H ) :   0.9345 B(  2-C ,  3-C ) :   0.8774 B(  2-C ,  7-C ) :   0.8515
B(  2-C , 13-H ) :   0.9275 B(  3-C ,  4-C ) :   0.8921 B(  3-C ,  5-N ) :   0.9186
B(  3-C ,  6-C ) :   0.9787 B(  4-C , 14-H ) :   0.9473 B(  4-C , 15-H ) :   0.9314
B(  4-C , 16-H ) :   0.9304 B(  5-N ,  6-C ) :   0.9944 B(  5-N , 17-H ) :   0.8687
B(  6-C ,  7-C ) :   0.8498 B(  6-C , 18-H ) :   0.9236 B(  7-C ,  8-C ) :   0.8728
B(  8-C , 19-H ) :   0.9430 B(  8-C , 20-H ) :   0.9438 B(  8-C , 21-H ) :   0.9329

MP2 TOTAL ENERGY:     -366.466745405 Eh
FINAL SINGLE POINT ENERGY      -366.466745405462

DIPOLE MOMENT
-------------
                                X             Y             Z
Electronic contribution:      1.37116       1.10401       0.68379
Nuclear contribution   :     -0.91659      -1.67128      -0.46749
                        -----------------------------------------
Total Dipole Moment    :      0.45457      -0.56727       0.21629
                        -----------------------------------------
Magnitude (a.u.)       :      0.75843
Magnitude (Debye)      :      1.92777

                             ****ORCA TERMINATED NORMALLY****
TOTAL RUN TIME: 0 days 0 hours 21 minutes 29 seconds 285 msec
