                         Program Version 3.0.3 - RELEASE   -
|  1> ! RI-MP2 RIJK def2-TZVP def2-TZVP/C def2-TZVP/JK TIGHTSCF
|  2> % maxcore 2000
|  3> % mp2 density relaxed end
|  4> *xyz 0 1
|  5>  O       -0.0921404692     1.2938726724     0.1532887468
|  6>  C        0.0442535888    -0.0695417142     0.0590564106
|  7>  C       -0.6164751711    -1.0732217372    -0.8870228255
|  8>  C        0.4511624052    -2.0800077316    -0.3672688136
|  9>  C        1.2861165196    -0.9481829718     0.3488968412
| 10>  C        1.0461803107    -1.6241809569     1.7237109972
| 11>  C       -0.2302486052    -2.1933949252     1.0518437255
| 12>  C       -1.0635380134    -0.9792569676     0.5725379342
| 13>  O       -2.1945972325    -0.4326482775     1.1277905501
| 14>  H        0.3529777186     1.6951060939    -0.6007358870
| 15>  H       -1.1473142259    -0.9547890841    -1.8224748935
| 16>  H        0.8822062875    -2.9138666386    -0.9145369762
| 17>  H        2.2659524796    -0.6090934607     0.0105439337
| 18>  H        1.7832217437    -2.4075452113     1.9259301087
| 19>  H        0.9288399168    -0.9844529257     2.6038101606
| 20>  H       -0.7485063738    -3.0845298830     1.4079769145
| 21>  H       -2.9394621795    -1.0088201308     0.9256124828
| 22> *
| 23>
| 24>                          ****END OF INPUT****

CARTESIAN COORDINATES (ANGSTROEM)
---------------------------------
  O     -0.092140    1.293873    0.153289
  C      0.044254   -0.069542    0.059056
  C     -0.616475   -1.073222   -0.887023
  C      0.451162   -2.080008   -0.367269
  C      1.286117   -0.948183    0.348897
  C      1.046180   -1.624181    1.723711
  C     -0.230249   -2.193395    1.051844
  C     -1.063538   -0.979257    0.572538
  O     -2.194597   -0.432648    1.127791
  H      0.352978    1.695106   -0.600736
  H     -1.147314   -0.954789   -1.822475
  H      0.882206   -2.913867   -0.914537
  H      2.265952   -0.609093    0.010544
  H      1.783222   -2.407545    1.925930
  H      0.928840   -0.984453    2.603810
  H     -0.748506   -3.084530    1.407977
  H     -2.939462   -1.008820    0.925612

 Total Charge           Charge          ....    0
 Multiplicity           Mult            ....    1
 Number of Electrons    NEL             ....   66
 Basis Dimension        Dim             ....  327

ORBITAL ENERGIES
----------------

  NO   OCC          E(Eh)            E(eV)
   0   2.0000     -20.567724      -559.6762
   1   2.0000     -20.567721      -559.6761
   2   2.0000     -11.284582      -307.0691
   3   2.0000     -11.283922      -307.0511
   4   2.0000     -11.239275      -305.8362
   5   2.0000     -11.233524      -305.6797
   6   2.0000     -11.233516      -305.6795
   7   2.0000     -11.230012      -305.5842
   8   2.0000     -11.220046      -305.3130
   9   2.0000      -1.390671       -37.8421
  10   2.0000      -1.368760       -37.2458
  11   2.0000      -1.238090       -33.6901
  12   2.0000      -1.033436       -28.1212
  13   2.0000      -0.929590       -25.2954
  14   2.0000      -0.901187       -24.5225
  15   2.0000      -0.816508       -22.2183
  16   2.0000      -0.753151       -20.4943
  17   2.0000      -0.748165       -20.3586
  18   2.0000      -0.707511       -19.2524
  19   2.0000      -0.653699       -17.7881
  20   2.0000      -0.638244       -17.3675
  21   2.0000      -0.637759       -17.3543
  22   2.0000      -0.603781       -16.4297
  23   2.0000      -0.567236       -15.4353
  24   2.0000      -0.562563       -15.3081
  25   2.0000      -0.554769       -15.0960
  26   2.0000      -0.527386       -14.3509
  27   2.0000      -0.474777       -12.9193
  28   2.0000      -0.445963       -12.1353
  29   2.0000      -0.425530       -11.5793
  30   2.0000      -0.417276       -11.3547
  31   2.0000      -0.363140        -9.8815
  32   2.0000      -0.354347        -9.6423
  33   0.0000       0.138906         3.7798
  34   0.0000       0.146845         3.9959
  35   0.0000       0.156701         4.2641
  36   0.0000       0.171020         4.6537
  37   0.0000       0.188791         5.1373

MULLIKEN ATOMIC CHARGES
-----------------------
   0 O :   -0.440785
   1 C :    0.107277
   2 C :   -0.244876
   3 C :   -0.143182
   4 C :   -0.055440
   5 C :   -0.268225
   6 C :   -0.055470
   7 C :    0.107334
   8 O :   -0.440786
   9 H :    0.331705
  10 H :    0.161206
  11 H :    0.138856
  12 H :    0.118586
  13 H :    0.114277
  14 H :    0.119234
  15 H :    0.118585
  16 H :    0.331704
Sum of atomic charges:    0.0000000

LOEWDIN ATOMIC CHARGES
----------------------
   0 O :    0.052369
   1 C :   -0.286127
   2 C :   -0.119982
   3 C :   -0.098812
   4 C :   -0.139881
   5 C :   -0.202660
   6 C :   -0.139881
   7 C :   -0.286128
   8 O :    0.052368
   9 H :    0.187324
  10 H :    0.132089
  11 H :    0.131709
  12 H :    0.132317
  13 H :    0.135943
  14 H :    0.129712
  15 H :    0.132316
  16 H :    0.187324

  Mayer bond orders larger than 0.1
B(  0-O ,  1-C ) :   1.0826 B(  0-O ,  9-H ) :   0.8343 B(  1-C ,  2-C ) :   0.8187
B(  1-C ,  4-C ) :   0.9172 B(  1-C ,  7-C ) :   0.8796 B(  2-C ,  3-C ) :   0.8953
B(  2-C ,  7-C ) :   0.8187 B(  2-C , 10-H ) :   0.8964 B(  3-C ,  4-C ) :   0.9262
B(  3-C ,  6-C ) :   0.9262 B(  3-C , 11-H ) :   0.8974 B(  4-C ,  5-C ) :   0.9365
B(  4-C , 12-H ) :   0.9057 B(  5-C ,  6-C ) :   0.9365 B(  5-C , 13-H ) :   0.9155
B(  5-C , 14-H ) :   0.9120 B(  6-C ,  7-C ) :   0.9172 B(  6-C , 15-H ) :   0.9057
B(  7-C ,  8-O ) :   1.0826 B(  8-O , 16-H ) :   0.8343

MP2 TOTAL ENERGY:     -421.036609030 Eh
FINAL SINGLE POINT ENERGY      -421.036609030266

DIPOLE MOMENT
-------------
                                X             Y             Z
Electronic contribution:     -2.53118       2.63660      -0.78952
Nuclear contribution   :      2.72641      -3.29065       0.05215
                        -----------------------------------------
Total Dipole Moment    :      0.19523      -0.65405      -0.73737
                        -----------------------------------------
Magnitude (a.u.)       :      1.00479
Magnitude (Debye)      :      2.55398

                             ****ORCA TERMINATED NORMALLY****
TOTAL RUN TIME: 0 days 0 hours 16 minutes 42 seconds 496 msec
