                         Program Version 3.0.3 - RELEASE   -
|  1> ! RI-MP2 RIJK def2-TZVP def2-TZVP/C def2-TZVP/JK TIGHTSCF
|  2> % maxcore 2000
|  3> % mp2 density relaxed end
|  4> *xyz 0 1
|  5>  O        0.0287927517     1.3265598710    -0.4921613489
|  6>  C        0.0417767840     0.1472003817     0.2951004671
|  7>  C       -1.3275681544    -0.4769827693     0.3610622901
|  8>  O       -1.7619468855    -1.0985301186    -0.8744583402
|  9>  C       -1.5596637447    -1.9191503213     0.2594381175
| 10>  C       -0.5855781170    -3.0955596980     0.3889401581
| 11>  C       -1.5332871430    -3.6632739295     1.4877927914
| 12>  C       -2.6548111742    -2.7053382581     0.9740145295
| 13>  O       -3.4103086632    -1.9618358273     1.8955763005
| 14>  H       -0.3280222662     1.0770546509    -1.3523685642
| 15>  H        0.7661187015    -0.5852625662    -0.0906968510
| 16>  H        0.3656150908     0.4485889829     1.2974898133
| 17>  H       -2.0997780517     0.1262323289     0.8367857635
| 18>  H       -0.5767969677    -3.7082816293    -0.5168510046
| 19>  H        0.4440616594    -2.8766530731     0.6760313582
| 20>  H       -1.7394110808    -4.7347193794     1.4712810326
| 21>  H       -1.2183196827    -3.3655945772     2.4906032061
| 22>  H       -3.2943066982    -3.2101728755     0.2358374983
| 23>  H       -4.1867625081    -2.4716583327     2.1445949127
| 24> *
| 25>
| 26>                          ****END OF INPUT****

CARTESIAN COORDINATES (ANGSTROEM)
---------------------------------
  O      0.028793    1.326560   -0.492161
  C      0.041777    0.147200    0.295100
  C     -1.327568   -0.476983    0.361062
  O     -1.761947   -1.098530   -0.874458
  C     -1.559664   -1.919150    0.259438
  C     -0.585578   -3.095560    0.388940
  C     -1.533287   -3.663274    1.487793
  C     -2.654811   -2.705338    0.974015
  O     -3.410309   -1.961836    1.895576
  H     -0.328022    1.077055   -1.352369
  H      0.766119   -0.585263   -0.090697
  H      0.365615    0.448589    1.297490
  H     -2.099778    0.126232    0.836786
  H     -0.576797   -3.708282   -0.516851
  H      0.444062   -2.876653    0.676031
  H     -1.739411   -4.734719    1.471281
  H     -1.218320   -3.365595    2.490603
  H     -3.294307   -3.210173    0.235837
  H     -4.186763   -2.471658    2.144595

 Total Charge           Charge          ....    0
 Multiplicity           Mult            ....    1
 Number of Electrons    NEL             ....   70
 Basis Dimension        Dim             ....  339

ORBITAL ENERGIES
----------------

  NO   OCC          E(Eh)            E(eV)
   0   2.0000     -20.570337      -559.7473
   1   2.0000     -20.568794      -559.7053
   2   2.0000     -20.554604      -559.3192
   3   2.0000     -11.294109      -307.3283
   4   2.0000     -11.293040      -307.2992
   5   2.0000     -11.283483      -307.0392
   6   2.0000     -11.280365      -306.9543
   7   2.0000     -11.238851      -305.8247
   8   2.0000     -11.235512      -305.7338
   9   2.0000      -1.417064       -38.5603
  10   2.0000      -1.376659       -37.4608
  11   2.0000      -1.357680       -36.9444
  12   2.0000      -1.127733       -30.6872
  13   2.0000      -0.990810       -26.9613
  14   2.0000      -0.910375       -24.7726
  15   2.0000      -0.888646       -24.1813
  16   2.0000      -0.836832       -22.7713
  17   2.0000      -0.751881       -20.4597
  18   2.0000      -0.719799       -19.5867
  19   2.0000      -0.710135       -19.3238
  20   2.0000      -0.688388       -18.7320
  21   2.0000      -0.638867       -17.3845
  22   2.0000      -0.623704       -16.9719
  23   2.0000      -0.616117       -16.7654
  24   2.0000      -0.591407       -16.0930
  25   2.0000      -0.570866       -15.5341
  26   2.0000      -0.539977       -14.6935
  27   2.0000      -0.534962       -14.5571
  28   2.0000      -0.515273       -14.0213
  29   2.0000      -0.493198       -13.4206
  30   2.0000      -0.481106       -13.0916
  31   2.0000      -0.457329       -12.4446
  32   2.0000      -0.440441       -11.9850
  33   2.0000      -0.426745       -11.6123
  34   2.0000      -0.422776       -11.5043
  35   0.0000       0.126617         3.4454
  36   0.0000       0.141805         3.8587
  37   0.0000       0.158591         4.3155
  38   0.0000       0.168498         4.5851
  39   0.0000       0.179253         4.8777

MULLIKEN ATOMIC CHARGES
-----------------------
   0 O :   -0.473652
   1 C :   -0.001583
   2 C :   -0.066033
   3 O :   -0.352944
   4 C :    0.135187
   5 C :   -0.226262
   6 C :   -0.232022
   7 C :    0.064881
   8 O :   -0.453857
   9 H :    0.325886
  10 H :    0.109193
  11 H :    0.110873
  12 H :    0.142393
  13 H :    0.129734
  14 H :    0.131132
  15 H :    0.126240
  16 H :    0.116739
  17 H :    0.091699
  18 H :    0.322394
Sum of atomic charges:    0.0000000

LOEWDIN ATOMIC CHARGES
----------------------
   0 O :   -0.044183
   1 C :   -0.329714
   2 C :   -0.238083
   3 O :    0.177114
   4 C :   -0.287170
   5 C :   -0.198715
   6 C :   -0.217765
   7 C :   -0.294974
   8 O :   -0.006224
   9 H :    0.179896
  10 H :    0.123374
  11 H :    0.135107
  12 H :    0.147111
  13 H :    0.142399
  14 H :    0.130673
  15 H :    0.124563
  16 H :    0.139083
  17 H :    0.139230
  18 H :    0.178277

  Mayer bond orders larger than 0.1
B(  0-O ,  1-C ) :   0.9046 B(  0-O ,  9-H ) :   0.8386 B(  1-C ,  2-C ) :   0.9346
B(  1-C , 10-H ) :   0.9246 B(  1-C , 11-H ) :   0.9219 B(  2-C ,  3-O ) :   0.8475
B(  2-C ,  4-C ) :   0.9813 B(  2-C , 12-H ) :   0.8979 B(  3-O ,  4-C ) :   0.9126
B(  4-C ,  5-C ) :   0.8697 B(  4-C ,  7-C ) :   0.8874 B(  4-C ,  8-O ) :  -0.1243
B(  5-C ,  6-C ) :   0.9191 B(  5-C , 13-H ) :   0.9155 B(  5-C , 14-H ) :   0.9243
B(  6-C ,  7-C ) :   0.9118 B(  6-C , 15-H ) :   0.9297 B(  6-C , 16-H ) :   0.9117
B(  7-C ,  8-O ) :   1.1274 B(  7-C , 17-H ) :   0.9362 B(  8-O , 18-H ) :   0.8416

MP2 TOTAL ENERGY:     -459.393226675 Eh
FINAL SINGLE POINT ENERGY      -459.393226675468

DIPOLE MOMENT
-------------
                                X             Y             Z
Electronic contribution:     -2.51904       3.24545      -1.94113
Nuclear contribution   :      2.24489      -4.52491       2.34126
                        -----------------------------------------
Total Dipole Moment    :     -0.27415      -1.27946       0.40013
                        -----------------------------------------
Magnitude (a.u.)       :      1.36831
Magnitude (Debye)      :      3.47797

                             ****ORCA TERMINATED NORMALLY****
TOTAL RUN TIME: 0 days 0 hours 26 minutes 46 seconds 947 msec
