                         Program Version 3.0.3 - RELEASE   -
|  1> ! RI-MP2 RIJK def2-TZVP def2-TZVP/C def2-TZVP/JK TIGHTSCF
|  2> % maxcore 2000
|  3> % mp2 density relaxed end
|  4> *xyz 0 1
|  5>  C       -0.2248064497     1.5773679191     0.0084401010
|  6>  C        0.0249175058     0.0740893511    -0.0401207145
|  7>  C        0.8842003300    -0.4899307811    -1.1797448058
|  8>  C        2.3883601073    -0.0699218658    -1.0203087693
|  9>  C        2.6218240182    -1.3742679977    -0.2464640353
| 10>  C        1.2893192216    -1.8933611917    -0.6460271716
| 11>  N        1.5566535826    -1.6224759988     0.7716432540
| 12>  C        0.8192553801    -0.4493179387     1.1688505640
| 13>  O        0.8597127703     0.0228879609     2.2692764849
| 14>  H        0.7085763715     2.1418828239    -0.0782548776
| 15>  H       -0.8888270311     1.8936548047    -0.8011931348
| 16>  H       -0.6840566714     1.8468702970     0.9631701040
| 17>  H       -0.9398571699    -0.4559248167    -0.0421041379
| 18>  H        0.4584362350    -0.4068715379    -2.1783697912
| 19>  H        2.9129389465    -0.1014240333    -1.9781227896
| 20>  H        2.6124358826     0.8770743685    -0.5200424161
| 21>  H        3.5636346018    -1.8844721782    -0.0853115032
| 22>  H        0.9519716587    -2.8775457053    -0.9461147310
| 23> *
| 24>
| 25>                          ****END OF INPUT****

CARTESIAN COORDINATES (ANGSTROEM)
---------------------------------
  C     -0.224806    1.577368    0.008440
  C      0.024918    0.074089   -0.040121
  C      0.884200   -0.489931   -1.179745
  C      2.388360   -0.069922   -1.020309
  C      2.621824   -1.374268   -0.246464
  C      1.289319   -1.893361   -0.646027
  N      1.556654   -1.622476    0.771643
  C      0.819255   -0.449318    1.168851
  O      0.859713    0.022888    2.269276
  H      0.708576    2.141883   -0.078255
  H     -0.888827    1.893655   -0.801193
  H     -0.684057    1.846870    0.963170
  H     -0.939857   -0.455925   -0.042104
  H      0.458436   -0.406872   -2.178370
  H      2.912939   -0.101424   -1.978123
  H      2.612436    0.877074   -0.520042
  H      3.563635   -1.884472   -0.085312
  H      0.951972   -2.877546   -0.946115

 Total Charge           Charge          ....    0
 Multiplicity           Mult            ....    1
 Number of Electrons    NEL             ....   66
 Basis Dimension        Dim             ....  333

ORBITAL ENERGIES
----------------

  NO   OCC          E(Eh)            E(eV)
   0   2.0000     -20.543019      -559.0040
   1   2.0000     -15.579598      -423.9424
   2   2.0000     -11.348690      -308.8135
   3   2.0000     -11.287490      -307.1482
   4   2.0000     -11.277172      -306.8674
   5   2.0000     -11.258628      -306.3628
   6   2.0000     -11.251781      -306.1765
   7   2.0000     -11.249820      -306.1232
   8   2.0000     -11.225285      -305.4555
   9   2.0000      -1.401744       -38.1434
  10   2.0000      -1.315579       -35.7987
  11   2.0000      -1.094280       -29.7769
  12   2.0000      -1.049733       -28.5647
  13   2.0000      -0.945225       -25.7209
  14   2.0000      -0.914965       -24.8975
  15   2.0000      -0.829769       -22.5792
  16   2.0000      -0.770177       -20.9576
  17   2.0000      -0.730617       -19.8811
  18   2.0000      -0.714826       -19.4514
  19   2.0000      -0.665264       -18.1028
  20   2.0000      -0.649785       -17.6816
  21   2.0000      -0.620748       -16.8914
  22   2.0000      -0.580306       -15.7909
  23   2.0000      -0.574081       -15.6215
  24   2.0000      -0.541899       -14.7458
  25   2.0000      -0.534441       -14.5429
  26   2.0000      -0.522289       -14.2122
  27   2.0000      -0.492046       -13.3893
  28   2.0000      -0.486666       -13.2429
  29   2.0000      -0.469434       -12.7740
  30   2.0000      -0.452148       -12.3036
  31   2.0000      -0.406794       -11.0694
  32   2.0000      -0.397350       -10.8124
  33   0.0000       0.126899         3.4531
  34   0.0000       0.149375         4.0647
  35   0.0000       0.153158         4.1677
  36   0.0000       0.160519         4.3679
  37   0.0000       0.175774         4.7831

MULLIKEN ATOMIC CHARGES
-----------------------
   0 C :   -0.403069
   1 C :   -0.098619
   2 C :   -0.033771
   3 C :   -0.249166
   4 C :   -0.091160
   5 C :   -0.086060
   6 N :   -0.171313
   7 C :    0.154572
   8 O :   -0.251326
   9 H :    0.125807
  10 H :    0.134592
  11 H :    0.155906
  12 H :    0.120305
  13 H :    0.137218
  14 H :    0.130250
  15 H :    0.126745
  16 H :    0.144664
  17 H :    0.154423
Sum of atomic charges:   -0.0000000

LOEWDIN ATOMIC CHARGES
----------------------
   0 C :   -0.281730
   1 C :   -0.231019
   2 C :   -0.169192
   3 C :   -0.195032
   4 C :   -0.185243
   5 C :   -0.172822
   6 N :    0.179867
   7 C :   -0.358273
   8 O :    0.167287
   9 H :    0.125906
  10 H :    0.124471
  11 H :    0.134787
  12 H :    0.170532
  13 H :    0.144340
  14 H :    0.144314
  15 H :    0.130223
  16 H :    0.136294
  17 H :    0.135290

  Mayer bond orders larger than 0.1
B(  0-C ,  1-C ) :   0.9103 B(  0-C ,  9-H ) :   0.9326 B(  0-C , 10-H ) :   0.9369
B(  0-C , 11-H ) :   0.9299 B(  1-C ,  2-C ) :   0.9005 B(  1-C ,  7-C ) :   0.8985
B(  1-C , 12-H ) :   0.8951 B(  2-C ,  3-C ) :   0.9379 B(  2-C ,  5-C ) :   0.8698
B(  2-C , 13-H ) :   0.9078 B(  3-C ,  4-C ) :   0.9248 B(  3-C , 14-H ) :   0.9098
B(  3-C , 15-H ) :   0.9155 B(  4-C ,  5-C ) :   0.8718 B(  4-C ,  6-N ) :   0.8591
B(  4-C , 16-H ) :   0.9367 B(  5-C ,  6-N ) :   0.8783 B(  5-C , 17-H ) :   0.9018
B(  6-N ,  7-C ) :   1.0042 B(  7-C ,  8-O ) :   2.0748

MP2 TOTAL ENERGY:     -401.248436035 Eh
FINAL SINGLE POINT ENERGY      -401.248436035082

DIPOLE MOMENT
-------------
                                X             Y             Z
Electronic contribution:      1.25214      -4.56705       4.85146
Nuclear contribution   :     -1.30831       4.59300      -6.50957
                        -----------------------------------------
Total Dipole Moment    :     -0.05618       0.02595      -1.65810
                        -----------------------------------------
Magnitude (a.u.)       :      1.65926
Magnitude (Debye)      :      4.21749

                             ****ORCA TERMINATED NORMALLY****
TOTAL RUN TIME: 0 days 0 hours 20 minutes 7 seconds 206 msec
