                         Program Version 3.0.3 - RELEASE   -
|  1> ! RI-MP2 RIJK def2-TZVP def2-TZVP/C def2-TZVP/JK TIGHTSCF
|  2> % maxcore 2000
|  3> % mp2 density relaxed end
|  4> *xyz 0 1
|  5>  C        0.0023431100    -1.2614687741     0.0291561883
|  6>  C       -0.0278272073    -0.0598274004     0.0508162889
|  7>  C       -0.0210698603     1.3972901796     0.0712074676
|  8>  C        1.4046407864     1.9939276955    -0.0680199687
|  9>  C        1.4091534454     3.4926311573    -0.0384026875
| 10>  C        1.4626136382     4.3660353210    -1.1082934854
| 11>  N        1.4120659713     5.6183118704    -0.5924885971
| 12>  N        1.3304207361     5.6349246578     0.7503117598
| 13>  C        1.3263164061     4.3489377265     1.0874991025
| 14>  H        0.0128404874    -2.3229358148     0.0131389285
| 15>  H       -0.6516207193     1.7844017772    -0.7385932558
| 16>  H       -0.4725154198     1.7579354048     1.0035980219
| 17>  H        2.0261706101     1.5961971080     0.7412033634
| 18>  H        1.8446699063     1.6316002497    -1.0023515098
| 19>  H        1.5386769491     4.1905514102    -2.1702843516
| 20>  H        1.4432390393     6.4920940187    -1.0893945146
| 21>  H        1.2714682711     4.0714573026     2.1309152298
| 22> *
| 23>
| 24>                          ****END OF INPUT****

CARTESIAN COORDINATES (ANGSTROEM)
---------------------------------
  C      0.002343   -1.261469    0.029156
  C     -0.027827   -0.059827    0.050816
  C     -0.021070    1.397290    0.071207
  C      1.404641    1.993928   -0.068020
  C      1.409153    3.492631   -0.038403
  C      1.462614    4.366035   -1.108293
  N      1.412066    5.618312   -0.592489
  N      1.330421    5.634925    0.750312
  C      1.326316    4.348938    1.087499
  H      0.012840   -2.322936    0.013139
  H     -0.651621    1.784402   -0.738593
  H     -0.472515    1.757935    1.003598
  H      2.026171    1.596197    0.741203
  H      1.844670    1.631600   -1.002352
  H      1.538677    4.190551   -2.170284
  H      1.443239    6.492094   -1.089395
  H      1.271468    4.071457    2.130915

 Total Charge           Charge          ....    0
 Multiplicity           Mult            ....    1
 Number of Electrons    NEL             ....   64
 Basis Dimension        Dim             ....  327

ORBITAL ENERGIES
----------------

  NO   OCC          E(Eh)            E(eV)
   0   2.0000     -15.638646      -425.5492
   1   2.0000     -15.588688      -424.1898
   2   2.0000     -11.275959      -306.8344
   3   2.0000     -11.254197      -306.2423
   4   2.0000     -11.251428      -306.1669
   5   2.0000     -11.243128      -305.9411
   6   2.0000     -11.233000      -305.6655
   7   2.0000     -11.228830      -305.5520
   8   2.0000     -11.219794      -305.3061
   9   2.0000      -1.375742       -37.4359
  10   2.0000      -1.106464       -30.1084
  11   2.0000      -1.095997       -29.8236
  12   2.0000      -1.053066       -28.6554
  13   2.0000      -0.988356       -26.8945
  14   2.0000      -0.893002       -24.2998
  15   2.0000      -0.819875       -22.3099
  16   2.0000      -0.781639       -21.2695
  17   2.0000      -0.733992       -19.9729
  18   2.0000      -0.719842       -19.5879
  19   2.0000      -0.644584       -17.5400
  20   2.0000      -0.637974       -17.3602
  21   2.0000      -0.609295       -16.5797
  22   2.0000      -0.606150       -16.4942
  23   2.0000      -0.569029       -15.4841
  24   2.0000      -0.557204       -15.1623
  25   2.0000      -0.538280       -14.6474
  26   2.0000      -0.512414       -13.9435
  27   2.0000      -0.456487       -12.4216
  28   2.0000      -0.389144       -10.5891
  29   2.0000      -0.385626       -10.4934
  30   2.0000      -0.363817        -9.9000
  31   2.0000      -0.339301        -9.2329
  32   0.0000       0.130647         3.5551
  33   0.0000       0.140906         3.8342
  34   0.0000       0.145165         3.9502
  35   0.0000       0.164613         4.4793
  36   0.0000       0.168863         4.5950

MULLIKEN ATOMIC CHARGES
-----------------------
   0 C :   -0.130745
   1 C :   -0.010201
   2 C :   -0.376228
   3 C :   -0.239522
   4 C :    0.056776
   5 C :   -0.142769
   6 N :   -0.097944
   7 N :   -0.210487
   8 C :   -0.148108
   9 H :    0.189252
  10 H :    0.145477
  11 H :    0.148863
  12 H :    0.140467
  13 H :    0.133842
  14 H :    0.153755
  15 H :    0.255295
  16 H :    0.132276
Sum of atomic charges:    0.0000000

LOEWDIN ATOMIC CHARGES
----------------------
   0 C :   -0.108725
   1 C :   -0.113475
   2 C :   -0.240423
   3 C :   -0.210474
   4 C :   -0.205054
   5 C :   -0.220436
   6 N :    0.128158
   7 N :    0.019212
   8 C :   -0.252499
   9 H :    0.125796
  10 H :    0.156823
  11 H :    0.157682
  12 H :    0.151327
  13 H :    0.149489
  14 H :    0.138626
  15 H :    0.187973
  16 H :    0.136001

  Mayer bond orders larger than 0.1
B(  0-C ,  1-C ) :   2.6230 B(  0-C ,  2-C ) :  -0.1030 B(  0-C ,  9-H ) :   0.8973
B(  1-C ,  2-C ) :   1.0668 B(  2-C ,  3-C ) :   0.9037 B(  2-C , 10-H ) :   0.9301
B(  2-C , 11-H ) :   0.9317 B(  3-C ,  4-C ) :   0.8508 B(  3-C , 12-H ) :   0.9416
B(  3-C , 13-H ) :   0.9421 B(  4-C ,  5-C ) :   1.3996 B(  4-C ,  8-C ) :   1.2857
B(  5-C ,  6-N ) :   1.2088 B(  5-C ,  7-N ) :   0.1200 B(  5-C , 14-H ) :   0.9031
B(  6-N ,  7-N ) :   1.0771 B(  6-N , 15-H ) :   0.8756 B(  7-N ,  8-C ) :   1.5366
B(  8-C , 16-H ) :   0.9399

MP2 TOTAL ENERGY:     -380.172808503 Eh
FINAL SINGLE POINT ENERGY      -380.172808502667

DIPOLE MOMENT
-------------
                                X             Y             Z
Electronic contribution:      0.52850       3.79752       0.24730
Nuclear contribution   :     -0.42546      -3.72251      -1.12835
                        -----------------------------------------
Total Dipole Moment    :      0.10303       0.07501      -0.88106
                        -----------------------------------------
Magnitude (a.u.)       :      0.89023
Magnitude (Debye)      :      2.26278

                             ****ORCA TERMINATED NORMALLY****
TOTAL RUN TIME: 0 days 0 hours 13 minutes 25 seconds 20 msec
