                         Program Version 3.0.3 - RELEASE   -
|  1> ! RI-MP2 RIJK def2-TZVP def2-TZVP/C def2-TZVP/JK TIGHTSCF
|  2> % maxcore 2000
|  3> % mp2 density relaxed end
|  4> *xyz 0 1
|  5>  O        0.2476092938     1.0890962712    -0.7562011130
|  6>  C       -0.0147775635     0.0355068496     0.1826219346
|  7>  C       -1.4317485750    -0.4885302080     0.1014293049
|  8>  N       -2.0025495602    -0.8903711853     1.2395823171
|  9>  C       -3.2303658484    -1.4000607946     1.1572862287
| 10>  N       -3.9559210272    -1.5441400051     0.0470412572
| 11>  C       -3.3920199160    -1.1301713684    -1.0852667913
| 12>  C       -2.1091099229    -0.5800083979    -1.1247011391
| 13>  O       -1.5865193698    -0.1864739019    -2.3057966620
| 14>  H       -0.2316397693     1.8731144505    -0.4649081997
| 15>  H        0.6951837219    -0.7581094459    -0.0771544287
| 16>  H        0.1935383502     0.3457065635     1.2116692651
| 17>  H       -3.6862306365    -1.7280802376     2.0871754660
| 18>  H       -3.9593190273    -1.2327860407    -2.0074347531
| 19>  H       -0.7837590697     0.3321035803    -2.1116799267
| 20> *
| 21>
| 22>                          ****END OF INPUT****

CARTESIAN COORDINATES (ANGSTROEM)
---------------------------------
  O      0.247609    1.089096   -0.756201
  C     -0.014778    0.035507    0.182622
  C     -1.431749   -0.488530    0.101429
  N     -2.002550   -0.890371    1.239582
  C     -3.230366   -1.400061    1.157286
  N     -3.955921   -1.544140    0.047041
  C     -3.392020   -1.130171   -1.085267
  C     -2.109110   -0.580008   -1.124701
  O     -1.586519   -0.186474   -2.305797
  H     -0.231640    1.873114   -0.464908
  H      0.695184   -0.758109   -0.077154
  H      0.193538    0.345707    1.211669
  H     -3.686231   -1.728080    2.087175
  H     -3.959319   -1.232786   -2.007435
  H     -0.783759    0.332104   -2.111680

 Total Charge           Charge          ....    0
 Multiplicity           Mult            ....    1
 Number of Electrons    NEL             ....   66
 Basis Dimension        Dim             ....  315

ORBITAL ENERGIES
----------------

  NO   OCC          E(Eh)            E(eV)
   0   2.0000     -20.601546      -560.5966
   1   2.0000     -20.589734      -560.2751
   2   2.0000     -15.580113      -423.9564
   3   2.0000     -15.576827      -423.8670
   4   2.0000     -11.312809      -307.8372
   5   2.0000     -11.312098      -307.8178
   6   2.0000     -11.305688      -307.6434
   7   2.0000     -11.301017      -307.5163
   8   2.0000     -11.290329      -307.2255
   9   2.0000      -1.422591       -38.7107
  10   2.0000      -1.395973       -37.9864
  11   2.0000      -1.312846       -35.7243
  12   2.0000      -1.201615       -32.6976
  13   2.0000      -1.068476       -29.0747
  14   2.0000      -0.984841       -26.7989
  15   2.0000      -0.887394       -24.1472
  16   2.0000      -0.871217       -23.7070
  17   2.0000      -0.773707       -21.0536
  18   2.0000      -0.733260       -19.9530
  19   2.0000      -0.706638       -19.2286
  20   2.0000      -0.696202       -18.9446
  21   2.0000      -0.648221       -17.6390
  22   2.0000      -0.623184       -16.9577
  23   2.0000      -0.616409       -16.7734
  24   2.0000      -0.596555       -16.2331
  25   2.0000      -0.585654       -15.9365
  26   2.0000      -0.551916       -15.0184
  27   2.0000      -0.537324       -14.6213
  28   2.0000      -0.498752       -13.5717
  29   2.0000      -0.486495       -13.2382
  30   2.0000      -0.422702       -11.5023
  31   2.0000      -0.413724       -11.2580
  32   2.0000      -0.341405        -9.2901
  33   0.0000       0.083942         2.2842
  34   0.0000       0.113541         3.0896
  35   0.0000       0.127679         3.4743
  36   0.0000       0.165749         4.5102
  37   0.0000       0.178829         4.8662

MULLIKEN ATOMIC CHARGES
-----------------------
   0 O :   -0.503689
   1 C :   -0.054124
   2 C :    0.019019
   3 N :   -0.248519
   4 C :    0.067529
   5 N :   -0.237870
   6 C :   -0.091017
   7 C :    0.193383
   8 O :   -0.422967
   9 H :    0.338551
  10 H :    0.144530
  11 H :    0.153069
  12 H :    0.136780
  13 H :    0.145494
  14 H :    0.359833
Sum of atomic charges:    0.0000000

LOEWDIN ATOMIC CHARGES
----------------------
   0 O :   -0.048193
   1 C :   -0.285543
   2 C :   -0.231644
   3 N :    0.151061
   4 C :   -0.301112
   5 N :    0.129775
   6 C :   -0.175113
   7 C :   -0.261820
   8 O :    0.088271
   9 H :    0.183560
  10 H :    0.144140
  11 H :    0.136505
  12 H :    0.134033
  13 H :    0.146970
  14 H :    0.189111

  Mayer bond orders larger than 0.1
B(  0-O ,  1-C ) :   0.8329 B(  0-O ,  9-H ) :   0.8339 B(  1-C ,  2-C ) :   0.9123
B(  1-C , 10-H ) :   0.9275 B(  1-C , 11-H ) :   0.9395 B(  2-C ,  3-N ) :   1.3994
B(  2-C ,  7-C ) :   1.2234 B(  3-N ,  4-C ) :   1.3789 B(  4-C ,  5-N ) :   1.3638
B(  4-C , 12-H ) :   0.9373 B(  5-N ,  6-C ) :   1.4067 B(  6-C ,  7-C ) :   1.2799
B(  6-C , 13-H ) :   0.9489 B(  7-C ,  8-O ) :   1.1370 B(  8-O , 14-H ) :   0.7741

MP2 TOTAL ENERGY:     -453.257183519 Eh
FINAL SINGLE POINT ENERGY      -453.257183519385

DIPOLE MOMENT
-------------
                                X             Y             Z
Electronic contribution:     -2.56681      -1.04509      -0.48271
Nuclear contribution   :      3.21876       1.76489       0.55263
                        -----------------------------------------
Total Dipole Moment    :      0.65195       0.71980       0.06991
                        -----------------------------------------
Magnitude (a.u.)       :      0.97367
Magnitude (Debye)      :      2.47487

                             ****ORCA TERMINATED NORMALLY****
TOTAL RUN TIME: 0 days 0 hours 14 minutes 13 seconds 591 msec
