                         Program Version 3.0.3 - RELEASE   -
|  1> ! RI-MP2 RIJK def2-TZVP def2-TZVP/C def2-TZVP/JK TIGHTSCF
|  2> % maxcore 2000
|  3> % mp2 density relaxed end
|  4> *xyz 0 1
|  5>  C       -0.6431164510     1.7335292230    -0.0918053440
|  6>  C       -0.4174037700     0.2359503072    -0.2786398071
|  7>  C       -1.4058225466    -0.6337262542     0.4734947381
|  8>  O       -2.2201628026    -0.1912407230     1.2513462466
|  9>  C       -1.3515447165    -2.1423218307     0.1521165315
| 10>  C       -1.6831505496    -2.9903371818     1.3841289443
| 11>  C       -2.3087992822    -2.3362180420    -1.0436713888
| 12>  C       -3.7755545844    -2.5460641297    -0.7327726999
| 13>  O       -1.8877169330    -2.2651004123    -2.1751755304
| 14>  H        0.1150952538     2.3079425175    -0.6308052193
| 15>  H       -1.6275266358     2.0299470723    -0.4640124222
| 16>  H       -0.5998695099     2.0055387768     0.9657084670
| 17>  H       -0.4576126909    -0.0619665194    -1.3349845588
| 18>  H        0.5876407076    -0.0597965724     0.0566130301
| 19>  H       -0.3574932290    -2.3775154761    -0.2379269145
| 20>  H       -0.8896960428    -2.8932443829     2.1308971059
| 21>  H       -2.6127639765    -2.6565313989     1.8483402500
| 22>  H       -1.7710312076    -4.0493101383     1.1248314249
| 23>  H       -4.1202206160    -1.7891563487    -0.0204114786
| 24>  H       -4.3537884154    -2.4955605360    -1.6557325107
| 25>  H       -3.9306987617    -3.5220544504    -0.2604442941
| 26> *
| 27>
| 28>                          ****END OF INPUT****

CARTESIAN COORDINATES (ANGSTROEM)
---------------------------------
  C     -0.643116    1.733529   -0.091805
  C     -0.417404    0.235950   -0.278640
  C     -1.405823   -0.633726    0.473495
  O     -2.220163   -0.191241    1.251346
  C     -1.351545   -2.142322    0.152117
  C     -1.683151   -2.990337    1.384129
  C     -2.308799   -2.336218   -1.043671
  C     -3.775555   -2.546064   -0.732773
  O     -1.887717   -2.265100   -2.175176
  H      0.115095    2.307943   -0.630805
  H     -1.627527    2.029947   -0.464012
  H     -0.599870    2.005539    0.965708
  H     -0.457613   -0.061967   -1.334985
  H      0.587641   -0.059797    0.056613
  H     -0.357493   -2.377515   -0.237927
  H     -0.889696   -2.893244    2.130897
  H     -2.612764   -2.656531    1.848340
  H     -1.771031   -4.049310    1.124831
  H     -4.120221   -1.789156   -0.020411
  H     -4.353788   -2.495561   -1.655733
  H     -3.930699   -3.522054   -0.260444

 Total Charge           Charge          ....    0
 Multiplicity           Mult            ....    1
 Number of Electrons    NEL             ....   70
 Basis Dimension        Dim             ....  351

ORBITAL ENERGIES
----------------

  NO   OCC          E(Eh)            E(eV)
   0   2.0000     -20.555868      -559.3536
   1   2.0000     -20.555293      -559.3380
   2   2.0000     -11.343291      -308.6667
   3   2.0000     -11.340655      -308.5949
   4   2.0000     -11.257748      -306.3389
   5   2.0000     -11.241975      -305.9097
   6   2.0000     -11.236843      -305.7700
   7   2.0000     -11.235296      -305.7280
   8   2.0000     -11.220045      -305.3130
   9   2.0000      -1.403820       -38.1999
  10   2.0000      -1.397091       -38.0168
  11   2.0000      -1.095593       -29.8126
  12   2.0000      -1.052330       -28.6353
  13   2.0000      -1.000944       -27.2371
  14   2.0000      -0.929503       -25.2931
  15   2.0000      -0.870591       -23.6900
  16   2.0000      -0.766940       -20.8695
  17   2.0000      -0.726331       -19.7645
  18   2.0000      -0.683760       -18.6060
  19   2.0000      -0.668695       -18.1961
  20   2.0000      -0.642628       -17.4868
  21   2.0000      -0.629984       -17.1427
  22   2.0000      -0.620582       -16.8869
  23   2.0000      -0.596379       -16.2283
  24   2.0000      -0.572272       -15.5723
  25   2.0000      -0.562216       -15.2987
  26   2.0000      -0.549260       -14.9461
  27   2.0000      -0.536655       -14.6031
  28   2.0000      -0.525490       -14.2993
  29   2.0000      -0.516087       -14.0435
  30   2.0000      -0.510829       -13.9004
  31   2.0000      -0.507376       -13.8064
  32   2.0000      -0.491487       -13.3740
  33   2.0000      -0.427293       -11.6272
  34   2.0000      -0.403950       -10.9920
  35   0.0000       0.109291         2.9740
  36   0.0000       0.123116         3.3501
  37   0.0000       0.149790         4.0760
  38   0.0000       0.160461         4.3664
  39   0.0000       0.175107         4.7649

MULLIKEN ATOMIC CHARGES
-----------------------
   0 C :   -0.373008
   1 C :   -0.263638
   2 C :    0.143241
   3 O :   -0.298409
   4 C :    0.024004
   5 C :   -0.420503
   6 C :    0.169456
   7 C :   -0.439935
   8 O :   -0.282747
   9 H :    0.136216
  10 H :    0.131576
  11 H :    0.135342
  12 H :    0.164702
  13 H :    0.135836
  14 H :    0.114822
  15 H :    0.141664
  16 H :    0.155236
  17 H :    0.144988
  18 H :    0.174404
  19 H :    0.154688
  20 H :    0.152064
Sum of atomic charges:   -0.0000000

LOEWDIN ATOMIC CHARGES
----------------------
   0 C :   -0.309483
   1 C :   -0.266751
   2 C :   -0.299203
   3 O :    0.161047
   4 C :   -0.222938
   5 C :   -0.282182
   6 C :   -0.324115
   7 C :   -0.273266
   8 O :    0.151682
   9 H :    0.122760
  10 H :    0.126771
  11 H :    0.127199
  12 H :    0.159162
  13 H :    0.154568
  14 H :    0.166872
  15 H :    0.129988
  16 H :    0.132146
  17 H :    0.126571
  18 H :    0.143991
  19 H :    0.134463
  20 H :    0.140720

  Mayer bond orders larger than 0.1
B(  0-C ,  1-C ) :   0.9351 B(  0-C ,  9-H ) :   0.9395 B(  0-C , 10-H ) :   0.9368
B(  0-C , 11-H ) :   0.9333 B(  1-C ,  2-C ) :   0.9366 B(  1-C , 12-H ) :   0.9069
B(  1-C , 13-H ) :   0.9032 B(  2-C ,  3-O ) :   1.9379 B(  2-C ,  4-C ) :   0.8533
B(  4-C ,  5-C ) :   0.8779 B(  4-C ,  6-C ) :   0.8327 B(  4-C , 14-H ) :   0.9186
B(  5-C , 15-H ) :   0.9319 B(  5-C , 16-H ) :   0.9201 B(  5-C , 17-H ) :   0.9472
B(  6-C ,  7-C ) :   0.9262 B(  6-C ,  8-O ) :   1.9933 B(  7-C , 18-H ) :   0.9125
B(  7-C , 19-H ) :   0.9329 B(  7-C , 20-H ) :   0.9043

MP2 TOTAL ENERGY:     -423.561691024 Eh
FINAL SINGLE POINT ENERGY      -423.561691024333

DIPOLE MOMENT
-------------
                                X             Y             Z
Electronic contribution:     -0.69971      -1.42759      -2.37170
Nuclear contribution   :      0.97864       1.08592       2.72593
                        -----------------------------------------
Total Dipole Moment    :      0.27893      -0.34167       0.35423
                        -----------------------------------------
Magnitude (a.u.)       :      0.56570
Magnitude (Debye)      :      1.43790

                             ****ORCA TERMINATED NORMALLY****
TOTAL RUN TIME: 0 days 0 hours 17 minutes 47 seconds 656 msec
