                         Program Version 3.0.3 - RELEASE   -
|  1> ! RI-MP2 RIJK def2-TZVP def2-TZVP/C def2-TZVP/JK TIGHTSCF
|  2> % maxcore 2000
|  3> % mp2 density relaxed end
|  4> *xyz 0 1
|  5>  C       -0.0989425038     1.5602081229    -0.0302080771
|  6>  C       -0.1745507360     0.0675468273     0.2782683020
|  7>  C        0.8999090879    -0.4159403920     1.2335710257
|  8>  O        1.6699972574     0.3314216629     1.7887691693
|  9>  C        0.9902918142    -1.9321767683     1.4455953144
| 10>  C        1.4868476116    -2.2592292501     2.8622069699
| 11>  O        0.5169997604    -1.9679605956     3.8513324919
| 12>  C        1.9395192619    -3.6603676993     2.9528751174
| 13>  N        2.2553303141    -4.7700437451     3.0203583630
| 14>  H        0.8506606096     1.8126061676    -0.5092966333
| 15>  H       -0.9121535554     1.8577407292    -0.6974262532
| 16>  H       -0.1671455398     2.1489346707     0.8874863650
| 17>  H       -1.1417674550    -0.1970701580     0.7307418957
| 18>  H       -0.1173979054    -0.5407199079    -0.6354321544
| 19>  H        0.0308670648    -2.4234925024     1.2507726367
| 20>  H        1.6977951587    -2.3210674158     0.7014020842
| 21>  H        2.3316037321    -1.5972385732     3.0770857094
| 22>  H       -0.1932289474    -2.6164866729     3.7821569033
| 23> *
| 24>
| 25>                          ****END OF INPUT****

CARTESIAN COORDINATES (ANGSTROEM)
---------------------------------
  C     -0.098943    1.560208   -0.030208
  C     -0.174551    0.067547    0.278268
  C      0.899909   -0.415940    1.233571
  O      1.669997    0.331422    1.788769
  C      0.990292   -1.932177    1.445595
  C      1.486848   -2.259229    2.862207
  O      0.517000   -1.967961    3.851332
  C      1.939519   -3.660368    2.952875
  N      2.255330   -4.770044    3.020358
  H      0.850661    1.812606   -0.509297
  H     -0.912154    1.857741   -0.697426
  H     -0.167146    2.148935    0.887486
  H     -1.141767   -0.197070    0.730742
  H     -0.117398   -0.540720   -0.635432
  H      0.030867   -2.423493    1.250773
  H      1.697795   -2.321067    0.701402
  H      2.331604   -1.597239    3.077086
  H     -0.193229   -2.616487    3.782157

 Total Charge           Charge          ....    0
 Multiplicity           Mult            ....    1
 Number of Electrons    NEL             ....   68
 Basis Dimension        Dim             ....  333

ORBITAL ENERGIES
----------------

  NO   OCC          E(Eh)            E(eV)
   0   2.0000     -20.596987      -560.4725
   1   2.0000     -20.563417      -559.5590
   2   2.0000     -15.586439      -424.1286
   3   2.0000     -11.350582      -308.8650
   4   2.0000     -11.349256      -308.8290
   5   2.0000     -11.283509      -307.0399
   6   2.0000     -11.273397      -306.7647
   7   2.0000     -11.256551      -306.3063
   8   2.0000     -11.229532      -305.5711
   9   2.0000      -1.413157       -38.4540
  10   2.0000      -1.403569       -38.1931
  11   2.0000      -1.230788       -33.4915
  12   2.0000      -1.095632       -29.8137
  13   2.0000      -1.061689       -28.8900
  14   2.0000      -0.958897       -26.0929
  15   2.0000      -0.883742       -24.0479
  16   2.0000      -0.785890       -21.3852
  17   2.0000      -0.747708       -20.3462
  18   2.0000      -0.696764       -18.9599
  19   2.0000      -0.679320       -18.4852
  20   2.0000      -0.656389       -17.8613
  21   2.0000      -0.643895       -17.5213
  22   2.0000      -0.630106       -17.1461
  23   2.0000      -0.593254       -16.1433
  24   2.0000      -0.580915       -15.8075
  25   2.0000      -0.553201       -15.0534
  26   2.0000      -0.546287       -14.8652
  27   2.0000      -0.529281       -14.4025
  28   2.0000      -0.527045       -14.3416
  29   2.0000      -0.506387       -13.7795
  30   2.0000      -0.500846       -13.6287
  31   2.0000      -0.480651       -13.0792
  32   2.0000      -0.471363       -12.8264
  33   2.0000      -0.427086       -11.6216
  34   0.0000       0.102323         2.7844
  35   0.0000       0.122482         3.3329
  36   0.0000       0.133020         3.6197
  37   0.0000       0.152115         4.1393
  38   0.0000       0.161749         4.4014

MULLIKEN ATOMIC CHARGES
-----------------------
   0 C :   -0.371579
   1 C :   -0.233916
   2 C :    0.212794
   3 O :   -0.292116
   4 C :   -0.281849
   5 C :    0.182034
   6 O :   -0.450532
   7 C :   -0.184143
   8 N :   -0.052826
   9 H :    0.132973
  10 H :    0.136608
  11 H :    0.142279
  12 H :    0.135559
  13 H :    0.136879
  14 H :    0.142770
  15 H :    0.160068
  16 H :    0.161072
  17 H :    0.323925
Sum of atomic charges:    0.0000000

LOEWDIN ATOMIC CHARGES
----------------------
   0 C :   -0.307942
   1 C :   -0.269242
   2 C :   -0.319166
   3 O :    0.166860
   4 C :   -0.209445
   5 C :   -0.335648
   6 O :    0.015181
   7 C :   -0.173951
   8 N :    0.070157
   9 H :    0.127432
  10 H :    0.123118
  11 H :    0.129661
  12 H :    0.154724
  13 H :    0.151786
  14 H :    0.149836
  15 H :    0.166421
  16 H :    0.176822
  17 H :    0.183396

  Mayer bond orders larger than 0.1
B(  0-C ,  1-C ) :   0.9392 B(  0-C ,  9-H ) :   0.9362 B(  0-C , 10-H ) :   0.9382
B(  0-C , 11-H ) :   0.9340 B(  1-C ,  2-C ) :   0.9263 B(  1-C , 12-H ) :   0.9055
B(  1-C , 13-H ) :   0.9095 B(  2-C ,  3-O ) :   1.9406 B(  2-C ,  4-C ) :   0.8915
B(  4-C ,  5-C ) :   0.9211 B(  4-C , 14-H ) :   0.9103 B(  4-C , 15-H ) :   0.8942
B(  5-C ,  6-O ) :   0.9022 B(  5-C ,  7-C ) :   0.9112 B(  5-C , 16-H ) :   0.9135
B(  6-O , 17-H ) :   0.8350 B(  7-C ,  8-N ) :   2.8553

MP2 TOTAL ENERGY:     -438.392608106 Eh
FINAL SINGLE POINT ENERGY      -438.392608105832

DIPOLE MOMENT
-------------
                                X             Y             Z
Electronic contribution:      5.17380      -7.64924       7.16018
Nuclear contribution   :     -6.36234       8.09301      -8.26164
                        -----------------------------------------
Total Dipole Moment    :     -1.18853       0.44376      -1.10147
                        -----------------------------------------
Magnitude (a.u.)       :      1.68011
Magnitude (Debye)      :      4.27050

                             ****ORCA TERMINATED NORMALLY****
TOTAL RUN TIME: 0 days 0 hours 14 minutes 44 seconds 379 msec
