                         Program Version 3.0.3 - RELEASE   -
|  1> ! RI-MP2 RIJK def2-TZVP def2-TZVP/C def2-TZVP/JK TIGHTSCF
|  2> % maxcore 2000
|  3> % mp2 density relaxed end
|  4> *xyz 0 1
|  5>  C       -0.1862525322     1.4850638204     0.0090322058
|  6>  C        0.1269440819     0.0253575432    -0.0212114033
|  7>  O       -0.7395055247    -0.8678253372     0.6962562172
|  8>  C        0.6614488247    -0.9125233396     0.9892322462
|  9>  C        1.3071597724    -1.8136386432    -0.0752949904
| 10>  C        0.7640348790    -3.2252971200    -0.1973289043
| 11>  O        1.1569345855    -3.7094213060    -1.4912606177
| 12>  C        0.7834393281    -0.7840851750    -1.1542353287
| 13>  O       -0.0787977719    -1.2435948642    -2.1558108628
| 14>  H        0.6757476258     2.0735225951    -0.3212165603
| 15>  H       -1.0238642933     1.7098559985    -0.6601742341
| 16>  H       -0.4618401434     1.7989436331     1.0193816984
| 17>  H        0.9633898436    -0.7404576193     2.0167588613
| 18>  H        2.3993718548    -1.8202261899    -0.0303049184
| 19>  H        1.1707452385    -3.8707472142     0.5948185771
| 20>  H       -0.3272269105    -3.2010538339    -0.1055590296
| 21>  H        0.7435304207    -4.5673232805    -1.6285668857
| 22>  H        1.6320526178    -0.2191433935    -1.5712105736
| 23>  H        0.2569825133    -2.1125568738    -2.4182113570
| 24> *
| 25>
| 26>                          ****END OF INPUT****

CARTESIAN COORDINATES (ANGSTROEM)
---------------------------------
  C     -0.186253    1.485064    0.009032
  C      0.126944    0.025358   -0.021211
  O     -0.739506   -0.867825    0.696256
  C      0.661449   -0.912523    0.989232
  C      1.307160   -1.813639   -0.075295
  C      0.764035   -3.225297   -0.197329
  O      1.156935   -3.709421   -1.491261
  C      0.783439   -0.784085   -1.154235
  O     -0.078798   -1.243595   -2.155811
  H      0.675748    2.073523   -0.321217
  H     -1.023864    1.709856   -0.660174
  H     -0.461840    1.798944    1.019382
  H      0.963390   -0.740458    2.016759
  H      2.399372   -1.820226   -0.030305
  H      1.170745   -3.870747    0.594819
  H     -0.327227   -3.201054   -0.105559
  H      0.743530   -4.567323   -1.628567
  H      1.632053   -0.219143   -1.571211
  H      0.256983   -2.112557   -2.418211

 Total Charge           Charge          ....    0
 Multiplicity           Mult            ....    1
 Number of Electrons    NEL             ....   70
 Basis Dimension        Dim             ....  339

ORBITAL ENERGIES
----------------

  NO   OCC          E(Eh)            E(eV)
   0   2.0000     -20.572387      -559.8031
   1   2.0000     -20.564241      -559.5815
   2   2.0000     -20.542966      -559.0025
   3   2.0000     -11.287604      -307.1513
   4   2.0000     -11.286242      -307.1143
   5   2.0000     -11.284621      -307.0701
   6   2.0000     -11.281971      -306.9980
   7   2.0000     -11.240361      -305.8658
   8   2.0000     -11.225698      -305.4668
   9   2.0000      -1.419795       -38.6346
  10   2.0000      -1.374487       -37.4017
  11   2.0000      -1.350403       -36.7463
  12   2.0000      -1.086129       -29.5551
  13   2.0000      -1.013782       -27.5864
  14   2.0000      -0.944403       -25.6985
  15   2.0000      -0.874952       -23.8087
  16   2.0000      -0.807146       -21.9636
  17   2.0000      -0.750999       -20.4357
  18   2.0000      -0.720465       -19.6048
  19   2.0000      -0.693767       -18.8784
  20   2.0000      -0.674642       -18.3579
  21   2.0000      -0.637072       -17.3356
  22   2.0000      -0.631190       -17.1755
  23   2.0000      -0.592946       -16.1349
  24   2.0000      -0.581736       -15.8298
  25   2.0000      -0.570945       -15.5362
  26   2.0000      -0.556102       -15.1323
  27   2.0000      -0.528570       -14.3831
  28   2.0000      -0.525357       -14.2957
  29   2.0000      -0.497968       -13.5504
  30   2.0000      -0.489259       -13.3134
  31   2.0000      -0.469082       -12.7644
  32   2.0000      -0.434006       -11.8099
  33   2.0000      -0.416735       -11.3399
  34   2.0000      -0.390896       -10.6368
  35   0.0000       0.128868         3.5067
  36   0.0000       0.144454         3.9308
  37   0.0000       0.160984         4.3806
  38   0.0000       0.173324         4.7164
  39   0.0000       0.189654         5.1608

MULLIKEN ATOMIC CHARGES
-----------------------
   0 C :   -0.421402
   1 C :    0.146316
   2 O :   -0.334614
   3 C :   -0.032712
   4 C :    0.022037
   5 C :   -0.158456
   6 O :   -0.505608
   7 C :    0.076241
   8 O :   -0.482342
   9 H :    0.132614
  10 H :    0.152095
  11 H :    0.142674
  12 H :    0.137921
  13 H :    0.108732
  14 H :    0.107298
  15 H :    0.154796
  16 H :    0.327612
  17 H :    0.089709
  18 H :    0.337088
Sum of atomic charges:    0.0000000

LOEWDIN ATOMIC CHARGES
----------------------
   0 C :   -0.270332
   1 C :   -0.282349
   2 O :    0.195478
   3 C :   -0.207785
   4 C :   -0.202757
   5 C :   -0.317264
   6 O :   -0.061233
   7 C :   -0.270277
   8 O :   -0.008687
   9 H :    0.132480
  10 H :    0.137585
  11 H :    0.135049
  12 H :    0.130150
  13 H :    0.151585
  14 H :    0.119727
  15 H :    0.130128
  16 H :    0.175026
  17 H :    0.136711
  18 H :    0.176764

  Mayer bond orders larger than 0.1
B(  0-C ,  1-C ) :   0.8938 B(  0-C ,  9-H ) :   0.9360 B(  0-C , 10-H ) :   0.9380
B(  0-C , 11-H ) :   0.9380 B(  1-C ,  2-O ) :   0.8807 B(  1-C ,  3-C ) :   0.8426
B(  1-C ,  7-C ) :   0.8601 B(  2-O ,  3-C ) :   0.8992 B(  3-C ,  4-C ) :   0.8737
B(  3-C , 12-H ) :   0.9124 B(  4-C ,  5-C ) :   0.8767 B(  4-C ,  7-C ) :   0.9643
B(  4-C , 13-H ) :   0.9002 B(  5-C ,  6-O ) :   0.9340 B(  5-C , 14-H ) :   0.9256
B(  5-C , 15-H ) :   0.9278 B(  6-O , 16-H ) :   0.8422 B(  7-C ,  8-O ) :   1.0434
B(  7-C , 17-H ) :   0.9635 B(  8-O , 18-H ) :   0.8113

MP2 TOTAL ENERGY:     -459.392474620 Eh
FINAL SINGLE POINT ENERGY      -459.392474619689

DIPOLE MOMENT
-------------
                                X             Y             Z
Electronic contribution:     -1.11704      -2.14926      -0.60962
Nuclear contribution   :      1.82140       1.73174       1.08132
                        -----------------------------------------
Total Dipole Moment    :      0.70437      -0.41751       0.47170
                        -----------------------------------------
Magnitude (a.u.)       :      0.94496
Magnitude (Debye)      :      2.40190

                             ****ORCA TERMINATED NORMALLY****
TOTAL RUN TIME: 0 days 0 hours 28 minutes 24 seconds 412 msec
