                         Program Version 3.0.3 - RELEASE   -
|  1> ! RI-MP2 RIJK def2-TZVP def2-TZVP/C def2-TZVP/JK TIGHTSCF
|  2> % maxcore 2000
|  3> % mp2 density relaxed end
|  4> *xyz 0 1
|  5>  O        0.0734759160     1.4341062376     0.3969499707
|  6>  C        0.0909038198     0.0442915269     0.1104331708
|  7>  C       -1.2856142960    -0.5098158156    -0.1538648407
|  8>  C       -2.1346890739    -1.0233525914     1.0056299249
|  9>  C       -1.6161086767    -1.9712413041    -0.0372571845
| 10>  O       -2.5175379462    -2.3428976248    -1.0590385591
| 11>  C       -2.8706158253    -1.2439888716    -1.8088369211
| 12>  N       -3.7406954491    -1.2568685156    -2.7202491034
| 13>  C       -2.0590938075    -0.0335901387    -1.3725310866
| 14>  H       -0.4961626506     1.5657195612     1.1625244885
| 15>  H        0.7178785063    -0.0604954855    -0.7823124534
| 16>  H        0.5737604298    -0.5285027703     0.9189780745
| 17>  H       -1.6679880261    -1.0605167197     1.9852335570
| 18>  H       -3.2001770759    -0.8161853098     1.0144991406
| 19>  H       -0.9001090384    -2.7514113752     0.1903578748
| 20>  H       -4.1448010891    -2.1895195964    -2.8200935009
| 21>  H       -2.7171821282     0.8181572284    -1.1876615127
| 22>  H       -1.3764912188     0.2585710844    -2.1776452392
| 23> *
| 24>
| 25>                          ****END OF INPUT****

CARTESIAN COORDINATES (ANGSTROEM)
---------------------------------
  O      0.073476    1.434106    0.396950
  C      0.090904    0.044292    0.110433
  C     -1.285614   -0.509816   -0.153865
  C     -2.134689   -1.023353    1.005630
  C     -1.616109   -1.971241   -0.037257
  O     -2.517538   -2.342898   -1.059039
  C     -2.870616   -1.243989   -1.808837
  N     -3.740695   -1.256869   -2.720249
  C     -2.059094   -0.033590   -1.372531
  H     -0.496163    1.565720    1.162524
  H      0.717879   -0.060495   -0.782312
  H      0.573760   -0.528503    0.918978
  H     -1.667988   -1.060517    1.985234
  H     -3.200177   -0.816185    1.014499
  H     -0.900109   -2.751411    0.190358
  H     -4.144801   -2.189520   -2.820094
  H     -2.717182    0.818157   -1.187662
  H     -1.376491    0.258571   -2.177645

 Total Charge           Charge          ....    0
 Multiplicity           Mult            ....    1
 Number of Electrons    NEL             ....   68
 Basis Dimension        Dim             ....  333

ORBITAL ENERGIES
----------------

  NO   OCC          E(Eh)            E(eV)
   0   2.0000     -20.601379      -560.5920
   1   2.0000     -20.568711      -559.7031
   2   2.0000     -15.532851      -422.6704
   3   2.0000     -11.340185      -308.5821
   4   2.0000     -11.308922      -307.7314
   5   2.0000     -11.295477      -307.3656
   6   2.0000     -11.260422      -306.4116
   7   2.0000     -11.250700      -306.1471
   8   2.0000     -11.249452      -306.1132
   9   2.0000      -1.440781       -39.2056
  10   2.0000      -1.373702       -37.3803
  11   2.0000      -1.202187       -32.7132
  12   2.0000      -1.167872       -31.7794
  13   2.0000      -1.015754       -27.6401
  14   2.0000      -0.957145       -26.0452
  15   2.0000      -0.866830       -23.5877
  16   2.0000      -0.797824       -21.7099
  17   2.0000      -0.775290       -21.0967
  18   2.0000      -0.728776       -19.8310
  19   2.0000      -0.687025       -18.6949
  20   2.0000      -0.672907       -18.3107
  21   2.0000      -0.656628       -17.8678
  22   2.0000      -0.623901       -16.9772
  23   2.0000      -0.615173       -16.7397
  24   2.0000      -0.594739       -16.1837
  25   2.0000      -0.581789       -15.8313
  26   2.0000      -0.550404       -14.9773
  27   2.0000      -0.531299       -14.4574
  28   2.0000      -0.521667       -14.1953
  29   2.0000      -0.468294       -12.7429
  30   2.0000      -0.442198       -12.0328
  31   2.0000      -0.435953       -11.8629
  32   2.0000      -0.428824       -11.6689
  33   2.0000      -0.387445       -10.5429
  34   0.0000       0.122298         3.3279
  35   0.0000       0.142702         3.8831
  36   0.0000       0.157003         4.2723
  37   0.0000       0.168184         4.5765
  38   0.0000       0.175961         4.7882

MULLIKEN ATOMIC CHARGES
-----------------------
   0 O :   -0.459853
   1 C :   -0.018353
   2 C :   -0.068410
   3 C :   -0.307379
   4 C :    0.042224
   5 O :   -0.256980
   6 C :    0.073222
   7 N :   -0.365557
   8 C :   -0.112173
   9 H :    0.315886
  10 H :    0.119477
  11 H :    0.101108
  12 H :    0.138011
  13 H :    0.151736
  14 H :    0.141349
  15 H :    0.225735
  16 H :    0.140195
  17 H :    0.139762
Sum of atomic charges:   -0.0000000

LOEWDIN ATOMIC CHARGES
----------------------
   0 O :   -0.040150
   1 C :   -0.306546
   2 C :   -0.244108
   3 C :   -0.185259
   4 C :   -0.233809
   5 O :    0.261598
   6 C :   -0.384029
   7 N :   -0.056243
   8 C :   -0.164695
   9 H :    0.176064
  10 H :    0.136865
  11 H :    0.124092
  12 H :    0.140127
  13 H :    0.144202
  14 H :    0.142318
  15 H :    0.169618
  16 H :    0.157523
  17 H :    0.162431

  Mayer bond orders larger than 0.1
B(  0-O ,  1-C ) :   0.9152 B(  0-O ,  9-H ) :   0.8435 B(  1-C ,  2-C ) :   0.9618
B(  1-C , 10-H ) :   0.9191 B(  1-C , 11-H ) :   0.9275 B(  2-C ,  3-C ) :   0.8610
B(  2-C ,  4-C ) :   0.8427 B(  2-C ,  8-C ) :   0.9397 B(  3-C ,  4-C ) :   0.8818
B(  3-C , 12-H ) :   0.9152 B(  3-C , 13-H ) :   0.9053 B(  4-C ,  5-O ) :   0.9138
B(  4-C , 14-H ) :   0.9305 B(  5-O ,  6-C ) :   1.0654 B(  6-C ,  7-N ) :   2.0859
B(  6-C ,  8-C ) :   0.9216 B(  7-N , 15-H ) :   0.8539 B(  8-C , 16-H ) :   0.9089
B(  8-C , 17-H ) :   0.9076

MP2 TOTAL ENERGY:     -438.364234184 Eh
FINAL SINGLE POINT ENERGY      -438.364234184374

DIPOLE MOMENT
-------------
                                X             Y             Z
Electronic contribution:     -2.02752      -2.14148      -2.38080
Nuclear contribution   :      2.44821       1.76859       3.55260
                        -----------------------------------------
Total Dipole Moment    :      0.42069      -0.37290       1.17181
                        -----------------------------------------
Magnitude (a.u.)       :      1.29968
Magnitude (Debye)      :      3.30352

                             ****ORCA TERMINATED NORMALLY****
TOTAL RUN TIME: 0 days 0 hours 16 minutes 13 seconds 214 msec
