                         Program Version 3.0.3 - RELEASE   -
|  1> ! RI-MP2 RIJK def2-TZVP def2-TZVP/C def2-TZVP/JK TIGHTSCF
|  2> % maxcore 2000
|  3> % mp2 density relaxed end
|  4> *xyz 0 1
|  5>  C       -0.1315204965     1.5440669784    -0.0077233870
|  6>  C       -0.0056648337     0.0180863303     0.0212927132
|  7>  C        0.8261601498    -0.5519803552    -1.1795981959
|  8>  C        2.0787365722    -0.6380109317    -0.2377008555
|  9>  C        1.0998362208    -0.5261507398     0.9097739700
| 10>  C        0.8941849875    -1.0979203991     2.0874320710
| 11>  C       -0.4954520500    -1.0784856118     2.6760560828
| 12>  O       -1.4614953246    -0.4210810840     1.8674278807
| 13>  C       -1.3137321480    -0.6373801577     0.4656743194
| 14>  H        0.8395554736     2.0308145832    -0.1430631365
| 15>  H       -0.7823870425     1.8590842099    -0.8321845125
| 16>  H       -0.5649769273     1.9029374632     0.9297923916
| 17>  H        0.4845002757    -1.5442936001    -1.4857897284
| 18>  H        0.9113528993     0.0873432446    -2.0618181972
| 19>  H        2.6969874489    -1.5378335624    -0.2890052206
| 20>  H        2.7292233825     0.2361727620    -0.3473796358
| 21>  H        1.6516135261    -1.6785651535     2.6083619068
| 22>  H       -0.8081365128    -2.1219517189     2.8664512967
| 23>  H       -0.5230698007    -0.5621388124     3.6436403464
| 24>  H       -2.2012634189    -0.1906846539     0.0054054743
| 25>  H       -1.3027106216    -1.7139364210     0.2332283565
| 26> *
| 27>
| 28>                          ****END OF INPUT****

CARTESIAN COORDINATES (ANGSTROEM)
---------------------------------
  C     -0.131520    1.544067   -0.007723
  C     -0.005665    0.018086    0.021293
  C      0.826160   -0.551980   -1.179598
  C      2.078737   -0.638011   -0.237701
  C      1.099836   -0.526151    0.909774
  C      0.894185   -1.097920    2.087432
  C     -0.495452   -1.078486    2.676056
  O     -1.461495   -0.421081    1.867428
  C     -1.313732   -0.637380    0.465674
  H      0.839555    2.030815   -0.143063
  H     -0.782387    1.859084   -0.832185
  H     -0.564977    1.902937    0.929792
  H      0.484500   -1.544294   -1.485790
  H      0.911353    0.087343   -2.061818
  H      2.696987   -1.537834   -0.289005
  H      2.729223    0.236173   -0.347380
  H      1.651614   -1.678565    2.608362
  H     -0.808137   -2.121952    2.866451
  H     -0.523070   -0.562139    3.643640
  H     -2.201263   -0.190685    0.005405
  H     -1.302711   -1.713936    0.233228

 Total Charge           Charge          ....    0
 Multiplicity           Mult            ....    1
 Number of Electrons    NEL             ....   68
 Basis Dimension        Dim             ....  351

ORBITAL ENERGIES
----------------

  NO   OCC          E(Eh)            E(eV)
   0   2.0000     -20.549142      -559.1706
   1   2.0000     -11.275312      -306.8168
   2   2.0000     -11.269615      -306.6618
   3   2.0000     -11.232414      -305.6495
   4   2.0000     -11.231936      -305.6365
   5   2.0000     -11.229575      -305.5723
   6   2.0000     -11.227858      -305.5255
   7   2.0000     -11.219498      -305.2981
   8   2.0000     -11.212060      -305.0957
   9   2.0000      -1.367720       -37.2176
  10   2.0000      -1.154538       -31.4166
  11   2.0000      -1.040333       -28.3089
  12   2.0000      -0.988674       -26.9032
  13   2.0000      -0.940657       -25.5966
  14   2.0000      -0.886933       -24.1347
  15   2.0000      -0.825084       -22.4517
  16   2.0000      -0.803051       -21.8521
  17   2.0000      -0.684577       -18.6283
  18   2.0000      -0.673091       -18.3157
  19   2.0000      -0.653113       -17.7721
  20   2.0000      -0.626522       -17.0485
  21   2.0000      -0.623404       -16.9637
  22   2.0000      -0.595342       -16.2001
  23   2.0000      -0.563624       -15.3370
  24   2.0000      -0.549794       -14.9606
  25   2.0000      -0.535770       -14.5791
  26   2.0000      -0.518974       -14.1220
  27   2.0000      -0.509740       -13.8707
  28   2.0000      -0.496540       -13.5115
  29   2.0000      -0.471046       -12.8178
  30   2.0000      -0.444789       -12.1033
  31   2.0000      -0.433304       -11.7908
  32   2.0000      -0.399094       -10.8599
  33   2.0000      -0.339495        -9.2381
  34   0.0000       0.138145         3.7591
  35   0.0000       0.153327         4.1722
  36   0.0000       0.161248         4.3878
  37   0.0000       0.163781         4.4567
  38   0.0000       0.171089         4.6556

MULLIKEN ATOMIC CHARGES
-----------------------
   0 C :   -0.471505
   1 C :    0.193496
   2 C :   -0.246609
   3 C :   -0.213856
   4 C :   -0.099061
   5 C :   -0.233919
   6 C :   -0.000758
   7 O :   -0.319204
   8 C :   -0.063602
   9 H :    0.130794
  10 H :    0.129231
  11 H :    0.149521
  12 H :    0.116013
  13 H :    0.117143
  14 H :    0.120401
  15 H :    0.126801
  16 H :    0.124941
  17 H :    0.097494
  18 H :    0.128488
  19 H :    0.116054
  20 H :    0.098136
Sum of atomic charges:    0.0000000

LOEWDIN ATOMIC CHARGES
----------------------
   0 C :   -0.261074
   1 C :   -0.248609
   2 C :   -0.179185
   3 C :   -0.193393
   4 C :   -0.132849
   5 C :   -0.157812
   6 C :   -0.300331
   7 O :    0.157028
   8 C :   -0.262450
   9 H :    0.126964
  10 H :    0.124977
  11 H :    0.132510
  12 H :    0.135256
  13 H :    0.126992
  14 H :    0.130140
  15 H :    0.140055
  16 H :    0.143336
  17 H :    0.126809
  18 H :    0.135085
  19 H :    0.130788
  20 H :    0.125765

  Mayer bond orders larger than 0.1
B(  0-C ,  1-C ) :   0.8813 B(  0-C ,  9-H ) :   0.9330 B(  0-C , 10-H ) :   0.9364
B(  0-C , 11-H ) :   0.9378 B(  1-C ,  2-C ) :   0.8939 B(  1-C ,  4-C ) :   0.8676
B(  1-C ,  8-C ) :   0.9136 B(  2-C ,  3-C ) :   0.9569 B(  2-C , 12-H ) :   0.9073
B(  2-C , 13-H ) :   0.9255 B(  3-C ,  4-C ) :   0.9228 B(  3-C , 14-H ) :   0.9098
B(  3-C , 15-H ) :   0.9130 B(  4-C ,  5-C ) :   1.7918 B(  5-C ,  6-C ) :   0.9328
B(  5-C , 16-H ) :   0.9060 B(  6-C ,  7-O ) :   0.9399 B(  6-C , 17-H ) :   0.9309
B(  6-C , 18-H ) :   0.9188 B(  7-O ,  8-C ) :   0.9016 B(  8-C , 19-H ) :   0.9268
B(  8-C , 20-H ) :   0.9277

MP2 TOTAL ENERGY:     -386.398049432 Eh
FINAL SINGLE POINT ENERGY      -386.398049432268

DIPOLE MOMENT
-------------
                                X             Y             Z
Electronic contribution:     -1.15211      -1.39106       3.18579
Nuclear contribution   :      1.53242       1.10380      -3.50595
                        -----------------------------------------
Total Dipole Moment    :      0.38031      -0.28726      -0.32016
                        -----------------------------------------
Magnitude (a.u.)       :      0.57416
Magnitude (Debye)      :      1.45940

                             ****ORCA TERMINATED NORMALLY****
TOTAL RUN TIME: 0 days 0 hours 22 minutes 9 seconds 204 msec
