                         Program Version 3.0.3 - RELEASE   -
|  1> ! RI-MP2 RIJK def2-TZVP def2-TZVP/C def2-TZVP/JK TIGHTSCF
|  2> % maxcore 2000
|  3> % mp2 density relaxed end
|  4> *xyz 0 1
|  5>  C       -0.1482373365     1.5476910736     0.0387563223
|  6>  C        0.1991025961     0.0756912585    -0.1484469203
|  7>  C        1.5274453686    -0.3056975001    -0.8923489125
|  8>  C        1.9476789205    -1.1684226483     0.3070785736
|  9>  C        2.0031650157    -0.3145525619     1.5562172149
| 10>  C        0.6630256605    -0.7352829919     1.0729712081
| 11>  C        2.5181638075    -2.5373331095     0.3234260854
| 12>  C        2.8842809461    -3.1508899667    -1.0168432260
| 13>  O        2.6701930036    -3.1471160452     1.3641539206
| 14>  H        0.6647957104     2.0977592954     0.5235536335
| 15>  H       -0.3436307319     2.0275649385    -0.9264921680
| 16>  H       -1.0445688086     1.6644401043     0.6575172023
| 17>  H       -0.6404182755    -0.4358561858    -0.6288395355
| 18>  H        1.3479858954    -0.8693479182    -1.8099422732
| 19>  H        2.2016627667     0.5263035636    -1.1243706762
| 20>  H        2.3691909006    -0.8472454919     2.4263803929
| 21>  H        2.3357894844     0.7163188512     1.4647471000
| 22>  H        0.0369873126    -1.3916071874     1.6660628209
| 23>  H        3.5630870743    -2.4949592079    -1.5732871810
| 24>  H        3.3531718098    -4.1219674137    -0.8551849411
| 25>  H        1.9889551395    -3.2789067666    -1.6361935805
| 26> *
| 27>
| 28>                          ****END OF INPUT****

CARTESIAN COORDINATES (ANGSTROEM)
---------------------------------
  C     -0.148237    1.547691    0.038756
  C      0.199103    0.075691   -0.148447
  C      1.527445   -0.305698   -0.892349
  C      1.947679   -1.168423    0.307079
  C      2.003165   -0.314553    1.556217
  C      0.663026   -0.735283    1.072971
  C      2.518164   -2.537333    0.323426
  C      2.884281   -3.150890   -1.016843
  O      2.670193   -3.147116    1.364154
  H      0.664796    2.097759    0.523554
  H     -0.343631    2.027565   -0.926492
  H     -1.044569    1.664440    0.657517
  H     -0.640418   -0.435856   -0.628840
  H      1.347986   -0.869348   -1.809942
  H      2.201663    0.526304   -1.124371
  H      2.369191   -0.847245    2.426380
  H      2.335789    0.716319    1.464747
  H      0.036987   -1.391607    1.666063
  H      3.563087   -2.494959   -1.573287
  H      3.353172   -4.121967   -0.855185
  H      1.988955   -3.278907   -1.636194

 Total Charge           Charge          ....    0
 Multiplicity           Mult            ....    1
 Number of Electrons    NEL             ....   68
 Basis Dimension        Dim             ....  351

ORBITAL ENERGIES
----------------

  NO   OCC          E(Eh)            E(eV)
   0   2.0000     -20.529540      -558.6372
   1   2.0000     -11.325983      -308.1957
   2   2.0000     -11.245615      -306.0087
   3   2.0000     -11.242294      -305.9184
   4   2.0000     -11.242007      -305.9106
   5   2.0000     -11.236141      -305.7509
   6   2.0000     -11.235777      -305.7410
   7   2.0000     -11.231072      -305.6130
   8   2.0000     -11.219378      -305.2948
   9   2.0000      -1.374884       -37.4125
  10   2.0000      -1.200538       -32.6683
  11   2.0000      -1.030599       -28.0440
  12   2.0000      -1.012330       -27.5469
  13   2.0000      -0.949389       -25.8342
  14   2.0000      -0.881134       -23.9769
  15   2.0000      -0.839261       -22.8375
  16   2.0000      -0.752721       -20.4826
  17   2.0000      -0.713471       -19.4145
  18   2.0000      -0.685726       -18.6596
  19   2.0000      -0.635256       -17.2862
  20   2.0000      -0.618964       -16.8429
  21   2.0000      -0.601153       -16.3582
  22   2.0000      -0.591938       -16.1074
  23   2.0000      -0.576995       -15.7008
  24   2.0000      -0.565875       -15.3982
  25   2.0000      -0.559468       -15.2239
  26   2.0000      -0.532663       -14.4945
  27   2.0000      -0.507570       -13.8117
  28   2.0000      -0.500229       -13.6119
  29   2.0000      -0.491958       -13.3869
  30   2.0000      -0.456069       -12.4103
  31   2.0000      -0.426438       -11.6040
  32   2.0000      -0.400245       -10.8912
  33   2.0000      -0.371136       -10.0991
  34   0.0000       0.127699         3.4749
  35   0.0000       0.133358         3.6289
  36   0.0000       0.146143         3.9767
  37   0.0000       0.160365         4.3637
  38   0.0000       0.188442         5.1278

MULLIKEN ATOMIC CHARGES
-----------------------
   0 C :   -0.402518
   1 C :   -0.049307
   2 C :   -0.255480
   3 C :    0.040252
   4 C :   -0.278125
   5 C :   -0.088813
   6 C :    0.152183
   7 C :   -0.415782
   8 O :   -0.316874
   9 H :    0.118971
  10 H :    0.132188
  11 H :    0.133512
  12 H :    0.101661
  13 H :    0.129585
  14 H :    0.120194
  15 H :    0.157211
  16 H :    0.135244
  17 H :    0.143387
  18 H :    0.146738
  19 H :    0.154163
  20 H :    0.141611
Sum of atomic charges:    0.0000000

LOEWDIN ATOMIC CHARGES
----------------------
   0 C :   -0.295996
   1 C :   -0.228888
   2 C :   -0.170295
   3 C :   -0.169348
   4 C :   -0.166809
   5 C :   -0.123421
   6 C :   -0.331935
   7 C :   -0.274034
   8 O :    0.133058
   9 H :    0.122083
  10 H :    0.124646
  11 H :    0.126041
  12 H :    0.151948
  13 H :    0.135488
  14 H :    0.132439
  15 H :    0.152278
  16 H :    0.134584
  17 H :    0.142761
  18 H :    0.136155
  19 H :    0.133089
  20 H :    0.136156

  Mayer bond orders larger than 0.1
B(  0-C ,  1-C ) :   0.9117 B(  0-C ,  9-H ) :   0.9322 B(  0-C , 10-H ) :   0.9389
B(  0-C , 11-H ) :   0.9394 B(  1-C ,  2-C ) :   0.9638 B(  1-C ,  5-C ) :   0.9299
B(  1-C , 12-H ) :   0.9233 B(  2-C ,  3-C ) :   0.8812 B(  2-C , 13-H ) :   0.9252
B(  2-C , 14-H ) :   0.9105 B(  3-C ,  4-C ) :   0.8434 B(  3-C ,  5-C ) :   0.7461
B(  3-C ,  6-C ) :   0.9357 B(  4-C ,  5-C ) :   0.9263 B(  4-C , 15-H ) :   0.9196
B(  4-C , 16-H ) :   0.9168 B(  5-C , 17-H ) :   0.9143 B(  6-C ,  7-C ) :   0.9317
B(  6-C ,  8-O ) :   1.9729 B(  7-C , 18-H ) :   0.9173 B(  7-C , 19-H ) :   0.9393
B(  7-C , 20-H ) :   0.9128

MP2 TOTAL ENERGY:     -386.408481029 Eh
FINAL SINGLE POINT ENERGY      -386.408481028695

DIPOLE MOMENT
-------------
                                X             Y             Z
Electronic contribution:      2.69756      -5.59354       3.98744
Nuclear contribution   :     -3.07495       6.28294      -4.85151
                        -----------------------------------------
Total Dipole Moment    :     -0.37739       0.68939      -0.86407
                        -----------------------------------------
Magnitude (a.u.)       :      1.16803
Magnitude (Debye)      :      2.96891

                             ****ORCA TERMINATED NORMALLY****
TOTAL RUN TIME: 0 days 0 hours 19 minutes 59 seconds 512 msec
