                         Program Version 3.0.3 - RELEASE   -
|  1> ! RI-MP2 RIJK def2-TZVP def2-TZVP/C def2-TZVP/JK TIGHTSCF
|  2> % maxcore 2000
|  3> % mp2 density relaxed end
|  4> *xyz 0 1
|  5>  C       -0.0024923379     1.5621325268    -0.0875671158
|  6>  C        0.0152566563     0.0332799044    -0.0052563654
|  7>  C       -1.3777072956    -0.5813948426     0.0432852609
|  8>  O       -2.0797208604    -0.2532358673    -1.1555676185
|  9>  C       -3.1171927849    -1.2148705059    -1.3494224767
| 10>  C       -2.5806873918    -2.5099603710    -0.7700950528
| 11>  C       -1.1542639911    -2.8641959201    -1.1450896065
| 12>  C       -1.4459210385    -2.1056754891     0.1247644577
| 13>  O       -1.2772754815    -2.6979716191     1.3740554716
| 14>  H        1.0131429112     1.9676500454    -0.1235460299
| 15>  H       -0.5361644733     1.8912208083    -0.9827710378
| 16>  H       -0.5064022707     1.9981199577     0.7821797949
| 17>  H        0.5540664314    -0.3847803418    -0.8636521406
| 18>  H        0.5535148368    -0.2863091013     0.8972455863
| 19>  H       -1.9171798458    -0.1915006596     0.9256751115
| 20>  H       -4.0379009996    -0.9166711035    -0.8226241028
| 21>  H       -3.3291881448    -1.2493593059    -2.4231769430
| 22>  H       -3.2639816063    -3.2980549437    -0.4784843465
| 23>  H       -0.8756814418    -3.9050286047    -1.0226688481
| 24>  H       -0.6875677386    -2.3504526377    -1.9797779843
| 25>  H       -0.3321211632    -2.7890202393     1.5357944758
| 26> *
| 27>
| 28>                          ****END OF INPUT****

CARTESIAN COORDINATES (ANGSTROEM)
---------------------------------
  C     -0.002492    1.562133   -0.087567
  C      0.015257    0.033280   -0.005256
  C     -1.377707   -0.581395    0.043285
  O     -2.079721   -0.253236   -1.155568
  C     -3.117193   -1.214871   -1.349422
  C     -2.580687   -2.509960   -0.770095
  C     -1.154264   -2.864196   -1.145090
  C     -1.445921   -2.105675    0.124764
  O     -1.277275   -2.697972    1.374055
  H      1.013143    1.967650   -0.123546
  H     -0.536164    1.891221   -0.982771
  H     -0.506402    1.998120    0.782180
  H      0.554066   -0.384780   -0.863652
  H      0.553515   -0.286309    0.897246
  H     -1.917180   -0.191501    0.925675
  H     -4.037901   -0.916671   -0.822624
  H     -3.329188   -1.249359   -2.423177
  H     -3.263982   -3.298055   -0.478484
  H     -0.875681   -3.905029   -1.022669
  H     -0.687568   -2.350453   -1.979778
  H     -0.332121   -2.789020    1.535794

 Total Charge           Charge          ....    0
 Multiplicity           Mult            ....    1
 Number of Electrons    NEL             ....   70
 Basis Dimension        Dim             ....  351

ORBITAL ENERGIES
----------------

  NO   OCC          E(Eh)            E(eV)
   0   2.0000     -20.570992      -559.7651
   1   2.0000     -20.552586      -559.2643
   2   2.0000     -11.286514      -307.1217
   3   2.0000     -11.277055      -306.8643
   4   2.0000     -11.276169      -306.8402
   5   2.0000     -11.231320      -305.6197
   6   2.0000     -11.228754      -305.5499
   7   2.0000     -11.221872      -305.3627
   8   2.0000     -11.209392      -305.0231
   9   2.0000      -1.390384       -37.8343
  10   2.0000      -1.370322       -37.2884
  11   2.0000      -1.137744       -30.9596
  12   2.0000      -1.058484       -28.8028
  13   2.0000      -0.962399       -26.1882
  14   2.0000      -0.906070       -24.6554
  15   2.0000      -0.839313       -22.8389
  16   2.0000      -0.783615       -21.3233
  17   2.0000      -0.769509       -20.9394
  18   2.0000      -0.721940       -19.6450
  19   2.0000      -0.658947       -17.9309
  20   2.0000      -0.648141       -17.6368
  21   2.0000      -0.635754       -17.2998
  22   2.0000      -0.620592       -16.8872
  23   2.0000      -0.579308       -15.7638
  24   2.0000      -0.565889       -15.3986
  25   2.0000      -0.560453       -15.2507
  26   2.0000      -0.554086       -15.0774
  27   2.0000      -0.525117       -14.2892
  28   2.0000      -0.499669       -13.5967
  29   2.0000      -0.491861       -13.3842
  30   2.0000      -0.480947       -13.0872
  31   2.0000      -0.473648       -12.8886
  32   2.0000      -0.424639       -11.5550
  33   2.0000      -0.403149       -10.9703
  34   2.0000      -0.390226       -10.6186
  35   0.0000       0.133521         3.6333
  36   0.0000       0.152859         4.1595
  37   0.0000       0.159965         4.3529
  38   0.0000       0.172818         4.7026
  39   0.0000       0.187374         5.0987

MULLIKEN ATOMIC CHARGES
-----------------------
   0 C :   -0.389158
   1 C :   -0.199618
   2 C :    0.047798
   3 O :   -0.320544
   4 C :   -0.031663
   5 C :   -0.124920
   6 C :   -0.348725
   7 C :    0.192172
   8 O :   -0.458507
   9 H :    0.130847
  10 H :    0.146076
  11 H :    0.119064
  12 H :    0.110931
  13 H :    0.095468
  14 H :    0.076658
  15 H :    0.095205
  16 H :    0.115625
  17 H :    0.136986
  18 H :    0.138058
  19 H :    0.139789
  20 H :    0.328459
Sum of atomic charges:    0.0000000

LOEWDIN ATOMIC CHARGES
----------------------
   0 C :   -0.316076
   1 C :   -0.271180
   2 C :   -0.280930
   3 O :    0.175474
   4 C :   -0.277995
   5 C :   -0.188382
   6 C :   -0.191098
   7 C :   -0.337131
   8 O :    0.031282
   9 H :    0.119694
  10 H :    0.126641
  11 H :    0.121088
  12 H :    0.139962
  13 H :    0.137796
  14 H :    0.145804
  15 H :    0.124876
  16 H :    0.128009
  17 H :    0.150006
  18 H :    0.139535
  19 H :    0.138483
  20 H :    0.184140

  Mayer bond orders larger than 0.1
B(  0-C ,  1-C ) :   0.9281 B(  0-C ,  9-H ) :   0.9414 B(  0-C , 10-H ) :   0.9380
B(  0-C , 11-H ) :   0.9365 B(  1-C ,  2-C ) :   0.9204 B(  1-C , 12-H ) :   0.9303
B(  1-C , 13-H ) :   0.9287 B(  2-C ,  3-O ) :   0.9273 B(  2-C ,  7-C ) :   0.9469
B(  2-C , 14-H ) :   0.9039 B(  3-O ,  4-C ) :   0.9288 B(  4-C ,  5-C ) :   0.9670
B(  4-C , 15-H ) :   0.9268 B(  4-C , 16-H ) :   0.9227 B(  5-C ,  6-C ) :   0.8828
B(  5-C ,  7-C ) :   0.8537 B(  5-C , 17-H ) :   0.9084 B(  6-C ,  7-C ) :   0.9068
B(  6-C , 18-H ) :   0.9274 B(  6-C , 19-H ) :   0.8956 B(  7-C ,  8-O ) :   1.0044
B(  8-O , 20-H ) :   0.8377

MP2 TOTAL ENERGY:     -423.518339230 Eh
FINAL SINGLE POINT ENERGY      -423.518339230001

DIPOLE MOMENT
-------------
                                X             Y             Z
Electronic contribution:     -3.17291      -4.48506       0.80449
Nuclear contribution   :      3.54897       4.15765      -0.80068
                        -----------------------------------------
Total Dipole Moment    :      0.37605      -0.32741       0.00381
                        -----------------------------------------
Magnitude (a.u.)       :      0.49863
Magnitude (Debye)      :      1.26741

                             ****ORCA TERMINATED NORMALLY****
TOTAL RUN TIME: 0 days 0 hours 19 minutes 0 seconds 98 msec
