                         Program Version 3.0.3 - RELEASE   -
|  1> ! RI-MP2 RIJK def2-TZVP def2-TZVP/C def2-TZVP/JK TIGHTSCF
|  2> % maxcore 2000
|  3> % mp2 density relaxed end
|  4> *xyz 0 1
|  5>  C        0.2524082111     1.4751561488     0.2412555587
|  6>  C       -0.1608740646     0.0336104391    -0.0867535459
|  7>  C        0.5453775588    -0.5122205416    -1.2922504201
|  8>  C        1.9612365485    -1.0399318155    -1.3008709670
|  9>  C        0.8303794012    -1.9210701017    -1.7905911355
| 10>  O        0.5087830811    -3.1358563092    -1.2096240472
| 11>  C        0.3997700666    -1.4627236428    -3.1589802990
| 12>  C       -0.9342675587    -0.8205233092    -3.1066546142
| 13>  N        0.2301106371    -0.0278831630    -2.6651063489
| 14>  H        1.3216725187     1.5342416275     0.4680954556
| 15>  H        0.0548812324     2.1377320538    -0.6065015869
| 16>  H       -0.3000865629     1.8539629915     1.1064873139
| 17>  H        0.0459621665    -0.6242143956     0.7655214330
| 18>  H       -1.2451589036    -0.0102318251    -0.2506945059
| 19>  H        2.6950512498    -0.6293717210    -1.9897191587
| 20>  H        2.3447156570    -1.3125404728    -0.3212988508
| 21>  H        1.2683834903    -3.7235119454    -1.2859849086
| 22>  H        0.9102646170    -1.6683737717    -4.0955260643
| 23>  H       -1.3569234119    -0.4664152508    -4.0421960526
| 24>  H       -1.6601967445    -1.1551393956    -2.3697113055
| 25> *
| 26>
| 27>                          ****END OF INPUT****

CARTESIAN COORDINATES (ANGSTROEM)
---------------------------------
  C      0.252408    1.475156    0.241256
  C     -0.160874    0.033610   -0.086754
  C      0.545378   -0.512221   -1.292250
  C      1.961237   -1.039932   -1.300871
  C      0.830379   -1.921070   -1.790591
  O      0.508783   -3.135856   -1.209624
  C      0.399770   -1.462724   -3.158980
  C     -0.934268   -0.820523   -3.106655
  N      0.230111   -0.027883   -2.665106
  H      1.321673    1.534242    0.468095
  H      0.054881    2.137732   -0.606502
  H     -0.300087    1.853963    1.106487
  H      0.045962   -0.624214    0.765521
  H     -1.245159   -0.010232   -0.250695
  H      2.695051   -0.629372   -1.989719
  H      2.344716   -1.312540   -0.321299
  H      1.268383   -3.723512   -1.285985
  H      0.910265   -1.668374   -4.095526
  H     -1.356923   -0.466415   -4.042196
  H     -1.660197   -1.155139   -2.369711

 Total Charge           Charge          ....    0
 Multiplicity           Mult            ....    1
 Number of Electrons    NEL             ....   68
 Basis Dimension        Dim             ....  345

ORBITAL ENERGIES
----------------

  NO   OCC          E(Eh)            E(eV)
   0   2.0000     -20.573064      -559.8215
   1   2.0000     -15.564485      -423.5312
   2   2.0000     -11.292738      -307.2910
   3   2.0000     -11.263694      -306.5007
   4   2.0000     -11.262729      -306.4744
   5   2.0000     -11.256898      -306.3158
   6   2.0000     -11.229913      -305.5815
   7   2.0000     -11.226648      -305.4926
   8   2.0000     -11.210969      -305.0660
   9   2.0000      -1.385614       -37.7045
  10   2.0000      -1.302633       -35.4464
  11   2.0000      -1.108407       -30.1613
  12   2.0000      -1.031434       -28.0667
  13   2.0000      -0.918060       -24.9817
  14   2.0000      -0.867496       -23.6058
  15   2.0000      -0.862798       -23.4779
  16   2.0000      -0.797737       -21.7075
  17   2.0000      -0.730349       -19.8738
  18   2.0000      -0.682199       -18.5636
  19   2.0000      -0.672915       -18.3109
  20   2.0000      -0.652224       -17.7479
  21   2.0000      -0.622456       -16.9379
  22   2.0000      -0.602437       -16.3932
  23   2.0000      -0.572130       -15.5685
  24   2.0000      -0.546510       -14.8713
  25   2.0000      -0.533173       -14.5084
  26   2.0000      -0.527759       -14.3610
  27   2.0000      -0.504383       -13.7250
  28   2.0000      -0.494388       -13.4530
  29   2.0000      -0.485293       -13.2055
  30   2.0000      -0.436161       -11.8685
  31   2.0000      -0.408576       -11.1179
  32   2.0000      -0.397339       -10.8121
  33   2.0000      -0.362246        -9.8572
  34   0.0000       0.133934         3.6445
  35   0.0000       0.146805         3.9948
  36   0.0000       0.168706         4.5907
  37   0.0000       0.176227         4.7954
  38   0.0000       0.188315         5.1243

MULLIKEN ATOMIC CHARGES
-----------------------
   0 C :   -0.403369
   1 C :   -0.206501
   2 C :    0.101092
   3 C :   -0.331284
   4 C :    0.172379
   5 O :   -0.450210
   6 C :   -0.128816
   7 C :   -0.151613
   8 N :   -0.233405
   9 H :    0.125584
  10 H :    0.143623
  11 H :    0.132722
  12 H :    0.122641
  13 H :    0.107744
  14 H :    0.138400
  15 H :    0.137082
  16 H :    0.330380
  17 H :    0.131534
  18 H :    0.127628
  19 H :    0.134388
Sum of atomic charges:    0.0000000

LOEWDIN ATOMIC CHARGES
----------------------
   0 C :   -0.307317
   1 C :   -0.250764
   2 C :   -0.236843
   3 C :   -0.168476
   4 C :   -0.325590
   5 O :    0.029738
   6 C :   -0.180067
   7 C :   -0.232591
   8 N :    0.151316
   9 H :    0.122074
  10 H :    0.126576
  11 H :    0.119894
  12 H :    0.148273
  13 H :    0.142909
  14 H :    0.135769
  15 H :    0.143662
  16 H :    0.184762
  17 H :    0.133723
  18 H :    0.131918
  19 H :    0.131033

  Mayer bond orders larger than 0.1
B(  0-C ,  1-C ) :   0.9299 B(  0-C ,  9-H ) :   0.9382 B(  0-C , 10-H ) :   0.9362
B(  0-C , 11-H ) :   0.9410 B(  1-C ,  2-C ) :   0.9282 B(  1-C , 12-H ) :   0.9279
B(  1-C , 13-H ) :   0.9206 B(  2-C ,  3-C ) :   0.8322 B(  2-C ,  4-C ) :   0.8047
B(  2-C ,  8-N ) :   0.9252 B(  3-C ,  4-C ) :   0.9374 B(  3-C , 14-H ) :   0.8911
B(  3-C , 15-H ) :   0.9333 B(  4-C ,  5-O ) :   1.0838 B(  4-C ,  6-C ) :   1.0276
B(  5-O , 16-H ) :   0.8319 B(  6-C ,  7-C ) :   0.9411 B(  6-C ,  8-N ) :   0.8987
B(  6-C , 17-H ) :   0.8998 B(  7-C ,  8-N ) :   0.8770 B(  7-C , 18-H ) :   0.9309
B(  7-C , 19-H ) :   0.9006

MP2 TOTAL ENERGY:     -402.397085789 Eh
FINAL SINGLE POINT ENERGY      -402.397085788847

DIPOLE MOMENT
-------------
                                X             Y             Z
Electronic contribution:      0.61467      -5.33457      -4.16178
Nuclear contribution   :     -0.31462       4.87068       4.27286
                        -----------------------------------------
Total Dipole Moment    :      0.30005      -0.46389       0.11108
                        -----------------------------------------
Magnitude (a.u.)       :      0.56353
Magnitude (Debye)      :      1.43237

                             ****ORCA TERMINATED NORMALLY****
TOTAL RUN TIME: 0 days 0 hours 19 minutes 23 seconds 158 msec
