                         Program Version 3.0.3 - RELEASE   -
|  1> ! RI-MP2 RIJK def2-TZVP def2-TZVP/C def2-TZVP/JK TIGHTSCF
|  2> % maxcore 2000
|  3> % mp2 density relaxed end
|  4> *xyz 0 1
|  5>  O       -0.2542611082     1.4485467285     0.0910464304
|  6>  C        0.0024867993     0.0572734242     0.0045031875
|  7>  C        0.7936859867    -0.2870680899    -1.2719090433
|  8>  C        0.0651696784     0.1305364457    -2.5340223397
|  9>  O       -0.0421516999    -0.5641318691    -3.5122289823
| 10>  C        0.7204213839    -0.4837611270     1.2602490112
| 11>  C       -0.0013471776    -0.2178739518     2.4970111042
| 12>  C       -0.6046934108    -0.0032405421     3.5133755653
| 13>  H        0.5709701655     1.8982076047     0.3063187964
| 14>  H       -0.9897081604    -0.4049995868    -0.0482557895
| 15>  H        1.7513821989     0.2558639947    -1.2427122433
| 16>  H        1.0188278211    -1.3557265047    -1.3381534270
| 17>  H       -0.3746440462     1.1492513733    -2.4934101032
| 18>  H        0.8750285431    -1.5636079227     1.1423427029
| 19>  H        1.7256237394    -0.0391024819     1.3097715557
| 20>  H       -1.1380216031     0.1885659948     4.4112795446
| 21> *
| 22>
| 23>                          ****END OF INPUT****

CARTESIAN COORDINATES (ANGSTROEM)
---------------------------------
  O     -0.254261    1.448547    0.091046
  C      0.002487    0.057273    0.004503
  C      0.793686   -0.287068   -1.271909
  C      0.065170    0.130536   -2.534022
  O     -0.042152   -0.564132   -3.512229
  C      0.720421   -0.483761    1.260249
  C     -0.001347   -0.217874    2.497011
  C     -0.604693   -0.003241    3.513376
  H      0.570970    1.898208    0.306319
  H     -0.989708   -0.405000   -0.048256
  H      1.751382    0.255864   -1.242712
  H      1.018828   -1.355727   -1.338153
  H     -0.374644    1.149251   -2.493410
  H      0.875029   -1.563608    1.142343
  H      1.725624   -0.039102    1.309772
  H     -1.138022    0.188566    4.411280

 Total Charge           Charge          ....    0
 Multiplicity           Mult            ....    1
 Number of Electrons    NEL             ....   60
 Basis Dimension        Dim             ....  296

ORBITAL ENERGIES
----------------

  NO   OCC          E(Eh)            E(eV)
   0   2.0000     -20.577520      -559.9428
   1   2.0000     -20.559753      -559.4593
   2   2.0000     -11.333948      -308.4124
   3   2.0000     -11.314161      -307.8740
   4   2.0000     -11.272962      -306.7529
   5   2.0000     -11.252908      -306.2072
   6   2.0000     -11.242298      -305.9185
   7   2.0000     -11.230081      -305.5860
   8   2.0000      -1.398537       -38.0561
   9   2.0000      -1.387014       -37.7426
  10   2.0000      -1.101843       -29.9827
  11   2.0000      -1.048682       -28.5361
  12   2.0000      -0.981217       -26.7003
  13   2.0000      -0.868222       -23.6255
  14   2.0000      -0.806814       -21.9545
  15   2.0000      -0.736142       -20.0315
  16   2.0000      -0.700403       -19.0589
  17   2.0000      -0.681109       -18.5339
  18   2.0000      -0.665084       -18.0979
  19   2.0000      -0.642714       -17.4891
  20   2.0000      -0.627027       -17.0623
  21   2.0000      -0.602253       -16.3881
  22   2.0000      -0.592001       -16.1092
  23   2.0000      -0.555481       -15.1154
  24   2.0000      -0.520340       -14.1592
  25   2.0000      -0.507135       -13.7998
  26   2.0000      -0.474057       -12.8997
  27   2.0000      -0.423268       -11.5177
  28   2.0000      -0.396059       -10.7773
  29   2.0000      -0.393141       -10.6979
  30   0.0000       0.109010         2.9663
  31   0.0000       0.130183         3.5425
  32   0.0000       0.150594         4.0979
  33   0.0000       0.163116         4.4386
  34   0.0000       0.168912         4.5963

MULLIKEN ATOMIC CHARGES
-----------------------
   0 O :   -0.456991
   1 C :    0.051050
   2 C :   -0.165410
   3 C :    0.091471
   4 O :   -0.264615
   5 C :   -0.455281
   6 C :    0.022159
   7 C :   -0.095705
   8 H :    0.315171
   9 H :    0.115627
  10 H :    0.122484
  11 H :    0.125707
  12 H :    0.100455
  13 H :    0.152739
  14 H :    0.146926
  15 H :    0.194211
Sum of atomic charges:   -0.0000000

LOEWDIN ATOMIC CHARGES
----------------------
   0 O :   -0.002257
   1 C :   -0.334951
   2 C :   -0.251587
   3 C :   -0.291137
   4 O :    0.130594
   5 C :   -0.241570
   6 C :   -0.113166
   7 C :   -0.094917
   8 H :    0.178518
   9 H :    0.153934
  10 H :    0.151784
  11 H :    0.149912
  12 H :    0.116816
  13 H :    0.163755
  14 H :    0.156771
  15 H :    0.127502

  Mayer bond orders larger than 0.1
B(  0-O ,  1-C ) :   0.9121 B(  0-O ,  8-H ) :   0.8388 B(  1-C ,  2-C ) :   0.9135
B(  1-C ,  5-C ) :   0.9215 B(  1-C ,  9-H ) :   0.9215 B(  2-C ,  3-C ) :   0.8838
B(  2-C , 10-H ) :   0.8966 B(  2-C , 11-H ) :   0.9038 B(  3-C ,  4-O ) :   1.9937
B(  3-C , 12-H ) :   0.9386 B(  5-C ,  6-C ) :   1.1101 B(  5-C ,  7-C ) :  -0.1349
B(  5-C , 13-H ) :   0.9184 B(  5-C , 14-H ) :   0.9229 B(  6-C ,  7-C ) :   2.6282
B(  7-C , 15-H ) :   0.8903

MP2 TOTAL ENERGY:     -383.067009406 Eh
FINAL SINGLE POINT ENERGY      -383.067009405561

DIPOLE MOMENT
-------------
                                X             Y             Z
Electronic contribution:     -1.74684       0.38268      -1.72722
Nuclear contribution   :      2.52059      -0.17693       2.60944
                        -----------------------------------------
Total Dipole Moment    :      0.77376       0.20575       0.88222
                        -----------------------------------------
Magnitude (a.u.)       :      1.19136
Magnitude (Debye)      :      3.02820

                             ****ORCA TERMINATED NORMALLY****
TOTAL RUN TIME: 0 days 0 hours 10 minutes 22 seconds 188 msec
