                         Program Version 3.0.3 - RELEASE   -
|  1> ! RI-MP2 RIJK def2-TZVP def2-TZVP/C def2-TZVP/JK TIGHTSCF
|  2> % maxcore 2000
|  3> % mp2 density relaxed end
|  4> *xyz 0 1
|  5>  C        0.0464983092     1.5764627962    -0.0274808989
|  6>  C        0.0652760179     0.0551498879     0.1295593678
|  7>  O        0.7121458256    -0.3373459531     1.3405484112
|  8>  C       -1.3276976113    -0.5522417334     0.0476561532
|  9>  C       -2.0074890881    -0.7771299413    -1.3122646696
| 10>  C       -1.1917616518    -2.0646100258    -1.6492203461
| 11>  C       -2.4997799202    -2.8110535770    -1.8757041121
| 12>  N       -2.9005592752    -1.9018054759    -0.7179325631
| 13>  C       -1.4765545349    -2.0695883609    -0.1144042423
| 14>  H        1.0585572743     1.9793406612     0.0650671037
| 15>  H       -0.3586171553     1.8705191859    -1.0014460677
| 16>  H       -0.5792605002     2.0386788574     0.7462620989
| 17>  H        0.6926238597    -0.3759769267    -0.6599456731
| 18>  H        0.2034669241     0.0278760292     2.0733660602
| 19>  H       -1.9983080100    -0.1230052481     0.8050887242
| 20>  H       -2.4323394937    -0.0557463368    -2.0137214756
| 21>  H       -0.2288730480    -2.1464275157    -2.1635204495
| 22>  H       -3.0570572797    -2.6139266814    -2.7977615118
| 23>  H       -2.5379478050    -3.8765131474    -1.6253234777
| 24>  H       -1.2697219376    -2.8698016942     0.5976442383
| 25> *
| 26>
| 27>                          ****END OF INPUT****

CARTESIAN COORDINATES (ANGSTROEM)
---------------------------------
  C      0.046498    1.576463   -0.027481
  C      0.065276    0.055150    0.129559
  O      0.712146   -0.337346    1.340548
  C     -1.327698   -0.552242    0.047656
  C     -2.007489   -0.777130   -1.312265
  C     -1.191762   -2.064610   -1.649220
  C     -2.499780   -2.811054   -1.875704
  N     -2.900559   -1.901805   -0.717933
  C     -1.476555   -2.069588   -0.114404
  H      1.058557    1.979341    0.065067
  H     -0.358617    1.870519   -1.001446
  H     -0.579261    2.038679    0.746262
  H      0.692624   -0.375977   -0.659946
  H      0.203467    0.027876    2.073366
  H     -1.998308   -0.123005    0.805089
  H     -2.432339   -0.055746   -2.013721
  H     -0.228873   -2.146428   -2.163520
  H     -3.057057   -2.613927   -2.797762
  H     -2.537948   -3.876513   -1.625323
  H     -1.269722   -2.869802    0.597644

 Total Charge           Charge          ....    0
 Multiplicity           Mult            ....    1
 Number of Electrons    NEL             ....   68
 Basis Dimension        Dim             ....  345

ORBITAL ENERGIES
----------------

  NO   OCC          E(Eh)            E(eV)
   0   2.0000     -20.555863      -559.3535
   1   2.0000     -15.564746      -423.5383
   2   2.0000     -11.283928      -307.0513
   3   2.0000     -11.275298      -306.8165
   4   2.0000     -11.271785      -306.7209
   5   2.0000     -11.253272      -306.2171
   6   2.0000     -11.248853      -306.0969
   7   2.0000     -11.235829      -305.7425
   8   2.0000     -11.222337      -305.3753
   9   2.0000      -1.361881       -37.0587
  10   2.0000      -1.316471       -35.8230
  11   2.0000      -1.064298       -28.9610
  12   2.0000      -0.994321       -27.0569
  13   2.0000      -0.932430       -25.3727
  14   2.0000      -0.881485       -23.9864
  15   2.0000      -0.873003       -23.7556
  16   2.0000      -0.809784       -22.0354
  17   2.0000      -0.712376       -19.3847
  18   2.0000      -0.686646       -18.6846
  19   2.0000      -0.657701       -17.8969
  20   2.0000      -0.644528       -17.5385
  21   2.0000      -0.620654       -16.8888
  22   2.0000      -0.609452       -16.5840
  23   2.0000      -0.589357       -16.0372
  24   2.0000      -0.555783       -15.1236
  25   2.0000      -0.540076       -14.6962
  26   2.0000      -0.514556       -14.0018
  27   2.0000      -0.477008       -12.9801
  28   2.0000      -0.462213       -12.5775
  29   2.0000      -0.456658       -12.4263
  30   2.0000      -0.452550       -12.3145
  31   2.0000      -0.437962       -11.9175
  32   2.0000      -0.421708       -11.4753
  33   2.0000      -0.373676       -10.1682
  34   0.0000       0.131411         3.5759
  35   0.0000       0.151016         4.1094
  36   0.0000       0.158072         4.3014
  37   0.0000       0.163543         4.4502
  38   0.0000       0.191638         5.2147

MULLIKEN ATOMIC CHARGES
-----------------------
   0 C :   -0.403521
   1 C :    0.103663
   2 O :   -0.467224
   3 C :   -0.088295
   4 C :   -0.119047
   5 C :   -0.124316
   6 C :   -0.147503
   7 N :   -0.201203
   8 C :   -0.068539
   9 H :    0.148283
  10 H :    0.128454
  11 H :    0.118640
  12 H :    0.093354
  13 H :    0.310872
  14 H :    0.106120
  15 H :    0.132826
  16 H :    0.116483
  17 H :    0.114164
  18 H :    0.115956
  19 H :    0.130831
Sum of atomic charges:   -0.0000000

LOEWDIN ATOMIC CHARGES
----------------------
   0 C :   -0.299197
   1 C :   -0.352723
   2 O :   -0.022153
   3 C :   -0.196218
   4 C :   -0.156762
   5 C :   -0.176588
   6 C :   -0.243359
   7 N :    0.128015
   8 C :   -0.149887
   9 H :    0.126983
  10 H :    0.127020
  11 H :    0.122204
  12 H :    0.149161
  13 H :    0.174169
  14 H :    0.149761
  15 H :    0.125619
  16 H :    0.121280
  17 H :    0.121702
  18 H :    0.122463
  19 H :    0.128509

  Mayer bond orders larger than 0.1
B(  0-C ,  1-C ) :   0.9354 B(  0-C ,  9-H ) :   0.9413 B(  0-C , 10-H ) :   0.9323
B(  0-C , 11-H ) :   0.9226 B(  1-C ,  2-O ) :   0.9171 B(  1-C ,  3-C ) :   0.9340
B(  1-C , 12-H ) :   0.9084 B(  2-O , 13-H ) :   0.8436 B(  3-C ,  4-C ) :   0.9311
B(  3-C ,  8-C ) :   0.9222 B(  3-C , 14-H ) :   0.8641 B(  4-C ,  5-C ) :   0.9168
B(  4-C ,  7-N ) :   0.9245 B(  4-C , 15-H ) :   0.8813 B(  5-C ,  6-C ) :   0.9570
B(  5-C ,  8-C ) :   0.9078 B(  5-C , 16-H ) :   0.9178 B(  6-C ,  7-N ) :   0.9205
B(  6-C , 17-H ) :   0.9261 B(  6-C , 18-H ) :   0.9266 B(  7-N ,  8-C ) :   0.9068
B(  8-C , 19-H ) :   0.8877

MP2 TOTAL ENERGY:     -402.359024652 Eh
FINAL SINGLE POINT ENERGY      -402.359024652460

DIPOLE MOMENT
-------------
                                X             Y             Z
Electronic contribution:     -1.59485      -3.62560       0.91294
Nuclear contribution   :      1.75286       3.96889      -1.26814
                        -----------------------------------------
Total Dipole Moment    :      0.15801       0.34329      -0.35519
                        -----------------------------------------
Magnitude (a.u.)       :      0.51863
Magnitude (Debye)      :      1.31825

                             ****ORCA TERMINATED NORMALLY****
TOTAL RUN TIME: 0 days 0 hours 20 minutes 46 seconds 990 msec
