                         Program Version 3.0.3 - RELEASE   -
|  1> ! RI-MP2 RIJK def2-TZVP def2-TZVP/C def2-TZVP/JK TIGHTSCF
|  2> % maxcore 2000
|  3> % mp2 density relaxed end
|  4> *xyz 0 1
|  5>  C        0.5499058246    -0.5487527919    -1.5008626592
|  6>  N       -0.1575142815    -1.7975488546    -1.2187608380
|  7>  C       -1.4704198291    -1.6040751628    -0.6838691859
|  8>  C       -2.2254559430    -2.7760767134    -0.1175569821
|  9>  C       -1.6945734732    -4.1901653886    -0.1659107335
| 10>  C       -1.6059227600    -1.7416568205     0.8425251584
| 11>  N       -0.4067371719    -1.9974879429     1.5910751895
| 12>  C       -2.5347062034    -0.8447987139     1.4916952478
| 13>  N       -3.3051199309    -0.1441829193     1.9964256753
| 14>  H        1.5243752815    -0.7747763050    -1.9417879778
| 15>  H        0.0032424115     0.1215401602    -2.1840112860
| 16>  H        0.7166992210    -0.0093986269    -0.5636557730
| 17>  H       -0.1959118438    -2.3818807742    -2.0463445385
| 18>  H       -2.0726177321    -0.8091920493    -1.1292400696
| 19>  H       -3.3039893923    -2.6974983078    -0.2201611522
| 20>  H       -0.6128682024    -4.2248761372    -0.0251758614
| 21>  H       -2.1616439856    -4.8040954227     0.6112351686
| 22>  H       -1.9221277202    -4.6557775307    -1.1310941216
| 23>  H       -0.5257827728    -2.7728089486     2.2343898305
| 24>  H        0.3351678338    -2.2286613601     0.9359945786
| 25> *
| 26>
| 27>                          ****END OF INPUT****

CARTESIAN COORDINATES (ANGSTROEM)
---------------------------------
  C      0.549906   -0.548753   -1.500863
  N     -0.157514   -1.797549   -1.218761
  C     -1.470420   -1.604075   -0.683869
  C     -2.225456   -2.776077   -0.117557
  C     -1.694573   -4.190165   -0.165911
  C     -1.605923   -1.741657    0.842525
  N     -0.406737   -1.997488    1.591075
  C     -2.534706   -0.844799    1.491695
  N     -3.305120   -0.144183    1.996426
  H      1.524375   -0.774776   -1.941788
  H      0.003242    0.121540   -2.184011
  H      0.716699   -0.009399   -0.563656
  H     -0.195912   -2.381881   -2.046345
  H     -2.072618   -0.809192   -1.129240
  H     -3.303989   -2.697498   -0.220161
  H     -0.612868   -4.224876   -0.025176
  H     -2.161644   -4.804095    0.611235
  H     -1.922128   -4.655778   -1.131094
  H     -0.525783   -2.772809    2.234390
  H      0.335168   -2.228661    0.935995

 Total Charge           Charge          ....    0
 Multiplicity           Mult            ....    1
 Number of Electrons    NEL             ....   68
 Basis Dimension        Dim             ....  345

ORBITAL ENERGIES
----------------

  NO   OCC          E(Eh)            E(eV)
   0   2.0000     -15.572382      -423.7460
   1   2.0000     -15.557500      -423.3411
   2   2.0000     -15.557344      -423.3368
   3   2.0000     -11.305519      -307.6388
   4   2.0000     -11.286408      -307.1188
   5   2.0000     -11.261826      -306.4499
   6   2.0000     -11.261260      -306.4345
   7   2.0000     -11.260448      -306.4124
   8   2.0000     -11.238356      -305.8112
   9   2.0000      -1.267948       -34.5026
  10   2.0000      -1.212251       -32.9870
  11   2.0000      -1.189311       -32.3628
  12   2.0000      -1.110519       -30.2188
  13   2.0000      -0.990118       -26.9425
  14   2.0000      -0.933597       -25.4045
  15   2.0000      -0.861209       -23.4347
  16   2.0000      -0.800754       -21.7896
  17   2.0000      -0.738012       -20.0823
  18   2.0000      -0.679302       -18.4848
  19   2.0000      -0.666103       -18.1256
  20   2.0000      -0.646277       -17.5861
  21   2.0000      -0.623562       -16.9680
  22   2.0000      -0.601702       -16.3731
  23   2.0000      -0.574329       -15.6283
  24   2.0000      -0.570064       -15.5122
  25   2.0000      -0.553591       -15.0640
  26   2.0000      -0.540931       -14.7195
  27   2.0000      -0.527742       -14.3606
  28   2.0000      -0.508537       -13.8380
  29   2.0000      -0.481958       -13.1147
  30   2.0000      -0.447027       -12.1642
  31   2.0000      -0.428732       -11.6664
  32   2.0000      -0.410216       -11.1625
  33   2.0000      -0.367610       -10.0032
  34   0.0000       0.111320         3.0292
  35   0.0000       0.144133         3.9221
  36   0.0000       0.149519         4.0686
  37   0.0000       0.155626         4.2348
  38   0.0000       0.180606         4.9145

MULLIKEN ATOMIC CHARGES
-----------------------
   0 C :   -0.297989
   1 N :   -0.417399
   2 C :   -0.039377
   3 C :   -0.087399
   4 C :   -0.434630
   5 C :    0.241534
   6 N :   -0.526788
   7 C :   -0.222839
   8 N :   -0.057693
   9 H :    0.139565
  10 H :    0.120467
  11 H :    0.154435
  12 H :    0.223102
  13 H :    0.138215
  14 H :    0.145142
  15 H :    0.141415
  16 H :    0.148050
  17 H :    0.140242
  18 H :    0.237773
  19 H :    0.254172
Sum of atomic charges:    0.0000000

LOEWDIN ATOMIC CHARGES
----------------------
   0 C :   -0.336456
   1 N :   -0.022792
   2 C :   -0.227332
   3 C :   -0.184884
   4 C :   -0.294239
   5 C :   -0.291909
   6 N :   -0.085872
   7 C :   -0.154501
   8 N :    0.057704
   9 H :    0.117197
  10 H :    0.105037
  11 H :    0.123237
  12 H :    0.176920
  13 H :    0.145271
  14 H :    0.159614
  15 H :    0.126742
  16 H :    0.130821
  17 H :    0.129890
  18 H :    0.162131
  19 H :    0.163422

  Mayer bond orders larger than 0.1
B(  0-C ,  1-N ) :   0.9008 B(  0-C ,  9-H ) :   0.9355 B(  0-C , 10-H ) :   0.9303
B(  0-C , 11-H ) :   0.9356 B(  1-N ,  2-C ) :   0.9458 B(  1-N , 12-H ) :   0.8783
B(  2-C ,  3-C ) :   0.9045 B(  2-C ,  5-C ) :   0.7849 B(  2-C , 13-H ) :   0.9414
B(  3-C ,  4-C ) :   0.8782 B(  3-C ,  5-C ) :   0.8316 B(  3-C , 14-H ) :   0.9173
B(  4-C , 15-H ) :   0.9357 B(  4-C , 16-H ) :   0.9379 B(  4-C , 17-H ) :   0.9359
B(  5-C ,  6-N ) :   0.9729 B(  5-C ,  7-C ) :   0.9645 B(  6-N , 18-H ) :   0.8883
B(  6-N , 19-H ) :   0.8738 B(  7-C ,  8-N ) :   2.8773

MP2 TOTAL ENERGY:     -398.625745369 Eh
FINAL SINGLE POINT ENERGY      -398.625745369008

DIPOLE MOMENT
-------------
                                X             Y             Z
Electronic contribution:     -5.41393       4.09366       5.71376
Nuclear contribution   :      6.33817      -5.43211      -7.26170
                        -----------------------------------------
Total Dipole Moment    :      0.92424      -1.33845      -1.54795
                        -----------------------------------------
Magnitude (a.u.)       :      2.24540
Magnitude (Debye)      :      5.70735

                             ****ORCA TERMINATED NORMALLY****
TOTAL RUN TIME: 0 days 0 hours 19 minutes 22 seconds 398 msec
