                         Program Version 3.0.3 - RELEASE   -
|  1> ! RI-MP2 RIJK def2-TZVP def2-TZVP/C def2-TZVP/JK TIGHTSCF
|  2> % maxcore 2000
|  3> % mp2 density relaxed end
|  4> *xyz 0 1
|  5>  N        0.0240210472    -3.7311404398    -0.0531034839
|  6>  C        0.0320484991    -2.5690063119    -0.0315173190
|  7>  C        0.0381394505    -1.2056378952    -0.0033061865
|  8>  C        0.0394369785     0.0041608448     0.0195126750
|  9>  C        0.0445632435     1.4285951185     0.0507047469
| 10>  C        0.4486208086     2.2422520758     1.2878078374
| 11>  C        1.6382266181     1.5720675915     1.9676327570
| 12>  O        2.3824728971     1.5587859311     0.7125423311
| 13>  C        1.3278855873     2.2497023675     0.0719527805
| 14>  H       -0.7539596540     1.9066841314    -0.5119813659
| 15>  H       -0.2080177929     2.9898751683     1.7102471006
| 16>  H        2.1377117639     2.2192378061     2.6946200816
| 17>  H        1.4967652657     0.5687660868     2.3801552524
| 18>  H        1.5691835074     2.9910419251    -0.6809180772
| 19> *
| 20>
| 21>                          ****END OF INPUT****

CARTESIAN COORDINATES (ANGSTROEM)
---------------------------------
  N      0.024021   -3.731140   -0.053103
  C      0.032048   -2.569006   -0.031517
  C      0.038139   -1.205638   -0.003306
  C      0.039437    0.004161    0.019513
  C      0.044563    1.428595    0.050705
  C      0.448621    2.242252    1.287808
  C      1.638227    1.572068    1.967633
  O      2.382473    1.558786    0.712542
  C      1.327886    2.249702    0.071953
  H     -0.753960    1.906684   -0.511981
  H     -0.208018    2.989875    1.710247
  H      2.137712    2.219238    2.694620
  H      1.496765    0.568766    2.380155
  H      1.569184    2.991042   -0.680918

 Total Charge           Charge          ....    0
 Multiplicity           Mult            ....    1
 Number of Electrons    NEL             ....   62
 Basis Dimension        Dim             ....  309

ORBITAL ENERGIES
----------------

  NO   OCC          E(Eh)            E(eV)
   0   2.0000     -20.583387      -560.1024
   1   2.0000     -15.588785      -424.1924
   2   2.0000     -11.329569      -308.2932
   3   2.0000     -11.311423      -307.7995
   4   2.0000     -11.297143      -307.4109
   5   2.0000     -11.293959      -307.3242
   6   2.0000     -11.292791      -307.2925
   7   2.0000     -11.280104      -306.9472
   8   2.0000     -11.274097      -306.7838
   9   2.0000      -1.426631       -38.8206
  10   2.0000      -1.229159       -33.4471
  11   2.0000      -1.167356       -31.7654
  12   2.0000      -1.079677       -29.3795
  13   2.0000      -0.984506       -26.7898
  14   2.0000      -0.928582       -25.2680
  15   2.0000      -0.850374       -23.1398
  16   2.0000      -0.787892       -21.4396
  17   2.0000      -0.750688       -20.4273
  18   2.0000      -0.712148       -19.3785
  19   2.0000      -0.675127       -18.3711
  20   2.0000      -0.606304       -16.4984
  21   2.0000      -0.593070       -16.1383
  22   2.0000      -0.574010       -15.6196
  23   2.0000      -0.562474       -15.3057
  24   2.0000      -0.529403       -14.4058
  25   2.0000      -0.524855       -14.2820
  26   2.0000      -0.512363       -13.9421
  27   2.0000      -0.463384       -12.6093
  28   2.0000      -0.435733       -11.8569
  29   2.0000      -0.398637       -10.8475
  30   2.0000      -0.377281       -10.2663
  31   0.0000       0.093817         2.5529
  32   0.0000       0.096599         2.6286
  33   0.0000       0.135521         3.6877
  34   0.0000       0.148263         4.0345
  35   0.0000       0.154532         4.2050

MULLIKEN ATOMIC CHARGES
-----------------------
   0 N :   -0.042124
   1 C :   -0.221140
   2 C :    0.253455
   3 C :    0.008457
   4 C :   -0.303264
   5 C :   -0.175596
   6 C :   -0.014914
   7 O :   -0.319833
   8 C :    0.103008
   9 H :    0.156141
  10 H :    0.154440
  11 H :    0.125792
  12 H :    0.129140
  13 H :    0.146439
Sum of atomic charges:    0.0000000

LOEWDIN ATOMIC CHARGES
----------------------
   0 N :    0.095348
   1 C :   -0.178746
   2 C :   -0.048801
   3 C :    0.020925
   4 C :   -0.178079
   5 C :   -0.156376
   6 C :   -0.220778
   7 O :    0.165730
   8 C :   -0.215630
   9 H :    0.178333
  10 H :    0.142560
  11 H :    0.130761
  12 H :    0.127308
  13 H :    0.137446

  Mayer bond orders larger than 0.1
B(  0-N ,  1-C ) :   2.7634 B(  0-N ,  3-C ) :   0.1102 B(  1-C ,  2-C ) :   0.9931
B(  2-C ,  3-C ) :   2.5293 B(  2-C ,  4-C ) :  -0.1280 B(  3-C ,  4-C ) :   1.0555
B(  4-C ,  5-C ) :   0.8630 B(  4-C ,  8-C ) :   0.8653 B(  4-C ,  9-H ) :   0.9140
B(  5-C ,  6-C ) :   0.9789 B(  5-C ,  8-C ) :   0.8956 B(  5-C , 10-H ) :   0.9077
B(  6-C ,  7-O ) :   0.9008 B(  6-C , 11-H ) :   0.9177 B(  6-C , 12-H ) :   0.9134
B(  7-O ,  8-C ) :   0.9941 B(  8-C , 13-H ) :   0.9197

MP2 TOTAL ENERGY:     -398.775410420 Eh
FINAL SINGLE POINT ENERGY      -398.775410419810

DIPOLE MOMENT
-------------
                                X             Y             Z
Electronic contribution:     -1.02396      -6.58704      -2.59078
Nuclear contribution   :      0.62961       8.90503       3.01488
                        -----------------------------------------
Total Dipole Moment    :     -0.39436       2.31799       0.42410
                        -----------------------------------------
Magnitude (a.u.)       :      2.38923
Magnitude (Debye)      :      6.07295

                             ****ORCA TERMINATED NORMALLY****
TOTAL RUN TIME: 0 days 0 hours 13 minutes 52 seconds 753 msec
