                         Program Version 3.0.3 - RELEASE   -
|  1> ! RI-MP2 RIJK def2-TZVP def2-TZVP/C def2-TZVP/JK TIGHTSCF
|  2> % maxcore 2000
|  3> % mp2 density relaxed end
|  4> *xyz 0 1
|  5>  C       -0.0323333554     1.5642806310     0.0256931402
|  6>  C        1.4627077657     1.8721707664     0.0368689270
|  7>  C        2.0100195225     0.9745329469     1.1687044567
|  8>  C        2.6024777586     0.0285631052     0.1559313898
|  9>  C        1.2804523363    -0.3018333164     0.8119886195
| 10>  C        0.0211276590     0.0034133071    -0.0616573508
| 11>  C        0.2758822776    -0.3171087564    -1.5153694048
| 12>  C        1.3811160287     0.2357402135    -2.0270390157
| 13>  C        2.2404869340     0.9514993444    -1.0286948503
| 14>  H       -0.4850537072     1.8891745359     0.9700721160
| 15>  H       -0.5857289513     2.0056838041    -0.8074892841
| 16>  H        1.7444909294     2.9240119934     0.0176326184
| 17>  H        2.3326936970     1.2628176471     2.1602660277
| 18>  H        3.4682117371    -0.6210005015     0.2167369226
| 19>  H        1.2600195908    -1.1283903379     1.5111763432
| 20>  H       -0.8759894168    -0.4800340291     0.3274436570
| 21>  H       -0.4317340571    -0.9012926931    -2.0942753599
| 22>  H        1.6758639902     0.1429514403    -3.0672118997
| 23>  H        3.1002007509     1.4668211689    -1.4574081727
| 24> *
| 25>
| 26>                          ****END OF INPUT****

CARTESIAN COORDINATES (ANGSTROEM)
---------------------------------
  C     -0.032333    1.564281    0.025693
  C      1.462708    1.872171    0.036869
  C      2.010020    0.974533    1.168704
  C      2.602478    0.028563    0.155931
  C      1.280452   -0.301833    0.811989
  C      0.021128    0.003413   -0.061657
  C      0.275882   -0.317109   -1.515369
  C      1.381116    0.235740   -2.027039
  C      2.240487    0.951499   -1.028695
  H     -0.485054    1.889175    0.970072
  H     -0.585729    2.005684   -0.807489
  H      1.744491    2.924012    0.017633
  H      2.332694    1.262818    2.160266
  H      3.468212   -0.621001    0.216737
  H      1.260020   -1.128390    1.511176
  H     -0.875989   -0.480034    0.327444
  H     -0.431734   -0.901293   -2.094275
  H      1.675864    0.142951   -3.067212
  H      3.100201    1.466821   -1.457408

 Total Charge           Charge          ....    0
 Multiplicity           Mult            ....    1
 Number of Electrons    NEL             ....   64
 Basis Dimension        Dim             ....  339

ORBITAL ENERGIES
----------------

  NO   OCC          E(Eh)            E(eV)
   0   2.0000     -11.228571      -305.5450
   1   2.0000     -11.227937      -305.5277
   2   2.0000     -11.227927      -305.5274
   3   2.0000     -11.225595      -305.4640
   4   2.0000     -11.224296      -305.4286
   5   2.0000     -11.221334      -305.3480
   6   2.0000     -11.215070      -305.1776
   7   2.0000     -11.214548      -305.1634
   8   2.0000     -11.211440      -305.0788
   9   2.0000      -1.218534       -33.1580
  10   2.0000      -1.068368       -29.0718
  11   2.0000      -1.010967       -27.5098
  12   2.0000      -0.983678       -26.7672
  13   2.0000      -0.860107       -23.4047
  14   2.0000      -0.810396       -22.0520
  15   2.0000      -0.789231       -21.4761
  16   2.0000      -0.735145       -20.0043
  17   2.0000      -0.708932       -19.2910
  18   2.0000      -0.658574       -17.9207
  19   2.0000      -0.647379       -17.6161
  20   2.0000      -0.604648       -16.4533
  21   2.0000      -0.574322       -15.6281
  22   2.0000      -0.556039       -15.1306
  23   2.0000      -0.535869       -14.5817
  24   2.0000      -0.524912       -14.2836
  25   2.0000      -0.484409       -13.1815
  26   2.0000      -0.458716       -12.4823
  27   2.0000      -0.444030       -12.0827
  28   2.0000      -0.434852       -11.8329
  29   2.0000      -0.388028       -10.5588
  30   2.0000      -0.371173       -10.1001
  31   2.0000      -0.334872        -9.1123
  32   0.0000       0.144932         3.9438
  33   0.0000       0.149949         4.0803
  34   0.0000       0.169364         4.6086
  35   0.0000       0.174985         4.7616
  36   0.0000       0.176324         4.7980

MULLIKEN ATOMIC CHARGES
-----------------------
   0 C :   -0.268536
   1 C :   -0.026011
   2 C :   -0.215929
   3 C :   -0.124500
   4 C :   -0.213798
   5 C :    0.123874
   6 C :   -0.258074
   7 C :   -0.232454
   8 C :   -0.007817
   9 H :    0.110628
  10 H :    0.117219
  11 H :    0.129050
  12 H :    0.133240
  13 H :    0.125458
  14 H :    0.128904
  15 H :    0.121321
  16 H :    0.116990
  17 H :    0.115442
  18 H :    0.124990
Sum of atomic charges:   -0.0000000

LOEWDIN ATOMIC CHARGES
----------------------
   0 C :   -0.197160
   1 C :   -0.155453
   2 C :   -0.144736
   3 C :   -0.134603
   4 C :   -0.139808
   5 C :   -0.191299
   6 C :   -0.136325
   7 C :   -0.146830
   8 C :   -0.154519
   9 H :    0.140737
  10 H :    0.136360
  11 H :    0.141447
  12 H :    0.133180
  13 H :    0.134655
  14 H :    0.146577
  15 H :    0.147407
  16 H :    0.136057
  17 H :    0.136242
  18 H :    0.148071

  Mayer bond orders larger than 0.1
B(  0-C ,  1-C ) :   0.9284 B(  0-C ,  5-C ) :   0.8886 B(  0-C ,  9-H ) :   0.9191
B(  0-C , 10-H ) :   0.9157 B(  1-C ,  2-C ) :   0.9110 B(  1-C ,  8-C ) :   0.9415
B(  1-C , 11-H ) :   0.9158 B(  2-C ,  3-C ) :   0.8239 B(  2-C ,  4-C ) :   0.8972
B(  2-C , 12-H ) :   0.9226 B(  3-C ,  4-C ) :   0.8635 B(  3-C ,  8-C ) :   0.9174
B(  3-C , 13-H ) :   0.9292 B(  4-C ,  5-C ) :   0.8721 B(  4-C , 14-H ) :   0.9291
B(  5-C ,  6-C ) :   0.9540 B(  5-C , 15-H ) :   0.9207 B(  6-C ,  7-C ) :   1.7436
B(  6-C , 16-H ) :   0.9365 B(  7-C ,  8-C ) :   0.9960 B(  7-C , 17-H ) :   0.9390
B(  8-C , 18-H ) :   0.9126

MP2 TOTAL ENERGY:     -348.097610752 Eh
FINAL SINGLE POINT ENERGY      -348.097610751916

DIPOLE MOMENT
-------------
                                X             Y             Z
Electronic contribution:      1.12777      -0.79184      -0.27116
Nuclear contribution   :     -1.10536       0.85187       0.41270
                        -----------------------------------------
Total Dipole Moment    :      0.02241       0.06003       0.14154
                        -----------------------------------------
Magnitude (a.u.)       :      0.15537
Magnitude (Debye)      :      0.39492

                             ****ORCA TERMINATED NORMALLY****
TOTAL RUN TIME: 0 days 0 hours 20 minutes 2 seconds 177 msec
