                         Program Version 3.0.3 - RELEASE   -
|  1> ! RI-MP2 RIJK def2-TZVP def2-TZVP/C def2-TZVP/JK TIGHTSCF
|  2> % maxcore 2000
|  3> % mp2 density relaxed end
|  4> *xyz 0 1
|  5>  C       -0.6110093063     1.3840357212    -0.5361355568
|  6>  C       -0.1072718789     0.0667628962    -0.0530491462
|  7>  N        0.8189900985    -0.6260807530    -0.7009697552
|  8>  N        0.9613387667    -1.7245941554     0.0806880522
|  9>  C        0.1353117823    -1.6503600909     1.1414257574
| 10>  C        0.0247827306    -2.6930825617     2.2186003053
| 11>  C        0.9237615182    -3.8234518653     1.9955429318
| 12>  N        1.6484246450    -4.6973982142     1.7827091843
| 13>  N       -0.5583312237    -0.5316739078     1.0937426971
| 14>  H       -0.4318862634     2.1635344552     0.2107877870
| 15>  H       -0.1095199863     1.6595334353    -1.4650824790
| 16>  H       -1.6904389831     1.3439481334    -0.7116910438
| 17>  H        1.6157555096    -2.4504962350    -0.1672534048
| 18>  H        0.2462682200    -2.2407270332     3.1917829002
| 19>  H       -1.0075140491    -3.0565639447     2.2733481503
| 20> *
| 21>
| 22>                          ****END OF INPUT****

CARTESIAN COORDINATES (ANGSTROEM)
---------------------------------
  C     -0.611009    1.384036   -0.536136
  C     -0.107272    0.066763   -0.053049
  N      0.818990   -0.626081   -0.700970
  N      0.961339   -1.724594    0.080688
  C      0.135312   -1.650360    1.141426
  C      0.024783   -2.693083    2.218600
  C      0.923762   -3.823452    1.995543
  N      1.648425   -4.697398    1.782709
  N     -0.558331   -0.531674    1.093743
  H     -0.431886    2.163534    0.210788
  H     -0.109520    1.659533   -1.465082
  H     -1.690439    1.343948   -0.711691
  H      1.615756   -2.450496   -0.167253
  H      0.246268   -2.240727    3.191783
  H     -1.007514   -3.056564    2.273348

 Total Charge           Charge          ....    0
 Multiplicity           Mult            ....    1
 Number of Electrons    NEL             ....   64
 Basis Dimension        Dim             ....  315

ORBITAL ENERGIES
----------------

  NO   OCC          E(Eh)            E(eV)
   0   2.0000     -15.658381      -426.0862
   1   2.0000     -15.598521      -424.4573
   2   2.0000     -15.596494      -424.4022
   3   2.0000     -15.564778      -423.5391
   4   2.0000     -11.345506      -308.7269
   5   2.0000     -11.320956      -308.0589
   6   2.0000     -11.302237      -307.5495
   7   2.0000     -11.302112      -307.5461
   8   2.0000     -11.232607      -305.6548
   9   2.0000      -1.422777       -38.7157
  10   2.0000      -1.248529       -33.9742
  11   2.0000      -1.210786       -32.9472
  12   2.0000      -1.153897       -31.3991
  13   2.0000      -1.062527       -28.9128
  14   2.0000      -0.986969       -26.8568
  15   2.0000      -0.856572       -23.3085
  16   2.0000      -0.813107       -22.1258
  17   2.0000      -0.759706       -20.6727
  18   2.0000      -0.702004       -19.1025
  19   2.0000      -0.685591       -18.6559
  20   2.0000      -0.650253       -17.6943
  21   2.0000      -0.631628       -17.1875
  22   2.0000      -0.584093       -15.8940
  23   2.0000      -0.571080       -15.5399
  24   2.0000      -0.569421       -15.4947
  25   2.0000      -0.551161       -14.9979
  26   2.0000      -0.513975       -13.9860
  27   2.0000      -0.489754       -13.3269
  28   2.0000      -0.489553       -13.3214
  29   2.0000      -0.457036       -12.4366
  30   2.0000      -0.422988       -11.5101
  31   2.0000      -0.372415       -10.1339
  32   0.0000       0.113581         3.0907
  33   0.0000       0.133741         3.6393
  34   0.0000       0.149413         4.0657
  35   0.0000       0.150727         4.1015
  36   0.0000       0.158297         4.3075

MULLIKEN ATOMIC CHARGES
-----------------------
   0 C :   -0.426501
   1 C :    0.202036
   2 N :   -0.226745
   3 N :   -0.113218
   4 C :    0.148401
   5 C :   -0.121386
   6 C :   -0.185242
   7 N :   -0.053521
   8 N :   -0.316641
   9 H :    0.146037
  10 H :    0.154318
  11 H :    0.146041
  12 H :    0.279030
  13 H :    0.183686
  14 H :    0.183704
Sum of atomic charges:   -0.0000000

LOEWDIN ATOMIC CHARGES
----------------------
   0 C :   -0.271590
   1 C :   -0.369557
   2 N :    0.046000
   3 N :    0.154203
   4 C :   -0.331875
   5 C :   -0.200070
   6 C :   -0.188373
   7 N :    0.067489
   8 N :    0.122729
   9 H :    0.136066
  10 H :    0.136582
  11 H :    0.136067
  12 H :    0.200214
  13 H :    0.181057
  14 H :    0.181060

  Mayer bond orders larger than 0.1
B(  0-C ,  1-C ) :   0.8651 B(  0-C ,  9-H ) :   0.9327 B(  0-C , 10-H ) :   0.9539
B(  0-C , 11-H ) :   0.9327 B(  1-C ,  2-N ) :   1.5858 B(  1-C ,  8-N ) :   1.2634
B(  2-N ,  3-N ) :   1.0473 B(  3-N ,  4-C ) :   1.2498 B(  3-N , 12-H ) :   0.8507
B(  4-C ,  5-C ) :   0.9117 B(  4-C ,  8-N ) :   1.5447 B(  5-C ,  6-C ) :   0.9233
B(  5-C , 13-H ) :   0.9044 B(  5-C , 14-H ) :   0.9045 B(  6-C ,  7-N ) :   2.8387

MP2 TOTAL ENERGY:     -412.334001723 Eh
FINAL SINGLE POINT ENERGY      -412.334001722921

DIPOLE MOMENT
-------------
                                X             Y             Z
Electronic contribution:      2.85253      -5.99788       1.43578
Nuclear contribution   :     -3.27567       6.30247      -1.12828
                        -----------------------------------------
Total Dipole Moment    :     -0.42314       0.30459       0.30750
                        -----------------------------------------
Magnitude (a.u.)       :      0.60529
Magnitude (Debye)      :      1.53853

                             ****ORCA TERMINATED NORMALLY****
TOTAL RUN TIME: 0 days 0 hours 13 minutes 43 seconds 870 msec
