                         Program Version 3.0.3 - RELEASE   -
|  1> ! RI-MP2 RIJK def2-TZVP def2-TZVP/C def2-TZVP/JK TIGHTSCF
|  2> % maxcore 2000
|  3> % mp2 density relaxed end
|  4> *xyz 0 1
|  5>  N        0.0614689573    -1.1557482461     0.0364755344
|  6>  C       -0.0075275555     0.0009841083     0.0231572072
|  7>  C       -0.0470987828     1.4254313883     0.0054158872
|  8>  C       -1.2015807555     2.1116546274     0.0301516682
|  9>  C       -1.1370884726     3.6162075166     0.0082921786
| 10>  C       -0.1165641603     4.0418231460    -1.0962374367
| 11>  C        0.9898831248     3.7042740589    -0.0552406287
| 12>  C       -0.0539452226     4.0701740977     1.0394629628
| 13>  C        1.2682872280     2.1921384408    -0.0433275742
| 14>  H       -2.1579193555     1.6007912055     0.0649649226
| 15>  H       -2.1216872684     4.0831568455     0.0309631342
| 16>  H       -0.1326545147     3.4898123592    -2.0392289867
| 17>  H       -0.1657009652     5.1154886075    -1.2923936432
| 18>  H        1.9228819731     4.2706448980    -0.0901170212
| 19>  H       -0.0923438681     5.1487016316     1.2096184654
| 20>  H       -0.0143334048     3.5433792811     1.9960855110
| 21>  H        1.8879889162     1.9191359877     0.8203033064
| 22>  H        1.8365516267     1.8958403262    -0.9342272472
| 23> *
| 24>
| 25>                          ****END OF INPUT****

CARTESIAN COORDINATES (ANGSTROEM)
---------------------------------
  N      0.061469   -1.155748    0.036476
  C     -0.007528    0.000984    0.023157
  C     -0.047099    1.425431    0.005416
  C     -1.201581    2.111655    0.030152
  C     -1.137088    3.616208    0.008292
  C     -0.116564    4.041823   -1.096237
  C      0.989883    3.704274   -0.055241
  C     -0.053945    4.070174    1.039463
  C      1.268287    2.192138   -0.043328
  H     -2.157919    1.600791    0.064965
  H     -2.121687    4.083157    0.030963
  H     -0.132655    3.489812   -2.039229
  H     -0.165701    5.115489   -1.292394
  H      1.922882    4.270645   -0.090117
  H     -0.092344    5.148702    1.209618
  H     -0.014333    3.543379    1.996086
  H      1.887989    1.919136    0.820303
  H      1.836552    1.895840   -0.934227

 Total Charge           Charge          ....    0
 Multiplicity           Mult            ....    1
 Number of Electrons    NEL             ....   64
 Basis Dimension        Dim             ....  333

ORBITAL ENERGIES
----------------

  NO   OCC          E(Eh)            E(eV)
   0   2.0000     -15.564402      -423.5289
   1   2.0000     -11.273154      -306.7581
   2   2.0000     -11.268622      -306.6348
   3   2.0000     -11.268157      -306.6221
   4   2.0000     -11.255439      -306.2761
   5   2.0000     -11.251031      -306.1561
   6   2.0000     -11.250375      -306.1383
   7   2.0000     -11.241429      -305.8948
   8   2.0000     -11.241404      -305.8941
   9   2.0000      -1.216338       -33.0983
  10   2.0000      -1.191826       -32.4312
  11   2.0000      -1.077478       -29.3197
  12   2.0000      -1.014876       -27.6162
  13   2.0000      -0.915205       -24.9040
  14   2.0000      -0.875707       -23.8292
  15   2.0000      -0.839198       -22.8357
  16   2.0000      -0.743896       -20.2424
  17   2.0000      -0.722797       -19.6683
  18   2.0000      -0.640171       -17.4199
  19   2.0000      -0.631635       -17.1877
  20   2.0000      -0.619813       -16.8660
  21   2.0000      -0.581428       -15.8215
  22   2.0000      -0.562614       -15.3095
  23   2.0000      -0.555309       -15.1107
  24   2.0000      -0.550968       -14.9926
  25   2.0000      -0.518123       -14.0989
  26   2.0000      -0.481267       -13.0959
  27   2.0000      -0.473653       -12.8888
  28   2.0000      -0.458754       -12.4833
  29   2.0000      -0.456473       -12.4213
  30   2.0000      -0.440598       -11.9893
  31   2.0000      -0.357318        -9.7231
  32   0.0000       0.092585         2.5194
  33   0.0000       0.122761         3.3405
  34   0.0000       0.148205         4.0329
  35   0.0000       0.159417         4.3380
  36   0.0000       0.169757         4.6193

MULLIKEN ATOMIC CHARGES
-----------------------
   0 N :   -0.050497
   1 C :   -0.255292
   2 C :    0.189178
   3 C :   -0.324095
   4 C :    0.127960
   5 C :   -0.326666
   6 C :    0.060326
   7 C :   -0.326667
   8 C :   -0.291672
   9 H :    0.143457
  10 H :    0.133676
  11 H :    0.126568
  12 H :    0.128697
  13 H :    0.125923
  14 H :    0.128697
  15 H :    0.126568
  16 H :    0.141918
  17 H :    0.141919
Sum of atomic charges:   -0.0000000

LOEWDIN ATOMIC CHARGES
----------------------
   0 N :    0.067332
   1 C :   -0.158484
   2 C :   -0.159851
   3 C :   -0.065434
   4 C :   -0.199396
   5 C :   -0.185870
   6 C :   -0.209261
   7 C :   -0.185871
   8 C :   -0.180323
   9 H :    0.152025
  10 H :    0.140783
  11 H :    0.130884
  12 H :    0.138785
  13 H :    0.139120
  14 H :    0.138785
  15 H :    0.130885
  16 H :    0.152946
  17 H :    0.152946

  Mayer bond orders larger than 0.1
B(  0-N ,  1-C ) :   2.8715 B(  1-C ,  2-C ) :   0.8994 B(  2-C ,  3-C ) :   1.6862
B(  2-C ,  8-C ) :   0.9610 B(  3-C ,  4-C ) :   0.8773 B(  3-C ,  9-H ) :   0.9337
B(  4-C ,  5-C ) :   0.8783 B(  4-C ,  7-C ) :   0.8783 B(  4-C , 10-H ) :   0.9239
B(  5-C ,  6-C ) :   0.8982 B(  5-C , 11-H ) :   0.9238 B(  5-C , 12-H ) :   0.9264
B(  6-C ,  7-C ) :   0.8982 B(  6-C ,  8-C ) :   0.8991 B(  6-C , 13-H ) :   0.9250
B(  7-C , 14-H ) :   0.9264 B(  7-C , 15-H ) :   0.9238 B(  8-C , 16-H ) :   0.9088
B(  8-C , 17-H ) :   0.9088

MP2 TOTAL ENERGY:     -364.165667075 Eh
FINAL SINGLE POINT ENERGY      -364.165667074511

DIPOLE MOMENT
-------------
                                X             Y             Z
Electronic contribution:     -1.06456      -8.19022       0.13992
Nuclear contribution   :      1.03402      10.04535      -0.16364
                        -----------------------------------------
Total Dipole Moment    :     -0.03053       1.85513      -0.02372
                        -----------------------------------------
Magnitude (a.u.)       :      1.85553
Magnitude (Debye)      :      4.71638

                             ****ORCA TERMINATED NORMALLY****
TOTAL RUN TIME: 0 days 0 hours 20 minutes 51 seconds 886 msec
