                         Program Version 3.0.3 - RELEASE   -
|  1> ! RI-MP2 RIJK def2-TZVP def2-TZVP/C def2-TZVP/JK TIGHTSCF
|  2> % maxcore 2000
|  3> % mp2 density relaxed end
|  4> *xyz 0 1
|  5>  C        0.1717905260     1.0830826839    -0.3631164190
|  6>  O       -0.4145522688     0.1204730190     0.4890449963
|  7>  C        0.4962703874    -0.5154215309     1.3369116576
|  8>  C       -0.1627305427    -1.3937367248     2.4148214597
|  9>  C        0.9794378739    -2.4350802444     2.2014285372
| 10>  C        0.6400768025    -3.8460057878     2.2334325424
| 11>  N        0.3636526078    -4.9691194345     2.2429914676
| 12>  C        1.2873011113    -1.7657745391     0.8100471178
| 13>  C        0.6493662057    -2.4581191554    -0.3886077420
| 14>  H        0.9053832034     0.6375800637    -1.0502147935
| 15>  H       -0.6346765198     1.5272931196    -0.9506391038
| 16>  H        0.6735528231     1.8761812444     0.2120192915
| 17>  H        1.1860225866     0.2189352105     1.7810202936
| 18>  H       -0.2840698110    -0.9817278254     3.4173241404
| 19>  H       -1.1219252752    -1.7751622532     2.0603713827
| 20>  H        1.8012624687    -2.2591287197     2.9009526639
| 21>  H        2.3537694033    -1.6058089637     0.6316083051
| 22>  H       -0.4269806865    -2.5963071389    -0.2567606456
| 23>  H        0.7957106313    -1.8653671010    -1.2960517040
| 24>  H        1.0989236228    -3.4423976922    -0.5485997577
| 25> *
| 26>
| 27>                          ****END OF INPUT****

CARTESIAN COORDINATES (ANGSTROEM)
---------------------------------
  C      0.171791    1.083083   -0.363116
  O     -0.414552    0.120473    0.489045
  C      0.496270   -0.515422    1.336912
  C     -0.162731   -1.393737    2.414821
  C      0.979438   -2.435080    2.201429
  C      0.640077   -3.846006    2.233433
  N      0.363653   -4.969119    2.242991
  C      1.287301   -1.765775    0.810047
  C      0.649366   -2.458119   -0.388608
  H      0.905383    0.637580   -1.050215
  H     -0.634677    1.527293   -0.950639
  H      0.673553    1.876181    0.212019
  H      1.186023    0.218935    1.781020
  H     -0.284070   -0.981728    3.417324
  H     -1.121925   -1.775162    2.060371
  H      1.801262   -2.259129    2.900953
  H      2.353769   -1.605809    0.631608
  H     -0.426981   -2.596307   -0.256761
  H      0.795711   -1.865367   -1.296052
  H      1.098924   -3.442398   -0.548600

 Total Charge           Charge          ....    0
 Multiplicity           Mult            ....    1
 Number of Electrons    NEL             ....   68
 Basis Dimension        Dim             ....  345

ORBITAL ENERGIES
----------------

  NO   OCC          E(Eh)            E(eV)
   0   2.0000     -20.571366      -559.7753
   1   2.0000     -15.563997      -423.5179
   2   2.0000     -11.298348      -307.4437
   3   2.0000     -11.284073      -307.0552
   4   2.0000     -11.281513      -306.9856
   5   2.0000     -11.267617      -306.6074
   6   2.0000     -11.256486      -306.3045
   7   2.0000     -11.247859      -306.0698
   8   2.0000     -11.225441      -305.4598
   9   2.0000      -1.394784       -37.9540
  10   2.0000      -1.215810       -33.0839
  11   2.0000      -1.158802       -31.5326
  12   2.0000      -1.002511       -27.2797
  13   2.0000      -0.978460       -26.6252
  14   2.0000      -0.914268       -24.8785
  15   2.0000      -0.878920       -23.9166
  16   2.0000      -0.779573       -21.2133
  17   2.0000      -0.712199       -19.3799
  18   2.0000      -0.695089       -18.9143
  19   2.0000      -0.662609       -18.0305
  20   2.0000      -0.648052       -17.6344
  21   2.0000      -0.624481       -16.9930
  22   2.0000      -0.587068       -15.9749
  23   2.0000      -0.566875       -15.4254
  24   2.0000      -0.556049       -15.1309
  25   2.0000      -0.550222       -14.9723
  26   2.0000      -0.527391       -14.3510
  27   2.0000      -0.523149       -14.2356
  28   2.0000      -0.502158       -13.6644
  29   2.0000      -0.498876       -13.5751
  30   2.0000      -0.468752       -12.7554
  31   2.0000      -0.445900       -12.1336
  32   2.0000      -0.434480       -11.8228
  33   2.0000      -0.418444       -11.3864
  34   0.0000       0.116329         3.1655
  35   0.0000       0.143424         3.9028
  36   0.0000       0.151367         4.1189
  37   0.0000       0.156936         4.2705
  38   0.0000       0.177924         4.8416

MULLIKEN ATOMIC CHARGES
-----------------------
   0 C :   -0.228188
   1 O :   -0.292216
   2 C :    0.039562
   3 C :   -0.229459
   4 C :    0.016650
   5 C :   -0.229483
   6 N :   -0.051801
   7 C :   -0.023272
   8 C :   -0.438124
   9 H :    0.114234
  10 H :    0.147233
  11 H :    0.118981
  12 H :    0.081257
  13 H :    0.138268
  14 H :    0.143057
  15 H :    0.142347
  16 H :    0.120357
  17 H :    0.147273
  18 H :    0.130238
  19 H :    0.153087
Sum of atomic charges:   -0.0000000

LOEWDIN ATOMIC CHARGES
----------------------
   0 C :   -0.349171
   1 O :    0.167535
   2 C :   -0.298199
   3 C :   -0.169984
   4 C :   -0.197993
   5 C :   -0.178006
   6 N :    0.058628
   7 C :   -0.198603
   8 C :   -0.283514
   9 H :    0.102230
  10 H :    0.116184
  11 H :    0.103745
  12 H :    0.135850
  13 H :    0.131394
  14 H :    0.151780
  15 H :    0.173704
  16 H :    0.142624
  17 H :    0.133171
  18 H :    0.126392
  19 H :    0.132233

  Mayer bond orders larger than 0.1
B(  0-C ,  1-O ) :   0.8969 B(  0-C ,  9-H ) :   0.9334 B(  0-C , 10-H ) :   0.9411
B(  0-C , 11-H ) :   0.9352 B(  1-O ,  2-C ) :   1.0520 B(  2-C ,  3-C ) :   0.8951
B(  2-C ,  7-C ) :   0.9191 B(  2-C , 12-H ) :   0.9474 B(  3-C ,  4-C ) :   0.8873
B(  3-C , 13-H ) :   0.9237 B(  3-C , 14-H ) :   0.9166 B(  4-C ,  5-C ) :   0.9323
B(  4-C ,  7-C ) :   0.8995 B(  4-C , 15-H ) :   0.8957 B(  5-C ,  6-N ) :   2.8782
B(  7-C ,  8-C ) :   0.9122 B(  7-C , 16-H ) :   0.9178 B(  8-C , 17-H ) :   0.9281
B(  8-C , 18-H ) :   0.9346 B(  8-C , 19-H ) :   0.9342

MP2 TOTAL ENERGY:     -402.454882491 Eh
FINAL SINGLE POINT ENERGY      -402.454882491267

DIPOLE MOMENT
-------------
                                X             Y             Z
Electronic contribution:     -0.81717      -6.28891       5.22198
Nuclear contribution   :      1.51916       8.03143      -5.50313
                        -----------------------------------------
Total Dipole Moment    :      0.70198       1.74252      -0.28116
                        -----------------------------------------
Magnitude (a.u.)       :      1.89952
Magnitude (Debye)      :      4.82821

                             ****ORCA TERMINATED NORMALLY****
TOTAL RUN TIME: 0 days 0 hours 31 minutes 35 seconds 333 msec
