                         Program Version 3.0.3 - RELEASE   -
|  1> ! RI-MP2 RIJK def2-TZVP def2-TZVP/C def2-TZVP/JK TIGHTSCF
|  2> % maxcore 2000
|  3> % mp2 density relaxed end
|  4> *xyz 0 1
|  5>  C       -0.6021626462     1.1761674064    -0.0094875218
|  6>  C        0.3057487482    -0.0340968985     0.0123744160
|  7>  O        1.1899783127    -0.0213966831    -1.1133576037
|  8>  C        2.4724495409    -0.3317274204    -0.6671130632
|  9>  C        2.4286496661    -0.3378580751     0.8160408443
| 10>  O        1.1220088151    -0.0309045477     1.1883809836
| 11>  C        2.7023849828    -1.6614022465     0.0764168580
| 12>  C        1.7818605369    -2.7531678835     0.0447093410
| 13>  C        1.0236471460    -3.6872625493     0.0185400732
| 14>  H       -0.0062652346     2.0918789110     0.0125349181
| 15>  H       -1.2122290751     1.1651978153    -0.9165588466
| 16>  H       -1.2657180538     1.1572898867     0.8590822413
| 17>  H       -0.2647854614    -0.9705871876    -0.0083301394
| 18>  H        3.2551399929     0.0914107551    -1.2844380433
| 19>  H        3.1734498640     0.0799737294     1.4819459381
| 20>  H        3.7526999492    -1.9451170859     0.1062666961
| 21>  H        0.3508022363    -4.5082047364    -0.0043163716
| 22> *
| 23>
| 24>                          ****END OF INPUT****

CARTESIAN COORDINATES (ANGSTROEM)
---------------------------------
  C     -0.602163    1.176167   -0.009488
  C      0.305749   -0.034097    0.012374
  O      1.189978   -0.021397   -1.113358
  C      2.472450   -0.331727   -0.667113
  C      2.428650   -0.337858    0.816041
  O      1.122009   -0.030905    1.188381
  C      2.702385   -1.661402    0.076417
  C      1.781861   -2.753168    0.044709
  C      1.023647   -3.687263    0.018540
  H     -0.006265    2.091879    0.012535
  H     -1.212229    1.165198   -0.916559
  H     -1.265718    1.157290    0.859082
  H     -0.264785   -0.970587   -0.008330
  H      3.255140    0.091411   -1.284438
  H      3.173450    0.079974    1.481946
  H      3.752700   -1.945117    0.106267
  H      0.350802   -4.508205   -0.004316

 Total Charge           Charge          ....    0
 Multiplicity           Mult            ....    1
 Number of Electrons    NEL             ....   66
 Basis Dimension        Dim             ....  327

ORBITAL ENERGIES
----------------

  NO   OCC          E(Eh)            E(eV)
   0   2.0000     -20.576726      -559.9212
   1   2.0000     -20.576706      -559.9206
   2   2.0000     -11.338786      -308.5440
   3   2.0000     -11.304014      -307.5979
   4   2.0000     -11.303234      -307.5766
   5   2.0000     -11.265063      -306.5379
   6   2.0000     -11.238900      -305.8260
   7   2.0000     -11.224274      -305.4280
   8   2.0000     -11.220122      -305.3150
   9   2.0000      -1.455106       -39.5955
  10   2.0000      -1.348685       -36.6996
  11   2.0000      -1.151933       -31.3457
  12   2.0000      -1.037101       -28.2209
  13   2.0000      -1.003100       -27.2957
  14   2.0000      -0.889431       -24.2026
  15   2.0000      -0.844016       -22.9668
  16   2.0000      -0.831647       -22.6303
  17   2.0000      -0.734009       -19.9734
  18   2.0000      -0.712519       -19.3886
  19   2.0000      -0.704799       -19.1786
  20   2.0000      -0.649761       -17.6809
  21   2.0000      -0.637920       -17.3587
  22   2.0000      -0.602915       -16.4061
  23   2.0000      -0.586762       -15.9666
  24   2.0000      -0.568176       -15.4609
  25   2.0000      -0.547105       -14.8875
  26   2.0000      -0.537169       -14.6171
  27   2.0000      -0.523153       -14.2357
  28   2.0000      -0.483839       -13.1659
  29   2.0000      -0.455734       -12.4012
  30   2.0000      -0.419660       -11.4195
  31   2.0000      -0.369518       -10.0551
  32   2.0000      -0.358669        -9.7599
  33   0.0000       0.141126         3.8402
  34   0.0000       0.155059         4.2194
  35   0.0000       0.166414         4.5284
  36   0.0000       0.168771         4.5925
  37   0.0000       0.178118         4.8468

MULLIKEN ATOMIC CHARGES
-----------------------
   0 C :   -0.367670
   1 C :    0.209361
   2 O :   -0.312947
   3 C :    0.068648
   4 C :    0.068647
   5 O :   -0.312944
   6 C :   -0.382688
   7 C :    0.060463
   8 C :   -0.144447
   9 H :    0.126661
  10 H :    0.137571
  11 H :    0.137550
  12 H :    0.104114
  13 H :    0.138869
  14 H :    0.138869
  15 H :    0.139476
  16 H :    0.190466
Sum of atomic charges:    0.0000000

LOEWDIN ATOMIC CHARGES
----------------------
   0 C :   -0.288710
   1 C :   -0.365891
   2 O :    0.215342
   3 C :   -0.257024
   4 C :   -0.257023
   5 O :    0.215343
   6 C :   -0.181425
   7 C :   -0.095094
   8 C :   -0.092593
   9 H :    0.128589
  10 H :    0.131421
  11 H :    0.131405
  12 H :    0.133142
  13 H :    0.141919
  14 H :    0.141920
  15 H :    0.171667
  16 H :    0.127013

  Mayer bond orders larger than 0.1
B(  0-C ,  1-C ) :   0.9120 B(  0-C ,  9-H ) :   0.9332 B(  0-C , 10-H ) :   0.9348
B(  0-C , 11-H ) :   0.9348 B(  1-C ,  2-O ) :   0.9138 B(  1-C ,  5-O ) :   0.9138
B(  1-C , 12-H ) :   0.9317 B(  2-O ,  3-C ) :   1.0095 B(  3-C ,  4-C ) :   0.9098
B(  3-C ,  6-C ) :   0.8199 B(  3-C , 13-H ) :   0.9280 B(  4-C ,  5-O ) :   1.0096
B(  4-C ,  6-C ) :   0.8199 B(  4-C , 14-H ) :   0.9280 B(  6-C ,  7-C ) :   1.1432
B(  6-C ,  8-C ) :  -0.1389 B(  6-C , 15-H ) :   0.9015 B(  7-C ,  8-C ) :   2.5806
B(  8-C , 16-H ) :   0.9031

MP2 TOTAL ENERGY:     -421.052806001 Eh
FINAL SINGLE POINT ENERGY      -421.052806000815

DIPOLE MOMENT
-------------
                                X             Y             Z
Electronic contribution:      3.02135      -2.95731       0.07696
Nuclear contribution   :     -2.75779       3.12310      -0.06834
                        -----------------------------------------
Total Dipole Moment    :      0.26356       0.16579       0.00861
                        -----------------------------------------
Magnitude (a.u.)       :      0.31148
Magnitude (Debye)      :      0.79173

                             ****ORCA TERMINATED NORMALLY****
TOTAL RUN TIME: 0 days 0 hours 17 minutes 58 seconds 745 msec
