                         Program Version 3.0.3 - RELEASE   -
|  1> ! RI-MP2 RIJK def2-TZVP def2-TZVP/C def2-TZVP/JK TIGHTSCF
|  2> % maxcore 2000
|  3> % mp2 density relaxed end
|  4> *xyz 0 1
|  5>  O        0.7195899401     0.2822435527     0.7730178065
|  6>  C       -0.1551490114     0.4621908174    -0.3262747234
|  7>  C       -1.4594895173    -0.3473896233    -0.2116484360
|  8>  C       -2.2425637789    -0.3036786473    -1.5238627110
|  9>  O       -2.5292948641     1.0528458326    -1.8240440232
| 10>  C       -1.1935157160    -1.7964522747     0.2154341356
| 11>  C       -1.0172180931    -2.0038617988     1.7015306555
| 12>  O       -1.0604985071    -1.1395563139     2.5430570046
| 13>  H        0.1976859361     0.3618526367     1.5807718217
| 14>  H       -0.4034590822     1.5196590565    -0.4825735656
| 15>  H        0.4035445229     0.1260993716    -1.2105120671
| 16>  H       -2.0855115457     0.1207167501     0.5587570902
| 17>  H       -1.6478409284    -0.7725997273    -2.3263017130
| 18>  H       -3.1691971971    -0.8911671535    -1.4176898141
| 19>  H       -2.9678111330     1.0896226723    -2.6788082483
| 20>  H       -2.0187495554    -2.4620129392    -0.0833181476
| 21>  H       -0.3013855558    -2.2111912144    -0.2757357085
| 22>  H       -0.8575378935    -3.0650916772     1.9959867636
| 23> *
| 24>
| 25>                          ****END OF INPUT****

CARTESIAN COORDINATES (ANGSTROEM)
---------------------------------
  O      0.719590    0.282244    0.773018
  C     -0.155149    0.462191   -0.326275
  C     -1.459490   -0.347390   -0.211648
  C     -2.242564   -0.303679   -1.523863
  O     -2.529295    1.052846   -1.824044
  C     -1.193516   -1.796452    0.215434
  C     -1.017218   -2.003862    1.701531
  O     -1.060499   -1.139556    2.543057
  H      0.197686    0.361853    1.580772
  H     -0.403459    1.519659   -0.482574
  H      0.403545    0.126099   -1.210512
  H     -2.085512    0.120717    0.558757
  H     -1.647841   -0.772600   -2.326302
  H     -3.169197   -0.891167   -1.417690
  H     -2.967811    1.089623   -2.678808
  H     -2.018750   -2.462013   -0.083318
  H     -0.301386   -2.211191   -0.275736
  H     -0.857538   -3.065092    1.995987

 Total Charge           Charge          ....    0
 Multiplicity           Mult            ....    1
 Number of Electrons    NEL             ....   64
 Basis Dimension        Dim             ....  308

ORBITAL ENERGIES
----------------

  NO   OCC          E(Eh)            E(eV)
   0   2.0000     -20.566711      -559.6486
   1   2.0000     -20.563786      -559.5691
   2   2.0000     -20.540997      -558.9489
   3   2.0000     -11.342636      -308.6488
   4   2.0000     -11.289746      -307.2096
   5   2.0000     -11.267304      -306.5989
   6   2.0000     -11.251302      -306.1635
   7   2.0000     -11.238080      -305.8037
   8   2.0000      -1.404959       -38.2309
   9   2.0000      -1.372216       -37.3399
  10   2.0000      -1.347876       -36.6776
  11   2.0000      -1.096156       -29.8279
  12   2.0000      -0.985317       -26.8119
  13   2.0000      -0.910863       -24.7859
  14   2.0000      -0.830501       -22.5991
  15   2.0000      -0.774793       -21.0832
  16   2.0000      -0.708645       -19.2832
  17   2.0000      -0.686002       -18.6671
  18   2.0000      -0.678218       -18.4552
  19   2.0000      -0.665131       -18.0991
  20   2.0000      -0.636040       -17.3075
  21   2.0000      -0.617852       -16.8126
  22   2.0000      -0.594464       -16.1762
  23   2.0000      -0.567676       -15.4473
  24   2.0000      -0.557034       -15.1577
  25   2.0000      -0.520776       -14.1710
  26   2.0000      -0.519458       -14.1352
  27   2.0000      -0.496342       -13.5061
  28   2.0000      -0.472577       -12.8595
  29   2.0000      -0.458463       -12.4754
  30   2.0000      -0.429185       -11.6787
  31   2.0000      -0.423878       -11.5343
  32   0.0000       0.123876         3.3708
  33   0.0000       0.131199         3.5701
  34   0.0000       0.141227         3.8430
  35   0.0000       0.167373         4.5545
  36   0.0000       0.170624         4.6429

MULLIKEN ATOMIC CHARGES
-----------------------
   0 O :   -0.483129
   1 C :   -0.032138
   2 C :   -0.095047
   3 C :   -0.082374
   4 O :   -0.463708
   5 C :   -0.208409
   6 C :    0.109347
   7 O :   -0.307337
   8 H :    0.329182
   9 H :    0.129148
  10 H :    0.090511
  11 H :    0.117162
  12 H :    0.100172
  13 H :    0.100167
  14 H :    0.317966
  15 H :    0.137588
  16 H :    0.144303
  17 H :    0.096596
Sum of atomic charges:   -0.0000000

LOEWDIN ATOMIC CHARGES
----------------------
   0 O :   -0.042480
   1 C :   -0.324884
   2 C :   -0.272680
   3 C :   -0.331297
   4 O :   -0.041210
   5 C :   -0.248083
   6 C :   -0.288530
   7 O :    0.117277
   8 H :    0.173436
   9 H :    0.124168
  10 H :    0.127793
  11 H :    0.161723
  12 H :    0.118668
  13 H :    0.117572
  14 H :    0.174230
  15 H :    0.156965
  16 H :    0.162065
  17 H :    0.115267

  Mayer bond orders larger than 0.1
B(  0-O ,  1-C ) :   0.9469 B(  0-O ,  8-H ) :   0.8273 B(  1-C ,  2-C ) :   0.9542
B(  1-C ,  9-H ) :   0.9423 B(  1-C , 10-H ) :   0.9173 B(  2-C ,  3-C ) :   0.9267
B(  2-C ,  5-C ) :   0.8697 B(  2-C , 11-H ) :   0.9169 B(  3-C ,  4-O ) :   1.0219
B(  3-C , 12-H ) :   0.9221 B(  3-C , 13-H ) :   0.9308 B(  4-O , 14-H ) :   0.8468
B(  5-C ,  6-C ) :   0.9038 B(  5-C , 15-H ) :   0.9084 B(  5-C , 16-H ) :   0.8839
B(  6-C ,  7-O ) :   1.9243 B(  6-C , 17-H ) :   0.9459

MP2 TOTAL ENERGY:     -421.418356805 Eh
FINAL SINGLE POINT ENERGY      -421.418356804944

DIPOLE MOMENT
-------------
                                X             Y             Z
Electronic contribution:      0.72871       0.78320       4.31991
Nuclear contribution   :     -1.58507      -1.72789      -5.46600
                        -----------------------------------------
Total Dipole Moment    :     -0.85636      -0.94469      -1.14609
                        -----------------------------------------
Magnitude (a.u.)       :      1.71444
Magnitude (Debye)      :      4.35776

                             ****ORCA TERMINATED NORMALLY****
TOTAL RUN TIME: 0 days 0 hours 11 minutes 44 seconds 261 msec
