                         Program Version 3.0.3 - RELEASE   -
|  1> ! RI-MP2 RIJK def2-TZVP def2-TZVP/C def2-TZVP/JK TIGHTSCF
|  2> % maxcore 2000
|  3> % mp2 density relaxed end
|  4> *xyz 0 1
|  5>  N       -0.1302772399     1.3404995372     0.0427390202
|  6>  C       -0.1043710235     0.0929508004     0.2008620815
|  7>  O       -1.1236329232    -0.6622768643    -0.3008812318
|  8>  C       -0.9814057826    -2.0216814048    -0.1766857909
|  9>  C       -2.0308613037    -3.0960607502    -0.0327475670
| 10>  C       -1.4850518855    -3.8770913574    -1.2268415295
| 11>  C       -0.1446168653    -3.1567824854    -0.9314040841
| 12>  O        0.2698450988    -3.7019778339     0.3502799315
| 13>  C       -0.8141569250    -2.9951200583     0.9405998892
| 14>  H        0.6848589450     1.7648902643     0.4809161836
| 15>  H        0.6549901090    -0.5048728298     0.7182501101
| 16>  H       -3.0470804366    -2.9913357051     0.3236207472
| 17>  H       -1.4578428714    -4.9691318075    -1.1802432309
| 18>  H       -1.9317351753    -3.5363122937    -2.1636955060
| 19>  H        0.6655965625    -3.0647295855    -1.6508197641
| 20>  H       -0.8934904635    -2.9287851061     2.0169591411
| 21> *
| 22>
| 23>                          ****END OF INPUT****

CARTESIAN COORDINATES (ANGSTROEM)
---------------------------------
  N     -0.130277    1.340500    0.042739
  C     -0.104371    0.092951    0.200862
  O     -1.123633   -0.662277   -0.300881
  C     -0.981406   -2.021681   -0.176686
  C     -2.030861   -3.096061   -0.032748
  C     -1.485052   -3.877091   -1.226842
  C     -0.144617   -3.156782   -0.931404
  O      0.269845   -3.701978    0.350280
  C     -0.814157   -2.995120    0.940600
  H      0.684859    1.764890    0.480916
  H      0.654990   -0.504873    0.718250
  H     -3.047080   -2.991336    0.323621
  H     -1.457843   -4.969132   -1.180243
  H     -1.931735   -3.536312   -2.163696
  H      0.665597   -3.064730   -1.650820
  H     -0.893490   -2.928785    2.016959

 Total Charge           Charge          ....    0
 Multiplicity           Mult            ....    1
 Number of Electrons    NEL             ....   66
 Basis Dimension        Dim             ....  321

ORBITAL ENERGIES
----------------

  NO   OCC          E(Eh)            E(eV)
   0   2.0000     -20.615000      -560.9627
   1   2.0000     -20.569458      -559.7234
   2   2.0000     -15.551856      -423.1875
   3   2.0000     -11.347496      -308.7811
   4   2.0000     -11.314361      -307.8794
   5   2.0000     -11.308895      -307.7307
   6   2.0000     -11.304315      -307.6061
   7   2.0000     -11.254582      -306.2528
   8   2.0000     -11.243742      -305.9578
   9   2.0000      -1.453356       -39.5478
  10   2.0000      -1.415330       -38.5131
  11   2.0000      -1.213936       -33.0329
  12   2.0000      -1.160143       -31.5691
  13   2.0000      -0.999751       -27.2046
  14   2.0000      -0.905827       -24.6488
  15   2.0000      -0.864841       -23.5335
  16   2.0000      -0.793590       -21.5947
  17   2.0000      -0.776637       -21.1334
  18   2.0000      -0.743191       -20.2233
  19   2.0000      -0.685425       -18.6514
  20   2.0000      -0.668250       -18.1840
  21   2.0000      -0.657565       -17.8933
  22   2.0000      -0.628121       -17.0920
  23   2.0000      -0.603037       -16.4095
  24   2.0000      -0.585965       -15.9449
  25   2.0000      -0.560188       -15.2435
  26   2.0000      -0.536836       -14.6080
  27   2.0000      -0.498175       -13.5560
  28   2.0000      -0.458625       -12.4798
  29   2.0000      -0.450906       -12.2698
  30   2.0000      -0.417291       -11.3551
  31   2.0000      -0.408073       -11.1042
  32   2.0000      -0.383985       -10.4488
  33   0.0000       0.144934         3.9439
  34   0.0000       0.147734         4.0200
  35   0.0000       0.154208         4.1962
  36   0.0000       0.166185         4.5221
  37   0.0000       0.172531         4.6948

MULLIKEN ATOMIC CHARGES
-----------------------
   0 N :   -0.322401
   1 C :    0.062622
   2 O :   -0.206602
   3 C :    0.032739
   4 C :   -0.131593
   5 C :   -0.192426
   6 C :    0.051040
   7 O :   -0.306983
   8 C :   -0.029699
   9 H :    0.232038
  10 H :    0.112861
  11 H :    0.151037
  12 H :    0.123484
  13 H :    0.127912
  14 H :    0.142966
  15 H :    0.153005
Sum of atomic charges:    0.0000000

LOEWDIN ATOMIC CHARGES
----------------------
   0 N :   -0.065432
   1 C :   -0.368281
   2 O :    0.296405
   3 C :   -0.265392
   4 C :   -0.142522
   5 C :   -0.200683
   6 C :   -0.182577
   7 O :    0.173807
   8 C :   -0.222718
   9 H :    0.171859
  10 H :    0.117496
  11 H :    0.142943
  12 H :    0.130672
  13 H :    0.145788
  14 H :    0.130715
  15 H :    0.137919

  Mayer bond orders larger than 0.1
B(  0-N ,  1-C ) :   1.9847 B(  0-N ,  9-H ) :   0.8466 B(  1-C ,  2-O ) :   0.9764
B(  1-C , 10-H ) :   0.9257 B(  2-O ,  3-C ) :   0.9842 B(  3-C ,  4-C ) :   0.8401
B(  3-C ,  6-C ) :   0.8882 B(  3-C ,  8-C ) :   0.9426 B(  4-C ,  5-C ) :   0.9286
B(  4-C ,  8-C ) :   0.8248 B(  4-C , 11-H ) :   0.9132 B(  5-C ,  6-C ) :   0.9240
B(  5-C , 12-H ) :   0.9207 B(  5-C , 13-H ) :   0.9222 B(  6-C ,  7-O ) :   0.8926
B(  6-C , 14-H ) :   0.9109 B(  7-O ,  8-C ) :   0.9721 B(  8-C , 15-H ) :   0.9123

MP2 TOTAL ENERGY:     -437.069571550 Eh
FINAL SINGLE POINT ENERGY      -437.069571549927

DIPOLE MOMENT
-------------
                                X             Y             Z
Electronic contribution:      0.63100       1.67271       0.85253
Nuclear contribution   :     -0.38461      -2.18679      -0.58287
                        -----------------------------------------
Total Dipole Moment    :      0.24639      -0.51408       0.26966
                        -----------------------------------------
Magnitude (a.u.)       :      0.63064
Magnitude (Debye)      :      1.60295

                             ****ORCA TERMINATED NORMALLY****
TOTAL RUN TIME: 0 days 0 hours 14 minutes 25 seconds 479 msec
