                         Program Version 3.0.3 - RELEASE   -
|  1> ! RI-MP2 RIJK def2-TZVP def2-TZVP/C def2-TZVP/JK TIGHTSCF
|  2> % maxcore 2000
|  3> % mp2 density relaxed end
|  4> *xyz 0 1
|  5>  C       -0.0195522758     1.5669090187     0.0115347115
|  6>  C       -0.0264440231     0.0660200619     0.0027290384
|  7>  C        0.7114551898    -0.8569523996    -1.0444745393
|  8>  C        1.7092968535    -1.2996815398     0.0476099979
|  9>  C        0.6468836273    -0.8691322797     1.0821397769
| 10>  C       -0.6041662385    -1.8319881976     0.9809129968
| 11>  O       -0.3934649965    -2.8492277193    -0.0251109398
| 12>  C       -0.5430963118    -1.8204697470    -1.0303586034
| 13>  C       -1.2742435218    -0.8716921924    -0.0405296017
| 14>  H        1.0023433940     1.9623894015     0.0447401779
| 15>  H       -0.5022299030     1.9723999808    -0.8858729732
| 16>  H       -0.5557771594     1.9622712502     0.8826792829
| 17>  H        1.0568479091    -0.5142488267    -2.0209950634
| 18>  H        2.0274597277    -2.3444284791     0.0512863778
| 19>  H        2.5807537572    -0.6399852915     0.0778487465
| 20>  H        0.9322764679    -0.5377454318     2.0816736451
| 21>  H       -1.0423184955    -2.2273501367     1.8980374493
| 22>  H       -0.9246624004    -2.2051590496    -1.9768401478
| 23>  H       -2.3290871607    -0.6020154923    -0.0710147025
| 24> *
| 25>
| 26>                          ****END OF INPUT****

CARTESIAN COORDINATES (ANGSTROEM)
---------------------------------
  C     -0.019552    1.566909    0.011535
  C     -0.026444    0.066020    0.002729
  C      0.711455   -0.856952   -1.044475
  C      1.709297   -1.299682    0.047610
  C      0.646884   -0.869132    1.082140
  C     -0.604166   -1.831988    0.980913
  O     -0.393465   -2.849228   -0.025111
  C     -0.543096   -1.820470   -1.030359
  C     -1.274244   -0.871692   -0.040530
  H      1.002343    1.962389    0.044740
  H     -0.502230    1.972400   -0.885873
  H     -0.555777    1.962271    0.882679
  H      1.056848   -0.514249   -2.020995
  H      2.027460   -2.344428    0.051286
  H      2.580754   -0.639985    0.077849
  H      0.932276   -0.537745    2.081674
  H     -1.042318   -2.227350    1.898037
  H     -0.924662   -2.205159   -1.976840
  H     -2.329087   -0.602015   -0.071015

 Total Charge           Charge          ....    0
 Multiplicity           Mult            ....    1
 Number of Electrons    NEL             ....   66
 Basis Dimension        Dim             ....  339

ORBITAL ENERGIES
----------------

  NO   OCC          E(Eh)            E(eV)
   0   2.0000     -20.543743      -559.0237
   1   2.0000     -11.281456      -306.9840
   2   2.0000     -11.281446      -306.9837
   3   2.0000     -11.236159      -305.7514
   4   2.0000     -11.227476      -305.5152
   5   2.0000     -11.227469      -305.5150
   6   2.0000     -11.226633      -305.4922
   7   2.0000     -11.220797      -305.3334
   8   2.0000     -11.218119      -305.2605
   9   2.0000      -1.385200       -37.6932
  10   2.0000      -1.174214       -31.9520
  11   2.0000      -1.001817       -27.2608
  12   2.0000      -0.980744       -26.6874
  13   2.0000      -0.978378       -26.6230
  14   2.0000      -0.817269       -22.2390
  15   2.0000      -0.807914       -21.9844
  16   2.0000      -0.785361       -21.3708
  17   2.0000      -0.710638       -19.3374
  18   2.0000      -0.654330       -17.8052
  19   2.0000      -0.647829       -17.6283
  20   2.0000      -0.614962       -16.7340
  21   2.0000      -0.608927       -16.5698
  22   2.0000      -0.566983       -15.4284
  23   2.0000      -0.566887       -15.4258
  24   2.0000      -0.554377       -15.0854
  25   2.0000      -0.546083       -14.8597
  26   2.0000      -0.513907       -13.9841
  27   2.0000      -0.467979       -12.7344
  28   2.0000      -0.438571       -11.9341
  29   2.0000      -0.420006       -11.4289
  30   2.0000      -0.404490       -11.0067
  31   2.0000      -0.381842       -10.3904
  32   2.0000      -0.378752       -10.3064
  33   0.0000       0.136177         3.7056
  34   0.0000       0.150981         4.1084
  35   0.0000       0.168434         4.5833
  36   0.0000       0.170494         4.6394
  37   0.0000       0.190428         5.1818

MULLIKEN ATOMIC CHARGES
-----------------------
   0 C :   -0.392867
   1 C :    0.048649
   2 C :   -0.076610
   3 C :   -0.287954
   4 C :   -0.076610
   5 C :    0.007483
   6 O :   -0.316480
   7 C :    0.007483
   8 C :   -0.166448
   9 H :    0.135013
  10 H :    0.131659
  11 H :    0.131659
  12 H :    0.117489
  13 H :    0.125339
  14 H :    0.119725
  15 H :    0.117489
  16 H :    0.123749
  17 H :    0.123749
  18 H :    0.127483
Sum of atomic charges:   -0.0000000

LOEWDIN ATOMIC CHARGES
----------------------
   0 C :   -0.282116
   1 C :   -0.180230
   2 C :   -0.139398
   3 C :   -0.206993
   4 C :   -0.139398
   5 C :   -0.199203
   6 O :    0.159975
   7 C :   -0.199203
   8 C :   -0.118025
   9 H :    0.129706
  10 H :    0.128759
  11 H :    0.128758
  12 H :    0.132018
  13 H :    0.131738
  14 H :    0.139114
  15 H :    0.132018
  16 H :    0.126286
  17 H :    0.126286
  18 H :    0.129911

  Mayer bond orders larger than 0.1
B(  0-C ,  1-C ) :   0.8159 B(  0-C ,  9-H ) :   0.9450 B(  0-C , 10-H ) :   0.9420
B(  0-C , 11-H ) :   0.9420 B(  1-C ,  2-C ) :   0.9417 B(  1-C ,  4-C ) :   0.9417
B(  1-C ,  8-C ) :   1.0375 B(  2-C ,  3-C ) :   0.9417 B(  2-C ,  7-C ) :   0.8636
B(  2-C , 12-H ) :   0.9098 B(  3-C ,  4-C ) :   0.9417 B(  3-C , 13-H ) :   0.8926
B(  3-C , 14-H ) :   0.9225 B(  4-C ,  5-C ) :   0.8636 B(  4-C , 15-H ) :   0.9098
B(  5-C ,  6-O ) :   0.9657 B(  5-C ,  8-C ) :   0.9356 B(  5-C , 16-H ) :   0.9138
B(  6-O ,  7-C ) :   0.9657 B(  7-C ,  8-C ) :   0.9356 B(  7-C , 17-H ) :   0.9138
B(  8-C , 18-H ) :   0.9191

MP2 TOTAL ENERGY:     -385.140378811 Eh
FINAL SINGLE POINT ENERGY      -385.140378810507

DIPOLE MOMENT
-------------
                                X             Y             Z
Electronic contribution:     -1.93877      -5.43770      -0.09001
Nuclear contribution   :      1.85662       6.19878       0.09187
                        -----------------------------------------
Total Dipole Moment    :     -0.08216       0.76108       0.00186
                        -----------------------------------------
Magnitude (a.u.)       :      0.76550
Magnitude (Debye)      :      1.94575

                             ****ORCA TERMINATED NORMALLY****
TOTAL RUN TIME: 0 days 0 hours 21 minutes 6 seconds 198 msec
