                         Program Version 3.0.3 - RELEASE   -
|  1> ! RI-MP2 RIJK def2-TZVP def2-TZVP/C def2-TZVP/JK TIGHTSCF
|  2> % maxcore 2000
|  3> % mp2 density relaxed end
|  4> *xyz 0 1
|  5>  O        0.2083359061     1.3194499216     0.1154772647
|  6>  C        0.2160971608    -0.0628437427    -0.0107427688
|  7>  C        0.0139234972    -0.6682826928    -1.4404344743
|  8>  C       -0.5110048749    -1.9583326781    -0.8075741405
|  9>  C       -1.1433490597    -0.7684390296    -0.0533596085
| 10>  C       -1.3430058864    -0.6849227429     1.4571407301
| 11>  C        0.2610557902    -0.6612361157     1.4607379413
| 12>  O        1.0799838740    -1.0662200768     2.2159947401
| 13>  O       -1.4143097398    -0.1046884273    -1.3721656936
| 14>  H       -0.4439247475     1.6279032133    -0.5364864222
| 15>  H        0.5213167197    -0.4931261653    -2.3921020451
| 16>  H       -1.2062337072    -2.5273181137    -1.4235018217
| 17>  H        0.2022972315    -2.5887350957    -0.2714939053
| 18>  H       -1.7138169068     0.2853382346     1.7951570556
| 19>  H       -1.8408531073    -1.4970221489     1.9887085683
| 20> *
| 21>
| 22>                          ****END OF INPUT****

CARTESIAN COORDINATES (ANGSTROEM)
---------------------------------
  O      0.208336    1.319450    0.115477
  C      0.216097   -0.062844   -0.010743
  C      0.013923   -0.668283   -1.440434
  C     -0.511005   -1.958333   -0.807574
  C     -1.143349   -0.768439   -0.053360
  C     -1.343006   -0.684923    1.457141
  C      0.261056   -0.661236    1.460738
  O      1.079984   -1.066220    2.215995
  O     -1.414310   -0.104688   -1.372166
  H     -0.443925    1.627903   -0.536486
  H      0.521317   -0.493126   -2.392102
  H     -1.206234   -2.527318   -1.423502
  H      0.202297   -2.588735   -0.271494
  H     -1.713817    0.285338    1.795157
  H     -1.840853   -1.497022    1.988709

 Total Charge           Charge          ....    0
 Multiplicity           Mult            ....    1
 Number of Electrons    NEL             ....   66
 Basis Dimension        Dim             ....  315

ORBITAL ENERGIES
----------------

  NO   OCC          E(Eh)            E(eV)
   0   2.0000     -20.585849      -560.1694
   1   2.0000     -20.582695      -560.0836
   2   2.0000     -20.582117      -560.0679
   3   2.0000     -11.371873      -309.4444
   4   2.0000     -11.339236      -308.5563
   5   2.0000     -11.320463      -308.0455
   6   2.0000     -11.314287      -307.8774
   7   2.0000     -11.279021      -306.9178
   8   2.0000     -11.262896      -306.4790
   9   2.0000      -1.439189       -39.1623
  10   2.0000      -1.422196       -38.6999
  11   2.0000      -1.372111       -37.3370
  12   2.0000      -1.155780       -31.4504
  13   2.0000      -1.043747       -28.4018
  14   2.0000      -0.930338       -25.3158
  15   2.0000      -0.863593       -23.4996
  16   2.0000      -0.820968       -22.3397
  17   2.0000      -0.745812       -20.2946
  18   2.0000      -0.705519       -19.1981
  19   2.0000      -0.695273       -18.9194
  20   2.0000      -0.659751       -17.9527
  21   2.0000      -0.656093       -17.8532
  22   2.0000      -0.644222       -17.5302
  23   2.0000      -0.606721       -16.5097
  24   2.0000      -0.570035       -15.5114
  25   2.0000      -0.557209       -15.1624
  26   2.0000      -0.544919       -14.8280
  27   2.0000      -0.541533       -14.7359
  28   2.0000      -0.511616       -13.9218
  29   2.0000      -0.487756       -13.2725
  30   2.0000      -0.456498       -12.4219
  31   2.0000      -0.412735       -11.2311
  32   2.0000      -0.387376       -10.5410
  33   0.0000       0.109920         2.9911
  34   0.0000       0.142831         3.8866
  35   0.0000       0.150277         4.0892
  36   0.0000       0.162096         4.4109
  37   0.0000       0.178318         4.8523

MULLIKEN ATOMIC CHARGES
-----------------------
   0 O :   -0.456663
   1 C :    0.149074
   2 C :   -0.028976
   3 C :   -0.185075
   4 C :    0.041214
   5 C :   -0.192938
   6 C :    0.137095
   7 O :   -0.191799
   8 O :   -0.324041
   9 H :    0.331108
  10 H :    0.142843
  11 H :    0.136437
  12 H :    0.137386
  13 H :    0.152110
  14 H :    0.152226
Sum of atomic charges:   -0.0000000

LOEWDIN ATOMIC CHARGES
----------------------
   0 O :    0.046804
   1 C :   -0.278437
   2 C :   -0.166578
   3 C :   -0.168131
   4 C :   -0.248800
   5 C :   -0.163172
   6 C :   -0.236095
   7 O :    0.203864
   8 O :    0.107599
   9 H :    0.191174
  10 H :    0.127812
  11 H :    0.141769
  12 H :    0.143581
  13 H :    0.159512
  14 H :    0.139099

  Mayer bond orders larger than 0.1
B(  0-O ,  1-C ) :   1.0206 B(  0-O ,  9-H ) :   0.7989 B(  1-C ,  2-C ) :   0.9382
B(  1-C ,  4-C ) :   0.8250 B(  1-C ,  6-C ) :   0.7852 B(  2-C ,  3-C ) :   0.9383
B(  2-C ,  8-O ) :   0.8093 B(  2-C , 10-H ) :   0.8841 B(  3-C ,  4-C ) :   0.9690
B(  3-C , 11-H ) :   0.9108 B(  3-C , 12-H ) :   0.8923 B(  4-C ,  5-C ) :   0.8771
B(  4-C ,  8-O ) :   0.8814 B(  5-C ,  6-C ) :   0.8605 B(  5-C , 13-H ) :   0.8889
B(  5-C , 14-H ) :   0.9032 B(  6-C ,  7-O ) :   2.0674

MP2 TOTAL ENERGY:     -456.887912291 Eh
FINAL SINGLE POINT ENERGY      -456.887912290661

DIPOLE MOMENT
-------------
                                X             Y             Z
Electronic contribution:      1.99786       1.69817       1.29748
Nuclear contribution   :     -2.55788      -2.14529      -1.75333
                        -----------------------------------------
Total Dipole Moment    :     -0.56002      -0.44712      -0.45585
                        -----------------------------------------
Magnitude (a.u.)       :      0.84931
Magnitude (Debye)      :      2.15879

                             ****ORCA TERMINATED NORMALLY****
TOTAL RUN TIME: 0 days 0 hours 16 minutes 36 seconds 378 msec
