                         Program Version 3.0.3 - RELEASE   -
|  1> ! RI-MP2 RIJK def2-TZVP def2-TZVP/C def2-TZVP/JK TIGHTSCF
|  2> % maxcore 2000
|  3> % mp2 density relaxed end
|  4> *xyz 0 1
|  5>  C       -0.0739175534     1.3273126718     0.1138789194
|  6>  O        0.0007293637    -0.0746580643     0.0182442879
|  7>  C        0.6584040039    -0.5071879384    -1.1521316958
|  8>  C        0.6716414100    -2.0287600489    -1.1350715810
|  9>  C        1.3550211554    -2.6084117272    -2.3521687568
| 10>  O        1.8377629183    -1.9709124845    -3.2556010870
| 11>  O        1.3587652598    -3.9555479468    -2.3046151012
| 12>  C        1.9843764847    -4.6067527424    -3.4171762101
| 13>  H        0.9257504575     1.7896497022     0.1379176605
| 14>  H       -0.6319034762     1.7658248216    -0.7287453830
| 15>  H       -0.5952357887     1.5648328312     1.0443702415
| 16>  H        0.1432120167    -0.1396334378    -2.0534195754
| 17>  H        1.6872362437    -0.1163592339    -1.1941374711
| 18>  H        1.1768640325    -2.3959649171    -0.2351618299
| 19>  H       -0.3511576231    -2.4178797455    -1.0836504177
| 20>  H        3.0346136431    -4.3143061777    -3.4955978010
| 21>  H        1.8995532401    -5.6756516098    -3.2212240832
| 22>  H        1.4788603722    -4.3476217725    -4.3509709961
| 23> *
| 24>
| 25>                          ****END OF INPUT****

CARTESIAN COORDINATES (ANGSTROEM)
---------------------------------
  C     -0.073918    1.327313    0.113879
  O      0.000729   -0.074658    0.018244
  C      0.658404   -0.507188   -1.152132
  C      0.671641   -2.028760   -1.135072
  C      1.355021   -2.608412   -2.352169
  O      1.837763   -1.970912   -3.255601
  O      1.358765   -3.955548   -2.304615
  C      1.984376   -4.606753   -3.417176
  H      0.925750    1.789650    0.137918
  H     -0.631903    1.765825   -0.728745
  H     -0.595236    1.564833    1.044370
  H      0.143212   -0.139633   -2.053420
  H      1.687236   -0.116359   -1.194137
  H      1.176864   -2.395965   -0.235162
  H     -0.351158   -2.417880   -1.083650
  H      3.034614   -4.314306   -3.495598
  H      1.899553   -5.675652   -3.221224
  H      1.478860   -4.347622   -4.350971

 Total Charge           Charge          ....    0
 Multiplicity           Mult            ....    1
 Number of Electrons    NEL             ....   64
 Basis Dimension        Dim             ....  308

ORBITAL ENERGIES
----------------

  NO   OCC          E(Eh)            E(eV)
   0   2.0000     -20.603137      -560.6399
   1   2.0000     -20.558649      -559.4293
   2   2.0000     -20.544893      -559.0549
   3   2.0000     -11.380138      -309.6693
   4   2.0000     -11.286035      -307.1086
   5   2.0000     -11.279163      -306.9216
   6   2.0000     -11.272184      -306.7317
   7   2.0000     -11.242778      -305.9315
   8   2.0000      -1.461773       -39.7769
   9   2.0000      -1.380300       -37.5599
  10   2.0000      -1.361257       -37.0417
  11   2.0000      -1.064095       -28.9555
  12   2.0000      -0.978672       -26.6310
  13   2.0000      -0.923480       -25.1292
  14   2.0000      -0.852297       -23.1922
  15   2.0000      -0.772652       -21.0249
  16   2.0000      -0.708111       -19.2687
  17   2.0000      -0.689064       -18.7504
  18   2.0000      -0.678939       -18.4749
  19   2.0000      -0.665412       -18.1068
  20   2.0000      -0.645232       -17.5577
  21   2.0000      -0.622532       -16.9400
  22   2.0000      -0.601035       -16.3550
  23   2.0000      -0.578916       -15.7531
  24   2.0000      -0.544654       -14.8208
  25   2.0000      -0.530198       -14.4274
  26   2.0000      -0.515239       -14.0204
  27   2.0000      -0.506073       -13.7709
  28   2.0000      -0.484490       -13.1836
  29   2.0000      -0.465975       -12.6798
  30   2.0000      -0.451143       -12.2762
  31   2.0000      -0.426263       -11.5992
  32   0.0000       0.137871         3.7517
  33   0.0000       0.153523         4.1776
  34   0.0000       0.166915         4.5420
  35   0.0000       0.170182         4.6309
  36   0.0000       0.197124         5.3640

MULLIKEN ATOMIC CHARGES
-----------------------
   0 C :   -0.210526
   1 O :   -0.304110
   2 C :   -0.049027
   3 C :   -0.188667
   4 C :    0.286120
   5 O :   -0.335948
   6 O :   -0.256480
   7 C :   -0.221156
   8 H :    0.112353
   9 H :    0.112380
  10 H :    0.138619
  11 H :    0.101992
  12 H :    0.101569
  13 H :    0.144609
  14 H :    0.144479
  15 H :    0.139457
  16 H :    0.144848
  17 H :    0.139487
Sum of atomic charges:   -0.0000000

LOEWDIN ATOMIC CHARGES
----------------------
   0 C :   -0.360691
   1 O :    0.131845
   2 C :   -0.321605
   3 C :   -0.231808
   4 C :   -0.477783
   5 O :    0.122864
   6 O :    0.225900
   7 C :   -0.311088
   8 H :    0.101814
   9 H :    0.101823
  10 H :    0.113266
  11 H :    0.124057
  12 H :    0.123967
  13 H :    0.157577
  14 H :    0.157736
  15 H :    0.113689
  16 H :    0.114744
  17 H :    0.113692

  Mayer bond orders larger than 0.1
B(  0-C ,  1-O ) :   0.9166 B(  0-C ,  8-H ) :   0.9373 B(  0-C ,  9-H ) :   0.9373
B(  0-C , 10-H ) :   0.9394 B(  1-O ,  2-C ) :   0.9598 B(  2-C ,  3-C ) :   0.9533
B(  2-C , 11-H ) :   0.9233 B(  2-C , 12-H ) :   0.9233 B(  3-C ,  4-C ) :   0.9400
B(  3-C , 13-H ) :   0.9051 B(  3-C , 14-H ) :   0.9043 B(  4-C ,  5-O ) :   1.9062
B(  4-C ,  6-O ) :   1.1359 B(  6-O ,  7-C ) :   0.8386 B(  7-C , 15-H ) :   0.9390
B(  7-C , 16-H ) :   0.9338 B(  7-C , 17-H ) :   0.9391

MP2 TOTAL ENERGY:     -421.430839866 Eh
FINAL SINGLE POINT ENERGY      -421.430839865806

DIPOLE MOMENT
-------------
                                X             Y             Z
Electronic contribution:      0.91459      -3.60588      -1.56355
Nuclear contribution   :     -0.91818       3.39099       1.58411
                        -----------------------------------------
Total Dipole Moment    :     -0.00359      -0.21489       0.02056
                        -----------------------------------------
Magnitude (a.u.)       :      0.21591
Magnitude (Debye)      :      0.54879

                             ****ORCA TERMINATED NORMALLY****
TOTAL RUN TIME: 0 days 0 hours 9 minutes 48 seconds 330 msec
