                         Program Version 3.0.3 - RELEASE   -
|  1> ! RI-MP2 RIJK def2-TZVP def2-TZVP/C def2-TZVP/JK TIGHTSCF
|  2> % maxcore 2000
|  3> % mp2 density relaxed end
|  4> *xyz 0 1
|  5>  C       -0.0915278044     1.5781549741     0.0299269134
|  6>  C       -0.0293936603     0.0447139210    -0.0074805827
|  7>  C        0.6558700321    -0.4881361551    -1.2426097591
|  8>  C        0.1139518751    -0.3410794928    -2.6776671149
|  9>  C        1.1931089814    -1.3976235575    -2.9849780828
| 10>  O        2.4069834156    -0.6526447729    -2.7885649938
| 11>  C        2.2484442741    -0.4278896066    -1.3796454760
| 12>  C        2.3336251569    -1.8632834800    -0.8133417682
| 13>  C        0.9874651862    -2.0075055722    -1.5349689436
| 14>  H        0.9113036107     2.0176263240     0.0148550056
| 15>  H       -0.6382572620     1.9730652831    -0.8324560990
| 16>  H       -0.5965072414     1.9291437896     0.9349013681
| 17>  H        0.4859928546    -0.3207194914     0.8903131901
| 18>  H       -1.0479607551    -0.3624055961     0.0412801427
| 19>  H       -0.9030079770    -0.7401939186    -2.7444270498
| 20>  H        0.1936919553     0.6122248458    -3.2068755374
| 21>  H        1.2367150573    -1.9837395884    -3.9013582577
| 22>  H        2.8666392543     0.4030139301    -1.0421634187
| 23>  H        3.1909762737    -2.4620342641    -1.1299735307
| 24>  H        2.2096032504    -1.9083013797     0.2715284969
| 25>  H        0.2794309024    -2.8233891925    -1.3971710025
| 26> *
| 27>
| 28>                          ****END OF INPUT****

CARTESIAN COORDINATES (ANGSTROEM)
---------------------------------
  C     -0.091528    1.578155    0.029927
  C     -0.029394    0.044714   -0.007481
  C      0.655870   -0.488136   -1.242610
  C      0.113952   -0.341079   -2.677667
  C      1.193109   -1.397624   -2.984978
  O      2.406983   -0.652645   -2.788565
  C      2.248444   -0.427890   -1.379645
  C      2.333625   -1.863283   -0.813342
  C      0.987465   -2.007506   -1.534969
  H      0.911304    2.017626    0.014855
  H     -0.638257    1.973065   -0.832456
  H     -0.596507    1.929144    0.934901
  H      0.485993   -0.320719    0.890313
  H     -1.047961   -0.362406    0.041280
  H     -0.903008   -0.740194   -2.744427
  H      0.193692    0.612225   -3.206876
  H      1.236715   -1.983740   -3.901358
  H      2.866639    0.403014   -1.042163
  H      3.190976   -2.462034   -1.129974
  H      2.209603   -1.908301    0.271528
  H      0.279431   -2.823389   -1.397171

 Total Charge           Charge          ....    0
 Multiplicity           Mult            ....    1
 Number of Electrons    NEL             ....   68
 Basis Dimension        Dim             ....  351

ORBITAL ENERGIES
----------------

  NO   OCC          E(Eh)            E(eV)
   0   2.0000     -20.546360      -559.0949
   1   2.0000     -11.280226      -306.9505
   2   2.0000     -11.279837      -306.9400
   3   2.0000     -11.239442      -305.8408
   4   2.0000     -11.233475      -305.6784
   5   2.0000     -11.226403      -305.4859
   6   2.0000     -11.220792      -305.3333
   7   2.0000     -11.219086      -305.2869
   8   2.0000     -11.216796      -305.2245
   9   2.0000      -1.390022       -37.8244
  10   2.0000      -1.144262       -31.1370
  11   2.0000      -1.033993       -28.1364
  12   2.0000      -1.025317       -27.9003
  13   2.0000      -0.914040       -24.8723
  14   2.0000      -0.864722       -23.5303
  15   2.0000      -0.822693       -22.3866
  16   2.0000      -0.767832       -20.8938
  17   2.0000      -0.728988       -19.8368
  18   2.0000      -0.683213       -18.5912
  19   2.0000      -0.644515       -17.5381
  20   2.0000      -0.632209       -17.2033
  21   2.0000      -0.604463       -16.4483
  22   2.0000      -0.599246       -16.3063
  23   2.0000      -0.544564       -14.8183
  24   2.0000      -0.538268       -14.6470
  25   2.0000      -0.522685       -14.2230
  26   2.0000      -0.514993       -14.0137
  27   2.0000      -0.499040       -13.5796
  28   2.0000      -0.498091       -13.5538
  29   2.0000      -0.476462       -12.9652
  30   2.0000      -0.448625       -12.2077
  31   2.0000      -0.421401       -11.4669
  32   2.0000      -0.395761       -10.7692
  33   2.0000      -0.388304       -10.5663
  34   0.0000       0.135009         3.6738
  35   0.0000       0.156729         4.2648
  36   0.0000       0.163223         4.4415
  37   0.0000       0.172538         4.6950
  38   0.0000       0.191678         5.2158

MULLIKEN ATOMIC CHARGES
-----------------------
   0 C :   -0.404731
   1 C :   -0.195495
   2 C :    0.000402
   3 C :   -0.242983
   4 C :    0.020657
   5 O :   -0.326600
   6 C :    0.037906
   7 C :   -0.253799
   8 C :   -0.098537
   9 H :    0.126185
  10 H :    0.132111
  11 H :    0.136221
  12 H :    0.111204
  13 H :    0.110504
  14 H :    0.111283
  15 H :    0.119875
  16 H :    0.126999
  17 H :    0.124961
  18 H :    0.119758
  19 H :    0.116301
  20 H :    0.127779
Sum of atomic charges:    0.0000000

LOEWDIN ATOMIC CHARGES
----------------------
   0 C :   -0.309138
   1 C :   -0.258095
   2 C :   -0.191824
   3 C :   -0.191635
   4 C :   -0.234721
   5 O :    0.185021
   6 C :   -0.218425
   7 C :   -0.212790
   8 C :   -0.145657
   9 H :    0.121481
  10 H :    0.122934
  11 H :    0.121149
  12 H :    0.141687
  13 H :    0.141676
  14 H :    0.142703
  15 H :    0.128647
  16 H :    0.126927
  17 H :    0.128284
  18 H :    0.128180
  19 H :    0.139438
  20 H :    0.134159

  Mayer bond orders larger than 0.1
B(  0-C ,  1-C ) :   0.9221 B(  0-C ,  9-H ) :   0.9389 B(  0-C , 10-H ) :   0.9389
B(  0-C , 11-H ) :   0.9404 B(  1-C ,  2-C ) :   0.8998 B(  1-C , 12-H ) :   0.9281
B(  1-C , 13-H ) :   0.9263 B(  2-C ,  3-C ) :   0.9344 B(  2-C ,  6-C ) :   0.9063
B(  2-C ,  8-C ) :   0.8369 B(  3-C ,  4-C ) :   0.9195 B(  3-C , 14-H ) :   0.9184
B(  3-C , 15-H ) :   0.9134 B(  4-C ,  5-O ) :   0.9248 B(  4-C ,  8-C ) :   0.8972
B(  4-C , 16-H ) :   0.9143 B(  5-O ,  6-C ) :   0.9261 B(  6-C ,  7-C ) :   0.9421
B(  6-C , 17-H ) :   0.9059 B(  7-C ,  8-C ) :   0.9532 B(  7-C , 18-H ) :   0.9114
B(  7-C , 19-H ) :   0.9197 B(  8-C , 20-H ) :   0.9039

MP2 TOTAL ENERGY:     -386.380636586 Eh
FINAL SINGLE POINT ENERGY      -386.380636585582

DIPOLE MOMENT
-------------
                                X             Y             Z
Electronic contribution:      4.07375      -3.30951      -4.84062
Nuclear contribution   :     -4.60799       3.17999       5.33173
                        -----------------------------------------
Total Dipole Moment    :     -0.53424      -0.12952       0.49111
                        -----------------------------------------
Magnitude (a.u.)       :      0.73714
Magnitude (Debye)      :      1.87366

                             ****ORCA TERMINATED NORMALLY****
TOTAL RUN TIME: 0 days 0 hours 20 minutes 21 seconds 129 msec
