                         Program Version 3.0.3 - RELEASE   -
|  1> ! RI-MP2 RIJK def2-TZVP def2-TZVP/C def2-TZVP/JK TIGHTSCF
|  2> % maxcore 2000
|  3> % mp2 density relaxed end
|  4> *xyz 0 1
|  5>  O        0.1355944180     1.2762082631    -0.2868926401
|  6>  C        0.0776114739    -0.0799345551     0.1352545669
|  7>  C       -1.3514105440    -0.5833213691     0.1004556321
|  8>  C       -1.9458070682    -1.1984850000    -1.1141809293
|  9>  C       -1.7125496780    -2.0951337672     0.1105324220
| 10>  C       -0.6124206083    -3.1083362700    -0.0050771717
| 11>  O        0.3004488073    -3.0445991287    -0.7924547859
| 12>  C       -2.8339192081    -2.5011829695     0.9097008784
| 13>  C       -3.7568767032    -2.8706379112     1.5868243623
| 14>  H       -0.0835832361     1.2993929071    -1.2241549487
| 15>  H        0.7304732350    -0.7237311755    -0.4632018546
| 16>  H        0.4506639493    -0.0835232348     1.1644738052
| 17>  H       -2.0282167580     0.0000131603     0.7174885918
| 18>  H       -2.9780383110    -0.9917064151    -1.3689004657
| 19>  H       -1.2827201675    -1.4201856610    -1.9448985628
| 20>  H       -0.7077193654    -3.9559105970     0.7042204488
| 21>  H       -4.5770923658    -3.1885321864     2.1817116812
| 22> *
| 23>
| 24>                          ****END OF INPUT****

CARTESIAN COORDINATES (ANGSTROEM)
---------------------------------
  O      0.135594    1.276208   -0.286893
  C      0.077611   -0.079935    0.135255
  C     -1.351411   -0.583321    0.100456
  C     -1.945807   -1.198485   -1.114181
  C     -1.712550   -2.095134    0.110532
  C     -0.612421   -3.108336   -0.005077
  O      0.300449   -3.044599   -0.792455
  C     -2.833919   -2.501183    0.909701
  C     -3.756877   -2.870638    1.586824
  H     -0.083583    1.299393   -1.224155
  H      0.730473   -0.723731   -0.463202
  H      0.450664   -0.083523    1.164474
  H     -2.028217    0.000013    0.717489
  H     -2.978038   -0.991706   -1.368900
  H     -1.282720   -1.420186   -1.944899
  H     -0.707719   -3.955911    0.704220
  H     -4.577092   -3.188532    2.181712

 Total Charge           Charge          ....    0
 Multiplicity           Mult            ....    1
 Number of Electrons    NEL             ....   66
 Basis Dimension        Dim             ....  327

ORBITAL ENERGIES
----------------

  NO   OCC          E(Eh)            E(eV)
   0   2.0000     -20.565336      -559.6112
   1   2.0000     -20.562492      -559.5338
   2   2.0000     -11.348054      -308.7963
   3   2.0000     -11.287017      -307.1353
   4   2.0000     -11.285198      -307.0858
   5   2.0000     -11.269279      -306.6527
   6   2.0000     -11.261348      -306.4369
   7   2.0000     -11.251372      -306.1654
   8   2.0000     -11.239720      -305.8483
   9   2.0000      -1.407349       -38.2959
  10   2.0000      -1.366496       -37.1842
  11   2.0000      -1.190429       -32.3932
  12   2.0000      -1.047944       -28.5160
  13   2.0000      -0.970268       -26.4023
  14   2.0000      -0.933134       -25.3919
  15   2.0000      -0.826645       -22.4941
  16   2.0000      -0.799549       -21.7568
  17   2.0000      -0.750789       -20.4300
  18   2.0000      -0.716428       -19.4950
  19   2.0000      -0.689582       -18.7645
  20   2.0000      -0.671418       -18.2702
  21   2.0000      -0.647855       -17.6290
  22   2.0000      -0.618866       -16.8402
  23   2.0000      -0.598721       -16.2920
  24   2.0000      -0.566020       -15.4022
  25   2.0000      -0.558862       -15.2074
  26   2.0000      -0.519619       -14.1396
  27   2.0000      -0.483508       -13.1569
  28   2.0000      -0.474464       -12.9108
  29   2.0000      -0.463521       -12.6131
  30   2.0000      -0.439550       -11.9608
  31   2.0000      -0.399606       -10.8738
  32   2.0000      -0.373390       -10.1605
  33   0.0000       0.107449         2.9238
  34   0.0000       0.133146         3.6231
  35   0.0000       0.148950         4.0531
  36   0.0000       0.161657         4.3989
  37   0.0000       0.165134         4.4935

MULLIKEN ATOMIC CHARGES
-----------------------
   0 O :   -0.466875
   1 C :   -0.056986
   2 C :   -0.157939
   3 C :   -0.273977
   4 C :   -0.081938
   5 C :    0.092138
   6 O :   -0.288532
   7 C :   -0.007035
   8 C :   -0.116126
   9 H :    0.318413
  10 H :    0.151198
  11 H :    0.122801
  12 H :    0.143015
  13 H :    0.158698
  14 H :    0.158666
  15 H :    0.107623
  16 H :    0.196856
Sum of atomic charges:    0.0000000

LOEWDIN ATOMIC CHARGES
----------------------
   0 O :   -0.042508
   1 C :   -0.321730
   2 C :   -0.164752
   3 C :   -0.148443
   4 C :   -0.205675
   5 C :   -0.242889
   6 O :    0.132813
   7 C :   -0.077119
   8 C :   -0.082489
   9 H :    0.175403
  10 H :    0.129690
  11 H :    0.135153
  12 H :    0.163615
  13 H :    0.144083
  14 H :    0.148565
  15 H :    0.127044
  16 H :    0.129240

  Mayer bond orders larger than 0.1
B(  0-O ,  1-C ) :   0.9025 B(  0-O ,  9-H ) :   0.8462 B(  1-C ,  2-C ) :   0.9106
B(  1-C , 10-H ) :   0.9269 B(  1-C , 11-H ) :   0.9287 B(  2-C ,  3-C ) :   0.9480
B(  2-C ,  4-C ) :   0.7403 B(  2-C , 12-H ) :   0.9292 B(  3-C ,  4-C ) :   0.7771
B(  3-C , 13-H ) :   0.9264 B(  3-C , 14-H ) :   0.9103 B(  4-C ,  5-C ) :   0.9518
B(  4-C ,  7-C ) :   1.1279 B(  4-C ,  8-C ) :  -0.1431 B(  5-C ,  6-O ) :   1.9220
B(  5-C , 15-H ) :   0.9478 B(  7-C ,  8-C ) :   2.5858 B(  8-C , 16-H ) :   0.8806

MP2 TOTAL ENERGY:     -421.067938739 Eh
FINAL SINGLE POINT ENERGY      -421.067938739144

DIPOLE MOMENT
-------------
                                X             Y             Z
Electronic contribution:     -0.07101      -2.92823       0.42133
Nuclear contribution   :     -0.75736       2.80906      -0.42888
                        -----------------------------------------
Total Dipole Moment    :     -0.82837      -0.11917      -0.00755
                        -----------------------------------------
Magnitude (a.u.)       :      0.83693
Magnitude (Debye)      :      2.12732

                             ****ORCA TERMINATED NORMALLY****
TOTAL RUN TIME: 0 days 0 hours 25 minutes 35 seconds 39 msec
