                         Program Version 3.0.3 - RELEASE   -
|  1> ! RI-MP2 RIJK def2-TZVP def2-TZVP/C def2-TZVP/JK TIGHTSCF
|  2> % maxcore 2000
|  3> % mp2 density relaxed end
|  4> *xyz 0 1
|  5>  C       -0.0111164495     1.4548211894     0.0098889267
|  6>  C        0.0088222830    -0.0615496689     0.0018656257
|  7>  O       -1.3556142458    -0.5071706364     0.0114089390
|  8>  C       -1.5798395720    -1.8236758800     0.0058339495
|  9>  C       -2.7526500882    -2.5151332216     0.0100929313
| 10>  C       -2.3724262059    -3.9003065750     0.0004962774
| 11>  C       -1.0187397583    -3.9402994213    -0.0087436616
| 12>  O       -0.5139025883    -2.6580376608    -0.0055575652
| 13>  H        1.0129503361     1.8396244289     0.0030608846
| 14>  H       -0.5327210299     1.8399040712    -0.8704844200
| 15>  H       -0.5174278383     1.8307046095     0.9030734723
| 16>  H        0.5139224855    -0.4517809101    -0.8895328287
| 17>  H        0.5292911748    -0.4609176216     0.8802694484
| 18>  H       -3.7428205974    -2.0925616095     0.0188196083
| 19>  H       -3.0347475176    -4.7521117326     0.0005362588
| 20>  H       -0.2828472781    -4.7249993812    -0.0177700665
| 21> *
| 22>
| 23>                          ****END OF INPUT****

CARTESIAN COORDINATES (ANGSTROEM)
---------------------------------
  C     -0.011116    1.454821    0.009889
  C      0.008822   -0.061550    0.001866
  O     -1.355614   -0.507171    0.011409
  C     -1.579840   -1.823676    0.005834
  C     -2.752650   -2.515133    0.010093
  C     -2.372426   -3.900307    0.000496
  C     -1.018740   -3.940299   -0.008744
  O     -0.513903   -2.658038   -0.005558
  H      1.012950    1.839624    0.003061
  H     -0.532721    1.839904   -0.870484
  H     -0.517428    1.830705    0.903073
  H      0.513922   -0.451781   -0.889533
  H      0.529291   -0.460918    0.880269
  H     -3.742821   -2.092562    0.018820
  H     -3.034748   -4.752112    0.000536
  H     -0.282847   -4.724999   -0.017770

 Total Charge           Charge          ....    0
 Multiplicity           Mult            ....    1
 Number of Electrons    NEL             ....   60
 Basis Dimension        Dim             ....  296

ORBITAL ENERGIES
----------------

  NO   OCC          E(Eh)            E(eV)
   0   2.0000     -20.621664      -561.1440
   1   2.0000     -20.594084      -560.3935
   2   2.0000     -11.349053      -308.8234
   3   2.0000     -11.292125      -307.2743
   4   2.0000     -11.273633      -306.7712
   5   2.0000     -11.228856      -305.5527
   6   2.0000     -11.224929      -305.4458
   7   2.0000     -11.209603      -305.0288
   8   2.0000      -1.479491       -40.2590
   9   2.0000      -1.402188       -38.1555
  10   2.0000      -1.083376       -29.4801
  11   2.0000      -1.044384       -28.4191
  12   2.0000      -0.974189       -26.5090
  13   2.0000      -0.866233       -23.5714
  14   2.0000      -0.810223       -22.0473
  15   2.0000      -0.767311       -20.8796
  16   2.0000      -0.744827       -20.2678
  17   2.0000      -0.689312       -18.7571
  18   2.0000      -0.654452       -17.8086
  19   2.0000      -0.628216       -17.0946
  20   2.0000      -0.609464       -16.5844
  21   2.0000      -0.565764       -15.3952
  22   2.0000      -0.563865       -15.3436
  23   2.0000      -0.553085       -15.0502
  24   2.0000      -0.549752       -14.9595
  25   2.0000      -0.531820       -14.4716
  26   2.0000      -0.505939       -13.7673
  27   2.0000      -0.485896       -13.2219
  28   2.0000      -0.394713       -10.7407
  29   2.0000      -0.291968        -7.9449
  30   0.0000       0.138322         3.7639
  31   0.0000       0.163175         4.4402
  32   0.0000       0.176630         4.8063
  33   0.0000       0.183603         4.9961
  34   0.0000       0.191679         5.2159

MULLIKEN ATOMIC CHARGES
-----------------------
   0 C :   -0.360792
   1 C :   -0.060011
   2 O :   -0.267553
   3 C :    0.348360
   4 C :   -0.297735
   5 C :   -0.124602
   6 C :   -0.070825
   7 O :   -0.219841
   8 H :    0.129541
   9 H :    0.134562
  10 H :    0.134568
  11 H :    0.116521
  12 H :    0.116574
  13 H :    0.138013
  14 H :    0.138102
  15 H :    0.145118
Sum of atomic charges:   -0.0000000

LOEWDIN ATOMIC CHARGES
----------------------
   0 C :   -0.313505
   1 C :   -0.310714
   2 O :    0.253324
   3 C :   -0.379652
   4 C :   -0.186448
   5 C :   -0.195026
   6 C :   -0.252529
   7 O :    0.337741
   8 H :    0.127844
   9 H :    0.126029
  10 H :    0.126034
  11 H :    0.125279
  12 H :    0.125282
  13 H :    0.143823
  14 H :    0.142761
  15 H :    0.129756

  Mayer bond orders larger than 0.1
B(  0-C ,  1-C ) :   0.9472 B(  0-C ,  8-H ) :   0.9329 B(  0-C ,  9-H ) :   0.9340
B(  0-C , 10-H ) :   0.9340 B(  1-C ,  2-O ) :   0.8361 B(  1-C , 11-H ) :   0.9264
B(  1-C , 12-H ) :   0.9264 B(  2-O ,  3-C ) :   1.1157 B(  3-C ,  4-C ) :   1.5094
B(  3-C ,  7-O ) :   1.0172 B(  4-C ,  5-C ) :   1.1681 B(  4-C , 13-H ) :   0.9338
B(  5-C ,  6-C ) :   1.5783 B(  5-C , 14-H ) :   0.9237 B(  6-C ,  7-O ) :   0.9975
B(  6-C , 15-H ) :   0.9366

MP2 TOTAL ENERGY:     -383.113762433 Eh
FINAL SINGLE POINT ENERGY      -383.113762433241

DIPOLE MOMENT
-------------
                                X             Y             Z
Electronic contribution:     -2.51351      -5.84786      -0.00588
Nuclear contribution   :      2.94825       5.99329       0.00246
                        -----------------------------------------
Total Dipole Moment    :      0.43474       0.14543      -0.00342
                        -----------------------------------------
Magnitude (a.u.)       :      0.45843
Magnitude (Debye)      :      1.16524

                             ****ORCA TERMINATED NORMALLY****
TOTAL RUN TIME: 0 days 0 hours 10 minutes 46 seconds 784 msec
