                         Program Version 3.0.3 - RELEASE   -
|  1> ! RI-MP2 RIJK def2-TZVP def2-TZVP/C def2-TZVP/JK TIGHTSCF
|  2> % maxcore 2000
|  3> % mp2 density relaxed end
|  4> *xyz 0 1
|  5>  C       -0.0474893106     1.4196236370    -0.1939339815
|  6>  O        0.0100827148     0.0317513678     0.0399005376
|  7>  C       -1.2489341418    -0.6106691482     0.0548778510
|  8>  C       -1.7386233415    -0.9341284360    -1.3826157130
|  9>  N       -1.1601405743    -2.2395136584    -1.6286571250
| 10>  C       -0.7541711613    -2.9105222520    -0.5084461904
| 11>  O       -0.2590286542    -4.0157017289    -0.4736982015
| 12>  C       -1.0828545561    -2.0041683232     0.6893703802
| 13>  C       -0.0888653267    -2.1355922484     1.8378415031
| 14>  H        0.9763129015     1.7971496070    -0.1427824439
| 15>  H       -0.4595477232     1.6656941174    -1.1844011669
| 16>  H       -0.6557591111     1.9323211701     0.5674046692
| 17>  H       -1.9789868492     0.0120391890     0.5906696703
| 18>  H       -2.8374805869    -0.9498912666    -1.4298394988
| 19>  H       -1.3806561502    -0.1903730159    -2.1012079245
| 20>  H       -1.1125878569    -2.6729812303    -2.5362811579
| 21>  H       -2.0773048526    -2.3255143538     1.0311018947
| 22>  H        0.8832279489    -1.7268879454     1.5582445593
| 23>  H       -0.4397813642    -1.6072783979     2.7292947481
| 24>  H        0.0364410355    -3.1936555733     2.0806269898
| 25> *
| 26>
| 27>                          ****END OF INPUT****

CARTESIAN COORDINATES (ANGSTROEM)
---------------------------------
  C     -0.047489    1.419624   -0.193934
  O      0.010083    0.031751    0.039901
  C     -1.248934   -0.610669    0.054878
  C     -1.738623   -0.934128   -1.382616
  N     -1.160141   -2.239514   -1.628657
  C     -0.754171   -2.910522   -0.508446
  O     -0.259029   -4.015702   -0.473698
  C     -1.082855   -2.004168    0.689370
  C     -0.088865   -2.135592    1.837842
  H      0.976313    1.797150   -0.142782
  H     -0.459548    1.665694   -1.184401
  H     -0.655759    1.932321    0.567405
  H     -1.978987    0.012039    0.590670
  H     -2.837481   -0.949891   -1.429839
  H     -1.380656   -0.190373   -2.101208
  H     -1.112588   -2.672981   -2.536281
  H     -2.077305   -2.325514    1.031102
  H      0.883228   -1.726888    1.558245
  H     -0.439781   -1.607278    2.729295
  H      0.036441   -3.193656    2.080627

 Total Charge           Charge          ....    0
 Multiplicity           Mult            ....    1
 Number of Electrons    NEL             ....   70
 Basis Dimension        Dim             ....  345

ORBITAL ENERGIES
----------------

  NO   OCC          E(Eh)            E(eV)
   0   2.0000     -20.567523      -559.6708
   1   2.0000     -20.510263      -558.1126
   2   2.0000     -15.578438      -423.9109
   3   2.0000     -11.338781      -308.5439
   4   2.0000     -11.299786      -307.4828
   5   2.0000     -11.282885      -307.0229
   6   2.0000     -11.277272      -306.8702
   7   2.0000     -11.243048      -305.9389
   8   2.0000     -11.210972      -305.0661
   9   2.0000      -1.393703       -37.9246
  10   2.0000      -1.373140       -37.3650
  11   2.0000      -1.245071       -33.8801
  12   2.0000      -1.073905       -29.2224
  13   2.0000      -0.993329       -27.0298
  14   2.0000      -0.937830       -25.5197
  15   2.0000      -0.905163       -24.6307
  16   2.0000      -0.817437       -22.2436
  17   2.0000      -0.765143       -20.8206
  18   2.0000      -0.703326       -19.1385
  19   2.0000      -0.689299       -18.7568
  20   2.0000      -0.656433       -17.8624
  21   2.0000      -0.648580       -17.6488
  22   2.0000      -0.620199       -16.8765
  23   2.0000      -0.609120       -16.5750
  24   2.0000      -0.592054       -16.1106
  25   2.0000      -0.571645       -15.5553
  26   2.0000      -0.548262       -14.9190
  27   2.0000      -0.540667       -14.7123
  28   2.0000      -0.519383       -14.1331
  29   2.0000      -0.513556       -13.9746
  30   2.0000      -0.483358       -13.1528
  31   2.0000      -0.480773       -13.0825
  32   2.0000      -0.433050       -11.7839
  33   2.0000      -0.405213       -11.0264
  34   2.0000      -0.389415       -10.5965
  35   0.0000       0.125222         3.4075
  36   0.0000       0.146910         3.9976
  37   0.0000       0.149649         4.0722
  38   0.0000       0.166930         4.5424
  39   0.0000       0.186971         5.0877

MULLIKEN ATOMIC CHARGES
-----------------------
   0 C :   -0.227685
   1 O :   -0.310714
   2 C :    0.049169
   3 C :   -0.115815
   4 N :   -0.296946
   5 C :    0.149381
   6 O :   -0.340564
   7 C :    0.034596
   8 C :   -0.417443
   9 H :    0.146492
  10 H :    0.104608
  11 H :    0.117450
  12 H :    0.095623
  13 H :    0.115675
  14 H :    0.120466
  15 H :    0.236481
  16 H :    0.112082
  17 H :    0.148342
  18 H :    0.123377
  19 H :    0.155425
Sum of atomic charges:   -0.0000000

LOEWDIN ATOMIC CHARGES
----------------------
   0 C :   -0.356310
   1 O :    0.169878
   2 C :   -0.289766
   3 C :   -0.251945
   4 N :    0.119185
   5 C :   -0.428636
   6 O :    0.085892
   7 C :   -0.218730
   8 C :   -0.283149
   9 H :    0.116520
  10 H :    0.099482
  11 H :    0.103154
  12 H :    0.134827
  13 H :    0.127621
  14 H :    0.132026
  15 H :    0.181820
  16 H :    0.170566
  17 H :    0.130871
  18 H :    0.122456
  19 H :    0.134239

  Mayer bond orders larger than 0.1
B(  0-C ,  1-O ) :   0.9176 B(  0-C ,  9-H ) :   0.9404 B(  0-C , 10-H ) :   0.9309
B(  0-C , 11-H ) :   0.9379 B(  1-O ,  2-C ) :   0.9348 B(  2-C ,  3-C ) :   0.9323
B(  2-C ,  7-C ) :   0.8894 B(  2-C , 12-H ) :   0.9343 B(  3-C ,  4-N ) :   0.9109
B(  3-C , 13-H ) :   0.9226 B(  3-C , 14-H ) :   0.9238 B(  4-N ,  5-C ) :   1.1850
B(  4-N , 15-H ) :   0.8654 B(  5-C ,  6-O ) :   2.0178 B(  5-C ,  7-C ) :   0.8805
B(  7-C ,  8-C ) :   0.9118 B(  7-C , 16-H ) :   0.9019 B(  8-C , 17-H ) :   0.9317
B(  8-C , 18-H ) :   0.9387 B(  8-C , 19-H ) :   0.9296

MP2 TOTAL ENERGY:     -439.604019651 Eh
FINAL SINGLE POINT ENERGY      -439.604019650915

DIPOLE MOMENT
-------------
                                X             Y             Z
Electronic contribution:      0.40026      -6.60875      -3.26167
Nuclear contribution   :     -1.36659       8.23954       2.88828
                        -----------------------------------------
Total Dipole Moment    :     -0.96633       1.63079      -0.37339
                        -----------------------------------------
Magnitude (a.u.)       :      1.93202
Magnitude (Debye)      :      4.91079

                             ****ORCA TERMINATED NORMALLY****
TOTAL RUN TIME: 0 days 0 hours 29 minutes 33 seconds 874 msec
