                         Program Version 3.0.3 - RELEASE   -
|  1> ! RI-MP2 RIJK def2-TZVP def2-TZVP/C def2-TZVP/JK TIGHTSCF
|  2> % maxcore 2000
|  3> % mp2 density relaxed end
|  4> *xyz 0 1
|  5>  C       -0.0316121929     1.3739508794     0.0664246549
|  6>  N        0.0368560624    -0.0679945063     0.0275843737
|  7>  N       -0.0490394879    -0.7550913033    -1.1017291665
|  8>  C       -0.0208698834    -2.0347639382    -0.7181415523
|  9>  C       -0.0926536890    -3.1734983741    -1.6800837912
| 10>  C        0.0844762643    -2.0546914217     0.6907765256
| 11>  N        0.0823249153    -3.1581286580     1.5409185396
| 12>  N        0.1209414337    -0.8022776551     1.1437258910
| 13>  H        0.7786602114     1.7656193548     0.6858476023
| 14>  H        0.0707548971     1.7350213028    -0.9561509355
| 15>  H       -0.9883828435     1.7081342515     0.4808756319
| 16>  H        0.8302627389    -3.7673979620    -1.6839296725
| 17>  H       -0.9144875429    -3.8543426113    -1.4307372433
| 18>  H       -0.2517524073    -2.7971178079    -2.6926149757
| 19>  H        0.6344317941    -3.9318970907     1.1954975071
| 20>  H        0.3690439498    -2.9112982698     2.4793581408
| 21> *
| 22>
| 23>                          ****END OF INPUT****

CARTESIAN COORDINATES (ANGSTROEM)
---------------------------------
  C     -0.031612    1.373951    0.066425
  N      0.036856   -0.067995    0.027584
  N     -0.049039   -0.755091   -1.101729
  C     -0.020870   -2.034764   -0.718142
  C     -0.092654   -3.173498   -1.680084
  C      0.084476   -2.054691    0.690777
  N      0.082325   -3.158129    1.540919
  N      0.120941   -0.802278    1.143726
  H      0.778660    1.765619    0.685848
  H      0.070755    1.735021   -0.956151
  H     -0.988383    1.708134    0.480876
  H      0.830263   -3.767398   -1.683930
  H     -0.914488   -3.854343   -1.430737
  H     -0.251752   -2.797118   -2.692615
  H      0.634432   -3.931897    1.195498
  H      0.369044   -2.911298    2.479358

 Total Charge           Charge          ....    0
 Multiplicity           Mult            ....    1
 Number of Electrons    NEL             ....   60
 Basis Dimension        Dim             ....  296

ORBITAL ENERGIES
----------------

  NO   OCC          E(Eh)            E(eV)
   0   2.0000     -15.659387      -426.1136
   1   2.0000     -15.602031      -424.5528
   2   2.0000     -15.586119      -424.1199
   3   2.0000     -15.567542      -423.6144
   4   2.0000     -11.288899      -307.1866
   5   2.0000     -11.268631      -306.6350
   6   2.0000     -11.252121      -306.1858
   7   2.0000     -11.229449      -305.5688
   8   2.0000      -1.431614       -38.9562
   9   2.0000      -1.229190       -33.4480
  10   2.0000      -1.168794       -31.8045
  11   2.0000      -1.107757       -30.1436
  12   2.0000      -0.999639       -27.2016
  13   2.0000      -0.910026       -24.7631
  14   2.0000      -0.806893       -21.9567
  15   2.0000      -0.800631       -21.7863
  16   2.0000      -0.701238       -19.0817
  17   2.0000      -0.671226       -18.2650
  18   2.0000      -0.658261       -17.9122
  19   2.0000      -0.631553       -17.1854
  20   2.0000      -0.585901       -15.9432
  21   2.0000      -0.578559       -15.7434
  22   2.0000      -0.568083       -15.4583
  23   2.0000      -0.550482       -14.9794
  24   2.0000      -0.545213       -14.8360
  25   2.0000      -0.486593       -13.2409
  26   2.0000      -0.480985       -13.0883
  27   2.0000      -0.456101       -12.4111
  28   2.0000      -0.375907       -10.2289
  29   2.0000      -0.311925        -8.4879
  30   0.0000       0.125996         3.4285
  31   0.0000       0.145807         3.9676
  32   0.0000       0.158933         4.3248
  33   0.0000       0.168305         4.5798
  34   0.0000       0.201873         5.4933

MULLIKEN ATOMIC CHARGES
-----------------------
   0 C :   -0.317122
   1 N :    0.233019
   2 N :   -0.271050
   3 C :    0.029597
   4 C :   -0.460789
   5 C :    0.158085
   6 N :   -0.527618
   7 N :   -0.263396
   8 H :    0.153043
   9 H :    0.167632
  10 H :    0.146375
  11 H :    0.135454
  12 H :    0.153243
  13 H :    0.157266
  14 H :    0.252578
  15 H :    0.253683
Sum of atomic charges:    0.0000000

LOEWDIN ATOMIC CHARGES
----------------------
   0 C :   -0.281378
   1 N :    0.097292
   2 N :    0.054310
   3 C :   -0.299448
   4 C :   -0.280312
   5 C :   -0.371161
   6 N :   -0.084795
   7 N :    0.042256
   8 H :    0.125708
   9 H :    0.131558
  10 H :    0.123505
  11 H :    0.128588
  12 H :    0.133902
  13 H :    0.138198
  14 H :    0.169566
  15 H :    0.172209

  Mayer bond orders larger than 0.1
B(  0-C ,  1-N ) :   0.8658 B(  0-C ,  8-H ) :   0.9302 B(  0-C ,  9-H ) :   0.9281
B(  0-C , 10-H ) :   0.9277 B(  1-N ,  2-N ) :   1.1065 B(  1-N ,  7-N ) :   1.0636
B(  2-N ,  3-C ) :   1.4723 B(  3-C ,  4-C ) :   0.8568 B(  3-C ,  5-C ) :   1.3562
B(  4-C , 11-H ) :   0.9305 B(  4-C , 12-H ) :   0.9392 B(  4-C , 13-H ) :   0.9475
B(  5-C ,  6-N ) :   1.0188 B(  5-C ,  7-N ) :   1.4693 B(  6-N , 14-H ) :   0.8733
B(  6-N , 15-H ) :   0.8736

MP2 TOTAL ENERGY:     -375.485633734 Eh
FINAL SINGLE POINT ENERGY      -375.485633734380

DIPOLE MOMENT
-------------
                                X             Y             Z
Electronic contribution:      0.09720       1.16135       1.98409
Nuclear contribution   :      0.33039      -1.27301      -1.85530
                        -----------------------------------------
Total Dipole Moment    :      0.42759      -0.11165       0.12879
                        -----------------------------------------
Magnitude (a.u.)       :      0.46031
Magnitude (Debye)      :      1.17002

                             ****ORCA TERMINATED NORMALLY****
TOTAL RUN TIME: 0 days 0 hours 11 minutes 19 seconds 316 msec
