                         Program Version 3.0.3 - RELEASE   -
|  1> ! RI-MP2 RIJK def2-TZVP def2-TZVP/C def2-TZVP/JK TIGHTSCF
|  2> % maxcore 2000
|  3> % mp2 density relaxed end
|  4> *xyz 0 1
|  5>  C       -0.6672350451     1.7235813194     0.5452838173
|  6>  C       -0.3945042697     0.2225829827     0.6903076617
|  7>  C       -1.6090703016    -0.6053136927     0.2886056733
|  8>  O       -1.9428589620    -0.4033676691    -1.1104125726
|  9>  C       -1.6115161867    -1.7659561746    -1.4372123826
| 10>  C       -1.4623994546    -2.1407533125     0.0522602179
| 11>  C       -0.2297868466    -2.9221844227     0.5078240658
| 12>  C       -0.2172386283    -3.1136535714     2.0316207940
| 13>  C       -0.1684780361    -4.2821603067    -0.2049454720
| 14>  H        0.2206499775     2.3137928730     0.7905576268
| 15>  H       -0.9633452000     1.9561552480    -0.4811654597
| 16>  H       -1.4773028505     2.0440645946     1.2100499812
| 17>  H        0.4618876366    -0.0570139471     0.0655259595
| 18>  H       -0.1238494106    -0.0120211924     1.7272726351
| 19>  H       -2.4622978862    -0.3293416044     0.9242322867
| 20>  H       -2.4107991366    -2.2612789646    -2.0001796312
| 21>  H       -0.6797625655    -1.8312803093    -2.0185939220
| 22>  H       -2.3578331893    -2.6614199214     0.4099976914
| 23>  H        0.6672702328    -2.3558105231     0.2239365831
| 24>  H       -1.0859848840    -3.6992390945     2.3556891372
| 25>  H        0.6816432595    -3.6501962555     2.3526748850
| 26>  H       -0.2433086180    -2.1589139629     2.5649178306
| 27>  H        0.7216022935    -4.8434713087     0.0972943037
| 28>  H       -1.0454955098    -4.8925883114     0.0417558704
| 29>  H       -0.1363153088    -4.1686714124    -1.2933649809
| 30> *
| 31>
| 32>                          ****END OF INPUT****

CARTESIAN COORDINATES (ANGSTROEM)
---------------------------------
  C     -0.667235    1.723581    0.545284
  C     -0.394504    0.222583    0.690308
  C     -1.609070   -0.605314    0.288606
  O     -1.942859   -0.403368   -1.110413
  C     -1.611516   -1.765956   -1.437212
  C     -1.462399   -2.140753    0.052260
  C     -0.229787   -2.922184    0.507824
  C     -0.217239   -3.113654    2.031621
  C     -0.168478   -4.282160   -0.204945
  H      0.220650    2.313793    0.790558
  H     -0.963345    1.956155   -0.481165
  H     -1.477303    2.044065    1.210050
  H      0.461888   -0.057014    0.065526
  H     -0.123849   -0.012021    1.727273
  H     -2.462298   -0.329342    0.924232
  H     -2.410799   -2.261279   -2.000180
  H     -0.679763   -1.831280   -2.018594
  H     -2.357833   -2.661420    0.409998
  H      0.667270   -2.355811    0.223937
  H     -1.085985   -3.699239    2.355689
  H      0.681643   -3.650196    2.352675
  H     -0.243309   -2.158914    2.564918
  H      0.721602   -4.843471    0.097294
  H     -1.045496   -4.892588    0.041756
  H     -0.136315   -4.168671   -1.293365

 Total Charge           Charge          ....    0
 Multiplicity           Mult            ....    1
 Number of Electrons    NEL             ....   72
 Basis Dimension        Dim             ....  375

ORBITAL ENERGIES
----------------

  NO   OCC          E(Eh)            E(eV)
   0   2.0000     -20.538770      -558.8884
   1   2.0000     -11.275869      -306.8320
   2   2.0000     -11.270848      -306.6954
   3   2.0000     -11.232632      -305.6555
   4   2.0000     -11.228704      -305.5486
   5   2.0000     -11.218995      -305.2844
   6   2.0000     -11.217607      -305.2466
   7   2.0000     -11.216967      -305.2292
   8   2.0000     -11.207636      -304.9753
   9   2.0000      -1.369929       -37.2777
  10   2.0000      -1.093963       -29.7682
  11   2.0000      -1.044948       -28.4345
  12   2.0000      -0.978115       -26.6159
  13   2.0000      -0.935738       -25.4627
  14   2.0000      -0.914566       -24.8866
  15   2.0000      -0.837513       -22.7899
  16   2.0000      -0.805563       -21.9205
  17   2.0000      -0.725647       -19.7459
  18   2.0000      -0.688275       -18.7289
  19   2.0000      -0.652935       -17.7673
  20   2.0000      -0.618347       -16.8261
  21   2.0000      -0.606340       -16.4993
  22   2.0000      -0.586546       -15.9607
  23   2.0000      -0.570447       -15.5226
  24   2.0000      -0.562557       -15.3079
  25   2.0000      -0.548164       -14.9163
  26   2.0000      -0.537767       -14.6334
  27   2.0000      -0.526902       -14.3377
  28   2.0000      -0.508071       -13.8253
  29   2.0000      -0.495636       -13.4870
  30   2.0000      -0.494469       -13.4552
  31   2.0000      -0.481742       -13.1089
  32   2.0000      -0.464972       -12.6525
  33   2.0000      -0.433340       -11.7918
  34   2.0000      -0.427836       -11.6420
  35   2.0000      -0.401627       -10.9288
  36   0.0000       0.133235         3.6255
  37   0.0000       0.149511         4.0684
  38   0.0000       0.153174         4.1681
  39   0.0000       0.164057         4.4642
  40   0.0000       0.182962         4.9786

MULLIKEN ATOMIC CHARGES
-----------------------
   0 C :   -0.397430
   1 C :   -0.222080
   2 C :    0.089377
   3 O :   -0.335819
   4 C :   -0.028409
   5 C :   -0.118955
   6 C :   -0.035123
   7 C :   -0.408046
   8 C :   -0.387542
   9 H :    0.131498
  10 H :    0.149178
  11 H :    0.117483
  12 H :    0.112034
  13 H :    0.099439
  14 H :    0.089569
  15 H :    0.103410
  16 H :    0.086269
  17 H :    0.102135
  18 H :    0.080733
  19 H :    0.122789
  20 H :    0.133226
  21 H :    0.128199
  22 H :    0.133960
  23 H :    0.123574
  24 H :    0.130531
Sum of atomic charges:   -0.0000000

LOEWDIN ATOMIC CHARGES
----------------------
   0 C :   -0.315710
   1 C :   -0.279680
   2 C :   -0.255871
   3 O :    0.132135
   4 C :   -0.257213
   5 C :   -0.203752
   6 C :   -0.295200
   7 C :   -0.290796
   8 C :   -0.289043
   9 H :    0.119771
  10 H :    0.127533
  11 H :    0.120352
  12 H :    0.138467
  13 H :    0.136976
  14 H :    0.134921
  15 H :    0.116044
  16 H :    0.117579
  17 H :    0.152813
  18 H :    0.151479
  19 H :    0.123877
  20 H :    0.123982
  21 H :    0.120136
  22 H :    0.123943
  23 H :    0.124313
  24 H :    0.122943

  Mayer bond orders larger than 0.1
B(  0-C ,  1-C ) :   0.9199 B(  0-C ,  9-H ) :   0.9411 B(  0-C , 10-H ) :   0.9389
B(  0-C , 11-H ) :   0.9365 B(  1-C ,  2-C ) :   0.9165 B(  1-C , 12-H ) :   0.9341
B(  1-C , 13-H ) :   0.9213 B(  2-C ,  3-O ) :   0.9214 B(  2-C ,  5-C ) :   0.9390
B(  2-C , 14-H ) :   0.9103 B(  3-O ,  4-C ) :   0.9561 B(  4-C ,  5-C ) :   0.9547
B(  4-C , 15-H ) :   0.9139 B(  4-C , 16-H ) :   0.9072 B(  5-C ,  6-C ) :   0.9381
B(  5-C , 17-H ) :   0.9180 B(  6-C ,  7-C ) :   0.9155 B(  6-C ,  8-C ) :   0.9083
B(  6-C , 18-H ) :   0.9163 B(  7-C , 19-H ) :   0.9314 B(  7-C , 20-H ) :   0.9388
B(  7-C , 21-H ) :   0.9411 B(  8-C , 22-H ) :   0.9398 B(  8-C , 23-H ) :   0.9336
B(  8-C , 24-H ) :   0.9386

MP2 TOTAL ENERGY:     -388.806792638 Eh
FINAL SINGLE POINT ENERGY      -388.806792638245

DIPOLE MOMENT
-------------
                                X             Y             Z
Electronic contribution:     -3.86270       2.38172      -3.89108
Nuclear contribution   :      4.17477      -2.93386       4.29977
                        -----------------------------------------
Total Dipole Moment    :      0.31207      -0.55213       0.40869
                        -----------------------------------------
Magnitude (a.u.)       :      0.75450
Magnitude (Debye)      :      1.91778

                             ****ORCA TERMINATED NORMALLY****
TOTAL RUN TIME: 0 days 0 hours 21 minutes 47 seconds 241 msec
