                         Program Version 3.0.3 - RELEASE   -
|  1> ! RI-MP2 RIJK def2-TZVP def2-TZVP/C def2-TZVP/JK TIGHTSCF
|  2> % maxcore 2000
|  3> % mp2 density relaxed end
|  4> *xyz 0 1
|  5>  C       -0.1042070344     1.5149287563     0.0366789304
|  6>  C        0.0348242617     0.0120800896    -0.0053148830
|  7>  C       -0.7606298487    -0.8410089801     0.9574897111
|  8>  C        0.7438852500    -0.7583702007     1.0928604820
|  9>  C        1.5041341821    -1.8664039342     0.4371130628
| 10>  O        2.5256744078    -1.4069734530    -0.4650695370
| 11>  C        1.2666380075    -1.8331847182    -1.0165044455
| 12>  C        1.3148615463    -3.0328865447    -1.9230866169
| 13>  C        0.3620429785    -0.6458602372    -1.3522330302
| 14>  H        0.8007538478     2.0031898840    -0.3426690807
| 15>  H       -0.9476734663     1.8536124576    -0.5768290239
| 16>  H       -0.2753233267     1.8720986762     1.0573468554
| 17>  H       -1.3559090736    -0.3281034987     1.7056882831
| 18>  H       -1.1973463734    -1.7708645764     0.6036730156
| 19>  H        1.1756623365    -0.2471280049     1.9470975922
| 20>  H        1.7375909316    -2.7864084196     0.9701368331
| 21>  H        1.9973598776    -3.7890050874    -1.5273491939
| 22>  H        0.3205717553    -3.4785812456    -2.0346535254
| 23>  H        1.6660379309    -2.7479941810    -2.9214154011
| 24>  H       -0.5409534141    -0.9734683959    -1.8819472211
| 25>  H        0.8930085136     0.0504076141    -2.0120919772
| 26> *
| 27>
| 28>                          ****END OF INPUT****

CARTESIAN COORDINATES (ANGSTROEM)
---------------------------------
  C     -0.104207    1.514929    0.036679
  C      0.034824    0.012080   -0.005315
  C     -0.760630   -0.841009    0.957490
  C      0.743885   -0.758370    1.092860
  C      1.504134   -1.866404    0.437113
  O      2.525674   -1.406973   -0.465070
  C      1.266638   -1.833185   -1.016504
  C      1.314862   -3.032887   -1.923087
  C      0.362043   -0.645860   -1.352233
  H      0.800754    2.003190   -0.342669
  H     -0.947673    1.853612   -0.576829
  H     -0.275323    1.872099    1.057347
  H     -1.355909   -0.328103    1.705688
  H     -1.197346   -1.770865    0.603673
  H      1.175662   -0.247128    1.947098
  H      1.737591   -2.786408    0.970137
  H      1.997360   -3.789005   -1.527349
  H      0.320572   -3.478581   -2.034654
  H      1.666038   -2.747994   -2.921415
  H     -0.540953   -0.973468   -1.881947
  H      0.893009    0.050408   -2.012092

 Total Charge           Charge          ....    0
 Multiplicity           Mult            ....    1
 Number of Electrons    NEL             ....   68
 Basis Dimension        Dim             ....  351

ORBITAL ENERGIES
----------------

  NO   OCC          E(Eh)            E(eV)
   0   2.0000     -20.553661      -559.2936
   1   2.0000     -11.284059      -307.0549
   2   2.0000     -11.276986      -306.8624
   3   2.0000     -11.239328      -305.8377
   4   2.0000     -11.229705      -305.5758
   5   2.0000     -11.227638      -305.5196
   6   2.0000     -11.226690      -305.4938
   7   2.0000     -11.223318      -305.4020
   8   2.0000     -11.218055      -305.2588
   9   2.0000      -1.401745       -38.1434
  10   2.0000      -1.168734       -31.8029
  11   2.0000      -1.029191       -28.0057
  12   2.0000      -0.984107       -26.7789
  13   2.0000      -0.948563       -25.8117
  14   2.0000      -0.909481       -24.7482
  15   2.0000      -0.811519       -22.0825
  16   2.0000      -0.762063       -20.7368
  17   2.0000      -0.746479       -20.3127
  18   2.0000      -0.679276       -18.4840
  19   2.0000      -0.637375       -17.3439
  20   2.0000      -0.614222       -16.7138
  21   2.0000      -0.594867       -16.1872
  22   2.0000      -0.586554       -15.9609
  23   2.0000      -0.572367       -15.5749
  24   2.0000      -0.554677       -15.0935
  25   2.0000      -0.548552       -14.9269
  26   2.0000      -0.528400       -14.3785
  27   2.0000      -0.516095       -14.0437
  28   2.0000      -0.506329       -13.7779
  29   2.0000      -0.481704       -13.1078
  30   2.0000      -0.448744       -12.2110
  31   2.0000      -0.416852       -11.3431
  32   2.0000      -0.393398       -10.7049
  33   2.0000      -0.386322       -10.5123
  34   0.0000       0.135392         3.6842
  35   0.0000       0.151542         4.1237
  36   0.0000       0.169110         4.6017
  37   0.0000       0.177576         4.8321
  38   0.0000       0.191569         5.2129

MULLIKEN ATOMIC CHARGES
-----------------------
   0 C :   -0.415977
   1 C :    0.151008
   2 C :   -0.379452
   3 C :   -0.056390
   4 C :   -0.011729
   5 O :   -0.329013
   6 C :    0.119415
   7 C :   -0.445501
   8 C :   -0.200242
   9 H :    0.137244
  10 H :    0.132581
  11 H :    0.126329
  12 H :    0.131233
  13 H :    0.134483
  14 H :    0.132674
  15 H :    0.119423
  16 H :    0.142996
  17 H :    0.130372
  18 H :    0.138409
  19 H :    0.129032
  20 H :    0.113105
Sum of atomic charges:   -0.0000000

LOEWDIN ATOMIC CHARGES
----------------------
   0 C :   -0.268247
   1 C :   -0.231454
   2 C :   -0.179260
   3 C :   -0.166138
   4 C :   -0.221872
   5 O :    0.182072
   6 C :   -0.308114
   7 C :   -0.269607
   8 C :   -0.164775
   9 H :    0.129260
  10 H :    0.127164
  11 H :    0.128062
  12 H :    0.136169
  13 H :    0.136227
  14 H :    0.147364
  15 H :    0.137302
  16 H :    0.133073
  17 H :    0.129921
  18 H :    0.131651
  19 H :    0.143219
  20 H :    0.147985

  Mayer bond orders larger than 0.1
B(  0-C ,  1-C ) :   0.8968 B(  0-C ,  9-H ) :   0.9424 B(  0-C , 10-H ) :   0.9388
B(  0-C , 11-H ) :   0.9345 B(  1-C ,  2-C ) :   0.8847 B(  1-C ,  3-C ) :   0.8499
B(  1-C ,  8-C ) :   0.9093 B(  2-C ,  3-C ) :   0.8747 B(  2-C , 12-H ) :   0.9244
B(  2-C , 13-H ) :   0.9142 B(  3-C ,  4-C ) :   0.8566 B(  3-C , 14-H ) :   0.9102
B(  4-C ,  5-O ) :   0.8964 B(  4-C ,  6-C ) :   0.9774 B(  4-C , 15-H ) :   0.9285
B(  5-O ,  6-C ) :   0.9406 B(  6-C ,  7-C ) :   0.8843 B(  6-C ,  8-C ) :   0.9441
B(  7-C , 16-H ) :   0.9420 B(  7-C , 17-H ) :   0.9340 B(  7-C , 18-H ) :   0.9411
B(  8-C , 19-H ) :   0.9197 B(  8-C , 20-H ) :   0.9063

MP2 TOTAL ENERGY:     -386.409899819 Eh
FINAL SINGLE POINT ENERGY      -386.409899818621

DIPOLE MOMENT
-------------
                                X             Y             Z
Electronic contribution:      4.04805      -1.54334       1.66695
Nuclear contribution   :     -4.76775       1.38972      -1.64270
                        -----------------------------------------
Total Dipole Moment    :     -0.71969      -0.15363       0.02426
                        -----------------------------------------
Magnitude (a.u.)       :      0.73631
Magnitude (Debye)      :      1.87154

                             ****ORCA TERMINATED NORMALLY****
TOTAL RUN TIME: 0 days 0 hours 20 minutes 6 seconds 759 msec
