                         Program Version 3.0.3 - RELEASE   -
|  1> ! RI-MP2 RIJK def2-TZVP def2-TZVP/C def2-TZVP/JK TIGHTSCF
|  2> % maxcore 2000
|  3> % mp2 density relaxed end
|  4> *xyz 0 1
|  5>  C       -0.0837554050     1.6183794563    -0.0267240152
|  6>  C        0.0684451416     0.1028430716    -0.0444058981
|  7>  C        0.7173540661    -0.6237783035    -1.2406321918
|  8>  C        2.1564197029    -0.2686600540    -1.3529403446
|  9>  C        1.7519228440    -1.3104535705    -0.3133403005
| 10>  C        1.1274231284    -0.6052243965     0.8539460315
| 11>  O        1.2672222051    -0.6709236094     2.0426313463
| 12>  H        0.8401112863     2.1263147855    -0.3185031610
| 13>  H       -0.8757183174     1.9445435033    -0.7087715117
| 14>  H       -0.3453350801     1.9563801843     0.9807629985
| 15>  H       -0.8910618066    -0.3695557596     0.2036406223
| 16>  H        0.1706113559    -1.0974526266    -2.0454946880
| 17>  H        2.6917613521    -0.6852640803    -2.1999671569
| 18>  H        2.5232969394     0.7035102261    -1.0381109294
| 19>  H        2.1638258676    -2.3115963869    -0.3305399814
| 20> *
| 21>
| 22>                          ****END OF INPUT****

CARTESIAN COORDINATES (ANGSTROEM)
---------------------------------
  C     -0.083755    1.618379   -0.026724
  C      0.068445    0.102843   -0.044406
  C      0.717354   -0.623778   -1.240632
  C      2.156420   -0.268660   -1.352940
  C      1.751923   -1.310454   -0.313340
  C      1.127423   -0.605224    0.853946
  O      1.267222   -0.670924    2.042631
  H      0.840111    2.126315   -0.318503
  H     -0.875718    1.944544   -0.708772
  H     -0.345335    1.956380    0.980763
  H     -0.891062   -0.369556    0.203641
  H      0.170611   -1.097453   -2.045495
  H      2.691761   -0.685264   -2.199967
  H      2.523297    0.703510   -1.038111
  H      2.163826   -2.311596   -0.330540

 Total Charge           Charge          ....    0
 Multiplicity           Mult            ....    1
 Number of Electrons    NEL             ....   52
 Basis Dimension        Dim             ....  265

ORBITAL ENERGIES
----------------

  NO   OCC          E(Eh)            E(eV)
   0   2.0000     -20.543751      -559.0239
   1   2.0000     -11.329981      -308.3045
   2   2.0000     -11.258648      -306.3634
   3   2.0000     -11.254967      -306.2632
   4   2.0000     -11.251270      -306.1626
   5   2.0000     -11.250901      -306.1526
   6   2.0000     -11.226938      -305.5005
   7   2.0000      -1.388073       -37.7714
   8   2.0000      -1.208240       -32.8779
   9   2.0000      -1.032465       -28.0948
  10   2.0000      -0.929998       -25.3065
  11   2.0000      -0.866073       -23.5671
  12   2.0000      -0.801829       -21.8189
  13   2.0000      -0.722790       -19.6681
  14   2.0000      -0.685119       -18.6430
  15   2.0000      -0.654431       -17.8080
  16   2.0000      -0.609895       -16.5961
  17   2.0000      -0.605211       -16.4686
  18   2.0000      -0.569053       -15.4847
  19   2.0000      -0.562969       -15.3192
  20   2.0000      -0.537275       -14.6200
  21   2.0000      -0.510910       -13.9026
  22   2.0000      -0.492955       -13.4140
  23   2.0000      -0.443601       -12.0710
  24   2.0000      -0.407142       -11.0789
  25   2.0000      -0.390414       -10.6237
  26   0.0000       0.125431         3.4132
  27   0.0000       0.152724         4.1558
  28   0.0000       0.154142         4.1944
  29   0.0000       0.171069         4.6550
  30   0.0000       0.181509         4.9391

MULLIKEN ATOMIC CHARGES
-----------------------
   0 C :   -0.394297
   1 C :   -0.051527
   2 C :   -0.112726
   3 C :   -0.269491
   4 C :   -0.122066
   5 C :    0.115755
   6 O :   -0.265601
   7 H :    0.118755
   8 H :    0.134707
   9 H :    0.147733
  10 H :    0.117839
  11 H :    0.144917
  12 H :    0.141893
  13 H :    0.145036
  14 H :    0.149074
Sum of atomic charges:    0.0000000

LOEWDIN ATOMIC CHARGES
----------------------
   0 C :   -0.289845
   1 C :   -0.204090
   2 C :   -0.150617
   3 C :   -0.189493
   4 C :   -0.135943
   5 C :   -0.291368
   6 O :    0.154485
   7 H :    0.123106
   8 H :    0.125738
   9 H :    0.132291
  10 H :    0.166038
  11 H :    0.139504
  12 H :    0.143945
  13 H :    0.134421
  14 H :    0.141829

  Mayer bond orders larger than 0.1
B(  0-C ,  1-C ) :   0.9091 B(  0-C ,  7-H ) :   0.9323 B(  0-C ,  8-H ) :   0.9375
B(  0-C ,  9-H ) :   0.9328 B(  1-C ,  2-C ) :   0.9167 B(  1-C ,  4-C ) :  -0.1098
B(  1-C ,  5-C ) :   0.8987 B(  1-C , 10-H ) :   0.9002 B(  2-C ,  3-C ) :   0.9052
B(  2-C ,  4-C ) :   0.8352 B(  2-C , 11-H ) :   0.9197 B(  3-C ,  4-C ) :   0.8385
B(  3-C , 12-H ) :   0.9275 B(  3-C , 13-H ) :   0.9215 B(  4-C ,  5-C ) :   0.9132
B(  4-C , 14-H ) :   0.9133 B(  5-C ,  6-O ) :   2.0329

MP2 TOTAL ENERGY:     -307.969417516 Eh
FINAL SINGLE POINT ENERGY      -307.969417515830

DIPOLE MOMENT
-------------
                                X             Y             Z
Electronic contribution:      1.39143      -3.74795       3.96630
Nuclear contribution   :     -1.56433       3.79906      -5.21981
                        -----------------------------------------
Total Dipole Moment    :     -0.17290       0.05111      -1.25351
                        -----------------------------------------
Magnitude (a.u.)       :      1.26641
Magnitude (Debye)      :      3.21895

                             ****ORCA TERMINATED NORMALLY****
TOTAL RUN TIME: 0 days 0 hours 9 minutes 2 seconds 654 msec
