                         Program Version 3.0.3 - RELEASE   -
|  1> ! RI-MP2 RIJK def2-TZVP def2-TZVP/C def2-TZVP/JK TIGHTSCF
|  2> % maxcore 2000
|  3> % mp2 density relaxed end
|  4> *xyz 0 1
|  5>  C        0.3780871730     0.8813495829     0.9600290723
|  6>  C        0.2640547555    -0.4948271317     0.3007120070
|  7>  C        0.5357343214    -0.4647287844    -1.2104253810
|  8>  O        1.8671425111     0.0133937795    -1.4020845793
|  9>  C        1.9960036899     1.0623546214    -2.3382458161
| 10>  C        0.3637081665    -1.8416456284    -1.8629502955
| 11>  C       -1.0431066555    -2.4068346469    -1.8345318551
| 12>  C        1.2580975833    -2.2275291678    -2.9847508784
| 13>  N        1.4302649252    -2.8366524449    -1.6492829489
| 14>  H        1.3760415076     1.3011695899     0.8098038149
| 15>  H       -0.3524406963     1.5844158987     0.5429759455
| 16>  H        0.1956216516     0.8161580032     2.0368491497
| 17>  H        0.9731887722    -1.1919118646     0.7632826044
| 18>  H       -0.7355192375    -0.9065090570     0.4739340973
| 19>  H       -0.1743460581     0.2335626240    -1.6810824718
| 20>  H        3.0608058895     1.2998218347    -2.4109183261
| 21>  H        1.6295069104     0.7776574359    -3.3349349878
| 22>  H        1.4552699783     1.9633338733    -2.0138932391
| 23>  H       -1.7507413840    -1.7249191323    -2.3206291292
| 24>  H       -1.0719920910    -3.3635077961    -2.3614474566
| 25>  H       -1.3905155076    -2.5851631818    -0.8123891630
| 26>  H        0.8863285217    -2.9021776842    -3.7518014218
| 27>  H        2.0157912364    -1.5279319734    -3.3187770444
| 28>  H        2.2175103065    -2.3685617501    -1.2021429069
| 29> *
| 30>
| 31>                          ****END OF INPUT****

CARTESIAN COORDINATES (ANGSTROEM)
---------------------------------
  C      0.378087    0.881350    0.960029
  C      0.264055   -0.494827    0.300712
  C      0.535734   -0.464729   -1.210425
  O      1.867143    0.013394   -1.402085
  C      1.996004    1.062355   -2.338246
  C      0.363708   -1.841646   -1.862950
  C     -1.043107   -2.406835   -1.834532
  C      1.258098   -2.227529   -2.984751
  N      1.430265   -2.836652   -1.649283
  H      1.376042    1.301170    0.809804
  H     -0.352441    1.584416    0.542976
  H      0.195622    0.816158    2.036849
  H      0.973189   -1.191912    0.763283
  H     -0.735519   -0.906509    0.473934
  H     -0.174346    0.233563   -1.681082
  H      3.060806    1.299822   -2.410918
  H      1.629507    0.777657   -3.334935
  H      1.455270    1.963334   -2.013893
  H     -1.750741   -1.724919   -2.320629
  H     -1.071992   -3.363508   -2.361447
  H     -1.390516   -2.585163   -0.812389
  H      0.886329   -2.902178   -3.751801
  H      2.015791   -1.527932   -3.318777
  H      2.217510   -2.368562   -1.202143

 Total Charge           Charge          ....    0
 Multiplicity           Mult            ....    1
 Number of Electrons    NEL             ....   72
 Basis Dimension        Dim             ....  369

ORBITAL ENERGIES
----------------

  NO   OCC          E(Eh)            E(eV)
   0   2.0000     -20.558694      -559.4305
   1   2.0000     -15.544065      -422.9755
   2   2.0000     -11.285219      -307.0864
   3   2.0000     -11.277540      -306.8775
   4   2.0000     -11.259204      -306.3785
   5   2.0000     -11.242868      -305.9340
   6   2.0000     -11.220889      -305.3359
   7   2.0000     -11.215657      -305.1936
   8   2.0000     -11.212751      -305.1145
   9   2.0000      -1.380230       -37.5580
  10   2.0000      -1.251608       -34.0580
  11   2.0000      -1.062570       -28.9140
  12   2.0000      -0.992246       -27.0004
  13   2.0000      -0.954635       -25.9769
  14   2.0000      -0.892781       -24.2938
  15   2.0000      -0.872875       -23.7521
  16   2.0000      -0.816193       -22.2097
  17   2.0000      -0.753856       -20.5135
  18   2.0000      -0.704277       -19.1644
  19   2.0000      -0.670781       -18.2529
  20   2.0000      -0.645157       -17.5556
  21   2.0000      -0.606508       -16.5039
  22   2.0000      -0.601514       -16.3680
  23   2.0000      -0.586628       -15.9630
  24   2.0000      -0.575117       -15.6497
  25   2.0000      -0.561062       -15.2673
  26   2.0000      -0.546787       -14.8788
  27   2.0000      -0.526760       -14.3339
  28   2.0000      -0.505563       -13.7571
  29   2.0000      -0.497249       -13.5308
  30   2.0000      -0.483288       -13.1509
  31   2.0000      -0.475327       -12.9343
  32   2.0000      -0.465099       -12.6560
  33   2.0000      -0.447939       -12.1890
  34   2.0000      -0.415352       -11.3023
  35   2.0000      -0.374911       -10.2018
  36   0.0000       0.133110         3.6221
  37   0.0000       0.152882         4.1601
  38   0.0000       0.159473         4.3395
  39   0.0000       0.170918         4.6509
  40   0.0000       0.188245         5.1224

MULLIKEN ATOMIC CHARGES
-----------------------
   0 C :   -0.409319
   1 C :   -0.185112
   2 C :    0.078633
   3 O :   -0.350053
   4 C :   -0.239466
   5 C :    0.183110
   6 C :   -0.446551
   7 C :   -0.204358
   8 N :   -0.399614
   9 H :    0.143067
  10 H :    0.116105
  11 H :    0.136931
  12 H :    0.116652
  13 H :    0.112505
  14 H :    0.080073
  15 H :    0.139690
  16 H :    0.123852
  17 H :    0.128180
  18 H :    0.124713
  19 H :    0.143572
  20 H :    0.135254
  21 H :    0.116080
  22 H :    0.128708
  23 H :    0.227349
Sum of atomic charges:   -0.0000000

LOEWDIN ATOMIC CHARGES
----------------------
   0 C :   -0.319027
   1 C :   -0.266168
   2 C :   -0.289362
   3 O :    0.155072
   4 C :   -0.365198
   5 C :   -0.320432
   6 C :   -0.266152
   7 C :   -0.248046
   8 N :    0.002748
   9 H :    0.124269
  10 H :    0.119101
  11 H :    0.121959
  12 H :    0.142951
  13 H :    0.140407
  14 H :    0.146769
  15 H :    0.114297
  16 H :    0.102218
  17 H :    0.104102
  18 H :    0.126248
  19 H :    0.133456
  20 H :    0.125383
  21 H :    0.123297
  22 H :    0.123357
  23 H :    0.168751

  Mayer bond orders larger than 0.1
B(  0-C ,  1-C ) :   0.9081 B(  0-C ,  9-H ) :   0.9418 B(  0-C , 10-H ) :   0.9367
B(  0-C , 11-H ) :   0.9415 B(  1-C ,  2-C ) :   0.9311 B(  1-C , 12-H ) :   0.9189
B(  1-C , 13-H ) :   0.9314 B(  2-C ,  3-O ) :   0.8156 B(  2-C ,  5-C ) :   0.9551
B(  2-C , 14-H ) :   0.9185 B(  3-O ,  4-C ) :   0.9051 B(  4-C , 15-H ) :   0.9394
B(  4-C , 16-H ) :   0.9354 B(  4-C , 17-H ) :   0.9345 B(  5-C ,  6-C ) :   0.8768
B(  5-C ,  7-C ) :   0.9468 B(  5-C ,  8-N ) :   0.8641 B(  6-C , 18-H ) :   0.9386
B(  6-C , 19-H ) :   0.9345 B(  6-C , 20-H ) :   0.9423 B(  7-C ,  8-N ) :   0.9245
B(  7-C , 21-H ) :   0.9144 B(  7-C , 22-H ) :   0.9106 B(  8-N , 23-H ) :   0.8704

MP2 TOTAL ENERGY:     -404.829386944 Eh
FINAL SINGLE POINT ENERGY      -404.829386943744

DIPOLE MOMENT
-------------
                                X             Y             Z
Electronic contribution:      3.14281      -3.47317      -1.61052
Nuclear contribution   :     -3.42149       4.37181       1.29926
                        -----------------------------------------
Total Dipole Moment    :     -0.27869       0.89864      -0.31126
                        -----------------------------------------
Magnitude (a.u.)       :      0.99101
Magnitude (Debye)      :      2.51896

                             ****ORCA TERMINATED NORMALLY****
TOTAL RUN TIME: 0 days 0 hours 20 minutes 47 seconds 873 msec
