                         Program Version 3.0.3 - RELEASE   -
|  1> ! RI-MP2 RIJK def2-TZVP def2-TZVP/C def2-TZVP/JK TIGHTSCF
|  2> % maxcore 2000
|  3> % mp2 density relaxed end
|  4> *xyz 0 1
|  5>  C        0.0482020169     1.5802084836    -0.0599602002
|  6>  C        0.0106628996     0.0932503325     0.1331514397
|  7>  O       -1.2642567720    -0.4595034654    -0.0311258354
|  8>  C       -1.3479164467    -1.6507199401     0.7426211018
|  9>  O       -0.2240504357    -1.6803574659     1.6206680164
| 10>  C        0.6750971731    -0.7147777121     1.1850925606
| 11>  C        1.2136912709    -0.8012647653    -0.2607152464
| 12>  C        1.0660415711    -1.9783171640    -1.0582632805
| 13>  N        0.9405194634    -2.9299805844    -1.7051947681
| 14>  H        1.0521778012     1.9702661240     0.1251940456
| 15>  H       -0.2377710726     1.8399892458    -1.0834921646
| 16>  H       -0.6502668194     2.0656974446     0.6278067334
| 17>  H       -2.2692574849    -1.6354477805     1.3356334057
| 18>  H       -1.3246827584    -2.5257111805     0.0836325062
| 19>  H        1.3168639465    -0.3351155790     1.9706272915
| 20>  H        2.1407370170    -0.2598557634    -0.4258021059
| 21> *
| 22>
| 23>                          ****END OF INPUT****

CARTESIAN COORDINATES (ANGSTROEM)
---------------------------------
  C      0.048202    1.580208   -0.059960
  C      0.010663    0.093250    0.133151
  O     -1.264257   -0.459503   -0.031126
  C     -1.347916   -1.650720    0.742621
  O     -0.224050   -1.680357    1.620668
  C      0.675097   -0.714778    1.185093
  C      1.213691   -0.801265   -0.260715
  C      1.066042   -1.978317   -1.058263
  N      0.940519   -2.929981   -1.705195
  H      1.052178    1.970266    0.125194
  H     -0.237771    1.839989   -1.083492
  H     -0.650267    2.065697    0.627807
  H     -2.269257   -1.635448    1.335633
  H     -1.324683   -2.525711    0.083633
  H      1.316864   -0.335116    1.970627
  H      2.140737   -0.259856   -0.425802

 Total Charge           Charge          ....    0
 Multiplicity           Mult            ....    1
 Number of Electrons    NEL             ....   66
 Basis Dimension        Dim             ....  321

ORBITAL ENERGIES
----------------

  NO   OCC          E(Eh)            E(eV)
   0   2.0000     -20.596356      -560.4553
   1   2.0000     -20.594993      -560.4182
   2   2.0000     -15.570406      -423.6923
   3   2.0000     -11.349484      -308.8352
   4   2.0000     -11.332752      -308.3799
   5   2.0000     -11.325814      -308.1911
   6   2.0000     -11.288834      -307.1848
   7   2.0000     -11.277862      -306.8862
   8   2.0000     -11.249859      -306.1242
   9   2.0000      -1.475228       -40.1430
  10   2.0000      -1.369082       -37.2546
  11   2.0000      -1.221519       -33.2392
  12   2.0000      -1.167741       -31.7759
  13   2.0000      -1.013631       -27.5823
  14   2.0000      -0.956708       -26.0334
  15   2.0000      -0.889382       -24.2013
  16   2.0000      -0.831789       -22.6341
  17   2.0000      -0.744269       -20.2526
  18   2.0000      -0.717066       -19.5124
  19   2.0000      -0.695052       -18.9133
  20   2.0000      -0.643781       -17.5182
  21   2.0000      -0.631456       -17.1828
  22   2.0000      -0.612363       -16.6632
  23   2.0000      -0.607177       -16.5221
  24   2.0000      -0.577082       -15.7032
  25   2.0000      -0.564529       -15.3616
  26   2.0000      -0.556066       -15.1313
  27   2.0000      -0.543800       -14.7976
  28   2.0000      -0.501281       -13.6406
  29   2.0000      -0.499432       -13.5902
  30   2.0000      -0.476350       -12.9622
  31   2.0000      -0.404492       -11.0068
  32   2.0000      -0.399362       -10.8672
  33   0.0000       0.119267         3.2454
  34   0.0000       0.156459         4.2575
  35   0.0000       0.161108         4.3840
  36   0.0000       0.166060         4.5187
  37   0.0000       0.174815         4.7570

MULLIKEN ATOMIC CHARGES
-----------------------
   0 C :   -0.414877
   1 C :    0.243048
   2 O :   -0.314250
   3 C :    0.099527
   4 O :   -0.316215
   5 C :    0.063910
   6 C :   -0.142947
   7 C :   -0.163059
   8 N :   -0.061460
   9 H :    0.133319
  10 H :    0.155194
  11 H :    0.146847
  12 H :    0.125028
  13 H :    0.132877
  14 H :    0.151714
  15 H :    0.161341
Sum of atomic charges:   -0.0000000

LOEWDIN ATOMIC CHARGES
----------------------
   0 C :   -0.253509
   1 C :   -0.312800
   2 O :    0.220173
   3 C :   -0.313270
   4 O :    0.199404
   5 C :   -0.234202
   6 C :   -0.162420
   7 C :   -0.178884
   8 N :    0.065704
   9 H :    0.134193
  10 H :    0.138191
  11 H :    0.136476
  12 H :    0.118140
  13 H :    0.118861
  14 H :    0.148166
  15 H :    0.175776

  Mayer bond orders larger than 0.1
B(  0-C ,  1-C ) :   0.8934 B(  0-C ,  9-H ) :   0.9347 B(  0-C , 10-H ) :   0.9350
B(  0-C , 11-H ) :   0.9309 B(  1-C ,  2-O ) :   1.0054 B(  1-C ,  5-C ) :   0.8996
B(  1-C ,  6-C ) :   0.7840 B(  2-O ,  3-C ) :   0.9326 B(  3-C ,  4-O ) :   0.9217
B(  3-C , 12-H ) :   0.9212 B(  3-C , 13-H ) :   0.9317 B(  4-O ,  5-C ) :   1.0114
B(  5-C ,  6-C ) :   0.7782 B(  5-C , 14-H ) :   0.9252 B(  6-C ,  7-C ) :   0.9830
B(  6-C , 15-H ) :   0.8880 B(  7-C ,  8-N ) :   2.8284

MP2 TOTAL ENERGY:     -437.152452619 Eh
FINAL SINGLE POINT ENERGY      -437.152452619274

DIPOLE MOMENT
-------------
                                X             Y             Z
Electronic contribution:      0.64587      -5.58966      -0.96127
Nuclear contribution   :     -0.48664       7.11535       1.83105
                        -----------------------------------------
Total Dipole Moment    :      0.15923       1.52569       0.86979
                        -----------------------------------------
Magnitude (a.u.)       :      1.76341
Magnitude (Debye)      :      4.48224

                             ****ORCA TERMINATED NORMALLY****
TOTAL RUN TIME: 0 days 0 hours 16 minutes 11 seconds 134 msec
