                         Program Version 3.0.3 - RELEASE   -
|  1> ! RI-MP2 RIJK def2-TZVP def2-TZVP/C def2-TZVP/JK TIGHTSCF
|  2> % maxcore 2000
|  3> % mp2 density relaxed end
|  4> *xyz 0 1
|  5>  C       -0.0325417925     1.4821693696     0.0458069272
|  6>  C       -0.0205063886    -0.0068456387    -0.0306709242
|  7>  N        0.0015564651    -0.7136100421    -1.1144939770
|  8>  C        0.0072483563    -2.0537782484    -0.7339689496
|  9>  C       -0.0125156889    -2.1702218147     0.6246950406
| 10>  N       -0.1036984755    -3.2482116833     1.4805576185
| 11>  N       -0.0277105848    -0.8478411308     1.1086558516
| 12>  C        0.0474725623    -0.4437830684     2.4268260562
| 13>  O        0.1401552830    -1.1889358409     3.3754380892
| 14>  H        0.8481647826     1.8868076300     0.5589313068
| 15>  H       -0.0335502833     1.8605215938    -0.9773344217
| 16>  H       -0.9218405327     1.8703259201     0.5563230173
| 17>  H        0.0156068651    -2.8457654411    -1.4657192950
| 18>  H        0.2588067497    -4.1084951284     1.0982644451
| 19>  H        0.1988224026    -3.0538613605     2.4256050154
| 20>  H        0.0188361894     0.6527595540     2.5291382295
| 21> *
| 22>
| 23>                          ****END OF INPUT****

CARTESIAN COORDINATES (ANGSTROEM)
---------------------------------
  C     -0.032542    1.482169    0.045807
  C     -0.020506   -0.006846   -0.030671
  N      0.001556   -0.713610   -1.114494
  C      0.007248   -2.053778   -0.733969
  C     -0.012516   -2.170222    0.624695
  N     -0.103698   -3.248212    1.480558
  N     -0.027711   -0.847841    1.108656
  C      0.047473   -0.443783    2.426826
  O      0.140155   -1.188936    3.375438
  H      0.848165    1.886808    0.558931
  H     -0.033550    1.860522   -0.977334
  H     -0.921841    1.870326    0.556323
  H      0.015607   -2.845765   -1.465719
  H      0.258807   -4.108495    1.098264
  H      0.198822   -3.053861    2.425605
  H      0.018836    0.652760    2.529138

 Total Charge           Charge          ....    0
 Multiplicity           Mult            ....    1
 Number of Electrons    NEL             ....   66
 Basis Dimension        Dim             ....  321

ORBITAL ENERGIES
----------------

  NO   OCC          E(Eh)            E(eV)
   0   2.0000     -20.570461      -559.7507
   1   2.0000     -15.640475      -425.5990
   2   2.0000     -15.571988      -423.7353
   3   2.0000     -15.558616      -423.3715
   4   2.0000     -11.390863      -309.9611
   5   2.0000     -11.316939      -307.9496
   6   2.0000     -11.313142      -307.8462
   7   2.0000     -11.250924      -306.1532
   8   2.0000     -11.235116      -305.7231
   9   2.0000      -1.431774       -38.9606
  10   2.0000      -1.352130       -36.7933
  11   2.0000      -1.223933       -33.3049
  12   2.0000      -1.190518       -32.3957
  13   2.0000      -1.048572       -28.5331
  14   2.0000      -0.960077       -26.1250
  15   2.0000      -0.905706       -24.6455
  16   2.0000      -0.824681       -22.4407
  17   2.0000      -0.778179       -21.1753
  18   2.0000      -0.724240       -19.7076
  19   2.0000      -0.690813       -18.7980
  20   2.0000      -0.666480       -18.1359
  21   2.0000      -0.659384       -17.9427
  22   2.0000      -0.644128       -17.5276
  23   2.0000      -0.610481       -16.6120
  24   2.0000      -0.590499       -16.0683
  25   2.0000      -0.572942       -15.5906
  26   2.0000      -0.558307       -15.1923
  27   2.0000      -0.545087       -14.8326
  28   2.0000      -0.480812       -13.0835
  29   2.0000      -0.472084       -12.8460
  30   2.0000      -0.445145       -12.1130
  31   2.0000      -0.414459       -11.2780
  32   2.0000      -0.293228        -7.9791
  33   0.0000       0.097400         2.6504
  34   0.0000       0.127108         3.4588
  35   0.0000       0.142521         3.8782
  36   0.0000       0.181515         4.9393
  37   0.0000       0.188971         5.1421

MULLIKEN ATOMIC CHARGES
-----------------------
   0 C :   -0.471129
   1 C :    0.163455
   2 N :   -0.261286
   3 C :   -0.166834
   4 C :    0.185719
   5 N :   -0.512092
   6 N :   -0.054998
   7 C :    0.172542
   8 O :   -0.332419
   9 H :    0.150919
  10 H :    0.173735
  11 H :    0.152331
  12 H :    0.135979
  13 H :    0.253863
  14 H :    0.279964
  15 H :    0.130251
Sum of atomic charges:    0.0000000

LOEWDIN ATOMIC CHARGES
----------------------
   0 C :   -0.281637
   1 C :   -0.307745
   2 N :    0.124598
   3 C :   -0.248655
   4 C :   -0.284278
   5 N :   -0.059815
   6 N :    0.269302
   7 C :   -0.336484
   8 O :    0.102244
   9 H :    0.131387
  10 H :    0.147756
  11 H :    0.132060
  12 H :    0.133388
  13 H :    0.175051
  14 H :    0.173176
  15 H :    0.129653

  Mayer bond orders larger than 0.1
B(  0-C ,  1-C ) :   0.8529 B(  0-C ,  9-H ) :   0.9347 B(  0-C , 10-H ) :   0.9387
B(  0-C , 11-H ) :   0.9342 B(  1-C ,  2-N ) :   1.7099 B(  1-C ,  6-N ) :   1.0381
B(  2-N ,  3-C ) :   1.1672 B(  3-C ,  4-C ) :   1.5304 B(  3-C , 12-H ) :   0.9472
B(  4-C ,  5-N ) :   1.0761 B(  4-C ,  6-N ) :   1.0252 B(  5-N , 13-H ) :   0.8730
B(  5-N , 14-H ) :   0.8435 B(  6-N ,  7-C ) :   1.0220 B(  7-C ,  8-O ) :   1.8769
B(  7-C , 15-H ) :   0.9283

MP2 TOTAL ENERGY:     -433.399631564 Eh
FINAL SINGLE POINT ENERGY      -433.399631563696

DIPOLE MOMENT
-------------
                                X             Y             Z
Electronic contribution:     -0.02736      -3.04963       1.51430
Nuclear contribution   :      0.32649       3.22566      -1.17457
                        -----------------------------------------
Total Dipole Moment    :      0.29913       0.17603       0.33973
                        -----------------------------------------
Magnitude (a.u.)       :      0.48568
Magnitude (Debye)      :      1.23450

                             ****ORCA TERMINATED NORMALLY****
TOTAL RUN TIME: 0 days 0 hours 15 minutes 37 seconds 232 msec
