                         Program Version 3.0.3 - RELEASE   -
|  1> ! RI-MP2 RIJK def2-TZVP def2-TZVP/C def2-TZVP/JK TIGHTSCF
|  2> % maxcore 2000
|  3> % mp2 density relaxed end
|  4> *xyz 0 1
|  5>  C        0.0086088850     1.4859897412     0.0500312328
|  6>  C       -0.0435745857    -0.0029659226    -0.0221297042
|  7>  C       -0.0578732427    -0.8204760792    -1.0831302220
|  8>  C       -0.0032544280    -2.2590617190    -0.5272205041
|  9>  N       -0.7326958201    -2.1408296739     0.7581452741
| 10>  C        0.0097734390    -0.9441710468     1.2122353391
| 11>  C        1.4579718225    -1.5060517496     1.1715062542
| 12>  O        1.5829131255    -2.9226762361     1.3313410802
| 13>  C        1.4489874358    -2.3860107041     0.0113695137
| 14>  H        0.9314634158     1.8294466409     0.5353910987
| 15>  H       -0.0361579044     1.9407037300    -0.9434498967
| 16>  H       -0.8205248758     1.8867267589     0.6471275027
| 17>  H       -0.0201030289    -0.5453206549    -2.1295508295
| 18>  H       -0.3620241786    -3.0613007856    -1.1715243812
| 19>  H       -1.6884551363    -1.8589590870     0.5502879685
| 20>  H       -0.3343552123    -0.5345050639     2.1626881401
| 21>  H        2.3028545998    -0.8988885352     1.4805711420
| 22>  H        2.2859588594    -2.5222748830    -0.6658807185
| 23> *
| 24>
| 25>                          ****END OF INPUT****

CARTESIAN COORDINATES (ANGSTROEM)
---------------------------------
  C      0.008609    1.485990    0.050031
  C     -0.043575   -0.002966   -0.022130
  C     -0.057873   -0.820476   -1.083130
  C     -0.003254   -2.259062   -0.527221
  N     -0.732696   -2.140830    0.758145
  C      0.009773   -0.944171    1.212235
  C      1.457972   -1.506052    1.171506
  O      1.582913   -2.922676    1.331341
  C      1.448987   -2.386011    0.011370
  H      0.931463    1.829447    0.535391
  H     -0.036158    1.940704   -0.943450
  H     -0.820525    1.886727    0.647128
  H     -0.020103   -0.545321   -2.129551
  H     -0.362024   -3.061301   -1.171524
  H     -1.688455   -1.858959    0.550288
  H     -0.334355   -0.534505    2.162688
  H      2.302855   -0.898889    1.480571
  H      2.285959   -2.522275   -0.665881

 Total Charge           Charge          ....    0
 Multiplicity           Mult            ....    1
 Number of Electrons    NEL             ....   66
 Basis Dimension        Dim             ....  333

ORBITAL ENERGIES
----------------

  NO   OCC          E(Eh)            E(eV)
   0   2.0000     -20.559566      -559.4542
   1   2.0000     -15.545017      -423.0014
   2   2.0000     -11.280715      -306.9639
   3   2.0000     -11.279522      -306.9314
   4   2.0000     -11.269963      -306.6713
   5   2.0000     -11.269227      -306.6512
   6   2.0000     -11.244489      -305.9781
   7   2.0000     -11.236438      -305.7590
   8   2.0000     -11.227895      -305.5266
   9   2.0000      -1.409981       -38.3675
  10   2.0000      -1.246704       -33.9245
  11   2.0000      -1.070116       -29.1193
  12   2.0000      -0.997821       -27.1521
  13   2.0000      -0.967094       -26.3160
  14   2.0000      -0.925954       -25.1965
  15   2.0000      -0.801732       -21.8162
  16   2.0000      -0.794307       -21.6142
  17   2.0000      -0.734785       -19.9945
  18   2.0000      -0.717788       -19.5320
  19   2.0000      -0.657915       -17.9028
  20   2.0000      -0.635668       -17.2974
  21   2.0000      -0.591855       -16.1052
  22   2.0000      -0.578470       -15.7410
  23   2.0000      -0.566607       -15.4182
  24   2.0000      -0.558636       -15.2013
  25   2.0000      -0.534590       -14.5469
  26   2.0000      -0.527951       -14.3663
  27   2.0000      -0.504023       -13.7152
  28   2.0000      -0.472657       -12.8617
  29   2.0000      -0.464268       -12.6334
  30   2.0000      -0.408458       -11.1147
  31   2.0000      -0.400518       -10.8987
  32   2.0000      -0.337389        -9.1808
  33   0.0000       0.130240         3.5440
  34   0.0000       0.136996         3.7278
  35   0.0000       0.156911         4.2698
  36   0.0000       0.171019         4.6537
  37   0.0000       0.172161         4.6847

MULLIKEN ATOMIC CHARGES
-----------------------
   0 C :   -0.449179
   1 C :   -0.059182
   2 C :   -0.270032
   3 C :    0.056926
   4 N :   -0.291166
   5 C :    0.070566
   6 C :   -0.036389
   7 O :   -0.310834
   8 C :   -0.009421
   9 H :    0.142351
  10 H :    0.143347
  11 H :    0.144588
  12 H :    0.130534
  13 H :    0.145191
  14 H :    0.199470
  15 H :    0.145692
  16 H :    0.126887
  17 H :    0.120650
Sum of atomic charges:    0.0000000

LOEWDIN ATOMIC CHARGES
----------------------
   0 C :   -0.277218
   1 C :   -0.161423
   2 C :   -0.120498
   3 C :   -0.235550
   4 N :    0.043784
   5 C :   -0.212971
   6 C :   -0.238750
   7 O :    0.185215
   8 C :   -0.239820
   9 H :    0.133487
  10 H :    0.132524
  11 H :    0.132662
  12 H :    0.136057
  13 H :    0.139514
  14 H :    0.170752
  15 H :    0.141292
  16 H :    0.135401
  17 H :    0.135542

  Mayer bond orders larger than 0.1
B(  0-C ,  1-C ) :   0.8872 B(  0-C ,  9-H ) :   0.9237 B(  0-C , 10-H ) :   0.9486
B(  0-C , 11-H ) :   0.9383 B(  1-C ,  2-C ) :   1.7247 B(  1-C ,  5-C ) :   0.9342
B(  2-C ,  3-C ) :   0.9396 B(  2-C , 12-H ) :   0.9291 B(  3-C ,  4-N ) :   1.0048
B(  3-C ,  8-C ) :   0.8456 B(  3-C , 13-H ) :   0.9073 B(  4-N ,  5-C ) :   1.0238
B(  4-N , 14-H ) :   0.8696 B(  5-C ,  6-C ) :   0.8209 B(  5-C , 15-H ) :   0.8994
B(  6-C ,  7-O ) :   0.9483 B(  6-C ,  8-C ) :   0.9824 B(  6-C , 16-H ) :   0.9276
B(  7-O ,  8-C ) :   0.9484 B(  8-C , 17-H ) :   0.9285

MP2 TOTAL ENERGY:     -401.220104471 Eh
FINAL SINGLE POINT ENERGY      -401.220104471182

DIPOLE MOMENT
-------------
                                X             Y             Z
Electronic contribution:      1.24756      -6.09153       1.70807
Nuclear contribution   :     -1.38156       7.25854      -2.43602
                        -----------------------------------------
Total Dipole Moment    :     -0.13400       1.16702      -0.72796
                        -----------------------------------------
Magnitude (a.u.)       :      1.38196
Magnitude (Debye)      :      3.51266

                             ****ORCA TERMINATED NORMALLY****
TOTAL RUN TIME: 0 days 0 hours 18 minutes 54 seconds 334 msec
