                         Program Version 3.0.3 - RELEASE   -
|  1> ! RI-MP2 RIJK def2-TZVP def2-TZVP/C def2-TZVP/JK TIGHTSCF
|  2> % maxcore 2000
|  3> % mp2 density relaxed end
|  4> *xyz 0 1
|  5>  O       -0.1131842375     0.1717638282     0.4084515997
|  6>  C        0.0016123561     1.2920241187     0.0417005512
|  7>  O       -1.0024652090     2.1595985627    -0.3636439747
|  8>  C       -0.0575205820     3.2316754297    -0.6435725377
|  9>  C        0.2463964737     4.0846557186     0.5927631778
| 10>  O        1.2873840061     3.1606814172     1.0133983229
| 11>  C        1.1075541451     2.3500984938    -0.1636675948
| 12>  H       -0.2079906282     3.6669889964    -1.6275921105
| 13>  H        0.6689770190     5.0709235246     0.3720475172
| 14>  H       -0.5675186936     4.1706515348     1.3185744987
| 15>  H        2.0324611904     2.0853812353    -0.6754151997
| 16> *
| 17>
| 18>                          ****END OF INPUT****

CARTESIAN COORDINATES (ANGSTROEM)
---------------------------------
  O     -0.113184    0.171764    0.408452
  C      0.001612    1.292024    0.041701
  O     -1.002465    2.159599   -0.363644
  C     -0.057521    3.231675   -0.643573
  C      0.246396    4.084656    0.592763
  O      1.287384    3.160681    1.013398
  C      1.107554    2.350098   -0.163668
  H     -0.207991    3.666989   -1.627592
  H      0.668977    5.070924    0.372048
  H     -0.567519    4.170652    1.318574
  H      2.032461    2.085381   -0.675415

 Total Charge           Charge          ....    0
 Multiplicity           Mult            ....    1
 Number of Electrons    NEL             ....   52
 Basis Dimension        Dim             ....  241

ORBITAL ENERGIES
----------------

  NO   OCC          E(Eh)            E(eV)
   0   2.0000     -20.616699      -561.0089
   1   2.0000     -20.592575      -560.3525
   2   2.0000     -20.569738      -559.7310
   3   2.0000     -11.396441      -310.1129
   4   2.0000     -11.332263      -308.3665
   5   2.0000     -11.329068      -308.2796
   6   2.0000     -11.313861      -307.8658
   7   2.0000      -1.486605       -40.4526
   8   2.0000      -1.416705       -38.5505
   9   2.0000      -1.386090       -37.7174
  10   2.0000      -1.033055       -28.1108
  11   2.0000      -1.001892       -27.2629
  12   2.0000      -0.864763       -23.5314
  13   2.0000      -0.765025       -20.8174
  14   2.0000      -0.734570       -19.9887
  15   2.0000      -0.731513       -19.9055
  16   2.0000      -0.695811       -18.9340
  17   2.0000      -0.647119       -17.6090
  18   2.0000      -0.624260       -16.9870
  19   2.0000      -0.597853       -16.2684
  20   2.0000      -0.587389       -15.9837
  21   2.0000      -0.542538       -14.7632
  22   2.0000      -0.497143       -13.5280
  23   2.0000      -0.490567       -13.3490
  24   2.0000      -0.469341       -12.7714
  25   2.0000      -0.434313       -11.8183
  26   0.0000       0.126206         3.4342
  27   0.0000       0.138866         3.7787
  28   0.0000       0.158745         4.3197
  29   0.0000       0.173442         4.7196
  30   0.0000       0.195539         5.3209

MULLIKEN ATOMIC CHARGES
-----------------------
   0 O :   -0.240581
   1 C :    0.259555
   2 O :   -0.238459
   3 C :    0.000283
   4 C :   -0.023564
   5 O :   -0.317124
   6 C :    0.033275
   7 H :    0.143904
   8 H :    0.117606
   9 H :    0.125453
  10 H :    0.139651
Sum of atomic charges:    0.0000000

LOEWDIN ATOMIC CHARGES
----------------------
   0 O :    0.176953
   1 C :   -0.422762
   2 O :    0.246257
   3 C :   -0.229794
   4 C :   -0.237318
   5 O :    0.148588
   6 C :   -0.212909
   7 H :    0.134980
   8 H :    0.127712
   9 H :    0.129498
  10 H :    0.138795

  Mayer bond orders larger than 0.1
B(  0-O ,  1-C ) :   2.0515 B(  1-C ,  2-O ) :   1.0497 B(  1-C ,  6-C ) :   0.8791
B(  2-O ,  3-C ) :   0.9136 B(  3-C ,  4-C ) :   0.9603 B(  3-C ,  6-C ) :   0.9450
B(  3-C ,  7-H ) :   0.9178 B(  4-C ,  5-O ) :   0.9192 B(  4-C ,  8-H ) :   0.9159
B(  4-C ,  9-H ) :   0.9006 B(  5-O ,  6-C ) :   0.9394 B(  6-C , 10-H ) :   0.9067

MP2 TOTAL ENERGY:     -379.777750197 Eh
FINAL SINGLE POINT ENERGY      -379.777750196866

DIPOLE MOMENT
-------------
                                X             Y             Z
Electronic contribution:     -0.70439      -3.85826       0.28219
Nuclear contribution   :      1.03993       5.24664      -1.09910
                        -----------------------------------------
Total Dipole Moment    :      0.33554       1.38837      -0.81691
                        -----------------------------------------
Magnitude (a.u.)       :      1.64545
Magnitude (Debye)      :      4.18240

                             ****ORCA TERMINATED NORMALLY****
TOTAL RUN TIME: 0 days 0 hours 6 minutes 32 seconds 485 msec
