                         Program Version 3.0.3 - RELEASE   -
|  1> ! RI-MP2 RIJK def2-TZVP def2-TZVP/C def2-TZVP/JK TIGHTSCF
|  2> % maxcore 2000
|  3> % mp2 density relaxed end
|  4> *xyz 0 1
|  5>  C       -0.1313982772     1.5356192789     0.0457106873
|  6>  C        0.0524521526     0.0192533285     0.0216180755
|  7>  C        1.0145304134    -0.5251192934    -1.0944968496
|  8>  C        2.0373930902    -1.2646142187    -0.2075603703
|  9>  C        3.0985186210    -2.1399847577    -0.8016131639
| 10>  O        1.1565630903    -1.9079546434     0.7934155927
| 11>  C        0.8046427726    -0.5589660234     1.2397536356
| 12>  C        2.2813017465    -0.2416829539     0.9303085850
| 13>  O        3.2105651322     0.3033769042     1.4397658314
| 14>  H        0.8300027405     2.0551762255     0.1267039416
| 15>  H       -0.6217391270     1.8836693916    -0.8686499815
| 16>  H       -0.7501568949     1.8470899837     0.8940260431
| 17>  H       -0.9216541650    -0.4734719812    -0.0485155602
| 18>  H        0.5185636524    -1.2168083994    -1.7800542843
| 19>  H        1.4779073041     0.2745322898    -1.6812892564
| 20>  H        3.7479127683    -1.5451211258    -1.4511197290
| 21>  H        3.7134954882    -2.5909802206    -0.0188708179
| 22>  H        2.6528261201    -2.9381307385    -1.4037633341
| 23>  H        0.3592327116    -0.5112724662     2.2317839349
| 24> *
| 25>
| 26>                          ****END OF INPUT****

CARTESIAN COORDINATES (ANGSTROEM)
---------------------------------
  C     -0.131398    1.535619    0.045711
  C      0.052452    0.019253    0.021618
  C      1.014530   -0.525119   -1.094497
  C      2.037393   -1.264614   -0.207560
  C      3.098519   -2.139985   -0.801613
  O      1.156563   -1.907955    0.793416
  C      0.804643   -0.558966    1.239754
  C      2.281302   -0.241683    0.930309
  O      3.210565    0.303377    1.439766
  H      0.830003    2.055176    0.126704
  H     -0.621739    1.883669   -0.868650
  H     -0.750157    1.847090    0.894026
  H     -0.921654   -0.473472   -0.048516
  H      0.518564   -1.216808   -1.780054
  H      1.477907    0.274532   -1.681289
  H      3.747913   -1.545121   -1.451120
  H      3.713495   -2.590980   -0.018871
  H      2.652826   -2.938131   -1.403763
  H      0.359233   -0.511272    2.231784

 Total Charge           Charge          ....    0
 Multiplicity           Mult            ....    1
 Number of Electrons    NEL             ....   68
 Basis Dimension        Dim             ....  339

ORBITAL ENERGIES
----------------

  NO   OCC          E(Eh)            E(eV)
   0   2.0000     -20.573107      -559.8227
   1   2.0000     -20.564101      -559.5776
   2   2.0000     -11.340899      -308.6015
   3   2.0000     -11.307769      -307.7000
   4   2.0000     -11.300753      -307.5091
   5   2.0000     -11.251950      -306.1811
   6   2.0000     -11.243618      -305.9544
   7   2.0000     -11.232653      -305.6560
   8   2.0000     -11.231184      -305.6161
   9   2.0000      -1.425054       -38.7777
  10   2.0000      -1.390008       -37.8240
  11   2.0000      -1.105227       -30.0747
  12   2.0000      -1.047159       -28.4946
  13   2.0000      -0.967480       -26.3265
  14   2.0000      -0.942773       -25.6541
  15   2.0000      -0.886231       -24.1156
  16   2.0000      -0.784783       -21.3550
  17   2.0000      -0.715668       -19.4743
  18   2.0000      -0.689587       -18.7646
  19   2.0000      -0.665419       -18.1070
  20   2.0000      -0.652969       -17.7682
  21   2.0000      -0.638097       -17.3635
  22   2.0000      -0.593437       -16.1483
  23   2.0000      -0.579994       -15.7824
  24   2.0000      -0.564076       -15.3493
  25   2.0000      -0.555656       -15.1202
  26   2.0000      -0.541243       -14.7280
  27   2.0000      -0.532426       -14.4880
  28   2.0000      -0.509377       -13.8609
  29   2.0000      -0.504354       -13.7242
  30   2.0000      -0.494848       -13.4655
  31   2.0000      -0.479037       -13.0353
  32   2.0000      -0.439252       -11.9527
  33   2.0000      -0.391571       -10.6552
  34   0.0000       0.124529         3.3886
  35   0.0000       0.138427         3.7668
  36   0.0000       0.162500         4.4218
  37   0.0000       0.167998         4.5715
  38   0.0000       0.180333         4.9071

MULLIKEN ATOMIC CHARGES
-----------------------
   0 C :   -0.450418
   1 C :   -0.033472
   2 C :   -0.232908
   3 C :    0.122968
   4 C :   -0.413254
   5 O :   -0.287100
   6 C :    0.042751
   7 C :    0.115938
   8 O :   -0.236060
   9 H :    0.142902
  10 H :    0.139972
  11 H :    0.136835
  12 H :    0.107455
  13 H :    0.124364
  14 H :    0.128372
  15 H :    0.142438
  16 H :    0.151953
  17 H :    0.145481
  18 H :    0.151783
Sum of atomic charges:    0.0000000

LOEWDIN ATOMIC CHARGES
----------------------
   0 C :   -0.291191
   1 C :   -0.241149
   2 C :   -0.179767
   3 C :   -0.293070
   4 C :   -0.262818
   5 O :    0.198080
   6 C :   -0.209568
   7 C :   -0.262997
   8 O :    0.173552
   9 H :    0.128507
  10 H :    0.127047
  11 H :    0.126834
  12 H :    0.152091
  13 H :    0.139926
  14 H :    0.143205
  15 H :    0.139726
  16 H :    0.137726
  17 H :    0.135487
  18 H :    0.138377

  Mayer bond orders larger than 0.1
B(  0-C ,  1-C ) :   0.9037 B(  0-C ,  9-H ) :   0.9261 B(  0-C , 10-H ) :   0.9353
B(  0-C , 11-H ) :   0.9392 B(  1-C ,  2-C ) :   0.9472 B(  1-C ,  6-C ) :   0.8888
B(  1-C , 12-H ) :   0.8998 B(  2-C ,  3-C ) :   0.9070 B(  2-C , 13-H ) :   0.9050
B(  2-C , 14-H ) :   0.9165 B(  3-C ,  4-C ) :   0.8692 B(  3-C ,  5-O ) :   0.9108
B(  3-C ,  6-C ) :  -0.1467 B(  3-C ,  7-C ) :   0.8757 B(  4-C , 15-H ) :   0.9312
B(  4-C , 16-H ) :   0.9376 B(  4-C , 17-H ) :   0.9410 B(  5-O ,  6-C ) :   0.9132
B(  6-C ,  7-C ) :   0.9042 B(  6-C , 18-H ) :   0.8947 B(  7-C ,  8-O ) :   2.0933

MP2 TOTAL ENERGY:     -422.323016643 Eh
FINAL SINGLE POINT ENERGY      -422.323016643425

DIPOLE MOMENT
-------------
                                X             Y             Z
Electronic contribution:      3.18786      -1.83531       5.43585
Nuclear contribution   :     -3.85493       1.96202      -6.20390
                        -----------------------------------------
Total Dipole Moment    :     -0.66706       0.12671      -0.76804
                        -----------------------------------------
Magnitude (a.u.)       :      1.02514
Magnitude (Debye)      :      2.60571

                             ****ORCA TERMINATED NORMALLY****
TOTAL RUN TIME: 0 days 0 hours 18 minutes 57 seconds 533 msec
