                         Program Version 3.0.3 - RELEASE   -
|  1> ! RI-MP2 RIJK def2-TZVP def2-TZVP/C def2-TZVP/JK TIGHTSCF
|  2> % maxcore 2000
|  3> % mp2 density relaxed end
|  4> *xyz 0 1
|  5>  C       -0.1212168512     1.5369739916    -0.1977609864
|  6>  C        0.0023731205     0.0455806586     0.0241275648
|  7>  C        1.3036209857    -0.6621228072    -0.1591256896
|  8>  N        0.7086851316    -0.5387673193     1.1685183786
|  9>  C        1.3589507533     0.3098597606     2.1269776464
| 10>  C        0.7033512239     0.4446620908     3.4751931802
| 11>  C        1.9663052221    -0.3704521879     3.3249277898
| 12>  H        0.8255591610     2.0619726285    -0.0491018593
| 13>  H       -0.4500837896     1.7340359685    -1.2236590016
| 14>  H       -0.8623460473     1.9769655390     0.4785457789
| 15>  H       -0.9039029340    -0.5067621890    -0.2229141100
| 16>  H        1.3494541043    -1.6660540635    -0.5741263139
| 17>  H        2.1702967556    -0.0408489522    -0.3850662365
| 18>  H        1.8907066107     1.1854584307     1.7511331503
| 19>  H        0.7566216083     1.4022055768     3.9811221356
| 20>  H       -0.2232721911    -0.0984802928     3.6195848431
| 21>  H        1.8695885388    -1.4488764053     3.3680654421
| 22>  H        2.8924450973     0.0247529020     3.7272073376
| 23> *
| 24>
| 25>                          ****END OF INPUT****

CARTESIAN COORDINATES (ANGSTROEM)
---------------------------------
  C     -0.121217    1.536974   -0.197761
  C      0.002373    0.045581    0.024128
  C      1.303621   -0.662123   -0.159126
  N      0.708685   -0.538767    1.168518
  C      1.358951    0.309860    2.126978
  C      0.703351    0.444662    3.475193
  C      1.966305   -0.370452    3.324928
  H      0.825559    2.061973   -0.049102
  H     -0.450084    1.734036   -1.223659
  H     -0.862346    1.976966    0.478546
  H     -0.903903   -0.506762   -0.222914
  H      1.349454   -1.666054   -0.574126
  H      2.170297   -0.040849   -0.385066
  H      1.890707    1.185458    1.751133
  H      0.756622    1.402206    3.981122
  H     -0.223272   -0.098480    3.619585
  H      1.869589   -1.448876    3.368065
  H      2.892445    0.024753    3.727207

 Total Charge           Charge          ....    0
 Multiplicity           Mult            ....    1
 Number of Electrons    NEL             ....   54
 Basis Dimension        Dim             ....  283

ORBITAL ENERGIES
----------------

  NO   OCC          E(Eh)            E(eV)
   0   2.0000     -15.553215      -423.2245
   1   2.0000     -11.256398      -306.3022
   2   2.0000     -11.252812      -306.2046
   3   2.0000     -11.246961      -306.0454
   4   2.0000     -11.221723      -305.3586
   5   2.0000     -11.217349      -305.2396
   6   2.0000     -11.216370      -305.2129
   7   2.0000      -1.271573       -34.6012
   8   2.0000      -1.128900       -30.7189
   9   2.0000      -0.989461       -26.9246
  10   2.0000      -0.903588       -24.5879
  11   2.0000      -0.822121       -22.3711
  12   2.0000      -0.808268       -21.9941
  13   2.0000      -0.750884       -20.4326
  14   2.0000      -0.685436       -18.6517
  15   2.0000      -0.654475       -17.8092
  16   2.0000      -0.624957       -17.0060
  17   2.0000      -0.575573       -15.6621
  18   2.0000      -0.570433       -15.5223
  19   2.0000      -0.547922       -14.9097
  20   2.0000      -0.514778       -14.0078
  21   2.0000      -0.507871       -13.8199
  22   2.0000      -0.496031       -13.4977
  23   2.0000      -0.453762       -12.3475
  24   2.0000      -0.426932       -11.6174
  25   2.0000      -0.384743       -10.4694
  26   2.0000      -0.360531        -9.8105
  27   0.0000       0.144587         3.9344
  28   0.0000       0.161967         4.4073
  29   0.0000       0.172901         4.7049
  30   0.0000       0.176849         4.8123
  31   0.0000       0.199659         5.4330

MULLIKEN ATOMIC CHARGES
-----------------------
   0 C :   -0.389782
   1 C :   -0.028140
   2 C :   -0.187503
   3 N :   -0.216261
   4 C :   -0.056807
   5 C :   -0.239780
   6 C :   -0.240212
   7 H :    0.122401
   8 H :    0.139696
   9 H :    0.135642
  10 H :    0.115501
  11 H :    0.128456
  12 H :    0.111733
  13 H :    0.094884
  14 H :    0.125072
  15 H :    0.129817
  16 H :    0.129978
  17 H :    0.125304
Sum of atomic charges:   -0.0000000

LOEWDIN ATOMIC CHARGES
----------------------
   0 C :   -0.300831
   1 C :   -0.276249
   2 C :   -0.243564
   3 N :    0.132318
   4 C :   -0.283588
   5 C :   -0.229526
   6 C :   -0.228014
   7 H :    0.123313
   8 H :    0.129754
   9 H :    0.127669
  10 H :    0.140041
  11 H :    0.122365
  12 H :    0.123847
  13 H :    0.132871
  14 H :    0.128771
  15 H :    0.136039
  16 H :    0.136223
  17 H :    0.128563

  Mayer bond orders larger than 0.1
B(  0-C ,  1-C ) :   0.9119 B(  0-C ,  7-H ) :   0.9349 B(  0-C ,  8-H ) :   0.9311
B(  0-C ,  9-H ) :   0.9381 B(  1-C ,  2-C ) :   0.9470 B(  1-C ,  3-N ) :   0.8893
B(  1-C , 10-H ) :   0.9251 B(  2-C ,  3-N ) :   0.8802 B(  2-C , 11-H ) :   0.9193
B(  2-C , 12-H ) :   0.9190 B(  3-N ,  4-C ) :   0.9842 B(  4-C ,  5-C ) :   0.8823
B(  4-C ,  6-C ) :   0.8866 B(  4-C , 13-H ) :   0.9160 B(  5-C ,  6-C ) :   0.9312
B(  5-C , 14-H ) :   0.9264 B(  5-C , 15-H ) :   0.9265 B(  6-C , 16-H ) :   0.9250
B(  6-C , 17-H ) :   0.9267

MP2 TOTAL ENERGY:     -289.268476678 Eh
FINAL SINGLE POINT ENERGY      -289.268476678491

DIPOLE MOMENT
-------------
                                X             Y             Z
Electronic contribution:      0.07653      -2.55127       0.38664
Nuclear contribution   :      0.03582       2.97702      -0.67699
                        -----------------------------------------
Total Dipole Moment    :      0.11235       0.42575      -0.29035
                        -----------------------------------------
Magnitude (a.u.)       :      0.52743
Magnitude (Debye)      :      1.34063

                             ****ORCA TERMINATED NORMALLY****
TOTAL RUN TIME: 0 days 0 hours 9 minutes 12 seconds 456 msec
