                         Program Version 3.0.3 - RELEASE   -
|  1> ! RI-MP2 RIJK def2-TZVP def2-TZVP/C def2-TZVP/JK TIGHTSCF
|  2> % maxcore 2000
|  3> % mp2 density relaxed end
|  4> *xyz 0 1
|  5>  C       -0.1095840896     1.6346204288    -0.0033411409
|  6>  C        0.0320234774     0.1199756006     0.0092223253
|  7>  C        1.1858550287    -0.6089962710    -0.7492121048
|  8>  C        2.1591637693    -0.1557046617     0.3728658337
|  9>  C        0.8677474134    -0.6225932771     1.1149103090
| 10>  C        0.6053989921    -0.6603290502     2.5959531348
| 11>  C        0.8931781977    -1.8654199771     0.1414548605
| 12>  C       -0.3052033125    -2.6539593946    -0.0583416865
| 13>  C       -1.2808081994    -3.3429899016    -0.2073997494
| 14>  H        0.8312611673     2.1700053603     0.1476413237
| 15>  H       -0.5272505920     1.9678612988    -0.9599466710
| 16>  H       -0.8028461144     1.9583497343     0.7813096712
| 17>  H       -0.9472479458    -0.3380907812    -0.1597512332
| 18>  H        1.3706747423    -0.6211510738    -1.8241426653
| 19>  H        3.0519535852    -0.7704138324     0.5226640488
| 20>  H        2.4097208242     0.9036430645     0.4229144412
| 21>  H        0.6047423921     0.3495497437     3.0208421150
| 22>  H       -0.3681991239    -1.1164283067     2.8050226138
| 23>  H        1.3709688365    -1.2432351889     3.1196760371
| 24>  H        1.7607228830    -2.5182889203     0.2851100095
| 25>  H       -2.1435790714    -3.9461079343    -0.3459311525
| 26> *
| 27>
| 28>                          ****END OF INPUT****

CARTESIAN COORDINATES (ANGSTROEM)
---------------------------------
  C     -0.109584    1.634620   -0.003341
  C      0.032023    0.119976    0.009222
  C      1.185855   -0.608996   -0.749212
  C      2.159164   -0.155705    0.372866
  C      0.867747   -0.622593    1.114910
  C      0.605399   -0.660329    2.595953
  C      0.893178   -1.865420    0.141455
  C     -0.305203   -2.653959   -0.058342
  C     -1.280808   -3.342990   -0.207400
  H      0.831261    2.170005    0.147641
  H     -0.527251    1.967861   -0.959947
  H     -0.802846    1.958350    0.781310
  H     -0.947248   -0.338091   -0.159751
  H      1.370675   -0.621151   -1.824143
  H      3.051954   -0.770414    0.522664
  H      2.409721    0.903643    0.422914
  H      0.604742    0.349550    3.020842
  H     -0.368199   -1.116428    2.805023
  H      1.370969   -1.243235    3.119676
  H      1.760723   -2.518289    0.285110
  H     -2.143579   -3.946108   -0.345931

 Total Charge           Charge          ....    0
 Multiplicity           Mult            ....    1
 Number of Electrons    NEL             ....   66
 Basis Dimension        Dim             ....  351

ORBITAL ENERGIES
----------------

  NO   OCC          E(Eh)            E(eV)
   0   2.0000     -11.254058      -306.2385
   1   2.0000     -11.252941      -306.2081
   2   2.0000     -11.246999      -306.0464
   3   2.0000     -11.231737      -305.6311
   4   2.0000     -11.228375      -305.5396
   5   2.0000     -11.227729      -305.5220
   6   2.0000     -11.216455      -305.2152
   7   2.0000     -11.216370      -305.2129
   8   2.0000     -11.213564      -305.1366
   9   2.0000      -1.217382       -33.1266
  10   2.0000      -1.035597       -28.1800
  11   2.0000      -0.994631       -27.0653
  12   2.0000      -0.984073       -26.7780
  13   2.0000      -0.917300       -24.9610
  14   2.0000      -0.861312       -23.4375
  15   2.0000      -0.812302       -22.1038
  16   2.0000      -0.741179       -20.1685
  17   2.0000      -0.697004       -18.9665
  18   2.0000      -0.653959       -17.7951
  19   2.0000      -0.633912       -17.2496
  20   2.0000      -0.615821       -16.7573
  21   2.0000      -0.582564       -15.8524
  22   2.0000      -0.571690       -15.5565
  23   2.0000      -0.548247       -14.9185
  24   2.0000      -0.536613       -14.6020
  25   2.0000      -0.517254       -14.0752
  26   2.0000      -0.475820       -12.9477
  27   2.0000      -0.455516       -12.3952
  28   2.0000      -0.448321       -12.1994
  29   2.0000      -0.437017       -11.8918
  30   2.0000      -0.420253       -11.4357
  31   2.0000      -0.378736       -10.3059
  32   2.0000      -0.365977        -9.9587
  33   0.0000       0.136962         3.7269
  34   0.0000       0.157133         4.2758
  35   0.0000       0.161753         4.4015
  36   0.0000       0.162444         4.4203
  37   0.0000       0.177847         4.8395

MULLIKEN ATOMIC CHARGES
-----------------------
   0 C :   -0.428632
   1 C :   -0.060388
   2 C :   -0.105192
   3 C :   -0.210983
   4 C :    0.019477
   5 C :   -0.413007
   6 C :   -0.233116
   7 C :   -0.013373
   8 C :   -0.145868
   9 H :    0.121602
  10 H :    0.137762
  11 H :    0.134287
  12 H :    0.117318
  13 H :    0.135617
  14 H :    0.106581
  15 H :    0.117295
  16 H :    0.136795
  17 H :    0.144565
  18 H :    0.134455
  19 H :    0.117095
  20 H :    0.187707
Sum of atomic charges:    0.0000000

LOEWDIN ATOMIC CHARGES
----------------------
   0 C :   -0.296047
   1 C :   -0.182396
   2 C :   -0.130083
   3 C :   -0.175197
   4 C :   -0.186240
   5 C :   -0.275591
   6 C :   -0.154010
   7 C :   -0.092640
   8 C :   -0.102581
   9 H :    0.121242
  10 H :    0.127558
  11 H :    0.126684
  12 H :    0.155443
  13 H :    0.126760
  14 H :    0.128635
  15 H :    0.125855
  16 H :    0.129952
  17 H :    0.133553
  18 H :    0.130050
  19 H :    0.163394
  20 H :    0.125659

  Mayer bond orders larger than 0.1
B(  0-C ,  1-C ) :   0.9069 B(  0-C ,  9-H ) :   0.9355 B(  0-C , 10-H ) :   0.9394
B(  0-C , 11-H ) :   0.9385 B(  1-C ,  2-C ) :   0.9117 B(  1-C ,  4-C ) :   0.8904
B(  1-C , 12-H ) :   0.9118 B(  2-C ,  3-C ) :   0.9072 B(  2-C ,  6-C ) :   0.8695
B(  2-C , 13-H ) :   0.8900 B(  3-C ,  4-C ) :   0.8840 B(  3-C , 14-H ) :   0.9243
B(  3-C , 15-H ) :   0.9281 B(  4-C ,  5-C ) :   0.8261 B(  4-C ,  6-C ) :   0.8265
B(  5-C , 16-H ) :   0.9403 B(  5-C , 17-H ) :   0.9430 B(  5-C , 18-H ) :   0.9396
B(  6-C ,  7-C ) :   1.1815 B(  6-C ,  8-C ) :  -0.1354 B(  6-C , 19-H ) :   0.9344
B(  7-C ,  8-C ) :   2.6067 B(  8-C , 20-H ) :   0.8809

MP2 TOTAL ENERGY:     -349.228422250 Eh
FINAL SINGLE POINT ENERGY      -349.228422249955

DIPOLE MOMENT
-------------
                                X             Y             Z
Electronic contribution:     -0.94279      -6.21818      -2.85423
Nuclear contribution   :      1.02424       6.47128       2.97617
                        -----------------------------------------
Total Dipole Moment    :      0.08144       0.25309       0.12193
                        -----------------------------------------
Magnitude (a.u.)       :      0.29250
Magnitude (Debye)      :      0.74348

                             ****ORCA TERMINATED NORMALLY****
TOTAL RUN TIME: 0 days 0 hours 20 minutes 31 seconds 478 msec
