                         Program Version 3.0.3 - RELEASE   -
|  1> ! RI-MP2 RIJK def2-TZVP def2-TZVP/C def2-TZVP/JK TIGHTSCF
|  2> % maxcore 2000
|  3> % mp2 density relaxed end
|  4> *xyz 0 1
|  5>  O       -0.5117613893     0.6408014176    -0.6861477477
|  6>  C        0.1085202512     1.0682430413     0.2531385897
|  7>  C        1.3465340888     1.9360328216     0.1389472931
|  8>  C        1.4717673162     2.6290870526    -1.2174866416
|  9>  O        2.7146591018     3.3103255375    -1.3101173683
| 10>  C        3.0919531206     4.0607650840    -0.1929859947
| 11>  C        2.2360369009     5.1410357234     0.4095645483
| 12>  C        2.4696644395     3.8340051724     1.1638079992
| 13>  N        1.3986813841     2.8657437869     1.2657422423
| 14>  H       -0.1863328727     0.8457304187     1.3035998546
| 15>  H        2.2040137470     1.2485408924     0.2385141528
| 16>  H        1.4564684385     1.9058004779    -2.0348987783
| 17>  H        0.6255802606     3.3190454934    -1.3626882379
| 18>  H        4.1613127348     4.2370916839    -0.2336790416
| 19>  H        2.7242631907     6.0429929137     0.7622170896
| 20>  H        1.2409662762     5.2972326391     0.0062357667
| 21>  H        3.1241250081     3.8724897833     2.0319664235
| 22>  H        0.5052797029     3.3318760802     1.3841151802
| 23> *
| 24>
| 25>                          ****END OF INPUT****

CARTESIAN COORDINATES (ANGSTROEM)
---------------------------------
  O     -0.511761    0.640801   -0.686148
  C      0.108520    1.068243    0.253139
  C      1.346534    1.936033    0.138947
  C      1.471767    2.629087   -1.217487
  O      2.714659    3.310326   -1.310117
  C      3.091953    4.060765   -0.192986
  C      2.236037    5.141036    0.409565
  C      2.469664    3.834005    1.163808
  N      1.398681    2.865744    1.265742
  H     -0.186333    0.845730    1.303600
  H      2.204014    1.248541    0.238514
  H      1.456468    1.905800   -2.034899
  H      0.625580    3.319045   -1.362688
  H      4.161313    4.237092   -0.233679
  H      2.724263    6.042993    0.762217
  H      1.240966    5.297233    0.006236
  H      3.124125    3.872490    2.031966
  H      0.505280    3.331876    1.384115

 Total Charge           Charge          ....    0
 Multiplicity           Mult            ....    1
 Number of Electrons    NEL             ....   68
 Basis Dimension        Dim             ....  333

ORBITAL ENERGIES
----------------

  NO   OCC          E(Eh)            E(eV)
   0   2.0000     -20.569906      -559.7356
   1   2.0000     -20.569270      -559.7183
   2   2.0000     -15.569088      -423.6564
   3   2.0000     -11.341185      -308.6093
   4   2.0000     -11.294809      -307.3474
   5   2.0000     -11.285068      -307.0823
   6   2.0000     -11.279042      -306.9183
   7   2.0000     -11.270822      -306.6947
   8   2.0000     -11.235491      -305.7332
   9   2.0000      -1.408860       -38.3370
  10   2.0000      -1.394309       -37.9411
  11   2.0000      -1.239689       -33.7337
  12   2.0000      -1.128426       -30.7060
  13   2.0000      -1.003078       -27.2951
  14   2.0000      -0.927849       -25.2480
  15   2.0000      -0.840343       -22.8669
  16   2.0000      -0.811448       -22.0806
  17   2.0000      -0.767945       -20.8969
  18   2.0000      -0.718719       -19.5573
  19   2.0000      -0.696323       -18.9479
  20   2.0000      -0.672424       -18.2976
  21   2.0000      -0.656262       -17.8578
  22   2.0000      -0.636971       -17.3329
  23   2.0000      -0.627747       -17.0819
  24   2.0000      -0.588050       -16.0016
  25   2.0000      -0.561953       -15.2915
  26   2.0000      -0.546818       -14.8797
  27   2.0000      -0.540446       -14.7063
  28   2.0000      -0.528318       -14.3763
  29   2.0000      -0.495908       -13.4943
  30   2.0000      -0.438830       -11.9412
  31   2.0000      -0.429782       -11.6950
  32   2.0000      -0.414604       -11.2820
  33   2.0000      -0.364516        -9.9190
  34   0.0000       0.110587         3.0092
  35   0.0000       0.146906         3.9975
  36   0.0000       0.147924         4.0252
  37   0.0000       0.163648         4.4531
  38   0.0000       0.172637         4.6977

MULLIKEN ATOMIC CHARGES
-----------------------
   0 O :   -0.260277
   1 C :    0.058521
   2 C :    0.029155
   3 C :   -0.050497
   4 O :   -0.294081
   5 C :    0.077486
   6 C :   -0.314981
   7 C :   -0.091174
   8 N :   -0.338147
   9 H :    0.102229
  10 H :    0.110237
  11 H :    0.139499
  12 H :    0.094640
  13 H :    0.132585
  14 H :    0.131686
  15 H :    0.141322
  16 H :    0.121046
  17 H :    0.210750
Sum of atomic charges:    0.0000000

LOEWDIN ATOMIC CHARGES
----------------------
   0 O :    0.144080
   1 C :   -0.270051
   2 C :   -0.314393
   3 C :   -0.285249
   4 O :    0.191852
   5 C :   -0.289827
   6 C :   -0.221051
   7 C :   -0.262626
   8 N :    0.029646
   9 H :    0.118105
  10 H :    0.169057
  11 H :    0.139589
  12 H :    0.123507
  13 H :    0.143725
  14 H :    0.134415
  15 H :    0.135615
  16 H :    0.138946
  17 H :    0.174660

  Mayer bond orders larger than 0.1
B(  0-O ,  1-C ) :   2.0056 B(  1-C ,  2-C ) :   0.8413 B(  1-C ,  9-H ) :   0.9498
B(  2-C ,  3-C ) :   0.9218 B(  2-C ,  8-N ) :   0.9801 B(  2-C , 10-H ) :   0.8930
B(  3-C ,  4-O ) :   0.9204 B(  3-C , 11-H ) :   0.9096 B(  3-C , 12-H ) :   0.9232
B(  4-O ,  5-C ) :   0.9745 B(  5-C ,  6-C ) :   0.8596 B(  5-C ,  7-C ) :   0.8741
B(  5-C , 13-H ) :   0.9436 B(  6-C ,  7-C ) :   0.8614 B(  6-C , 14-H ) :   0.9213
B(  6-C , 15-H ) :   0.9199 B(  7-C ,  8-N ) :   0.9951 B(  7-C , 16-H ) :   0.9338
B(  8-N , 17-H ) :   0.8747

MP2 TOTAL ENERGY:     -438.330924694 Eh
FINAL SINGLE POINT ENERGY      -438.330924693535

DIPOLE MOMENT
-------------
                                X             Y             Z
Electronic contribution:     -1.38265      -3.80849      -1.61918
Nuclear contribution   :      1.60317       4.44501       2.30545
                        -----------------------------------------
Total Dipole Moment    :      0.22052       0.63652       0.68628
                        -----------------------------------------
Magnitude (a.u.)       :      0.96165
Magnitude (Debye)      :      2.44431

                             ****ORCA TERMINATED NORMALLY****
TOTAL RUN TIME: 0 days 0 hours 18 minutes 7 seconds 791 msec
