                         Program Version 3.0.3 - RELEASE   -
|  1> ! RI-MP2 RIJK def2-TZVP def2-TZVP/C def2-TZVP/JK TIGHTSCF
|  2> % maxcore 2000
|  3> % mp2 density relaxed end
|  4> *xyz 0 1
|  5>  C       -0.4143604999     1.5825649115     0.0383040528
|  6>  C       -0.0683675399     0.0985604648     0.1005080187
|  7>  C        0.8478322504    -0.5915443185    -0.9433453149
|  8>  N        1.6753526606    -1.2605236795     0.1264452533
|  9>  C        2.3162808086    -0.1800994166     0.9255043152
| 10>  C        3.0045529253     1.0220233960     0.3216711809
| 11>  O        4.2929902713     0.6682127464    -0.1633099262
| 12>  C        0.8825330984    -0.4580395104     1.1705318362
| 13>  C        0.3975158139    -1.0618233275     2.4586233892
| 14>  H        0.4698780811     2.2208100194    -0.0322209662
| 15>  H       -1.0473524290     1.7943697122    -0.8305550287
| 16>  H       -0.9717161928     1.8875586246     0.9310783819
| 17>  H       -1.0041116944    -0.4676953541     0.1637501121
| 18>  H        0.3470983174    -1.3534599401    -1.5435641062
| 19>  H        1.4111037663     0.0597505720    -1.6193961372
| 20>  H        2.9627341292    -0.6395969172     1.6733369589
| 21>  H        2.4085167210     1.5006584886    -0.4637104954
| 22>  H        3.1713956335     1.7737145748     1.1011148972
| 23>  H        4.1818564751    -0.1055298249    -0.7266403366
| 24>  H        0.0952711647    -0.2786756605     3.1645330303
| 25>  H       -0.4677965526    -1.7113178082     2.2869891501
| 26>  H        1.1812230820    -1.6584341730     2.9337699845
| 27> *
| 28>
| 29>                          ****END OF INPUT****

CARTESIAN COORDINATES (ANGSTROEM)
---------------------------------
  C     -0.414360    1.582565    0.038304
  C     -0.068368    0.098560    0.100508
  C      0.847832   -0.591544   -0.943345
  N      1.675353   -1.260524    0.126445
  C      2.316281   -0.180099    0.925504
  C      3.004553    1.022023    0.321671
  O      4.292990    0.668213   -0.163310
  C      0.882533   -0.458040    1.170532
  C      0.397516   -1.061823    2.458623
  H      0.469878    2.220810   -0.032221
  H     -1.047352    1.794370   -0.830555
  H     -0.971716    1.887559    0.931078
  H     -1.004112   -0.467695    0.163750
  H      0.347098   -1.353460   -1.543564
  H      1.411104    0.059751   -1.619396
  H      2.962734   -0.639597    1.673337
  H      2.408517    1.500658   -0.463710
  H      3.171396    1.773715    1.101115
  H      4.181856   -0.105530   -0.726640
  H      0.095271   -0.278676    3.164533
  H     -0.467797   -1.711318    2.286989
  H      1.181223   -1.658434    2.933770

 Total Charge           Charge          ....    0
 Multiplicity           Mult            ....    1
 Number of Electrons    NEL             ....   70
 Basis Dimension        Dim             ....  357

ORBITAL ENERGIES
----------------

  NO   OCC          E(Eh)            E(eV)
   0   2.0000     -20.555195      -559.3353
   1   2.0000     -15.557707      -423.3467
   2   2.0000     -11.280182      -306.9493
   3   2.0000     -11.270934      -306.6977
   4   2.0000     -11.259183      -306.3779
   5   2.0000     -11.254621      -306.2538
   6   2.0000     -11.241032      -305.8840
   7   2.0000     -11.224588      -305.4366
   8   2.0000     -11.224517      -305.4346
   9   2.0000      -1.360740       -37.0276
  10   2.0000      -1.285069       -34.9685
  11   2.0000      -1.048637       -28.5349
  12   2.0000      -1.009804       -27.4782
  13   2.0000      -0.981593       -26.7105
  14   2.0000      -0.920397       -25.0453
  15   2.0000      -0.859785       -23.3959
  16   2.0000      -0.788816       -21.4648
  17   2.0000      -0.723876       -19.6977
  18   2.0000      -0.703009       -19.1298
  19   2.0000      -0.648798       -17.6547
  20   2.0000      -0.642880       -17.4937
  21   2.0000      -0.613714       -16.7000
  22   2.0000      -0.597371       -16.2553
  23   2.0000      -0.577963       -15.7272
  24   2.0000      -0.571077       -15.5398
  25   2.0000      -0.563396       -15.3308
  26   2.0000      -0.557823       -15.1791
  27   2.0000      -0.530171       -14.4267
  28   2.0000      -0.518450       -14.1077
  29   2.0000      -0.507493       -13.8096
  30   2.0000      -0.466523       -12.6947
  31   2.0000      -0.446025       -12.1370
  32   2.0000      -0.435575       -11.8526
  33   2.0000      -0.409812       -11.1516
  34   2.0000      -0.365145        -9.9361
  35   0.0000       0.127504         3.4696
  36   0.0000       0.146967         3.9992
  37   0.0000       0.156190         4.2502
  38   0.0000       0.167738         4.5644
  39   0.0000       0.182528         4.9669

MULLIKEN ATOMIC CHARGES
-----------------------
   0 C :   -0.403257
   1 C :   -0.055928
   2 C :   -0.176391
   3 N :   -0.249764
   4 C :   -0.184484
   5 C :    0.001930
   6 O :   -0.466127
   7 C :    0.148642
   8 C :   -0.418877
   9 H :    0.122521
  10 H :    0.135606
  11 H :    0.133895
  12 H :    0.098264
  13 H :    0.126447
  14 H :    0.116956
  15 H :    0.116414
  16 H :    0.105192
  17 H :    0.119521
  18 H :    0.322894
  19 H :    0.134607
  20 H :    0.130289
  21 H :    0.141652
Sum of atomic charges:    0.0000000

LOEWDIN ATOMIC CHARGES
----------------------
   0 C :   -0.296608
   1 C :   -0.227778
   2 C :   -0.228969
   3 N :    0.117067
   4 C :   -0.244310
   5 C :   -0.334265
   6 O :   -0.045573
   7 C :   -0.230428
   8 C :   -0.269100
   9 H :    0.120435
  10 H :    0.126116
  11 H :    0.126977
  12 H :    0.156993
  13 H :    0.127382
  14 H :    0.119867
  15 H :    0.158354
  16 H :    0.116386
  17 H :    0.135856
  18 H :    0.178118
  19 H :    0.131405
  20 H :    0.128428
  21 H :    0.133646

  Mayer bond orders larger than 0.1
B(  0-C ,  1-C ) :   0.9173 B(  0-C ,  9-H ) :   0.9340 B(  0-C , 10-H ) :   0.9366
B(  0-C , 11-H ) :   0.9355 B(  1-C ,  2-C ) :   0.9743 B(  1-C ,  7-C ) :   0.8667
B(  1-C , 12-H ) :   0.9251 B(  2-C ,  3-N ) :   0.9369 B(  2-C , 13-H ) :   0.9143
B(  2-C , 14-H ) :   0.9384 B(  3-N ,  4-C ) :   0.9154 B(  3-N ,  7-C ) :   0.8384
B(  4-C ,  5-C ) :   0.9371 B(  4-C ,  7-C ) :   0.9221 B(  4-C , 15-H ) :   0.9316
B(  5-C ,  6-O ) :   0.9130 B(  5-C , 16-H ) :   0.9220 B(  5-C , 17-H ) :   0.9237
B(  6-O , 18-H ) :   0.8408 B(  7-C ,  8-C ) :   0.8601 B(  8-C , 19-H ) :   0.9369
B(  8-C , 20-H ) :   0.9370 B(  8-C , 21-H ) :   0.9365

MP2 TOTAL ENERGY:     -403.615306499 Eh
FINAL SINGLE POINT ENERGY      -403.615306499078

DIPOLE MOMENT
-------------
                                X             Y             Z
Electronic contribution:      5.15763      -2.46079      -1.27844
Nuclear contribution   :     -6.09778       2.73979       1.30343
                        -----------------------------------------
Total Dipole Moment    :     -0.94015       0.27900       0.02499
                        -----------------------------------------
Magnitude (a.u.)       :      0.98099
Magnitude (Debye)      :      2.49348

                             ****ORCA TERMINATED NORMALLY****
TOTAL RUN TIME: 0 days 0 hours 34 minutes 15 seconds 602 msec
