                         Program Version 3.0.3 - RELEASE   -
|  1> ! RI-MP2 RIJK def2-TZVP def2-TZVP/C def2-TZVP/JK TIGHTSCF
|  2> % maxcore 2000
|  3> % mp2 density relaxed end
|  4> *xyz 0 1
|  5>  C        0.1189952034     1.4248416696     0.2231023667
|  6>  C        0.0820678260    -0.0992470159     0.1009319807
|  7>  C        0.6935897103    -0.5884149914    -1.2283129383
|  8>  C        0.6764543138    -2.0334561589    -1.3812584087
|  9>  C        0.6524949293    -3.2367831898    -1.4883777794
| 10>  C        0.6195173874    -4.6648648261    -1.6067231388
| 11>  O        1.0389491306    -5.2987218672    -2.5541329927
| 12>  C        0.0008654356    -5.4422346595    -0.4331631653
| 13>  O       -0.4473062574    -4.9337961079     0.5570415509
| 14>  H        1.1464102089     1.8032796296     0.1821463019
| 15>  H       -0.4436769915     1.9034028648    -0.5861278154
| 16>  H       -0.3183153989     1.7515530014     1.1707775477
| 17>  H        0.6269931839    -0.5605253154     0.9313701185
| 18>  H       -0.9492202917    -0.4612697028     0.1697025180
| 19>  H        0.1575529477    -0.1382367235    -2.0752114740
| 20>  H        1.7311145619    -0.2372957012    -1.3148360339
| 21>  H        0.0195231506    -6.5377030658    -0.6147069979
| 22> *
| 23>
| 24>                          ****END OF INPUT****

CARTESIAN COORDINATES (ANGSTROEM)
---------------------------------
  C      0.118995    1.424842    0.223102
  C      0.082068   -0.099247    0.100932
  C      0.693590   -0.588415   -1.228313
  C      0.676454   -2.033456   -1.381258
  C      0.652495   -3.236783   -1.488378
  C      0.619517   -4.664865   -1.606723
  O      1.038949   -5.298722   -2.554133
  C      0.000865   -5.442235   -0.433163
  O     -0.447306   -4.933796    0.557042
  H      1.146410    1.803280    0.182146
  H     -0.443677    1.903403   -0.586128
  H     -0.318315    1.751553    1.170778
  H      0.626993   -0.560525    0.931370
  H     -0.949220   -0.461270    0.169703
  H      0.157553   -0.138237   -2.075211
  H      1.731115   -0.237296   -1.314836
  H      0.019523   -6.537703   -0.614707

 Total Charge           Charge          ....    0
 Multiplicity           Mult            ....    1
 Number of Electrons    NEL             ....   66
 Basis Dimension        Dim             ....  327

ORBITAL ENERGIES
----------------

  NO   OCC          E(Eh)            E(eV)
   0   2.0000     -20.594765      -560.4121
   1   2.0000     -20.588176      -560.2327
   2   2.0000     -11.375472      -309.5423
   3   2.0000     -11.357857      -309.0630
   4   2.0000     -11.273497      -306.7674
   5   2.0000     -11.269465      -306.6577
   6   2.0000     -11.244700      -305.9839
   7   2.0000     -11.243416      -305.9489
   8   2.0000     -11.229310      -305.5650
   9   2.0000      -1.435483       -39.0615
  10   2.0000      -1.417065       -38.5603
  11   2.0000      -1.113601       -30.3026
  12   2.0000      -1.056094       -28.7378
  13   2.0000      -0.985683       -26.8218
  14   2.0000      -0.941432       -25.6177
  15   2.0000      -0.852098       -23.1868
  16   2.0000      -0.829880       -22.5822
  17   2.0000      -0.717610       -19.5272
  18   2.0000      -0.699118       -19.0240
  19   2.0000      -0.673551       -18.3283
  20   2.0000      -0.658893       -17.9294
  21   2.0000      -0.656877       -17.8745
  22   2.0000      -0.599158       -16.3039
  23   2.0000      -0.592921       -16.1342
  24   2.0000      -0.571429       -15.5494
  25   2.0000      -0.532357       -14.4862
  26   2.0000      -0.530096       -14.4246
  27   2.0000      -0.521024       -14.1778
  28   2.0000      -0.509257       -13.8576
  29   2.0000      -0.496518       -13.5109
  30   2.0000      -0.437453       -11.9037
  31   2.0000      -0.405901       -11.0451
  32   2.0000      -0.405370       -11.0307
  33   0.0000       0.038084         1.0363
  34   0.0000       0.121177         3.2974
  35   0.0000       0.142259         3.8711
  36   0.0000       0.162730         4.4281
  37   0.0000       0.167921         4.5694

MULLIKEN ATOMIC CHARGES
-----------------------
   0 C :   -0.397229
   1 C :   -0.159010
   2 C :   -0.406297
   3 C :    0.054222
   4 C :    0.153364
   5 C :    0.085156
   6 O :   -0.254016
   7 C :    0.085605
   8 O :   -0.227401
   9 H :    0.126347
  10 H :    0.126352
  11 H :    0.142871
  12 H :    0.123338
  13 H :    0.123362
  14 H :    0.153548
  15 H :    0.153555
  16 H :    0.116234
Sum of atomic charges:   -0.0000000

LOEWDIN ATOMIC CHARGES
----------------------
   0 C :   -0.317392
   1 C :   -0.274471
   2 C :   -0.245770
   3 C :   -0.010976
   4 C :   -0.032979
   5 C :   -0.330509
   6 O :    0.189517
   7 C :   -0.248303
   8 O :    0.172737
   9 H :    0.121966
  10 H :    0.121966
  11 H :    0.125023
  12 H :    0.141189
  13 H :    0.141196
  14 H :    0.162586
  15 H :    0.162578
  16 H :    0.121641

  Mayer bond orders larger than 0.1
B(  0-C ,  1-C ) :   0.9174 B(  0-C ,  9-H ) :   0.9370 B(  0-C , 10-H ) :   0.9370
B(  0-C , 11-H ) :   0.9421 B(  1-C ,  2-C ) :   0.9459 B(  1-C , 12-H ) :   0.9305
B(  1-C , 13-H ) :   0.9305 B(  2-C ,  3-C ) :   1.0378 B(  2-C ,  4-C ) :  -0.1370
B(  2-C , 14-H ) :   0.9188 B(  2-C , 15-H ) :   0.9188 B(  3-C ,  4-C ) :   2.6410
B(  4-C ,  5-C ) :   0.8790 B(  4-C ,  7-C ) :  -0.1216 B(  5-C ,  6-O ) :   1.9613
B(  5-C ,  7-C ) :   0.9376 B(  7-C ,  8-O ) :   1.9891 B(  7-C , 16-H ) :   0.9291

MP2 TOTAL ENERGY:     -421.092030619 Eh
FINAL SINGLE POINT ENERGY      -421.092030619348

DIPOLE MOMENT
-------------
                                X             Y             Z
Electronic contribution:      0.88252     -17.27513      -4.08317
Nuclear contribution   :     -0.91118      18.28673       4.27434
                        -----------------------------------------
Total Dipole Moment    :     -0.02866       1.01160       0.19117
                        -----------------------------------------
Magnitude (a.u.)       :      1.02990
Magnitude (Debye)      :      2.61781

                             ****ORCA TERMINATED NORMALLY****
TOTAL RUN TIME: 0 days 0 hours 12 minutes 21 seconds 118 msec
