                         Program Version 3.0.3 - RELEASE   -
|  1> ! RI-MP2 RIJK def2-TZVP def2-TZVP/C def2-TZVP/JK TIGHTSCF
|  2> % maxcore 2000
|  3> % mp2 density relaxed end
|  4> *xyz 0 1
|  5>  C       -0.3197240610     1.7579076122    -0.9521665519
|  6>  C       -0.1663859456     0.4606724241    -0.1455079264
|  7>  C       -1.5477049376    -0.1582174947     0.1589087797
|  8>  O       -2.1806433618    -0.7578632382    -0.9609941594
|  9>  C       -1.5432194518    -1.1381818937     1.3316992218
| 10>  O       -0.7007547652    -1.1961505013     2.1920037353
| 11>  C        0.7307487839    -0.5189940214    -0.8823545476
| 12>  C        2.1857797705    -0.5881467952    -0.6087234425
| 13>  N        1.3063682865    -1.7019218989    -0.2127095323
| 14>  H        0.6576878138     2.1839119561    -1.1960626536
| 15>  H       -0.8536175866     1.5679640137    -1.8887210655
| 16>  H       -0.8859592877     2.5072247810    -0.3896695249
| 17>  H        0.2910233125     0.6825631566     0.8262236965
| 18>  H       -2.2322250717     0.6476731131     0.4661821542
| 19>  H       -1.6279817267    -1.4906056713    -1.2566985987
| 20>  H       -2.4259685108    -1.8161558049     1.3292653947
| 21>  H        0.4163206495    -0.7241315831    -1.9058303167
| 22>  H        2.8830068534    -0.8123783798    -1.4110324798
| 23>  H        2.5846980118     0.0567599016     0.1707222642
| 24>  H        1.1217955346    -1.6432605060     0.7863493626
| 25> *
| 26>
| 27>                          ****END OF INPUT****

CARTESIAN COORDINATES (ANGSTROEM)
---------------------------------
  C     -0.319724    1.757908   -0.952167
  C     -0.166386    0.460672   -0.145508
  C     -1.547705   -0.158217    0.158909
  O     -2.180643   -0.757863   -0.960994
  C     -1.543219   -1.138182    1.331699
  O     -0.700755   -1.196151    2.192004
  C      0.730749   -0.518994   -0.882355
  C      2.185780   -0.588147   -0.608723
  N      1.306368   -1.701922   -0.212710
  H      0.657688    2.183912   -1.196063
  H     -0.853618    1.567964   -1.888721
  H     -0.885959    2.507225   -0.389670
  H      0.291023    0.682563    0.826224
  H     -2.232225    0.647673    0.466182
  H     -1.627982   -1.490606   -1.256699
  H     -2.425969   -1.816156    1.329265
  H      0.416321   -0.724132   -1.905830
  H      2.883007   -0.812378   -1.411032
  H      2.584698    0.056760    0.170722
  H      1.121796   -1.643261    0.786349

 Total Charge           Charge          ....    0
 Multiplicity           Mult            ....    1
 Number of Electrons    NEL             ....   70
 Basis Dimension        Dim             ....  345

ORBITAL ENERGIES
----------------

  NO   OCC          E(Eh)            E(eV)
   0   2.0000     -20.581293      -560.0455
   1   2.0000     -20.573647      -559.8374
   2   2.0000     -15.557947      -423.3533
   3   2.0000     -11.343871      -308.6824
   4   2.0000     -11.306627      -307.6690
   5   2.0000     -11.265426      -306.5478
   6   2.0000     -11.258206      -306.3514
   7   2.0000     -11.249578      -306.1166
   8   2.0000     -11.226856      -305.4983
   9   2.0000      -1.414885       -38.5010
  10   2.0000      -1.386585       -37.7309
  11   2.0000      -1.263502       -34.3816
  12   2.0000      -1.082828       -29.4653
  13   2.0000      -0.977150       -26.5896
  14   2.0000      -0.903250       -24.5787
  15   2.0000      -0.878970       -23.9180
  16   2.0000      -0.826967       -22.5029
  17   2.0000      -0.785702       -21.3800
  18   2.0000      -0.714667       -19.4471
  19   2.0000      -0.683580       -18.6011
  20   2.0000      -0.679946       -18.5023
  21   2.0000      -0.661955       -18.0127
  22   2.0000      -0.631667       -17.1885
  23   2.0000      -0.619085       -16.8462
  24   2.0000      -0.574560       -15.6346
  25   2.0000      -0.566779       -15.4229
  26   2.0000      -0.544329       -14.8119
  27   2.0000      -0.534811       -14.5530
  28   2.0000      -0.522126       -14.2078
  29   2.0000      -0.501888       -13.6571
  30   2.0000      -0.494905       -13.4670
  31   2.0000      -0.470027       -12.7901
  32   2.0000      -0.455578       -12.3969
  33   2.0000      -0.425523       -11.5791
  34   2.0000      -0.389673       -10.6035
  35   0.0000       0.106578         2.9001
  36   0.0000       0.138037         3.7562
  37   0.0000       0.154192         4.1958
  38   0.0000       0.161407         4.3921
  39   0.0000       0.165793         4.5114

MULLIKEN ATOMIC CHARGES
-----------------------
   0 C :   -0.421770
   1 C :   -0.010583
   2 C :    0.143556
   3 O :   -0.475798
   4 C :    0.071298
   5 O :   -0.282664
   6 C :   -0.203739
   7 C :   -0.179482
   8 N :   -0.359198
   9 H :    0.140368
  10 H :    0.145850
  11 H :    0.134344
  12 H :    0.111729
  13 H :    0.118622
  14 H :    0.332755
  15 H :    0.106352
  16 H :    0.136515
  17 H :    0.123614
  18 H :    0.129785
  19 H :    0.238447
Sum of atomic charges:   -0.0000000

LOEWDIN ATOMIC CHARGES
----------------------
   0 C :   -0.282295
   1 C :   -0.259816
   2 C :   -0.327097
   3 O :   -0.000793
   4 C :   -0.273521
   5 O :    0.130016
   6 C :   -0.276362
   7 C :   -0.261374
   8 N :   -0.020035
   9 H :    0.126934
  10 H :    0.130307
  11 H :    0.124492
  12 H :    0.165507
  13 H :    0.164060
  14 H :    0.181798
  15 H :    0.118772
  16 H :    0.143273
  17 H :    0.124484
  18 H :    0.124093
  19 H :    0.167557

  Mayer bond orders larger than 0.1
B(  0-C ,  1-C ) :   0.8914 B(  0-C ,  9-H ) :   0.9401 B(  0-C , 10-H ) :   0.9367
B(  0-C , 11-H ) :   0.9354 B(  1-C ,  2-C ) :   0.8763 B(  1-C ,  6-C ) :   0.8973
B(  1-C , 12-H ) :   0.9072 B(  2-C ,  3-O ) :   0.9275 B(  2-C ,  4-C ) :   0.8686
B(  2-C , 13-H ) :   0.9031 B(  3-O , 14-H ) :   0.8358 B(  4-C ,  5-O ) :   1.9495
B(  4-C , 15-H ) :   0.9430 B(  6-C ,  7-C ) :   0.9547 B(  6-C ,  8-N ) :   0.9254
B(  6-C , 16-H ) :   0.9192 B(  7-C ,  8-N ) :   0.9342 B(  7-C , 17-H ) :   0.9224
B(  7-C , 18-H ) :   0.9181 B(  8-N , 19-H ) :   0.8651

MP2 TOTAL ENERGY:     -439.543265873 Eh
FINAL SINGLE POINT ENERGY      -439.543265872734

DIPOLE MOMENT
-------------
                                X             Y             Z
Electronic contribution:     -2.80033      -4.88528       3.86889
Nuclear contribution   :      2.76845       5.55161      -4.09741
                        -----------------------------------------
Total Dipole Moment    :     -0.03188       0.66633      -0.22852
                        -----------------------------------------
Magnitude (a.u.)       :      0.70515
Magnitude (Debye)      :      1.79235

                             ****ORCA TERMINATED NORMALLY****
TOTAL RUN TIME: 0 days 0 hours 21 minutes 24 seconds 656 msec
