                         Program Version 3.0.3 - RELEASE   -
|  1> ! RI-MP2 RIJK def2-TZVP def2-TZVP/C def2-TZVP/JK TIGHTSCF
|  2> % maxcore 2000
|  3> % mp2 density relaxed end
|  4> *xyz 0 1
|  5>  C        0.0765963172     1.4372072756     0.2087900811
|  6>  C        1.3200081691     0.6166245720     0.0703638680
|  7>  O        1.6636355344    -0.0185991749     1.3071304110
|  8>  C        0.4235705565    -0.7639244460     1.2549417973
|  9>  C       -0.0260742079    -0.0644694341    -0.0033794569
| 10>  C        0.3215547448    -2.2207480319     1.5152146731
| 11>  C        1.2505875837    -2.6095908419     2.6707840282
| 12>  C        0.5440184228    -1.5611117659     3.5902235522
| 13>  C       -0.3826402548    -1.1666185627     2.4321929701
| 14>  H       -0.1714670868     1.8770630538     1.1702673294
| 15>  H       -0.1890085900     2.0333379655    -0.6591304049
| 16>  H        2.1076820033     0.7648739165    -0.6580732557
| 17>  H       -0.5461984837    -0.5206291819    -0.8344176514
| 18>  H       -0.1022715671    -2.9015583679     0.7844091605
| 19>  H        1.0942929068    -3.6337160822     3.0148802680
| 20>  H        2.3162610689    -2.4546330158     2.4821494541
| 21>  H        0.0097961545    -2.0327471324     4.4173350748
| 22>  H        1.1689831634    -0.7552278037     3.9844021867
| 23>  H       -1.4328467452    -0.9102374120     2.5205961943
| 24> *
| 25>
| 26>                          ****END OF INPUT****

CARTESIAN COORDINATES (ANGSTROEM)
---------------------------------
  C      0.076596    1.437207    0.208790
  C      1.320008    0.616625    0.070364
  O      1.663636   -0.018599    1.307130
  C      0.423571   -0.763924    1.254942
  C     -0.026074   -0.064469   -0.003379
  C      0.321555   -2.220748    1.515215
  C      1.250588   -2.609591    2.670784
  C      0.544018   -1.561112    3.590224
  C     -0.382640   -1.166619    2.432193
  H     -0.171467    1.877063    1.170267
  H     -0.189009    2.033338   -0.659130
  H      2.107682    0.764874   -0.658073
  H     -0.546198   -0.520629   -0.834418
  H     -0.102272   -2.901558    0.784409
  H      1.094293   -3.633716    3.014880
  H      2.316261   -2.454633    2.482149
  H      0.009796   -2.032747    4.417335
  H      1.168983   -0.755228    3.984402
  H     -1.432847   -0.910237    2.520596

 Total Charge           Charge          ....    0
 Multiplicity           Mult            ....    1
 Number of Electrons    NEL             ....   66
 Basis Dimension        Dim             ....  339

ORBITAL ENERGIES
----------------

  NO   OCC          E(Eh)            E(eV)
   0   2.0000     -20.552198      -559.2537
   1   2.0000     -11.290073      -307.2185
   2   2.0000     -11.288320      -307.1708
   3   2.0000     -11.240375      -305.8661
   4   2.0000     -11.233934      -305.6909
   5   2.0000     -11.231006      -305.6112
   6   2.0000     -11.229331      -305.5656
   7   2.0000     -11.221856      -305.3622
   8   2.0000     -11.221288      -305.3468
   9   2.0000      -1.393648       -37.9231
  10   2.0000      -1.180165       -32.1139
  11   2.0000      -1.117349       -30.4046
  12   2.0000      -0.982031       -26.7224
  13   2.0000      -0.893397       -24.3106
  14   2.0000      -0.858705       -23.3665
  15   2.0000      -0.818387       -22.2695
  16   2.0000      -0.738514       -20.0960
  17   2.0000      -0.722465       -19.6593
  18   2.0000      -0.705775       -19.2051
  19   2.0000      -0.666612       -18.1394
  20   2.0000      -0.630591       -17.1593
  21   2.0000      -0.618891       -16.8409
  22   2.0000      -0.588749       -16.0207
  23   2.0000      -0.564152       -15.3514
  24   2.0000      -0.538036       -14.6407
  25   2.0000      -0.507068       -13.7980
  26   2.0000      -0.496069       -13.4987
  27   2.0000      -0.473264       -12.8782
  28   2.0000      -0.462969       -12.5980
  29   2.0000      -0.455287       -12.3890
  30   2.0000      -0.396534       -10.7902
  31   2.0000      -0.368069       -10.0157
  32   2.0000      -0.365263        -9.9393
  33   0.0000       0.151839         4.1318
  34   0.0000       0.158691         4.3182
  35   0.0000       0.161053         4.3825
  36   0.0000       0.167883         4.5683
  37   0.0000       0.190050         5.1715

MULLIKEN ATOMIC CHARGES
-----------------------
   0 C :   -0.243052
   1 C :    0.050750
   2 O :   -0.324578
   3 C :    0.261599
   4 C :   -0.241587
   5 C :   -0.203582
   6 C :   -0.202765
   7 C :   -0.217130
   8 C :   -0.154063
   9 H :    0.139514
  10 H :    0.128318
  11 H :    0.131614
  12 H :    0.140648
  13 H :    0.127043
  14 H :    0.121201
  15 H :    0.116505
  16 H :    0.120973
  17 H :    0.118040
  18 H :    0.130551
Sum of atomic charges:   -0.0000000

LOEWDIN ATOMIC CHARGES
----------------------
   0 C :   -0.202968
   1 C :   -0.236034
   2 O :    0.195393
   3 C :   -0.258856
   4 C :   -0.150728
   5 C :   -0.134915
   6 C :   -0.211562
   7 C :   -0.211272
   8 C :   -0.138849
   9 H :    0.136367
  10 H :    0.141056
  11 H :    0.130193
  12 H :    0.140287
  13 H :    0.135872
  14 H :    0.133018
  15 H :    0.132042
  16 H :    0.133009
  17 H :    0.131523
  18 H :    0.136422

  Mayer bond orders larger than 0.1
B(  0-C ,  1-C ) :   0.8755 B(  0-C ,  4-C ) :   0.8813 B(  0-C ,  9-H ) :   0.9109
B(  0-C , 10-H ) :   0.9250 B(  1-C ,  2-O ) :   0.9698 B(  1-C ,  4-C ) :   0.9227
B(  1-C , 11-H ) :   0.9266 B(  2-O ,  3-C ) :   0.9560 B(  3-C ,  4-C ) :   0.9015
B(  3-C ,  5-C ) :   0.8769 B(  3-C ,  8-C ) :   0.8864 B(  4-C , 12-H ) :   0.9074
B(  5-C ,  6-C ) :   0.9575 B(  5-C ,  8-C ) :   0.8366 B(  5-C , 13-H ) :   0.9173
B(  6-C ,  7-C ) :   0.9896 B(  6-C , 14-H ) :   0.9303 B(  6-C , 15-H ) :   0.9070
B(  7-C ,  8-C ) :   0.9469 B(  7-C , 16-H ) :   0.9287 B(  7-C , 17-H ) :   0.9092
B(  8-C , 18-H ) :   0.9165

MP2 TOTAL ENERGY:     -385.123789307 Eh
FINAL SINGLE POINT ENERGY      -385.123789307361

DIPOLE MOMENT
-------------
                                X             Y             Z
Electronic contribution:      1.12582       1.35782      -1.92453
Nuclear contribution   :     -1.61932      -1.47138       1.52756
                        -----------------------------------------
Total Dipole Moment    :     -0.49350      -0.11357      -0.39698
                        -----------------------------------------
Magnitude (a.u.)       :      0.64345
Magnitude (Debye)      :      1.63552

                             ****ORCA TERMINATED NORMALLY****
TOTAL RUN TIME: 0 days 0 hours 16 minutes 54 seconds 210 msec
