                         Program Version 3.0.3 - RELEASE   -
|  1> ! RI-MP2 RIJK def2-TZVP def2-TZVP/C def2-TZVP/JK TIGHTSCF
|  2> % maxcore 2000
|  3> % mp2 density relaxed end
|  4> *xyz 0 1
|  5>  O        0.2447515416     1.4104946872    -0.1389623213
|  6>  C        0.1299639480     0.0391125591    -0.0565490286
|  7>  C       -1.2404518344    -0.7622624459    -0.0436001157
|  8>  C       -0.3721147165    -1.9115144217     0.5661263534
|  9>  C        0.5849832161    -2.2282197197    -0.6083147413
| 10>  C        0.9480397497    -0.7749632571    -1.0737678116
| 11>  C        0.3616850789    -0.7430445105     1.2445317555
| 12>  O        0.7010351084    -0.4324985571     2.3507866291
| 13>  H        0.1473654435     1.7695634394     0.7515886943
| 14>  H       -1.9729426308    -0.3483275867     0.6514634807
| 15>  H       -1.6853695492    -0.9567012880    -1.0220975119
| 16>  H       -0.8023704367    -2.7324542986     1.1330905215
| 17>  H        1.4611274187    -2.7977203067    -0.2885427069
| 18>  H        0.0774029246    -2.7993965541    -1.3897965694
| 19>  H        0.6288346359    -0.5626733227    -2.0974166094
| 20>  H        2.0151434122    -0.5523548770    -0.9974786085
| 21> *
| 22>
| 23>                          ****END OF INPUT****

CARTESIAN COORDINATES (ANGSTROEM)
---------------------------------
  O      0.244752    1.410495   -0.138962
  C      0.129964    0.039113   -0.056549
  C     -1.240452   -0.762262   -0.043600
  C     -0.372115   -1.911514    0.566126
  C      0.584983   -2.228220   -0.608315
  C      0.948040   -0.774963   -1.073768
  C      0.361685   -0.743045    1.244532
  O      0.701035   -0.432499    2.350787
  H      0.147365    1.769563    0.751589
  H     -1.972943   -0.348328    0.651463
  H     -1.685370   -0.956701   -1.022098
  H     -0.802370   -2.732454    1.133091
  H      1.461127   -2.797720   -0.288543
  H      0.077403   -2.799397   -1.389797
  H      0.628835   -0.562673   -2.097417
  H      2.015143   -0.552355   -0.997479

 Total Charge           Charge          ....    0
 Multiplicity           Mult            ....    1
 Number of Electrons    NEL             ....   60
 Basis Dimension        Dim             ....  296

ORBITAL ENERGIES
----------------

  NO   OCC          E(Eh)            E(eV)
   0   2.0000     -20.577397      -559.9395
   1   2.0000     -20.558860      -559.4350
   2   2.0000     -11.336137      -308.4720
   3   2.0000     -11.307343      -307.6885
   4   2.0000     -11.256901      -306.3159
   5   2.0000     -11.250278      -306.1356
   6   2.0000     -11.247548      -306.0613
   7   2.0000     -11.241656      -305.9010
   8   2.0000      -1.408488       -38.3269
   9   2.0000      -1.385159       -37.6921
  10   2.0000      -1.196293       -32.5528
  11   2.0000      -0.999290       -27.1921
  12   2.0000      -0.955909       -26.0116
  13   2.0000      -0.873583       -23.7714
  14   2.0000      -0.791559       -21.5394
  15   2.0000      -0.764020       -20.7900
  16   2.0000      -0.702719       -19.1219
  17   2.0000      -0.664762       -18.0891
  18   2.0000      -0.651920       -17.7396
  19   2.0000      -0.639695       -17.4070
  20   2.0000      -0.594073       -16.1655
  21   2.0000      -0.567097       -15.4315
  22   2.0000      -0.549108       -14.9420
  23   2.0000      -0.535771       -14.5791
  24   2.0000      -0.531468       -14.4620
  25   2.0000      -0.518991       -14.1225
  26   2.0000      -0.493638       -13.4326
  27   2.0000      -0.481598       -13.1049
  28   2.0000      -0.428953       -11.6724
  29   2.0000      -0.383224       -10.4280
  30   0.0000       0.129485         3.5235
  31   0.0000       0.142867         3.8876
  32   0.0000       0.153560         4.1786
  33   0.0000       0.165931         4.5152
  34   0.0000       0.181570         4.9408

MULLIKEN ATOMIC CHARGES
-----------------------
   0 O :   -0.451056
   1 C :    0.234762
   2 C :   -0.287613
   3 C :   -0.028194
   4 C :   -0.266212
   5 C :   -0.248075
   6 C :    0.048076
   7 O :   -0.260291
   8 H :    0.335262
   9 H :    0.131365
  10 H :    0.131648
  11 H :    0.143216
  12 H :    0.132977
  13 H :    0.127132
  14 H :    0.128336
  15 H :    0.128669
Sum of atomic charges:    0.0000000

LOEWDIN ATOMIC CHARGES
----------------------
   0 O :    0.041910
   1 C :   -0.339071
   2 C :   -0.164815
   3 C :   -0.174167
   4 C :   -0.211204
   5 C :   -0.193715
   6 C :   -0.278733
   7 O :    0.156107
   8 H :    0.192956
   9 H :    0.140818
  10 H :    0.137430
  11 H :    0.140495
  12 H :    0.137105
  13 H :    0.135945
  14 H :    0.138863
  15 H :    0.140077

  Mayer bond orders larger than 0.1
B(  0-O ,  1-C ) :   1.0789 B(  0-O ,  8-H ) :   0.8270 B(  1-C ,  2-C ) :   0.8592
B(  1-C ,  5-C ) :   0.8807 B(  1-C ,  6-C ) :   0.8239 B(  2-C ,  3-C ) :   0.8912
B(  2-C ,  9-H ) :   0.9154 B(  2-C , 10-H ) :   0.9117 B(  3-C ,  4-C ) :   0.8770
B(  3-C ,  6-C ) :   0.8435 B(  3-C , 11-H ) :   0.8978 B(  4-C ,  5-C ) :   0.9486
B(  4-C , 12-H ) :   0.9284 B(  4-C , 13-H ) :   0.9202 B(  5-C , 14-H ) :   0.9220
B(  5-C , 15-H ) :   0.9252 B(  6-C ,  7-O ) :   2.0390

MP2 TOTAL ENERGY:     -383.114958640 Eh
FINAL SINGLE POINT ENERGY      -383.114958639688

DIPOLE MOMENT
-------------
                                X             Y             Z
Electronic contribution:      1.02216       3.17805       4.64598
Nuclear contribution   :     -1.44934      -3.70335      -5.20516
                        -----------------------------------------
Total Dipole Moment    :     -0.42718      -0.52530      -0.55918
                        -----------------------------------------
Magnitude (a.u.)       :      0.87813
Magnitude (Debye)      :      2.23202

                             ****ORCA TERMINATED NORMALLY****
TOTAL RUN TIME: 0 days 0 hours 13 minutes 7 seconds 962 msec
