                         Program Version 3.0.3 - RELEASE   -
|  1> ! RI-MP2 RIJK def2-TZVP def2-TZVP/C def2-TZVP/JK TIGHTSCF
|  2> % maxcore 2000
|  3> % mp2 density relaxed end
|  4> *xyz 0 1
|  5>  N       -0.0465811656     1.3808040173    -0.2011705846
|  6>  C       -0.0317798295     0.1335136699     0.0194752645
|  7>  C       -1.3201311158    -0.6587723185     0.0778573522
|  8>  C       -1.6479499600    -1.1899717525     1.4647392798
|  9>  C       -2.1341761657    -2.6082440946     1.6453469740
| 10>  C       -0.7414432552    -2.2264362864     2.0799902192
| 11>  C        0.4952478569    -2.6540404315     1.3116945840
| 12>  C        1.4762298747    -1.4958869684     1.1111638644
| 13>  O        1.1541287489    -0.5593783871     0.0720503729
| 14>  H        0.9133395920     1.7338621438    -0.2231254775
| 15>  H       -2.1175571211    -0.0012783916    -0.2739936666
| 16>  H       -1.2393945047    -1.4884119160    -0.6330232690
| 17>  H       -2.0557765618    -0.4427944037     2.1387268925
| 18>  H       -2.8772887806    -2.8094488613     2.4090934084
| 19>  H       -2.2372449770    -3.2205611920     0.7543816723
| 20>  H       -0.5839469926    -2.1388056956     3.1519398048
| 21>  H        1.0193058800    -3.4466399269     1.8601769830
| 22>  H        0.2376468585    -3.0779117799     0.3352700349
| 23>  H        1.6038619373    -0.9489419705     2.0564325656
| 24>  H        2.4563207413    -1.8782647245     0.8130637851
| 25> *
| 26>
| 27>                          ****END OF INPUT****

CARTESIAN COORDINATES (ANGSTROEM)
---------------------------------
  N     -0.046581    1.380804   -0.201171
  C     -0.031780    0.133514    0.019475
  C     -1.320131   -0.658772    0.077857
  C     -1.647950   -1.189972    1.464739
  C     -2.134176   -2.608244    1.645347
  C     -0.741443   -2.226436    2.079990
  C      0.495248   -2.654040    1.311695
  C      1.476230   -1.495887    1.111164
  O      1.154129   -0.559378    0.072050
  H      0.913340    1.733862   -0.223125
  H     -2.117557   -0.001278   -0.273994
  H     -1.239395   -1.488412   -0.633023
  H     -2.055777   -0.442794    2.138727
  H     -2.877289   -2.809449    2.409093
  H     -2.237245   -3.220561    0.754382
  H     -0.583947   -2.138806    3.151940
  H      1.019306   -3.446640    1.860177
  H      0.237647   -3.077912    0.335270
  H      1.603862   -0.948942    2.056433
  H      2.456321   -1.878265    0.813064

 Total Charge           Charge          ....    0
 Multiplicity           Mult            ....    1
 Number of Electrons    NEL             ....   68
 Basis Dimension        Dim             ....  345

ORBITAL ENERGIES
----------------

  NO   OCC          E(Eh)            E(eV)
   0   2.0000     -20.577293      -559.9366
   1   2.0000     -15.529239      -422.5721
   2   2.0000     -11.328357      -308.2603
   3   2.0000     -11.293380      -307.3085
   4   2.0000     -11.240203      -305.8615
   5   2.0000     -11.239391      -305.8394
   6   2.0000     -11.238684      -305.8201
   7   2.0000     -11.236522      -305.7613
   8   2.0000     -11.233898      -305.6899
   9   2.0000      -1.406292       -38.2671
  10   2.0000      -1.190905       -32.4062
  11   2.0000      -1.166169       -31.7331
  12   2.0000      -1.038015       -28.2458
  13   2.0000      -0.993283       -27.0286
  14   2.0000      -0.900706       -24.5094
  15   2.0000      -0.819849       -22.3092
  16   2.0000      -0.773995       -21.0615
  17   2.0000      -0.746586       -20.3156
  18   2.0000      -0.697511       -18.9802
  19   2.0000      -0.687358       -18.7040
  20   2.0000      -0.657775       -17.8990
  21   2.0000      -0.654617       -17.8130
  22   2.0000      -0.591833       -16.1046
  23   2.0000      -0.581539       -15.8245
  24   2.0000      -0.553676       -15.0663
  25   2.0000      -0.547505       -14.8984
  26   2.0000      -0.537310       -14.6209
  27   2.0000      -0.526639       -14.3306
  28   2.0000      -0.481067       -13.0905
  29   2.0000      -0.473692       -12.8898
  30   2.0000      -0.434337       -11.8189
  31   2.0000      -0.417642       -11.3646
  32   2.0000      -0.402883       -10.9630
  33   2.0000      -0.394413       -10.7325
  34   0.0000       0.134433         3.6581
  35   0.0000       0.146144         3.9768
  36   0.0000       0.159602         4.3430
  37   0.0000       0.163186         4.4405
  38   0.0000       0.181857         4.9486

MULLIKEN ATOMIC CHARGES
-----------------------
   0 N :   -0.356803
   1 C :    0.110804
   2 C :   -0.175708
   3 C :   -0.093803
   4 C :   -0.298362
   5 C :   -0.118545
   6 C :   -0.229393
   7 C :   -0.048330
   8 O :   -0.284115
   9 H :    0.216671
  10 H :    0.141745
  11 H :    0.131613
  12 H :    0.129018
  13 H :    0.135927
  14 H :    0.129506
  15 H :    0.123502
  16 H :    0.129404
  17 H :    0.121740
  18 H :    0.100430
  19 H :    0.134700
Sum of atomic charges:   -0.0000000

LOEWDIN ATOMIC CHARGES
----------------------
   0 N :   -0.046665
   1 C :   -0.400829
   2 C :   -0.204661
   3 C :   -0.201802
   4 C :   -0.203316
   5 C :   -0.215237
   6 C :   -0.251929
   7 C :   -0.285370
   8 O :    0.212984
   9 H :    0.165304
  10 H :    0.158020
  11 H :    0.151795
  12 H :    0.150786
  13 H :    0.133270
  14 H :    0.134968
  15 H :    0.148870
  16 H :    0.148131
  17 H :    0.145273
  18 H :    0.127842
  19 H :    0.132566

  Mayer bond orders larger than 0.1
B(  0-N ,  1-C ) :   2.0619 B(  0-N ,  9-H ) :   0.8586 B(  1-C ,  2-C ) :   0.8954
B(  1-C ,  8-O ) :   1.0638 B(  2-C ,  3-C ) :   0.9102 B(  2-C , 10-H ) :   0.9143
B(  2-C , 11-H ) :   0.9328 B(  3-C ,  4-C ) :   0.8814 B(  3-C ,  5-C ) :   0.8616
B(  3-C , 12-H ) :   0.9275 B(  4-C ,  5-C ) :   0.9022 B(  4-C , 13-H ) :   0.9311
B(  4-C , 14-H ) :   0.9192 B(  5-C ,  6-C ) :   0.9208 B(  5-C , 15-H ) :   0.9277
B(  6-C ,  7-C ) :   0.9294 B(  6-C , 16-H ) :   0.9194 B(  6-C , 17-H ) :   0.9256
B(  7-C ,  8-O ) :   0.8813 B(  7-C , 18-H ) :   0.9269 B(  7-C , 19-H ) :   0.9325

MP2 TOTAL ENERGY:     -402.454707646 Eh
FINAL SINGLE POINT ENERGY      -402.454707646248

DIPOLE MOMENT
-------------
                                X             Y             Z
Electronic contribution:      1.96138       4.34630      -2.43559
Nuclear contribution   :     -1.75361      -5.39081       3.07865
                        -----------------------------------------
Total Dipole Moment    :      0.20776      -1.04451       0.64306
                        -----------------------------------------
Magnitude (a.u.)       :      1.24406
Magnitude (Debye)      :      3.16216

                             ****ORCA TERMINATED NORMALLY****
TOTAL RUN TIME: 0 days 0 hours 23 minutes 58 seconds 769 msec
