                         Program Version 3.0.3 - RELEASE   -
|  1> ! RI-MP2 RIJK def2-TZVP def2-TZVP/C def2-TZVP/JK TIGHTSCF
|  2> % maxcore 2000
|  3> % mp2 density relaxed end
|  4> *xyz 0 1
|  5>  C       -0.0267333162     1.5423661700     0.0255643185
|  6>  C        0.0267181191     0.0426106878    -0.0014143336
|  7>  C       -0.8404747049    -0.8319883343     0.8157277904
|  8>  O       -1.5852013032    -1.8546364043     0.1963607269
|  9>  C        0.6557178223    -0.9575464129     1.0475450288
| 10>  C        1.2212552161    -1.7609372633    -0.0886708001
| 11>  O        1.9444809563    -2.7141807417    -0.1454967115
| 12>  C        0.6318164087    -0.7887911531    -1.1585732372
| 13>  O       -0.1884135617    -1.2301743174    -2.1950795876
| 14>  H        0.9573538700     1.9773326094    -0.1778031052
| 15>  H       -0.7189162262     1.9113575898    -0.7395102598
| 16>  H       -0.3699897011     1.9171179321     0.9949655624
| 17>  H       -1.3725114976    -0.3355651849     1.6278370025
| 18>  H       -1.5665662851    -2.6355092438     0.7609070900
| 19>  H        1.1011358414    -0.7835441651     2.0196775294
| 20>  H        1.4721566951    -0.2516091086    -1.6161097068
| 21>  H       -0.9045243630    -1.7279987295    -1.7780676870
| 22> *
| 23>
| 24>                          ****END OF INPUT****

CARTESIAN COORDINATES (ANGSTROEM)
---------------------------------
  C     -0.026733    1.542366    0.025564
  C      0.026718    0.042611   -0.001414
  C     -0.840475   -0.831988    0.815728
  O     -1.585201   -1.854636    0.196361
  C      0.655718   -0.957546    1.047545
  C      1.221255   -1.760937   -0.088671
  O      1.944481   -2.714181   -0.145497
  C      0.631816   -0.788791   -1.158573
  O     -0.188414   -1.230174   -2.195080
  H      0.957354    1.977333   -0.177803
  H     -0.718916    1.911358   -0.739510
  H     -0.369990    1.917118    0.994966
  H     -1.372511   -0.335565    1.627837
  H     -1.566566   -2.635509    0.760907
  H      1.101136   -0.783544    2.019678
  H      1.472157   -0.251609   -1.616110
  H     -0.904524   -1.727999   -1.778068

 Total Charge           Charge          ....    0
 Multiplicity           Mult            ....    1
 Number of Electrons    NEL             ....   68
 Basis Dimension        Dim             ....  327

ORBITAL ENERGIES
----------------

  NO   OCC          E(Eh)            E(eV)
   0   2.0000     -20.596381      -560.4560
   1   2.0000     -20.561578      -559.5090
   2   2.0000     -20.553819      -559.2979
   3   2.0000     -11.337705      -308.5146
   4   2.0000     -11.322509      -308.1011
   5   2.0000     -11.303259      -307.5773
   6   2.0000     -11.273271      -306.7613
   7   2.0000     -11.261204      -306.4329
   8   2.0000     -11.242825      -305.9328
   9   2.0000      -1.411058       -38.3968
  10   2.0000      -1.395349       -37.9694
  11   2.0000      -1.370643       -37.2971
  12   2.0000      -1.206557       -32.8321
  13   2.0000      -1.004350       -27.3298
  14   2.0000      -0.976722       -26.5780
  15   2.0000      -0.878097       -23.8942
  16   2.0000      -0.790682       -21.5155
  17   2.0000      -0.778786       -21.1919
  18   2.0000      -0.712060       -19.3761
  19   2.0000      -0.687230       -18.7005
  20   2.0000      -0.669142       -18.2083
  21   2.0000      -0.655512       -17.8374
  22   2.0000      -0.629607       -17.1325
  23   2.0000      -0.618803       -16.8385
  24   2.0000      -0.586248       -15.9526
  25   2.0000      -0.583096       -15.8668
  26   2.0000      -0.569799       -15.5050
  27   2.0000      -0.554350       -15.0846
  28   2.0000      -0.531068       -14.4511
  29   2.0000      -0.509998       -13.8777
  30   2.0000      -0.475123       -12.9287
  31   2.0000      -0.439758       -11.9664
  32   2.0000      -0.408791       -11.1238
  33   2.0000      -0.391490       -10.6530
  34   0.0000       0.117052         3.1851
  35   0.0000       0.131914         3.5896
  36   0.0000       0.146216         3.9787
  37   0.0000       0.162825         4.4307
  38   0.0000       0.175948         4.7878

MULLIKEN ATOMIC CHARGES
-----------------------
   0 C :   -0.417683
   1 C :    0.006513
   2 C :    0.003414
   3 O :   -0.494393
   4 C :   -0.125067
   5 C :    0.050526
   6 O :   -0.250762
   7 C :    0.184258
   8 O :   -0.465115
   9 H :    0.140037
  10 H :    0.156504
  11 H :    0.133347
  12 H :    0.130461
  13 H :    0.338714
  14 H :    0.153173
  15 H :    0.115864
  16 H :    0.340209
Sum of atomic charges:    0.0000000

LOEWDIN ATOMIC CHARGES
----------------------
   0 C :   -0.265776
   1 C :   -0.175084
   2 C :   -0.271462
   3 O :   -0.004417
   4 C :   -0.109888
   5 C :   -0.297423
   6 O :    0.163589
   7 C :   -0.264868
   8 O :    0.005172
   9 H :    0.131826
  10 H :    0.138752
  11 H :    0.131278
  12 H :    0.147269
  13 H :    0.187524
  14 H :    0.143637
  15 H :    0.158416
  16 H :    0.181456

  Mayer bond orders larger than 0.1
B(  0-C ,  1-C ) :   0.8936 B(  0-C ,  9-H ) :   0.9389 B(  0-C , 10-H ) :   0.9341
B(  0-C , 11-H ) :   0.9343 B(  1-C ,  2-C ) :   0.8861 B(  1-C ,  4-C ) :   0.7849
B(  1-C ,  7-C ) :   0.8599 B(  2-C ,  3-O ) :   0.9679 B(  2-C ,  4-C ) :   0.8553
B(  2-C , 12-H ) :   0.9629 B(  3-O , 13-H ) :   0.8309 B(  4-C ,  5-C ) :   0.8814
B(  4-C ,  7-C ) :  -0.1126 B(  4-C , 14-H ) :   0.8966 B(  5-C ,  6-O ) :   2.0508
B(  5-C ,  7-C ) :   0.8496 B(  7-C ,  8-O ) :   0.9951 B(  7-C , 15-H ) :   0.9157
B(  8-O , 16-H ) :   0.8169

MP2 TOTAL ENERGY:     -458.216462582 Eh
FINAL SINGLE POINT ENERGY      -458.216462581517

DIPOLE MOMENT
-------------
                                X             Y             Z
Electronic contribution:      1.87809      -6.53156      -1.22901
Nuclear contribution   :     -2.57120       7.39333       2.49616
                        -----------------------------------------
Total Dipole Moment    :     -0.69312       0.86176       1.26715
                        -----------------------------------------
Magnitude (a.u.)       :      1.68188
Magnitude (Debye)      :      4.27499

                             ****ORCA TERMINATED NORMALLY****
TOTAL RUN TIME: 0 days 0 hours 16 minutes 21 seconds 328 msec
