                         Program Version 3.0.3 - RELEASE   -
|  1> ! RI-MP2 RIJK def2-TZVP def2-TZVP/C def2-TZVP/JK TIGHTSCF
|  2> % maxcore 2000
|  3> % mp2 density relaxed end
|  4> *xyz 0 1
|  5>  O        0.0551556355     1.1656123569     0.6075737949
|  6>  C        0.0300501609    -0.1748253120     0.1622203033
|  7>  C       -1.3564349040    -0.5450108304    -0.3344722653
|  8>  C       -1.7140745409    -2.0446688570    -0.4134225484
|  9>  C       -2.6771725002    -1.7194728493     0.7228375010
| 10>  C       -4.0765902334    -2.1727997154     0.9645392457
| 11>  C       -2.9774834186    -2.4607318743     1.9822344923
| 12>  O       -2.3290985011    -0.3295717275     0.7302403713
| 13>  H       -0.6808390677     1.2475005923     1.2271650281
| 14>  H        0.7614268884    -0.2629386244    -0.6495175340
| 15>  H        0.3264815392    -0.8735389957     0.9623352139
| 16>  H       -1.6196054462     0.0549610718    -1.2129178256
| 17>  H       -2.1833521812    -2.3641874545    -1.3453681179
| 18>  H       -0.8990935312    -2.7279551753    -0.1614177834
| 19>  H       -4.8038298999    -1.4100013416     1.2212458578
| 20>  H       -4.4668955897    -2.9940156543     0.3718130819
| 21>  H       -2.6156748631    -3.4787763692     2.0864634084
| 22>  H       -2.9897886269    -1.8856853599     2.9020236560
| 23> *
| 24>
| 25>                          ****END OF INPUT****

CARTESIAN COORDINATES (ANGSTROEM)
---------------------------------
  O      0.055156    1.165612    0.607574
  C      0.030050   -0.174825    0.162220
  C     -1.356435   -0.545011   -0.334472
  C     -1.714075   -2.044669   -0.413423
  C     -2.677173   -1.719473    0.722838
  C     -4.076590   -2.172800    0.964539
  C     -2.977483   -2.460732    1.982234
  O     -2.329099   -0.329572    0.730240
  H     -0.680839    1.247501    1.227165
  H      0.761427   -0.262939   -0.649518
  H      0.326482   -0.873539    0.962335
  H     -1.619605    0.054961   -1.212918
  H     -2.183352   -2.364187   -1.345368
  H     -0.899094   -2.727955   -0.161418
  H     -4.803830   -1.410001    1.221246
  H     -4.466896   -2.994016    0.371813
  H     -2.615675   -3.478776    2.086463
  H     -2.989789   -1.885685    2.902024

 Total Charge           Charge          ....    0
 Multiplicity           Mult            ....    1
 Number of Electrons    NEL             ....   62
 Basis Dimension        Dim             ....  308

ORBITAL ENERGIES
----------------

  NO   OCC          E(Eh)            E(eV)
   0   2.0000     -20.557508      -559.3982
   1   2.0000     -20.550620      -559.2108
   2   2.0000     -11.296157      -307.3840
   3   2.0000     -11.288189      -307.1672
   4   2.0000     -11.275554      -306.8234
   5   2.0000     -11.240626      -305.8730
   6   2.0000     -11.230429      -305.5955
   7   2.0000     -11.229577      -305.5723
   8   2.0000      -1.394446       -37.9448
   9   2.0000      -1.353810       -36.8390
  10   2.0000      -1.135057       -30.8865
  11   2.0000      -1.034114       -28.1397
  12   2.0000      -0.949943       -25.8493
  13   2.0000      -0.837391       -22.7866
  14   2.0000      -0.828445       -22.5431
  15   2.0000      -0.738343       -20.0913
  16   2.0000      -0.707279       -19.2461
  17   2.0000      -0.683921       -18.6104
  18   2.0000      -0.670144       -18.2355
  19   2.0000      -0.627263       -17.0687
  20   2.0000      -0.611914       -16.6510
  21   2.0000      -0.591583       -16.0978
  22   2.0000      -0.552128       -15.0242
  23   2.0000      -0.545669       -14.8484
  24   2.0000      -0.523171       -14.2362
  25   2.0000      -0.509985       -13.8774
  26   2.0000      -0.493512       -13.4291
  27   2.0000      -0.475121       -12.9287
  28   2.0000      -0.445759       -12.1297
  29   2.0000      -0.414839       -11.2883
  30   2.0000      -0.379586       -10.3291
  31   0.0000       0.142602         3.8804
  32   0.0000       0.157113         4.2752
  33   0.0000       0.158772         4.3204
  34   0.0000       0.171396         4.6639
  35   0.0000       0.178557         4.8588

MULLIKEN ATOMIC CHARGES
-----------------------
   0 O :   -0.477594
   1 C :   -0.034822
   2 C :    0.103068
   3 C :   -0.300243
   4 C :    0.204091
   5 C :   -0.283862
   6 C :   -0.273518
   7 O :   -0.358827
   8 H :    0.328289
   9 H :    0.109786
  10 H :    0.095902
  11 H :    0.098643
  12 H :    0.132240
  13 H :    0.126366
  14 H :    0.137277
  15 H :    0.129465
  16 H :    0.128141
  17 H :    0.135598
Sum of atomic charges:   -0.0000000

LOEWDIN ATOMIC CHARGES
----------------------
   0 O :   -0.042142
   1 C :   -0.337957
   2 C :   -0.273211
   3 C :   -0.180978
   4 C :   -0.308165
   5 C :   -0.208318
   6 C :   -0.209961
   7 O :    0.171264
   8 H :    0.179677
   9 H :    0.131288
  10 H :    0.120137
  11 H :    0.136936
  12 H :    0.137093
  13 H :    0.137739
  14 H :    0.140045
  15 H :    0.133829
  16 H :    0.133627
  17 H :    0.139098

  Mayer bond orders larger than 0.1
B(  0-O ,  1-C ) :   0.9254 B(  0-O ,  8-H ) :   0.8302 B(  1-C ,  2-C ) :   0.9449
B(  1-C ,  9-H ) :   0.9266 B(  1-C , 10-H ) :   0.9096 B(  2-C ,  3-C ) :   0.9379
B(  2-C ,  7-O ) :   0.8657 B(  2-C , 11-H ) :   0.9112 B(  3-C ,  4-C ) :   0.9218
B(  3-C , 12-H ) :   0.9177 B(  3-C , 13-H ) :   0.9194 B(  4-C ,  5-C ) :   0.8800
B(  4-C ,  6-C ) :   0.8623 B(  4-C ,  7-O ) :   0.9462 B(  5-C ,  6-C ) :   0.9192
B(  5-C , 14-H ) :   0.9165 B(  5-C , 15-H ) :   0.9167 B(  6-C , 16-H ) :   0.9170
B(  6-C , 17-H ) :   0.9186

MP2 TOTAL ENERGY:     -384.265855383 Eh
FINAL SINGLE POINT ENERGY      -384.265855382605

DIPOLE MOMENT
-------------
                                X             Y             Z
Electronic contribution:      0.50733       3.60354      -0.02422
Nuclear contribution   :     -0.77844      -4.62607      -0.18017
                        -----------------------------------------
Total Dipole Moment    :     -0.27111      -1.02253      -0.20439
                        -----------------------------------------
Magnitude (a.u.)       :      1.07743
Magnitude (Debye)      :      2.73860

                             ****ORCA TERMINATED NORMALLY****
TOTAL RUN TIME: 0 days 0 hours 11 minutes 36 seconds 225 msec
