                         Program Version 3.0.3 - RELEASE   -
|  1> ! RI-MP2 RIJK def2-TZVP def2-TZVP/C def2-TZVP/JK TIGHTSCF
|  2> % maxcore 2000
|  3> % mp2 density relaxed end
|  4> *xyz 0 1
|  5>  C        0.6110591879     1.5829071899    -0.1210660787
|  6>  C        0.1445655947     0.1239223587     0.0677502467
|  7>  C        0.4610754908    -0.6607962425    -1.1901994763
|  8>  O        1.8496880894    -0.8110482265    -1.5102383641
|  9>  C        1.1025130714    -1.9798503767    -1.1550868697
| 10>  C        1.4553172675    -2.6259149615     0.1610715950
| 11>  C        1.2554459628    -1.7267378739     1.3475296879
| 12>  C        0.6885984137    -0.5181742738     1.3337108990
| 13>  C        0.5150149884     0.2654120649     2.6109832053
| 14>  H        1.7006990770     1.6222903129    -0.2052915881
| 15>  H        0.1863038686     2.0012469009    -1.0395237235
| 16>  H        0.2995995600     2.2210616924     0.7090528317
| 17>  H       -0.9540985066     0.1411577501     0.1568735808
| 18>  H       -0.1606882807    -0.4074737817    -2.0511463915
| 19>  H        0.9339765750    -2.6632746208    -1.9884171524
| 20>  H        0.8445228350    -3.5338560770     0.2777287485
| 21>  H        2.4956430445    -2.9795731442     0.1225980759
| 22>  H        1.5993739276    -2.1280428580     2.2989512155
| 23>  H        0.7986965318    -0.3326698842     3.4807714171
| 24>  H        1.1244786064     1.1764473393     2.6190365508
| 25>  H       -0.5267105949     0.5854358618     2.7443827698
| 26> *
| 27>
| 28>                          ****END OF INPUT****

CARTESIAN COORDINATES (ANGSTROEM)
---------------------------------
  C      0.611059    1.582907   -0.121066
  C      0.144566    0.123922    0.067750
  C      0.461075   -0.660796   -1.190199
  O      1.849688   -0.811048   -1.510238
  C      1.102513   -1.979850   -1.155087
  C      1.455317   -2.625915    0.161072
  C      1.255446   -1.726738    1.347530
  C      0.688598   -0.518174    1.333711
  C      0.515015    0.265412    2.610983
  H      1.700699    1.622290   -0.205292
  H      0.186304    2.001247   -1.039524
  H      0.299600    2.221062    0.709053
  H     -0.954099    0.141158    0.156874
  H     -0.160688   -0.407474   -2.051146
  H      0.933977   -2.663275   -1.988417
  H      0.844523   -3.533856    0.277729
  H      2.495643   -2.979573    0.122598
  H      1.599374   -2.128043    2.298951
  H      0.798697   -0.332670    3.480771
  H      1.124479    1.176447    2.619037
  H     -0.526711    0.585436    2.744383

 Total Charge           Charge          ....    0
 Multiplicity           Mult            ....    1
 Number of Electrons    NEL             ....   68
 Basis Dimension        Dim             ....  351

ORBITAL ENERGIES
----------------

  NO   OCC          E(Eh)            E(eV)
   0   2.0000     -20.556809      -559.3792
   1   2.0000     -11.281129      -306.9751
   2   2.0000     -11.279434      -306.9290
   3   2.0000     -11.238958      -305.8276
   4   2.0000     -11.232250      -305.6451
   5   2.0000     -11.231151      -305.6151
   6   2.0000     -11.219511      -305.2984
   7   2.0000     -11.219223      -305.2906
   8   2.0000     -11.214721      -305.1681
   9   2.0000      -1.404253       -38.2117
  10   2.0000      -1.116241       -30.3745
  11   2.0000      -1.044367       -28.4187
  12   2.0000      -0.999965       -27.2104
  13   2.0000      -0.915197       -24.9038
  14   2.0000      -0.914140       -24.8750
  15   2.0000      -0.821286       -22.3483
  16   2.0000      -0.811163       -22.0729
  17   2.0000      -0.705622       -19.2009
  18   2.0000      -0.672116       -18.2892
  19   2.0000      -0.652247       -17.7485
  20   2.0000      -0.608697       -16.5635
  21   2.0000      -0.600591       -16.3429
  22   2.0000      -0.590571       -16.0703
  23   2.0000      -0.561602       -15.2820
  24   2.0000      -0.551612       -15.0101
  25   2.0000      -0.538267       -14.6470
  26   2.0000      -0.530095       -14.4246
  27   2.0000      -0.523933       -14.2569
  28   2.0000      -0.502399       -13.6710
  29   2.0000      -0.487475       -13.2649
  30   2.0000      -0.451723       -12.2920
  31   2.0000      -0.434202       -11.8152
  32   2.0000      -0.419205       -11.4072
  33   2.0000      -0.337663        -9.1883
  34   0.0000       0.133649         3.6368
  35   0.0000       0.147929         4.0254
  36   0.0000       0.157972         4.2986
  37   0.0000       0.172052         4.6818
  38   0.0000       0.178336         4.8528

MULLIKEN ATOMIC CHARGES
-----------------------
   0 C :   -0.444042
   1 C :    0.082594
   2 C :    0.028603
   3 O :   -0.345556
   4 C :   -0.060715
   5 C :   -0.048397
   6 C :   -0.262331
   7 C :   -0.006766
   8 C :   -0.447896
   9 H :    0.152565
  10 H :    0.129037
  11 H :    0.138071
  12 H :    0.090935
  13 H :    0.121430
  14 H :    0.111955
  15 H :    0.114398
  16 H :    0.120001
  17 H :    0.110435
  18 H :    0.133898
  19 H :    0.147783
  20 H :    0.133996
Sum of atomic charges:    0.0000000

LOEWDIN ATOMIC CHARGES
----------------------
   0 C :   -0.278594
   1 C :   -0.226041
   2 C :   -0.237530
   3 O :    0.166663
   4 C :   -0.257919
   5 C :   -0.237176
   6 C :   -0.144626
   7 C :   -0.168733
   8 C :   -0.270749
   9 H :    0.131716
  10 H :    0.125306
  11 H :    0.122006
  12 H :    0.166096
  13 H :    0.138743
  14 H :    0.136530
  15 H :    0.152016
  16 H :    0.151817
  17 H :    0.144318
  18 H :    0.128345
  19 H :    0.129275
  20 H :    0.128536

  Mayer bond orders larger than 0.1
B(  0-C ,  1-C ) :   0.8357 B(  0-C ,  9-H ) :   0.9362 B(  0-C , 10-H ) :   0.9346
B(  0-C , 11-H ) :   0.9382 B(  1-C ,  2-C ) :   0.9498 B(  1-C ,  7-C ) :   0.9679
B(  1-C , 12-H ) :   0.8902 B(  2-C ,  3-O ) :   0.8571 B(  2-C ,  4-C ) :   0.9506
B(  2-C , 13-H ) :   0.9209 B(  3-O ,  4-C ) :   0.9217 B(  4-C ,  5-C ) :   0.9222
B(  4-C , 14-H ) :   0.9402 B(  5-C ,  6-C ) :   0.9504 B(  5-C , 15-H ) :   0.8945
B(  5-C , 16-H ) :   0.8981 B(  6-C ,  7-C ) :   1.7532 B(  6-C , 17-H ) :   0.9235
B(  7-C ,  8-C ) :   0.8806 B(  8-C , 18-H ) :   0.9428 B(  8-C , 19-H ) :   0.9324
B(  8-C , 20-H ) :   0.9330

MP2 TOTAL ENERGY:     -386.414891801 Eh
FINAL SINGLE POINT ENERGY      -386.414891800518

DIPOLE MOMENT
-------------
                                X             Y             Z
Electronic contribution:      1.77392      -3.79815      -4.58720
Nuclear contribution   :     -2.39282       3.56707       4.87301
                        -----------------------------------------
Total Dipole Moment    :     -0.61890      -0.23108       0.28581
                        -----------------------------------------
Magnitude (a.u.)       :      0.71980
Magnitude (Debye)      :      1.82960

                             ****ORCA TERMINATED NORMALLY****
TOTAL RUN TIME: 0 days 0 hours 20 minutes 24 seconds 954 msec
