                         Program Version 3.0.3 - RELEASE   -
|  1> ! RI-MP2 RIJK def2-TZVP def2-TZVP/C def2-TZVP/JK TIGHTSCF
|  2> % maxcore 2000
|  3> % mp2 density relaxed end
|  4> *xyz 0 1
|  5>  O        0.2313175125     1.5157918018     0.0784788037
|  6>  C        0.1025465471     0.1263491367     0.1044495035
|  7>  C       -1.3560828678    -0.3494123292    -0.0399127518
|  8>  C       -1.1566667760    -1.3357096841     1.1517792220
|  9>  C        0.2932192100    -0.8220699466     1.3649095480
| 10>  C        1.3751254065    -1.6226421529     0.5899123274
| 11>  C        1.1583747468    -0.7151108270    -0.6342142819
| 12>  C        1.1860816470    -1.0727733567    -2.0898670046
| 13>  C        2.2296937307    -0.1406913090    -1.5200433101
| 14>  H        1.1673011816     1.7286747110     0.1660935687
| 15>  H       -2.0510030477     0.4604979804     0.1937532179
| 16>  H       -1.6286426353    -0.7804710957    -1.0069625482
| 17>  H       -1.8254580900    -1.1431510070     1.9933566412
| 18>  H       -1.2264503598    -2.3970107015     0.8979187435
| 19>  H        0.5532621702    -0.4544192128     2.3579422824
| 20>  H        2.3784937351    -1.5407272772     1.0195262707
| 21>  H        1.1492947330    -2.6838108872     0.4438348625
| 22>  H        1.4916008117    -2.0778816328    -2.3632771561
| 23>  H        0.4248425295    -0.6450501238    -2.7353688671
| 24>  H        2.1602662352     0.9095576508    -1.7887517160
| 25>  H        3.2440975897    -0.5090492373    -1.4013599657
| 26> *
| 27>
| 28>                          ****END OF INPUT****

CARTESIAN COORDINATES (ANGSTROEM)
---------------------------------
  O      0.231318    1.515792    0.078479
  C      0.102547    0.126349    0.104450
  C     -1.356083   -0.349412   -0.039913
  C     -1.156667   -1.335710    1.151779
  C      0.293219   -0.822070    1.364910
  C      1.375125   -1.622642    0.589912
  C      1.158375   -0.715111   -0.634214
  C      1.186082   -1.072773   -2.089867
  C      2.229694   -0.140691   -1.520043
  H      1.167301    1.728675    0.166094
  H     -2.051003    0.460498    0.193753
  H     -1.628643   -0.780471   -1.006963
  H     -1.825458   -1.143151    1.993357
  H     -1.226450   -2.397011    0.897919
  H      0.553262   -0.454419    2.357942
  H      2.378494   -1.540727    1.019526
  H      1.149295   -2.683811    0.443835
  H      1.491601   -2.077882   -2.363277
  H      0.424843   -0.645050   -2.735369
  H      2.160266    0.909558   -1.788752
  H      3.244098   -0.509049   -1.401360

 Total Charge           Charge          ....    0
 Multiplicity           Mult            ....    1
 Number of Electrons    NEL             ....   68
 Basis Dimension        Dim             ....  351

ORBITAL ENERGIES
----------------

  NO   OCC          E(Eh)            E(eV)
   0   2.0000     -20.557296      -559.3925
   1   2.0000     -11.279114      -306.9203
   2   2.0000     -11.233438      -305.6774
   3   2.0000     -11.227755      -305.5227
   4   2.0000     -11.225137      -305.4515
   5   2.0000     -11.222750      -305.3866
   6   2.0000     -11.221244      -305.3456
   7   2.0000     -11.218281      -305.2649
   8   2.0000     -11.212967      -305.1204
   9   2.0000      -1.368043       -37.2263
  10   2.0000      -1.171196       -31.8699
  11   2.0000      -1.107324       -30.1318
  12   2.0000      -0.989486       -26.9253
  13   2.0000      -0.899652       -24.4808
  14   2.0000      -0.837786       -22.7973
  15   2.0000      -0.824898       -22.4466
  16   2.0000      -0.781512       -21.2660
  17   2.0000      -0.726523       -19.7697
  18   2.0000      -0.683698       -18.6044
  19   2.0000      -0.661860       -18.0101
  20   2.0000      -0.634931       -17.2773
  21   2.0000      -0.610899       -16.6234
  22   2.0000      -0.586325       -15.9547
  23   2.0000      -0.565045       -15.3757
  24   2.0000      -0.558325       -15.1928
  25   2.0000      -0.525183       -14.2910
  26   2.0000      -0.512825       -13.9547
  27   2.0000      -0.488425       -13.2907
  28   2.0000      -0.478694       -13.0259
  29   2.0000      -0.455872       -12.4049
  30   2.0000      -0.431724       -11.7478
  31   2.0000      -0.421873       -11.4798
  32   2.0000      -0.387896       -10.5552
  33   2.0000      -0.369300       -10.0492
  34   0.0000       0.143463         3.9038
  35   0.0000       0.150018         4.0822
  36   0.0000       0.157838         4.2950
  37   0.0000       0.167987         4.5712
  38   0.0000       0.180057         4.8996

MULLIKEN ATOMIC CHARGES
-----------------------
   0 O :   -0.446919
   1 C :    0.360347
   2 C :   -0.280329
   3 C :   -0.238900
   4 C :   -0.102542
   5 C :   -0.232533
   6 C :   -0.119107
   7 C :   -0.274071
   8 C :   -0.298009
   9 H :    0.317641
  10 H :    0.119590
  11 H :    0.112289
  12 H :    0.116139
  13 H :    0.107303
  14 H :    0.110034
  15 H :    0.113258
  16 H :    0.109752
  17 H :    0.128443
  18 H :    0.131764
  19 H :    0.135051
  20 H :    0.130798
Sum of atomic charges:    0.0000000

LOEWDIN ATOMIC CHARGES
----------------------
   0 O :    0.027159
   1 C :   -0.296838
   2 C :   -0.192276
   3 C :   -0.217172
   4 C :   -0.158416
   5 C :   -0.179410
   6 C :   -0.200560
   7 C :   -0.206413
   8 C :   -0.213562
   9 H :    0.178713
  10 H :    0.139198
  11 H :    0.128015
  12 H :    0.130313
  13 H :    0.127863
  14 H :    0.131502
  15 H :    0.133882
  16 H :    0.131284
  17 H :    0.134305
  18 H :    0.136721
  19 H :    0.132760
  20 H :    0.132934

  Mayer bond orders larger than 0.1
B(  0-O ,  1-C ) :   1.0465 B(  0-O ,  9-H ) :   0.8347 B(  1-C ,  2-C ) :   0.9109
B(  1-C ,  4-C ) :   0.8796 B(  1-C ,  6-C ) :   0.8696 B(  2-C ,  3-C ) :   0.9927
B(  2-C , 10-H ) :   0.9068 B(  2-C , 11-H ) :   0.9159 B(  3-C ,  4-C ) :   0.9321
B(  3-C , 12-H ) :   0.9211 B(  3-C , 13-H ) :   0.9201 B(  4-C ,  5-C ) :   0.9313
B(  4-C , 14-H ) :   0.8980 B(  5-C ,  6-C ) :   0.8927 B(  5-C , 15-H ) :   0.9096
B(  5-C , 16-H ) :   0.9039 B(  6-C ,  7-C ) :   0.8366 B(  6-C ,  8-C ) :   0.8681
B(  7-C ,  8-C ) :   0.9336 B(  7-C , 17-H ) :   0.9255 B(  7-C , 18-H ) :   0.9228
B(  8-C , 19-H ) :   0.9201 B(  8-C , 20-H ) :   0.9242

MP2 TOTAL ENERGY:     -386.373473967 Eh
FINAL SINGLE POINT ENERGY      -386.373473966881

DIPOLE MOMENT
-------------
                                X             Y             Z
Electronic contribution:      0.02896       3.12249       0.89063
Nuclear contribution   :      0.43160      -3.44373      -0.82533
                        -----------------------------------------
Total Dipole Moment    :      0.46056      -0.32123       0.06531
                        -----------------------------------------
Magnitude (a.u.)       :      0.56531
Magnitude (Debye)      :      1.43691

                             ****ORCA TERMINATED NORMALLY****
TOTAL RUN TIME: 0 days 0 hours 19 minutes 46 seconds 463 msec
