                         Program Version 3.0.3 - RELEASE   -
|  1> ! RI-MP2 RIJK def2-TZVP def2-TZVP/C def2-TZVP/JK TIGHTSCF
|  2> % maxcore 2000
|  3> % mp2 density relaxed end
|  4> *xyz 0 1
|  5>  C        0.0596752374    -1.1705632281     0.0260772274
|  6>  C        0.0163204322     0.0309747557    -0.0025494591
|  7>  C       -0.0177127308     1.4708577239    -0.0273984578
|  8>  C       -0.9782999430     2.2097696668     0.9815899815
|  9>  C       -1.4156383946     3.1277291899    -0.1571198498
| 10>  C       -0.1886347529     3.5722555026    -0.9273136827
| 11>  O        1.0664914703     3.5388027744    -0.2819520519
| 12>  C        1.3564256416     2.1673300263    -0.0067854141
| 13>  C       -0.7448232835     2.2207561151    -1.1958808046
| 14>  H        0.0927561567    -2.2316032118     0.0509913551
| 15>  H       -1.7827638148     1.5473747484     1.3046868010
| 16>  H       -0.5004532551     2.6674062909     1.8538663933
| 17>  H       -2.3607626500     3.6535143796    -0.2267346408
| 18>  H       -0.2854222498     4.3779206785    -1.6448468066
| 19>  H        1.8454514515     2.1016132846     0.9695781847
| 20>  H        2.0212829712     1.7454880628    -0.7742229388
| 21>  H       -1.0791503562     1.8036008602    -2.1357133069
| 22> *
| 23>
| 24>                          ****END OF INPUT****

CARTESIAN COORDINATES (ANGSTROEM)
---------------------------------
  C      0.059675   -1.170563    0.026077
  C      0.016320    0.030975   -0.002549
  C     -0.017713    1.470858   -0.027398
  C     -0.978300    2.209770    0.981590
  C     -1.415638    3.127729   -0.157120
  C     -0.188635    3.572256   -0.927314
  O      1.066491    3.538803   -0.281952
  C      1.356426    2.167330   -0.006785
  C     -0.744823    2.220756   -1.195881
  H      0.092756   -2.231603    0.050991
  H     -1.782764    1.547375    1.304687
  H     -0.500453    2.667406    1.853866
  H     -2.360763    3.653514   -0.226735
  H     -0.285422    4.377921   -1.644847
  H      1.845451    2.101613    0.969578
  H      2.021283    1.745488   -0.774223
  H     -1.079150    1.803601   -2.135713

 Total Charge           Charge          ....    0
 Multiplicity           Mult            ....    1
 Number of Electrons    NEL             ....   64
 Basis Dimension        Dim             ....  327

ORBITAL ENERGIES
----------------

  NO   OCC          E(Eh)            E(eV)
   0   2.0000     -20.559754      -559.4594
   1   2.0000     -11.288200      -307.1675
   2   2.0000     -11.282341      -307.0081
   3   2.0000     -11.271477      -306.7125
   4   2.0000     -11.243554      -305.9527
   5   2.0000     -11.242194      -305.9157
   6   2.0000     -11.239422      -305.8402
   7   2.0000     -11.239133      -305.8324
   8   2.0000     -11.228994      -305.5565
   9   2.0000      -1.391705       -37.8702
  10   2.0000      -1.191521       -32.4229
  11   2.0000      -1.070359       -29.1259
  12   2.0000      -1.002427       -27.2774
  13   2.0000      -0.939631       -25.5687
  14   2.0000      -0.867448       -23.6045
  15   2.0000      -0.803492       -21.8641
  16   2.0000      -0.767226       -20.8773
  17   2.0000      -0.736657       -20.0455
  18   2.0000      -0.703240       -19.1361
  19   2.0000      -0.662765       -18.0348
  20   2.0000      -0.636772       -17.3274
  21   2.0000      -0.613602       -16.6970
  22   2.0000      -0.585821       -15.9410
  23   2.0000      -0.562583       -15.3087
  24   2.0000      -0.521743       -14.1974
  25   2.0000      -0.510774       -13.8989
  26   2.0000      -0.488595       -13.2953
  27   2.0000      -0.481794       -13.1103
  28   2.0000      -0.410183       -11.1616
  29   2.0000      -0.390084       -10.6147
  30   2.0000      -0.382104       -10.3976
  31   2.0000      -0.372992       -10.1496
  32   0.0000       0.143335         3.9004
  33   0.0000       0.156695         4.2639
  34   0.0000       0.160170         4.3585
  35   0.0000       0.165056         4.4914
  36   0.0000       0.172877         4.7042

MULLIKEN ATOMIC CHARGES
-----------------------
   0 C :   -0.114025
   1 C :   -0.016775
   2 C :   -0.039724
   3 C :   -0.206639
   4 C :   -0.159334
   5 C :    0.041205
   6 O :   -0.322012
   7 C :   -0.029366
   8 C :   -0.224649
   9 H :    0.193342
  10 H :    0.131374
  11 H :    0.113988
  12 H :    0.135088
  13 H :    0.130675
  14 H :    0.119064
  15 H :    0.096320
  16 H :    0.151467
Sum of atomic charges:    0.0000000

LOEWDIN ATOMIC CHARGES
----------------------
   0 C :   -0.085283
   1 C :   -0.067615
   2 C :   -0.212089
   3 C :   -0.147721
   4 C :   -0.158806
   5 C :   -0.254012
   6 O :    0.177252
   7 C :   -0.231715
   8 C :   -0.107151
   9 H :    0.127855
  10 H :    0.144936
  11 H :    0.133062
  12 H :    0.135660
  13 H :    0.145732
  14 H :    0.132504
  15 H :    0.128149
  16 H :    0.139245

  Mayer bond orders larger than 0.1
B(  0-C ,  1-C ) :   2.6013 B(  0-C ,  2-C ) :  -0.1544 B(  0-C ,  9-H ) :   0.8713
B(  1-C ,  2-C ) :   1.2127 B(  2-C ,  3-C ) :   0.9163 B(  2-C ,  7-C ) :   0.9703
B(  2-C ,  8-C ) :   0.8494 B(  3-C ,  4-C ) :   0.9442 B(  3-C , 10-H ) :   0.9276
B(  3-C , 11-H ) :   0.8984 B(  4-C ,  5-C ) :   0.8415 B(  4-C ,  8-C ) :   0.8302
B(  4-C , 12-H ) :   0.9168 B(  5-C ,  6-O ) :   0.9862 B(  5-C ,  8-C ) :   0.9232
B(  5-C , 13-H ) :   0.9436 B(  6-O ,  7-C ) :   0.9442 B(  7-C , 14-H ) :   0.9099
B(  7-C , 15-H ) :   0.9171 B(  8-C , 16-H ) :   0.9105

MP2 TOTAL ENERGY:     -383.937561321 Eh
FINAL SINGLE POINT ENERGY      -383.937561321115

DIPOLE MOMENT
-------------
                                X             Y             Z
Electronic contribution:      0.98209      -0.27496      -0.86867
Nuclear contribution   :     -1.40740      -0.02868       0.73537
                        -----------------------------------------
Total Dipole Moment    :     -0.42530      -0.30364      -0.13331
                        -----------------------------------------
Magnitude (a.u.)       :      0.53931
Magnitude (Debye)      :      1.37081

                             ****ORCA TERMINATED NORMALLY****
TOTAL RUN TIME: 0 days 0 hours 17 minutes 15 seconds 954 msec
