                         Program Version 3.0.3 - RELEASE   -
|  1> ! RI-MP2 RIJK def2-TZVP def2-TZVP/C def2-TZVP/JK TIGHTSCF
|  2> % maxcore 2000
|  3> % mp2 density relaxed end
|  4> *xyz 0 1
|  5>  N       -0.1631474277     1.3099089140    -0.0282327947
|  6>  C        0.1610225336     0.0479008142     0.3281207852
|  7>  N        1.1358776871    -0.6393673456    -0.2307048219
|  8>  H        1.8791000035    -0.1503084023    -0.7220345184
|  9>  C        1.2148944021    -2.0348347277    -0.1357001044
| 10>  C        0.1242393456    -2.8385254757    -0.3887355274
| 11>  O        0.4710629326    -4.1189965698    -0.2551965426
| 12>  C        1.9185478638    -4.1789798965     0.1227272854
| 13>  O        2.4020489793    -5.2662199416     0.3220468330
| 14>  C        2.3358964229    -2.8293328062     0.1673202580
| 15>  H        0.3817487591     1.8092314556    -0.7131254055
| 16>  H       -0.6956532030     1.8729744176     0.6138104189
| 17>  H       -0.4658893659    -0.4741845714     1.0393454898
| 18>  H       -0.8212812654    -2.6024707416    -0.8564417588
| 19>  H        3.3037379024    -2.5117747830     0.5172228633
| 20> *
| 21>
| 22>                          ****END OF INPUT****

CARTESIAN COORDINATES (ANGSTROEM)
---------------------------------
  N     -0.163147    1.309909   -0.028233
  C      0.161023    0.047901    0.328121
  N      1.135878   -0.639367   -0.230705
  H      1.879100   -0.150308   -0.722035
  C      1.214894   -2.034835   -0.135700
  C      0.124239   -2.838525   -0.388736
  O      0.471063   -4.118997   -0.255197
  C      1.918548   -4.178980    0.122727
  O      2.402049   -5.266220    0.322047
  C      2.335896   -2.829333    0.167320
  H      0.381749    1.809231   -0.713125
  H     -0.695653    1.872974    0.613810
  H     -0.465889   -0.474185    1.039345
  H     -0.821281   -2.602471   -0.856442
  H      3.303738   -2.511775    0.517223

 Total Charge           Charge          ....    0
 Multiplicity           Mult            ....    1
 Number of Electrons    NEL             ....   66
 Basis Dimension        Dim             ....  315

ORBITAL ENERGIES
----------------

  NO   OCC          E(Eh)            E(eV)
   0   2.0000     -20.548285      -559.1472
   1   2.0000     -20.448832      -556.4410
   2   2.0000     -15.691622      -426.9907
   3   2.0000     -15.684655      -426.8012
   4   2.0000     -11.435637      -311.1795
   5   2.0000     -11.302217      -307.5490
   6   2.0000     -11.263069      -306.4837
   7   2.0000     -11.256108      -306.2943
   8   2.0000     -11.161103      -303.7091
   9   2.0000      -1.393311       -37.9139
  10   2.0000      -1.382126       -37.6096
  11   2.0000      -1.294171       -35.2162
  12   2.0000      -1.287797       -35.0427
  13   2.0000      -1.054960       -28.7069
  14   2.0000      -0.966027       -26.2869
  15   2.0000      -0.931528       -25.3482
  16   2.0000      -0.849038       -23.1035
  17   2.0000      -0.825041       -22.4505
  18   2.0000      -0.775017       -21.0893
  19   2.0000      -0.734000       -19.9731
  20   2.0000      -0.692253       -18.8372
  21   2.0000      -0.685988       -18.6667
  22   2.0000      -0.634267       -17.2593
  23   2.0000      -0.610566       -16.6143
  24   2.0000      -0.582912       -15.8618
  25   2.0000      -0.551367       -15.0035
  26   2.0000      -0.546830       -14.8800
  27   2.0000      -0.513760       -13.9801
  28   2.0000      -0.490515       -13.3476
  29   2.0000      -0.450034       -12.2461
  30   2.0000      -0.371774       -10.1165
  31   2.0000      -0.362618        -9.8673
  32   2.0000      -0.215774        -5.8715
  33   0.0000       0.054846         1.4924
  34   0.0000       0.062316         1.6957
  35   0.0000       0.093203         2.5362
  36   0.0000       0.134495         3.6598
  37   0.0000       0.156749         4.2654

MULLIKEN ATOMIC CHARGES
-----------------------
   0 N :   -0.453364
   1 C :    0.149081
   2 N :   -0.238447
   3 H :    0.255199
   4 C :    0.158729
   5 C :   -0.081016
   6 O :   -0.226330
   7 C :    0.239692
   8 O :   -0.378917
   9 C :   -0.455553
  10 H :    0.275710
  11 H :    0.292722
  12 H :    0.198500
  13 H :    0.143524
  14 H :    0.120472
Sum of atomic charges:    0.0000000

LOEWDIN ATOMIC CHARGES
----------------------
   0 N :   -0.003541
   1 C :   -0.241311
   2 N :    0.240736
   3 H :    0.209884
   4 C :   -0.304871
   5 C :   -0.306006
   6 O :    0.266687
   7 C :   -0.448867
   8 O :    0.053413
   9 C :   -0.259785
  10 H :    0.182318
  11 H :    0.189230
  12 H :    0.159784
  13 H :    0.127079
  14 H :    0.135249

  Mayer bond orders larger than 0.1
B(  0-N ,  1-C ) :   1.1894 B(  0-N , 10-H ) :   0.8650 B(  0-N , 11-H ) :   0.8609
B(  1-C ,  2-N ) :   1.4155 B(  1-C ,  5-C ) :   0.1334 B(  1-C , 12-H ) :   0.9079
B(  2-N ,  3-H ) :   0.8536 B(  2-N ,  4-C ) :   0.8185 B(  4-C ,  5-C ) :   1.3556
B(  4-C ,  9-C ) :   1.2195 B(  5-C ,  6-O ) :   1.1493 B(  5-C , 13-H ) :   0.9298
B(  6-O ,  7-C ) :   0.8451 B(  7-C ,  8-O ) :   1.9492 B(  7-C ,  9-C ) :   1.2961
B(  9-C , 14-H ) :   0.9360

MP2 TOTAL ENERGY:     -453.177931996 Eh
FINAL SINGLE POINT ENERGY      -453.177931996352

DIPOLE MOMENT
-------------
                                X             Y             Z
Electronic contribution:      1.03455      -4.86555      -0.15483
Nuclear contribution   :     -2.54047      10.74668      -0.04431
                        -----------------------------------------
Total Dipole Moment    :     -1.50591       5.88113      -0.19915
                        -----------------------------------------
Magnitude (a.u.)       :      6.07414
Magnitude (Debye)      :     15.43923

                             ****ORCA TERMINATED NORMALLY****
TOTAL RUN TIME: 0 days 0 hours 13 minutes 33 seconds 743 msec
