                         Program Version 3.0.3 - RELEASE   -
|  1> ! RI-MP2 RIJK def2-TZVP def2-TZVP/C def2-TZVP/JK TIGHTSCF
|  2> % maxcore 2000
|  3> % mp2 density relaxed end
|  4> *xyz 0 1
|  5>  C        0.5618356102     0.2452874544    -1.4605797231
|  6>  C        0.0204766744     0.1560633577    -0.0282983252
|  7>  C       -1.3901765358    -0.4339934924     0.0260348925
|  8>  C       -1.5549496795    -1.9771683111    -0.1398817386
|  9>  C       -1.1544390582    -2.0809899193     1.3773349785
| 10>  C       -1.9842856521    -0.7628795332     1.4290887100
| 11>  N       -3.3571593138    -1.3459011032     1.2307200862
| 12>  C       -4.0241968873    -1.0575175397    -0.0520481904
| 13>  C       -3.0677663046    -2.1912004533     0.0305043690
| 14>  H        1.5522975577     0.7103810153    -1.4802980159
| 15>  H        0.6508128389    -0.7468075730    -1.9157919449
| 16>  H       -0.0993577837     0.8425810543    -2.0982995762
| 17>  H        0.7256650326    -0.4095247452     0.5875968126
| 18>  H       -0.0164883851     1.1643327451     0.4056286140
| 19>  H       -2.0070213422     0.1848870182    -0.6292993017
| 20>  H       -1.0494560018    -2.5422360426    -0.9233843018
| 21>  H       -1.5607110237    -2.9214655246     1.9444689241
| 22>  H       -0.0901161214    -1.9654526187     1.5770872762
| 23>  H       -1.9468376322    -0.0622933138     2.2638527233
| 24>  H       -5.0842367979    -1.2972197085    -0.0263073026
| 25>  H       -3.8009681219    -0.1601157725    -0.6162447264
| 26>  H       -3.4386094725    -3.2135076639     0.0448192702
| 27> *
| 28>
| 29>                          ****END OF INPUT****

CARTESIAN COORDINATES (ANGSTROEM)
---------------------------------
  C      0.561836    0.245287   -1.460580
  C      0.020477    0.156063   -0.028298
  C     -1.390177   -0.433993    0.026035
  C     -1.554950   -1.977168   -0.139882
  C     -1.154439   -2.080990    1.377335
  C     -1.984286   -0.762880    1.429089
  N     -3.357159   -1.345901    1.230720
  C     -4.024197   -1.057518   -0.052048
  C     -3.067766   -2.191200    0.030504
  H      1.552298    0.710381   -1.480298
  H      0.650813   -0.746808   -1.915792
  H     -0.099358    0.842581   -2.098300
  H      0.725665   -0.409525    0.587597
  H     -0.016488    1.164333    0.405629
  H     -2.007021    0.184887   -0.629299
  H     -1.049456   -2.542236   -0.923384
  H     -1.560711   -2.921466    1.944469
  H     -0.090116   -1.965453    1.577087
  H     -1.946838   -0.062293    2.263853
  H     -5.084237   -1.297220   -0.026307
  H     -3.800968   -0.160116   -0.616245
  H     -3.438609   -3.213508    0.044819

 Total Charge           Charge          ....    0
 Multiplicity           Mult            ....    1
 Number of Electrons    NEL             ....   68
 Basis Dimension        Dim             ....  357

ORBITAL ENERGIES
----------------

  NO   OCC          E(Eh)            E(eV)
   0   2.0000     -15.550946      -423.1628
   1   2.0000     -11.258182      -306.3507
   2   2.0000     -11.252749      -306.2029
   3   2.0000     -11.250323      -306.1369
   4   2.0000     -11.239401      -305.8396
   5   2.0000     -11.228250      -305.5362
   6   2.0000     -11.224113      -305.4236
   7   2.0000     -11.222350      -305.3757
   8   2.0000     -11.216074      -305.2049
   9   2.0000      -1.287548       -35.0360
  10   2.0000      -1.119585       -30.4655
  11   2.0000      -1.030115       -28.0308
  12   2.0000      -0.954964       -25.9859
  13   2.0000      -0.911987       -24.8164
  14   2.0000      -0.852897       -23.2085
  15   2.0000      -0.827210       -22.5095
  16   2.0000      -0.757489       -20.6123
  17   2.0000      -0.726401       -19.7664
  18   2.0000      -0.683816       -18.6076
  19   2.0000      -0.675304       -18.3759
  20   2.0000      -0.627148       -17.0656
  21   2.0000      -0.602351       -16.3908
  22   2.0000      -0.571285       -15.5455
  23   2.0000      -0.548739       -14.9319
  24   2.0000      -0.530012       -14.4224
  25   2.0000      -0.503373       -13.6975
  26   2.0000      -0.499343       -13.5878
  27   2.0000      -0.491368       -13.3708
  28   2.0000      -0.475909       -12.9501
  29   2.0000      -0.459167       -12.4946
  30   2.0000      -0.449316       -12.2265
  31   2.0000      -0.433098       -11.7852
  32   2.0000      -0.405488       -11.0339
  33   2.0000      -0.358149        -9.7457
  34   0.0000       0.138700         3.7742
  35   0.0000       0.157038         4.2732
  36   0.0000       0.162733         4.4282
  37   0.0000       0.169989         4.6256
  38   0.0000       0.189903         5.1675

MULLIKEN ATOMIC CHARGES
-----------------------
   0 C :   -0.396617
   1 C :   -0.227844
   2 C :   -0.155436
   3 C :   -0.017751
   4 C :   -0.297368
   5 C :    0.089859
   6 N :   -0.255757
   7 C :   -0.143269
   8 C :   -0.150212
   9 H :    0.135116
  10 H :    0.125655
  11 H :    0.124353
  12 H :    0.105693
  13 H :    0.114666
  14 H :    0.078162
  15 H :    0.131455
  16 H :    0.122417
  17 H :    0.121748
  18 H :    0.122711
  19 H :    0.123420
  20 H :    0.122496
  21 H :    0.126501
Sum of atomic charges:    0.0000000

LOEWDIN ATOMIC CHARGES
----------------------
   0 C :   -0.315746
   1 C :   -0.269551
   2 C :   -0.197909
   3 C :   -0.176177
   4 C :   -0.188597
   5 C :   -0.209056
   6 N :    0.122730
   7 C :   -0.248354
   8 C :   -0.216522
   9 H :    0.121028
  10 H :    0.120416
  11 H :    0.120664
  12 H :    0.136044
  13 H :    0.140060
  14 H :    0.143846
  15 H :    0.135128
  16 H :    0.132095
  17 H :    0.129015
  18 H :    0.131640
  19 H :    0.130744
  20 H :    0.121064
  21 H :    0.137439

  Mayer bond orders larger than 0.1
B(  0-C ,  1-C ) :   0.9140 B(  0-C ,  9-H ) :   0.9399 B(  0-C , 10-H ) :   0.9402
B(  0-C , 11-H ) :   0.9398 B(  1-C ,  2-C ) :   0.9200 B(  1-C , 12-H ) :   0.9260
B(  1-C , 13-H ) :   0.9368 B(  2-C ,  3-C ) :   0.8932 B(  2-C ,  5-C ) :   0.8773
B(  2-C , 14-H ) :   0.9300 B(  3-C ,  4-C ) :   0.9142 B(  3-C ,  8-C ) :   0.9062
B(  3-C , 15-H ) :   0.9047 B(  4-C ,  5-C ) :   0.8954 B(  4-C , 16-H ) :   0.9155
B(  4-C , 17-H ) :   0.9246 B(  5-C ,  6-N ) :   0.8928 B(  5-C , 18-H ) :   0.9215
B(  6-N ,  7-C ) :   0.8981 B(  6-N ,  8-C ) :   0.9070 B(  7-C ,  8-C ) :   0.9705
B(  7-C , 19-H ) :   0.9283 B(  7-C , 20-H ) :   0.8965 B(  8-C , 21-H ) :   0.9122

MP2 TOTAL ENERGY:     -366.497345163 Eh
FINAL SINGLE POINT ENERGY      -366.497345163231

DIPOLE MOMENT
-------------
                                X             Y             Z
Electronic contribution:     -5.62670      -2.61751       3.36067
Nuclear contribution   :      6.06803       2.76567      -3.83299
                        -----------------------------------------
Total Dipole Moment    :      0.44133       0.14816      -0.47232
                        -----------------------------------------
Magnitude (a.u.)       :      0.66319
Magnitude (Debye)      :      1.68569

                             ****ORCA TERMINATED NORMALLY****
TOTAL RUN TIME: 0 days 0 hours 36 minutes 27 seconds 879 msec
