                         Program Version 3.0.3 - RELEASE   -
|  1> ! RI-MP2 RIJK def2-TZVP def2-TZVP/C def2-TZVP/JK TIGHTSCF
|  2> % maxcore 2000
|  3> % mp2 density relaxed end
|  4> *xyz 0 1
|  5>  O       -0.3841450580     0.9134634798     0.4902017733
|  6>  C        0.0448686037    -0.3390313063    -0.0644944390
|  7>  C        0.8395714320    -1.1802043501     0.9840112558
|  8>  C       -0.1991227333    -1.9945419154     1.7366324648
|  9>  C       -1.4237389149    -1.2856001371     2.2640070032
| 10>  C       -1.4794024023    -1.9877307263     0.9287636077
| 11>  C       -1.2471265814    -1.1635339912    -0.3273466473
| 12>  C        0.8272796456    -0.0927262613    -1.2790843286
| 13>  C        1.4896714945     0.1304389542    -2.2576480858
| 14>  H        0.4002141498     1.4607398167     0.6084653893
| 15>  H        1.5321774365    -1.8506726718     0.4645523606
| 16>  H        1.4389592152    -0.5176962414     1.6187035053
| 17>  H        0.1370134390    -2.8914948405     2.2450069942
| 18>  H       -1.9443883373    -1.7625901876     3.0876465384
| 19>  H       -1.4328680886    -0.2028270206     2.2808386087
| 20>  H       -2.0883200508    -2.8804205560     0.8389217782
| 21>  H       -2.0624626695    -0.4791726747    -0.5775479341
| 22>  H       -1.0873348125    -1.8264007230    -1.1828505581
| 23>  H        2.0649402121     0.3245862628    -3.1290699566
| 24> *
| 25>
| 26>                          ****END OF INPUT****

CARTESIAN COORDINATES (ANGSTROEM)
---------------------------------
  O     -0.384145    0.913463    0.490202
  C      0.044869   -0.339031   -0.064494
  C      0.839571   -1.180204    0.984011
  C     -0.199123   -1.994542    1.736632
  C     -1.423739   -1.285600    2.264007
  C     -1.479402   -1.987731    0.928764
  C     -1.247127   -1.163534   -0.327347
  C      0.827280   -0.092726   -1.279084
  C      1.489671    0.130439   -2.257648
  H      0.400214    1.460740    0.608465
  H      1.532177   -1.850673    0.464552
  H      1.438959   -0.517696    1.618704
  H      0.137013   -2.891495    2.245007
  H     -1.944388   -1.762590    3.087647
  H     -1.432868   -0.202827    2.280839
  H     -2.088320   -2.880421    0.838922
  H     -2.062463   -0.479173   -0.577548
  H     -1.087335   -1.826401   -1.182851
  H      2.064940    0.324586   -3.129070

 Total Charge           Charge          ....    0
 Multiplicity           Mult            ....    1
 Number of Electrons    NEL             ....   66
 Basis Dimension        Dim             ....  339

ORBITAL ENERGIES
----------------

  NO   OCC          E(Eh)            E(eV)
   0   2.0000     -20.562490      -559.5338
   1   2.0000     -11.314874      -307.8934
   2   2.0000     -11.235822      -305.7423
   3   2.0000     -11.231670      -305.6293
   4   2.0000     -11.229239      -305.5631
   5   2.0000     -11.228300      -305.5376
   6   2.0000     -11.227520      -305.5163
   7   2.0000     -11.226929      -305.5003
   8   2.0000     -11.216230      -305.2091
   9   2.0000      -1.371796       -37.3285
  10   2.0000      -1.169532       -31.8246
  11   2.0000      -1.062749       -28.9189
  12   2.0000      -0.998935       -27.1824
  13   2.0000      -0.973016       -26.4771
  14   2.0000      -0.858902       -23.3719
  15   2.0000      -0.784246       -21.3404
  16   2.0000      -0.768019       -20.8989
  17   2.0000      -0.739296       -20.1173
  18   2.0000      -0.699448       -19.0329
  19   2.0000      -0.680237       -18.5102
  20   2.0000      -0.619613       -16.8605
  21   2.0000      -0.609640       -16.5891
  22   2.0000      -0.585484       -15.9318
  23   2.0000      -0.557413       -15.1680
  24   2.0000      -0.543666       -14.7939
  25   2.0000      -0.527498       -14.3539
  26   2.0000      -0.501804       -13.6548
  27   2.0000      -0.487165       -13.2564
  28   2.0000      -0.454714       -12.3734
  29   2.0000      -0.405320       -11.0293
  30   2.0000      -0.403449       -10.9784
  31   2.0000      -0.388688       -10.5768
  32   2.0000      -0.386596       -10.5198
  33   0.0000       0.132221         3.5979
  34   0.0000       0.155534         4.2323
  35   0.0000       0.162970         4.4346
  36   0.0000       0.171366         4.6631
  37   0.0000       0.176859         4.8126

MULLIKEN ATOMIC CHARGES
-----------------------
   0 O :   -0.474915
   1 C :    0.143800
   2 C :   -0.269507
   3 C :   -0.081286
   4 C :   -0.298532
   5 C :   -0.125626
   6 C :   -0.225170
   7 C :   -0.088105
   8 C :   -0.116615
   9 H :    0.319056
  10 H :    0.125910
  11 H :    0.113075
  12 H :    0.123146
  13 H :    0.126099
  14 H :    0.156779
  15 H :    0.122690
  16 H :    0.124538
  17 H :    0.130483
  18 H :    0.194180
Sum of atomic charges:    0.0000000

LOEWDIN ATOMIC CHARGES
----------------------
   0 O :    0.016315
   1 C :   -0.336036
   2 C :   -0.183614
   3 C :   -0.201964
   4 C :   -0.205104
   5 C :   -0.199826
   6 C :   -0.173900
   7 C :   -0.076424
   8 C :   -0.089581
   9 H :    0.177544
  10 H :    0.150180
  11 H :    0.139803
  12 H :    0.142112
  13 H :    0.132848
  14 H :    0.138807
  15 H :    0.142309
  16 H :    0.148304
  17 H :    0.150473
  18 H :    0.127754

  Mayer bond orders larger than 0.1
B(  0-O ,  1-C ) :   0.8247 B(  0-O ,  7-C ) :   0.1078 B(  0-O ,  9-H ) :   0.8381
B(  1-C ,  2-C ) :   0.9536 B(  1-C ,  6-C ) :   0.8905 B(  1-C ,  7-C ) :   1.2066
B(  1-C ,  8-C ) :  -0.1047 B(  2-C ,  3-C ) :   0.9459 B(  2-C , 10-H ) :   0.9201
B(  2-C , 11-H ) :   0.9051 B(  3-C ,  4-C ) :   0.8871 B(  3-C ,  5-C ) :   0.8700
B(  3-C , 12-H ) :   0.9343 B(  4-C ,  5-C ) :   0.8836 B(  4-C , 13-H ) :   0.9327
B(  4-C , 14-H ) :   0.9159 B(  5-C ,  6-C ) :   0.9602 B(  5-C , 15-H ) :   0.9335
B(  6-C , 16-H ) :   0.9105 B(  6-C , 17-H ) :   0.9274 B(  7-C ,  8-C ) :   2.5691
B(  8-C , 18-H ) :   0.8788

MP2 TOTAL ENERGY:     -385.175039663 Eh
FINAL SINGLE POINT ENERGY      -385.175039663084

DIPOLE MOMENT
-------------
                                X             Y             Z
Electronic contribution:      1.56921       2.70562      -2.97139
Nuclear contribution   :     -1.09055      -2.94552       2.95341
                        -----------------------------------------
Total Dipole Moment    :      0.47866      -0.23989      -0.01798
                        -----------------------------------------
Magnitude (a.u.)       :      0.53572
Magnitude (Debye)      :      1.36168

                             ****ORCA TERMINATED NORMALLY****
TOTAL RUN TIME: 0 days 0 hours 19 minutes 41 seconds 735 msec
