                         Program Version 3.0.3 - RELEASE   -
|  1> ! RI-MP2 RIJK def2-TZVP def2-TZVP/C def2-TZVP/JK TIGHTSCF
|  2> % maxcore 2000
|  3> % mp2 density relaxed end
|  4> *xyz 0 1
|  5>  C        0.0451156149     1.3700442520    -0.1188030310
|  6>  O        0.0212519454    -0.0352682256    -0.0980547345
|  7>  C       -1.2806821778    -0.5604937474     0.0874132354
|  8>  C       -1.1738603631    -2.0880535866     0.1332324691
|  9>  C       -0.4100234047    -2.5335939629     1.3889270978
| 10>  C       -2.5532781229    -2.7763734128    -0.0763974440
| 11>  C       -2.4069971607    -4.3050694411    -0.1109434838
| 12>  C       -3.5994569759    -2.3694703711     0.9665672793
| 13>  O       -3.1058121793    -2.3386083430    -1.3290246187
| 14>  H        1.0824467570     1.6796443519    -0.2705044569
| 15>  H       -0.5706199060     1.7786672695    -0.9361325196
| 16>  H       -0.3186513252     1.8010946563     0.8280322347
| 17>  H       -1.7091785165    -0.1708179215     1.0267890178
| 18>  H       -1.9418600605    -0.2520105456    -0.7346488717
| 19>  H       -0.5645482444    -2.3673909002    -0.7399891902
| 20>  H       -0.9874412920    -2.3415126503     2.3001956017
| 21>  H       -0.1592550683    -3.5971406320     1.3656330372
| 22>  H        0.5219839140    -1.9680801663     1.4618062939
| 23>  H       -2.1365437655    -4.7172037549     0.8649654583
| 24>  H       -3.3556672847    -4.7515306644    -0.4218130185
| 25>  H       -1.6342044928    -4.6091726446    -0.8275530264
| 26>  H       -3.7946326460    -1.2949761088     0.9282877757
| 27>  H       -4.5411799037    -2.8862276792     0.7617850717
| 28>  H       -3.2766584720    -2.6311071523     1.9774510689
| 29>  H       -2.5051581593    -2.6216310191    -2.0274694461
| 30> *
| 31>
| 32>                          ****END OF INPUT****

CARTESIAN COORDINATES (ANGSTROEM)
---------------------------------
  C      0.045116    1.370044   -0.118803
  O      0.021252   -0.035268   -0.098055
  C     -1.280682   -0.560494    0.087413
  C     -1.173860   -2.088054    0.133232
  C     -0.410023   -2.533594    1.388927
  C     -2.553278   -2.776373   -0.076397
  C     -2.406997   -4.305069   -0.110943
  C     -3.599457   -2.369470    0.966567
  O     -3.105812   -2.338608   -1.329025
  H      1.082447    1.679644   -0.270504
  H     -0.570620    1.778667   -0.936133
  H     -0.318651    1.801095    0.828032
  H     -1.709179   -0.170818    1.026789
  H     -1.941860   -0.252011   -0.734649
  H     -0.564548   -2.367391   -0.739989
  H     -0.987441   -2.341513    2.300196
  H     -0.159255   -3.597141    1.365633
  H      0.521984   -1.968080    1.461806
  H     -2.136544   -4.717204    0.864965
  H     -3.355667   -4.751531   -0.421813
  H     -1.634204   -4.609173   -0.827553
  H     -3.794633   -1.294976    0.928288
  H     -4.541180   -2.886228    0.761785
  H     -3.276658   -2.631107    1.977451
  H     -2.505158   -2.621631   -2.027469

 Total Charge           Charge          ....    0
 Multiplicity           Mult            ....    1
 Number of Electrons    NEL             ....   74
 Basis Dimension        Dim             ....  375

ORBITAL ENERGIES
----------------

  NO   OCC          E(Eh)            E(eV)
   0   2.0000     -20.550515      -559.2080
   1   2.0000     -20.548825      -559.1619
   2   2.0000     -11.286339      -307.1169
   3   2.0000     -11.267446      -306.6028
   4   2.0000     -11.265117      -306.5394
   5   2.0000     -11.226235      -305.4814
   6   2.0000     -11.215190      -305.1808
   7   2.0000     -11.211141      -305.0707
   8   2.0000     -11.209889      -305.0366
   9   2.0000      -1.371729       -37.3266
  10   2.0000      -1.357101       -36.9286
  11   2.0000      -1.086930       -29.5769
  12   2.0000      -1.011376       -27.5209
  13   2.0000      -0.948201       -25.8019
  14   2.0000      -0.935807       -25.4646
  15   2.0000      -0.887459       -24.1490
  16   2.0000      -0.828240       -22.5375
  17   2.0000      -0.755065       -20.5464
  18   2.0000      -0.679708       -18.4958
  19   2.0000      -0.666019       -18.1233
  20   2.0000      -0.654983       -17.8230
  21   2.0000      -0.623967       -16.9790
  22   2.0000      -0.614086       -16.7101
  23   2.0000      -0.599868       -16.3232
  24   2.0000      -0.582794       -15.8586
  25   2.0000      -0.560205       -15.2439
  26   2.0000      -0.543935       -14.8012
  27   2.0000      -0.534418       -14.5422
  28   2.0000      -0.529749       -14.4152
  29   2.0000      -0.525705       -14.3052
  30   2.0000      -0.503328       -13.6963
  31   2.0000      -0.490812       -13.3557
  32   2.0000      -0.481129       -13.0922
  33   2.0000      -0.472730       -12.8636
  34   2.0000      -0.447546       -12.1783
  35   2.0000      -0.422670       -11.5014
  36   2.0000      -0.417334       -11.3562
  37   0.0000       0.128868         3.5067
  38   0.0000       0.149876         4.0783
  39   0.0000       0.160816         4.3760
  40   0.0000       0.177636         4.8337
  41   0.0000       0.187671         5.1068

MULLIKEN ATOMIC CHARGES
-----------------------
   0 C :   -0.215013
   1 O :   -0.310035
   2 C :   -0.091868
   3 C :   -0.017561
   4 C :   -0.467454
   5 C :    0.231471
   6 C :   -0.426599
   7 C :   -0.427087
   8 O :   -0.466684
   9 H :    0.136965
  10 H :    0.110567
  11 H :    0.108695
  12 H :    0.093729
  13 H :    0.124016
  14 H :    0.076648
  15 H :    0.122527
  16 H :    0.137659
  17 H :    0.158937
  18 H :    0.134743
  19 H :    0.146454
  20 H :    0.123632
  21 H :    0.140670
  22 H :    0.137252
  23 H :    0.128266
  24 H :    0.310071
Sum of atomic charges:    0.0000000

LOEWDIN ATOMIC CHARGES
----------------------
   0 C :   -0.365357
   1 O :    0.133959
   2 C :   -0.305974
   3 C :   -0.256836
   4 C :   -0.289413
   5 C :   -0.399424
   6 C :   -0.280673
   7 C :   -0.266967
   8 O :    0.000768
   9 H :    0.112334
  10 H :    0.101439
  11 H :    0.100317
  12 H :    0.120475
  13 H :    0.126618
  14 H :    0.156679
  15 H :    0.121952
  16 H :    0.121943
  17 H :    0.131322
  18 H :    0.127029
  19 H :    0.128741
  20 H :    0.123557
  21 H :    0.128528
  22 H :    0.130081
  23 H :    0.126258
  24 H :    0.172645

  Mayer bond orders larger than 0.1
B(  0-C ,  1-O ) :   0.9220 B(  0-C ,  9-H ) :   0.9400 B(  0-C , 10-H ) :   0.9364
B(  0-C , 11-H ) :   0.9367 B(  1-O ,  2-C ) :   0.9413 B(  2-C ,  3-C ) :   0.9147
B(  2-C , 12-H ) :   0.9202 B(  2-C , 13-H ) :   0.9249 B(  3-C ,  4-C ) :   0.9011
B(  3-C ,  5-C ) :   0.9094 B(  3-C , 14-H ) :   0.9120 B(  4-C , 15-H ) :   0.9327
B(  4-C , 16-H ) :   0.9403 B(  4-C , 17-H ) :   0.9327 B(  5-C ,  6-C ) :   0.9165
B(  5-C ,  7-C ) :   0.8803 B(  5-C ,  8-O ) :   0.8910 B(  6-C , 18-H ) :   0.9338
B(  6-C , 19-H ) :   0.9419 B(  6-C , 20-H ) :   0.9243 B(  7-C , 21-H ) :   0.9402
B(  7-C , 22-H ) :   0.9367 B(  7-C , 23-H ) :   0.9347 B(  8-O , 24-H ) :   0.8430

MP2 TOTAL ENERGY:     -425.925183046 Eh
FINAL SINGLE POINT ENERGY      -425.925183046340

DIPOLE MOMENT
-------------
                                X             Y             Z
Electronic contribution:      0.34471       1.37516      -3.93286
Nuclear contribution   :     -0.20334      -1.43066       4.05060
                        -----------------------------------------
Total Dipole Moment    :      0.14137      -0.05550       0.11774
                        -----------------------------------------
Magnitude (a.u.)       :      0.19217
Magnitude (Debye)      :      0.48845

                             ****ORCA TERMINATED NORMALLY****
TOTAL RUN TIME: 0 days 0 hours 20 minutes 28 seconds 750 msec
