                         Program Version 3.0.3 - RELEASE   -
|  1> ! RI-MP2 RIJK def2-TZVP def2-TZVP/C def2-TZVP/JK TIGHTSCF
|  2> % maxcore 2000
|  3> % mp2 density relaxed end
|  4> *xyz 0 1
|  5>  C       -0.1677664133     1.5526715303    -0.0913579177
|  6>  C       -0.0157905559     0.0415315004    -0.0685477943
|  7>  O       -1.1911181734    -0.6244399464    -0.4565848429
|  8>  C        1.2275263847    -0.5008241712    -0.7981953982
|  9>  O        1.9210777169    -0.7212146035     0.4483583095
| 10>  C        0.7016955667    -0.5393307266     1.2088993095
| 11>  C        0.8575248881     0.2772036290     2.3953295305
| 12>  C        0.9553513746     0.9622588558     3.3789235013
| 13>  H        0.7717800851     2.0444735603     0.1719885039
| 14>  H       -0.4725369969     1.8799890876    -1.0902364513
| 15>  H       -0.9222739278     1.8793250420     0.6338324301
| 16>  H       -1.9463133731    -0.1577344915    -0.0831898534
| 17>  H        1.0206069713    -1.4373178731    -1.3305604604
| 18>  H        1.7679008174     0.1910915234    -1.4523381010
| 19>  H        0.2552298704    -1.5095869706     1.4683227902
| 20>  H        1.0534206853     1.5608681942     4.2508818244
| 21> *
| 22>
| 23>                          ****END OF INPUT****

CARTESIAN COORDINATES (ANGSTROEM)
---------------------------------
  C     -0.167766    1.552672   -0.091358
  C     -0.015791    0.041532   -0.068548
  O     -1.191118   -0.624440   -0.456585
  C      1.227526   -0.500824   -0.798195
  O      1.921078   -0.721215    0.448358
  C      0.701696   -0.539331    1.208899
  C      0.857525    0.277204    2.395330
  C      0.955351    0.962259    3.378924
  H      0.771780    2.044474    0.171989
  H     -0.472537    1.879989   -1.090236
  H     -0.922274    1.879325    0.633832
  H     -1.946313   -0.157734   -0.083190
  H      1.020607   -1.437318   -1.330560
  H      1.767901    0.191092   -1.452338
  H      0.255230   -1.509587    1.468323
  H      1.053421    1.560868    4.250882

 Total Charge           Charge          ....    0
 Multiplicity           Mult            ....    1
 Number of Electrons    NEL             ....   60
 Basis Dimension        Dim             ....  296

ORBITAL ENERGIES
----------------

  NO   OCC          E(Eh)            E(eV)
   0   2.0000     -20.574716      -559.8665
   1   2.0000     -20.560487      -559.4793
   2   2.0000     -11.308897      -307.7307
   3   2.0000     -11.307240      -307.6856
   4   2.0000     -11.281292      -306.9796
   5   2.0000     -11.240340      -305.8652
   6   2.0000     -11.234987      -305.7195
   7   2.0000     -11.231869      -305.6347
   8   2.0000      -1.403209       -38.1833
   9   2.0000      -1.371559       -37.3220
  10   2.0000      -1.064662       -28.9709
  11   2.0000      -1.035972       -28.1902
  12   2.0000      -0.951014       -25.8784
  13   2.0000      -0.933810       -25.4103
  14   2.0000      -0.793306       -21.5870
  15   2.0000      -0.728895       -19.8342
  16   2.0000      -0.718365       -19.5477
  17   2.0000      -0.687338       -18.7034
  18   2.0000      -0.663125       -18.0445
  19   2.0000      -0.633857       -17.2481
  20   2.0000      -0.600233       -16.3332
  21   2.0000      -0.577857       -15.7243
  22   2.0000      -0.567337       -15.4380
  23   2.0000      -0.543929       -14.8011
  24   2.0000      -0.518688       -14.1142
  25   2.0000      -0.472752       -12.8642
  26   2.0000      -0.459499       -12.5036
  27   2.0000      -0.436470       -11.8770
  28   2.0000      -0.402585       -10.9549
  29   2.0000      -0.383432       -10.4337
  30   0.0000       0.124117         3.3774
  31   0.0000       0.146201         3.9783
  32   0.0000       0.161963         4.4072
  33   0.0000       0.167026         4.5450
  34   0.0000       0.173405         4.7186

MULLIKEN ATOMIC CHARGES
-----------------------
   0 C :   -0.469669
   1 C :    0.239454
   2 O :   -0.453838
   3 C :   -0.042964
   4 O :   -0.308977
   5 C :   -0.125080
   6 C :   -0.023281
   7 C :   -0.095640
   8 H :    0.158393
   9 H :    0.151087
  10 H :    0.132824
  11 H :    0.321450
  12 H :    0.103346
  13 H :    0.110080
  14 H :    0.107818
  15 H :    0.194997
Sum of atomic charges:   -0.0000000

LOEWDIN ATOMIC CHARGES
----------------------
   0 C :   -0.276169
   1 C :   -0.372869
   2 O :    0.020795
   3 C :   -0.228700
   4 O :    0.148256
   5 C :   -0.242821
   6 C :   -0.086349
   7 C :   -0.078226
   8 H :    0.141004
   9 H :    0.130927
  10 H :    0.129238
  11 H :    0.181071
  12 H :    0.126218
  13 H :    0.121857
  14 H :    0.157049
  15 H :    0.128719

  Mayer bond orders larger than 0.1
B(  0-C ,  1-C ) :   0.9344 B(  0-C ,  8-H ) :   0.9284 B(  0-C ,  9-H ) :   0.9336
B(  0-C , 10-H ) :   0.9183 B(  1-C ,  2-O ) :   1.0334 B(  1-C ,  3-C ) :   0.9321
B(  1-C ,  5-C ) :   0.9153 B(  2-O , 11-H ) :   0.8381 B(  3-C ,  4-O ) :   0.9373
B(  3-C , 12-H ) :   0.9069 B(  3-C , 13-H ) :   0.9130 B(  4-O ,  5-C ) :   1.0170
B(  5-C ,  6-C ) :   1.1206 B(  5-C ,  7-C ) :  -0.1119 B(  5-C , 14-H ) :   0.9072
B(  6-C ,  7-C ) :   2.5582 B(  7-C , 15-H ) :   0.8948

MP2 TOTAL ENERGY:     -383.043785125 Eh
FINAL SINGLE POINT ENERGY      -383.043785125468

DIPOLE MOMENT
-------------
                                X             Y             Z
Electronic contribution:      1.57118      -3.11218       2.66134
Nuclear contribution   :     -2.31637       3.85366      -2.61843
                        -----------------------------------------
Total Dipole Moment    :     -0.74519       0.74148       0.04291
                        -----------------------------------------
Magnitude (a.u.)       :      1.05212
Magnitude (Debye)      :      2.67427

                             ****ORCA TERMINATED NORMALLY****
TOTAL RUN TIME: 0 days 0 hours 12 minutes 14 seconds 236 msec
