                         Program Version 3.0.3 - RELEASE   -
|  1> ! RI-MP2 RIJK def2-TZVP def2-TZVP/C def2-TZVP/JK TIGHTSCF
|  2> % maxcore 2000
|  3> % mp2 density relaxed end
|  4> *xyz 0 1
|  5>  C       -0.0409438867     1.6074557628    -0.0379403158
|  6>  C        0.0440681621     0.0852397689     0.0276072374
|  7>  C        0.7639221803    -0.5586604665    -1.1786206034
|  8>  C        1.4944361673    -1.8023357941    -0.6220439204
|  9>  C        1.5853542578    -1.5001144189     0.8523165633
| 10>  C        0.8150306581    -0.4736248213     1.2083329805
| 11>  O       -1.3273344262    -0.4592092564    -0.0228496633
| 12>  C       -2.1195802900    -0.3529947178     1.0513059408
| 13>  O       -3.2491641224    -0.7508419257     1.0602099458
| 14>  H        0.9632467233     2.0401405887    -0.0652741072
| 15>  H       -0.5824885623     1.9206731675    -0.9354153080
| 16>  H       -0.5608222746     2.0175026160     0.8336287339
| 17>  H        0.0516805862    -0.7836606928    -1.9741981241
| 18>  H        1.4958316274     0.1532276091    -1.5715449685
| 19>  H        0.9254981028    -2.7257424804    -0.7909319210
| 20>  H        2.4760079346    -1.9537140621    -1.0833671030
| 21>  H        2.2001318421    -2.0795197327     1.5327907219
| 22>  H        0.7147120217    -0.0804940520     2.2133461956
| 23>  H       -1.6369762113     0.1284892478     1.9211744854
| 24> *
| 25>
| 26>                          ****END OF INPUT****

CARTESIAN COORDINATES (ANGSTROEM)
---------------------------------
  C     -0.040944    1.607456   -0.037940
  C      0.044068    0.085240    0.027607
  C      0.763922   -0.558660   -1.178621
  C      1.494436   -1.802336   -0.622044
  C      1.585354   -1.500114    0.852317
  C      0.815031   -0.473625    1.208333
  O     -1.327334   -0.459209   -0.022850
  C     -2.119580   -0.352995    1.051306
  O     -3.249164   -0.750842    1.060210
  H      0.963247    2.040141   -0.065274
  H     -0.582489    1.920673   -0.935415
  H     -0.560822    2.017503    0.833629
  H      0.051681   -0.783661   -1.974198
  H      1.495832    0.153228   -1.571545
  H      0.925498   -2.725742   -0.790932
  H      2.476008   -1.953714   -1.083367
  H      2.200132   -2.079520    1.532791
  H      0.714712   -0.080494    2.213346
  H     -1.636976    0.128489    1.921174

 Total Charge           Charge          ....    0
 Multiplicity           Mult            ....    1
 Number of Electrons    NEL             ....   68
 Basis Dimension        Dim             ....  339

ORBITAL ENERGIES
----------------

  NO   OCC          E(Eh)            E(eV)
   0   2.0000     -20.594395      -560.4020
   1   2.0000     -20.538938      -558.8929
   2   2.0000     -11.372739      -309.4680
   3   2.0000     -11.317155      -307.9555
   4   2.0000     -11.252324      -306.1913
   5   2.0000     -11.240830      -305.8785
   6   2.0000     -11.240016      -305.8564
   7   2.0000     -11.236763      -305.7679
   8   2.0000     -11.236242      -305.7537
   9   2.0000      -1.448911       -39.4269
  10   2.0000      -1.358780       -36.9743
  11   2.0000      -1.154383       -31.4124
  12   2.0000      -1.033096       -28.1120
  13   2.0000      -0.989402       -26.9230
  14   2.0000      -0.918294       -24.9880
  15   2.0000      -0.847720       -23.0676
  16   2.0000      -0.804107       -21.8809
  17   2.0000      -0.756303       -20.5801
  18   2.0000      -0.713997       -19.4289
  19   2.0000      -0.677201       -18.4276
  20   2.0000      -0.656176       -17.8555
  21   2.0000      -0.634908       -17.2767
  22   2.0000      -0.618250       -16.8234
  23   2.0000      -0.593696       -16.1553
  24   2.0000      -0.578198       -15.7336
  25   2.0000      -0.550478       -14.9793
  26   2.0000      -0.536837       -14.6081
  27   2.0000      -0.521377       -14.1874
  28   2.0000      -0.510125       -13.8812
  29   2.0000      -0.508219       -13.8293
  30   2.0000      -0.482332       -13.1249
  31   2.0000      -0.448804       -12.2126
  32   2.0000      -0.442742       -12.0476
  33   2.0000      -0.377061       -10.2603
  34   0.0000       0.128010         3.4833
  35   0.0000       0.131687         3.5834
  36   0.0000       0.146521         3.9870
  37   0.0000       0.155276         4.2253
  38   0.0000       0.166908         4.5418

MULLIKEN ATOMIC CHARGES
-----------------------
   0 C :   -0.402758
   1 C :    0.295800
   2 C :   -0.270825
   3 C :   -0.195915
   4 C :   -0.119090
   5 C :   -0.305628
   6 O :   -0.215786
   7 C :    0.189666
   8 O :   -0.279504
   9 H :    0.140510
  10 H :    0.153185
  11 H :    0.132499
  12 H :    0.142485
  13 H :    0.123729
  14 H :    0.130657
  15 H :    0.127919
  16 H :    0.137579
  17 H :    0.145667
  18 H :    0.069812
Sum of atomic charges:   -0.0000000

LOEWDIN ATOMIC CHARGES
----------------------
   0 C :   -0.267055
   1 C :   -0.312555
   2 C :   -0.192062
   3 C :   -0.235005
   4 C :   -0.132167
   5 C :   -0.138036
   6 O :    0.269439
   7 C :   -0.459004
   8 O :    0.109402
   9 H :    0.132759
  10 H :    0.134659
  11 H :    0.126853
  12 H :    0.144637
  13 H :    0.145822
  14 H :    0.147915
  15 H :    0.139502
  16 H :    0.140107
  17 H :    0.141146
  18 H :    0.103643

  Mayer bond orders larger than 0.1
B(  0-C ,  1-C ) :   0.9362 B(  0-C ,  9-H ) :   0.9293 B(  0-C , 10-H ) :   0.9391
B(  0-C , 11-H ) :   0.9194 B(  1-C ,  2-C ) :   0.8712 B(  1-C ,  5-C ) :   0.9105
B(  1-C ,  6-O ) :   0.8003 B(  2-C ,  3-C ) :   0.9775 B(  2-C , 12-H ) :   0.9287
B(  2-C , 13-H ) :   0.9270 B(  3-C ,  4-C ) :   0.9462 B(  3-C , 14-H ) :   0.9002
B(  3-C , 15-H ) :   0.9296 B(  4-C ,  5-C ) :   1.7834 B(  4-C , 16-H ) :   0.9256
B(  5-C , 17-H ) :   0.9096 B(  6-O ,  7-C ) :   1.0914 B(  7-C ,  8-O ) :   2.0185
B(  7-C , 18-H ) :   0.9198

MP2 TOTAL ENERGY:     -422.353109016 Eh
FINAL SINGLE POINT ENERGY      -422.353109015960

DIPOLE MOMENT
-------------
                                X             Y             Z
Electronic contribution:     -6.60456      -2.45747       2.32741
Nuclear contribution   :      8.33488       2.93370      -2.31929
                        -----------------------------------------
Total Dipole Moment    :      1.73032       0.47623       0.00813
                        -----------------------------------------
Magnitude (a.u.)       :      1.79468
Magnitude (Debye)      :      4.56171

                             ****ORCA TERMINATED NORMALLY****
TOTAL RUN TIME: 0 days 0 hours 18 minutes 19 seconds 641 msec
