                         Program Version 3.0.3 - RELEASE   -
|  1> ! RI-MP2 RIJK def2-TZVP def2-TZVP/C def2-TZVP/JK TIGHTSCF
|  2> % maxcore 2000
|  3> % mp2 density relaxed end
|  4> *xyz 0 1
|  5>  O       -0.1687818940     1.4597825181    -0.2056522846
|  6>  C       -0.0222525503     0.0612405228     0.0297605699
|  7>  C       -1.4026689345    -0.5835023256     0.0216633408
|  8>  C       -1.6979798273    -0.8488894638    -1.4842010788
|  9>  C       -0.3263493606    -1.3085798460    -2.0368780820
| 10>  C        0.6904944679    -0.5291954634    -1.2102163042
| 11>  O        1.8426333898    -0.3143467506    -1.4883591369
| 12>  C       -2.7836267235    -1.7863696191    -1.7185931187
| 13>  C       -3.6736160427    -2.5741146152    -1.8991688997
| 14>  H        0.7083683043     1.8039555127    -0.4151720955
| 15>  H        0.5473849533    -0.1309714090     0.9482842884
| 16>  H       -1.3728115295    -1.5366868507     0.5592644843
| 17>  H       -2.1554279898     0.0524025718     0.4906357191
| 18>  H       -1.9481116600     0.1129909977    -1.9474067951
| 19>  H       -0.1817552977    -2.3779100565    -1.8345624338
| 20>  H       -0.1854490404    -1.1546526364    -3.1081429526
| 21>  H       -4.4636654351    -3.2638442167    -2.0653731204
| 22> *
| 23>
| 24>                          ****END OF INPUT****

CARTESIAN COORDINATES (ANGSTROEM)
---------------------------------
  O     -0.168782    1.459783   -0.205652
  C     -0.022253    0.061241    0.029761
  C     -1.402669   -0.583502    0.021663
  C     -1.697980   -0.848889   -1.484201
  C     -0.326349   -1.308580   -2.036878
  C      0.690494   -0.529195   -1.210216
  O      1.842633   -0.314347   -1.488359
  C     -2.783627   -1.786370   -1.718593
  C     -3.673616   -2.574115   -1.899169
  H      0.708368    1.803956   -0.415172
  H      0.547385   -0.130971    0.948284
  H     -1.372812   -1.536687    0.559264
  H     -2.155428    0.052403    0.490636
  H     -1.948112    0.112991   -1.947407
  H     -0.181755   -2.377910   -1.834562
  H     -0.185449   -1.154653   -3.108143
  H     -4.463665   -3.263844   -2.065373

 Total Charge           Charge          ....    0
 Multiplicity           Mult            ....    1
 Number of Electrons    NEL             ....   66
 Basis Dimension        Dim             ....  327

ORBITAL ENERGIES
----------------

  NO   OCC          E(Eh)            E(eV)
   0   2.0000     -20.577482      -559.9417
   1   2.0000     -20.564140      -559.5787
   2   2.0000     -11.341808      -308.6263
   3   2.0000     -11.302670      -307.5613
   4   2.0000     -11.274364      -306.7910
   5   2.0000     -11.253632      -306.2269
   6   2.0000     -11.247131      -306.0500
   7   2.0000     -11.242577      -305.9261
   8   2.0000     -11.231380      -305.6214
   9   2.0000      -1.412053       -38.4239
  10   2.0000      -1.376653       -37.4606
  11   2.0000      -1.149429       -31.2776
  12   2.0000      -1.041435       -28.3389
  13   2.0000      -0.993162       -27.0253
  14   2.0000      -0.948534       -25.8109
  15   2.0000      -0.837201       -22.7814
  16   2.0000      -0.766986       -20.8708
  17   2.0000      -0.739485       -20.1224
  18   2.0000      -0.717947       -19.5363
  19   2.0000      -0.687370       -18.7043
  20   2.0000      -0.659518       -17.9464
  21   2.0000      -0.635329       -17.2882
  22   2.0000      -0.605728       -16.4827
  23   2.0000      -0.590408       -16.0658
  24   2.0000      -0.583610       -15.8808
  25   2.0000      -0.544016       -14.8034
  26   2.0000      -0.530708       -14.4413
  27   2.0000      -0.521185       -14.1822
  28   2.0000      -0.502540       -13.6748
  29   2.0000      -0.484483       -13.1834
  30   2.0000      -0.413509       -11.2521
  31   2.0000      -0.394856       -10.7446
  32   2.0000      -0.389036       -10.5862
  33   0.0000       0.115220         3.1353
  34   0.0000       0.131319         3.5734
  35   0.0000       0.157061         4.2739
  36   0.0000       0.158469         4.3122
  37   0.0000       0.165190         4.4950

MULLIKEN ATOMIC CHARGES
-----------------------
   0 O :   -0.470972
   1 C :    0.133838
   2 C :   -0.228822
   3 C :   -0.265346
   4 C :   -0.208911
   5 C :    0.073921
   6 O :   -0.262343
   7 C :   -0.002942
   8 C :   -0.120412
   9 H :    0.327865
  10 H :    0.116988
  11 H :    0.132577
  12 H :    0.141423
  13 H :    0.136799
  14 H :    0.147663
  15 H :    0.154659
  16 H :    0.194017
Sum of atomic charges:    0.0000000

LOEWDIN ATOMIC CHARGES
----------------------
   0 O :   -0.009467
   1 C :   -0.306915
   2 C :   -0.190743
   3 C :   -0.225103
   4 C :   -0.182327
   5 C :   -0.296928
   6 O :    0.157920
   7 C :   -0.091448
   8 C :   -0.095611
   9 H :    0.183472
  10 H :    0.138679
  11 H :    0.150171
  12 H :    0.148303
  13 H :    0.176843
  14 H :    0.164300
  15 H :    0.151289
  16 H :    0.127566

  Mayer bond orders larger than 0.1
B(  0-O ,  1-C ) :   0.9631 B(  0-O ,  9-H ) :   0.8329 B(  1-C ,  2-C ) :   0.9029
B(  1-C ,  4-C ) :  -0.1263 B(  1-C ,  5-C ) :   0.8623 B(  1-C , 10-H ) :   0.9171
B(  2-C ,  3-C ) :   0.9191 B(  2-C , 11-H ) :   0.9233 B(  2-C , 12-H ) :   0.9047
B(  3-C ,  4-C ) :   0.9189 B(  3-C ,  7-C ) :   1.1235 B(  3-C ,  8-C ) :  -0.1168
B(  3-C , 13-H ) :   0.9148 B(  4-C ,  5-C ) :   0.9039 B(  4-C , 14-H ) :   0.8948
B(  4-C , 15-H ) :   0.9116 B(  5-C ,  6-O ) :   2.0411 B(  7-C ,  8-C ) :   2.6003
B(  8-C , 16-H ) :   0.8854

MP2 TOTAL ENERGY:     -421.108264488 Eh
FINAL SINGLE POINT ENERGY      -421.108264488335

DIPOLE MOMENT
-------------
                                X             Y             Z
Electronic contribution:      2.46523       0.92658      -0.99357
Nuclear contribution   :     -2.81994      -1.27279       1.20375
                        -----------------------------------------
Total Dipole Moment    :     -0.35471      -0.34621       0.21018
                        -----------------------------------------
Magnitude (a.u.)       :      0.53838
Magnitude (Debye)      :      1.36846

                             ****ORCA TERMINATED NORMALLY****
TOTAL RUN TIME: 0 days 0 hours 17 minutes 2 seconds 69 msec
