                         Program Version 3.0.3 - RELEASE   -
|  1> ! RI-MP2 RIJK def2-TZVP def2-TZVP/C def2-TZVP/JK TIGHTSCF
|  2> % maxcore 2000
|  3> % mp2 density relaxed end
|  4> *xyz 0 1
|  5>  C        0.0795202556     1.5193932169    -0.0254283547
|  6>  C       -0.0825138607     0.0428868973     0.1248261296
|  7>  C       -1.3791759266    -0.7954762139     0.0386766121
|  8>  C       -0.7185452242    -1.7613993430     1.0532088863
|  9>  C       -1.3349269927    -2.4796336017     2.1677265285
| 10>  O       -0.7824946673    -3.1700802574     1.0360926735
| 11>  C        0.5489076990    -0.9331238461     1.0437175595
| 12>  O        0.9655994768    -0.8208640825    -0.3290579564
| 13>  H        1.0962478162     1.8204507495     0.2398498203
| 14>  H       -0.1076235578     1.8255889426    -1.0607482133
| 15>  H       -0.6272488947     2.0554408898     0.6159916058
| 16>  H       -2.2705054382    -0.3011103274     0.4337025557
| 17>  H       -1.5824960392    -1.2093658272    -0.9510439032
| 18>  H       -0.7914496615    -2.6107543340     3.1029873156
| 19>  H       -2.4205254452    -2.5106237867     2.2522917197
| 20>  H        1.3102614604    -0.8177402561     1.8071965910
| 21> *
| 22>
| 23>                          ****END OF INPUT****

CARTESIAN COORDINATES (ANGSTROEM)
---------------------------------
  C      0.079520    1.519393   -0.025428
  C     -0.082514    0.042887    0.124826
  C     -1.379176   -0.795476    0.038677
  C     -0.718545   -1.761399    1.053209
  C     -1.334927   -2.479634    2.167727
  O     -0.782495   -3.170080    1.036093
  C      0.548908   -0.933124    1.043718
  O      0.965599   -0.820864   -0.329058
  H      1.096248    1.820451    0.239850
  H     -0.107624    1.825589   -1.060748
  H     -0.627249    2.055441    0.615992
  H     -2.270505   -0.301110    0.433703
  H     -1.582496   -1.209366   -0.951044
  H     -0.791450   -2.610754    3.102987
  H     -2.420525   -2.510624    2.252292
  H      1.310261   -0.817740    1.807197

 Total Charge           Charge          ....    0
 Multiplicity           Mult            ....    1
 Number of Electrons    NEL             ....   60
 Basis Dimension        Dim             ....  296

ORBITAL ENERGIES
----------------

  NO   OCC          E(Eh)            E(eV)
   0   2.0000     -20.572092      -559.7951
   1   2.0000     -20.570970      -559.7645
   2   2.0000     -11.302787      -307.5645
   3   2.0000     -11.301467      -307.5286
   4   2.0000     -11.289979      -307.2159
   5   2.0000     -11.289087      -307.1917
   6   2.0000     -11.241202      -305.8887
   7   2.0000     -11.235972      -305.7463
   8   2.0000      -1.431230       -38.9458
   9   2.0000      -1.410169       -38.3727
  10   2.0000      -1.082983       -29.4695
  11   2.0000      -1.006626       -27.3917
  12   2.0000      -0.921518       -25.0758
  13   2.0000      -0.902955       -24.5706
  14   2.0000      -0.809629       -22.0311
  15   2.0000      -0.753492       -20.5036
  16   2.0000      -0.705214       -19.1899
  17   2.0000      -0.685624       -18.6568
  18   2.0000      -0.627093       -17.0641
  19   2.0000      -0.617439       -16.8014
  20   2.0000      -0.606195       -16.4954
  21   2.0000      -0.580576       -15.7983
  22   2.0000      -0.565588       -15.3904
  23   2.0000      -0.533932       -14.5290
  24   2.0000      -0.521371       -14.1872
  25   2.0000      -0.498553       -13.5663
  26   2.0000      -0.469507       -12.7759
  27   2.0000      -0.439642       -11.9633
  28   2.0000      -0.431902       -11.7527
  29   2.0000      -0.398981       -10.8568
  30   0.0000       0.135031         3.6744
  31   0.0000       0.159432         4.3384
  32   0.0000       0.172148         4.6844
  33   0.0000       0.182821         4.9748
  34   0.0000       0.191073         5.1994

MULLIKEN ATOMIC CHARGES
-----------------------
   0 C :   -0.412577
   1 C :    0.152388
   2 C :   -0.182241
   3 C :    0.166370
   4 C :   -0.109822
   5 O :   -0.327988
   6 C :   -0.023803
   7 O :   -0.315555
   8 H :    0.146974
   9 H :    0.143974
  10 H :    0.134166
  11 H :    0.123737
  12 H :    0.123359
  13 H :    0.119383
  14 H :    0.120462
  15 H :    0.141172
Sum of atomic charges:    0.0000000

LOEWDIN ATOMIC CHARGES
----------------------
   0 C :   -0.270655
   1 C :   -0.295195
   2 C :   -0.152139
   3 C :   -0.300734
   4 C :   -0.233669
   5 O :    0.177026
   6 C :   -0.186725
   7 O :    0.196528
   8 H :    0.137033
   9 H :    0.134695
  10 H :    0.133323
  11 H :    0.139792
  12 H :    0.142145
  13 H :    0.121841
  14 H :    0.122042
  15 H :    0.134691

  Mayer bond orders larger than 0.1
B(  0-C ,  1-C ) :   0.8857 B(  0-C ,  8-H ) :   0.9378 B(  0-C ,  9-H ) :   0.9387
B(  0-C , 10-H ) :   0.9314 B(  1-C ,  2-C ) :   0.9380 B(  1-C ,  6-C ) :   0.9018
B(  1-C ,  7-O ) :   0.9215 B(  2-C ,  3-C ) :   0.9430 B(  2-C , 11-H ) :   0.9128
B(  2-C , 12-H ) :   0.8812 B(  3-C ,  4-C ) :   0.9731 B(  3-C ,  5-O ) :   0.8872
B(  3-C ,  6-C ) :   0.9013 B(  4-C ,  5-O ) :   0.8984 B(  4-C , 13-H ) :   0.9134
B(  4-C , 14-H ) :   0.9116 B(  6-C ,  7-O ) :   0.9012 B(  6-C , 15-H ) :   0.9188

MP2 TOTAL ENERGY:     -383.038950957 Eh
FINAL SINGLE POINT ENERGY      -383.038950956960

DIPOLE MOMENT
-------------
                                X             Y             Z
Electronic contribution:      1.96683      -5.23874      -0.50655
Nuclear contribution   :     -2.55873       6.26748       1.30252
                        -----------------------------------------
Total Dipole Moment    :     -0.59191       1.02874       0.79597
                        -----------------------------------------
Magnitude (a.u.)       :      1.42907
Magnitude (Debye)      :      3.63240

                             ****ORCA TERMINATED NORMALLY****
TOTAL RUN TIME: 0 days 0 hours 10 minutes 17 seconds 197 msec
