                         Program Version 3.0.3 - RELEASE   -
|  1> ! RI-MP2 RIJK def2-TZVP def2-TZVP/C def2-TZVP/JK TIGHTSCF
|  2> % maxcore 2000
|  3> % mp2 density relaxed end
|  4> *xyz 0 1
|  5>  C        0.8773821610     1.3401207926    -0.2817534474
|  6>  O        1.0557324424    -0.0511932285    -0.3941269756
|  7>  C       -0.0749665754    -0.7105343853    -0.9225912436
|  8>  C        0.2031817456    -2.2144915987    -0.9825186961
|  9>  C        0.4270866890    -2.7964326908     0.4190798114
| 10>  O       -0.9627398022    -2.7745226067    -1.5812807121
| 11>  C        1.4064670693    -2.4921821980    -1.8948963453
| 12>  O        1.4446843737    -3.8931921982    -2.1091991054
| 13>  C        2.4472877359    -4.2947246635    -3.0128588058
| 14>  H        0.6863449703     1.8076897413    -1.2605958082
| 15>  H        0.0379066324     1.5902066106     0.3858574384
| 16>  H        1.7974815772     1.7565375606     0.1355839128
| 17>  H       -0.9644758911    -0.5344396798    -0.2962811552
| 18>  H       -0.3069032945    -0.3449548976    -1.9358493909
| 19>  H       -0.4963597075    -2.7165963038     0.9994439682
| 20>  H        0.7079365301    -3.8506384309     0.3516513591
| 21>  H        1.2191981318    -2.2523999791     0.9406318576
| 22>  H       -0.6949621736    -3.6436724842    -1.9048841737
| 23>  H        1.2719640842    -1.9685895585    -2.8551833651
| 24>  H        2.3394411872    -2.1370895511    -1.4365166516
| 25>  H        2.3079915222    -3.8366365638    -4.0043149145
| 26>  H        3.4508800715    -4.0274788563    -2.6486355839
| 27>  H        2.3844685307    -5.3812045701    -3.1115657432
| 28> *
| 29>
| 30>                          ****END OF INPUT****

CARTESIAN COORDINATES (ANGSTROEM)
---------------------------------
  C      0.877382    1.340121   -0.281753
  O      1.055732   -0.051193   -0.394127
  C     -0.074967   -0.710534   -0.922591
  C      0.203182   -2.214492   -0.982519
  C      0.427087   -2.796433    0.419080
  O     -0.962740   -2.774523   -1.581281
  C      1.406467   -2.492182   -1.894896
  O      1.444684   -3.893192   -2.109199
  C      2.447288   -4.294725   -3.012859
  H      0.686345    1.807690   -1.260596
  H      0.037907    1.590207    0.385857
  H      1.797482    1.756538    0.135584
  H     -0.964476   -0.534440   -0.296281
  H     -0.306903   -0.344955   -1.935849
  H     -0.496360   -2.716596    0.999444
  H      0.707937   -3.850638    0.351651
  H      1.219198   -2.252400    0.940632
  H     -0.694962   -3.643672   -1.904884
  H      1.271964   -1.968590   -2.855183
  H      2.339441   -2.137090   -1.436517
  H      2.307992   -3.836637   -4.004315
  H      3.450880   -4.027479   -2.648636
  H      2.384469   -5.381205   -3.111566

 Total Charge           Charge          ....    0
 Multiplicity           Mult            ....    1
 Number of Electrons    NEL             ....   74
 Basis Dimension        Dim             ....  363

ORBITAL ENERGIES
----------------

  NO   OCC          E(Eh)            E(eV)
   0   2.0000     -20.563498      -559.5612
   1   2.0000     -20.558256      -559.4186
   2   2.0000     -20.542815      -558.9984
   3   2.0000     -11.280534      -306.9589
   4   2.0000     -11.276676      -306.8540
   5   2.0000     -11.273143      -306.7578
   6   2.0000     -11.272512      -306.7406
   7   2.0000     -11.270550      -306.6872
   8   2.0000     -11.201569      -304.8102
   9   2.0000      -1.390518       -37.8379
  10   2.0000      -1.379485       -37.5377
  11   2.0000      -1.347834       -36.6764
  12   2.0000      -1.055834       -28.7307
  13   2.0000      -0.969271       -26.3752
  14   2.0000      -0.945270       -25.7221
  15   2.0000      -0.897830       -24.4312
  16   2.0000      -0.873217       -23.7614
  17   2.0000      -0.767272       -20.8785
  18   2.0000      -0.698428       -19.0052
  19   2.0000      -0.677299       -18.4302
  20   2.0000      -0.674128       -18.3440
  21   2.0000      -0.663338       -18.0503
  22   2.0000      -0.636290       -17.3143
  23   2.0000      -0.625932       -17.0325
  24   2.0000      -0.601497       -16.3676
  25   2.0000      -0.584987       -15.9183
  26   2.0000      -0.571075       -15.5397
  27   2.0000      -0.560328       -15.2473
  28   2.0000      -0.533880       -14.5276
  29   2.0000      -0.515640       -14.0313
  30   2.0000      -0.508469       -13.8361
  31   2.0000      -0.495822       -13.4920
  32   2.0000      -0.489363       -13.3162
  33   2.0000      -0.455320       -12.3899
  34   2.0000      -0.437296       -11.8994
  35   2.0000      -0.426729       -11.6119
  36   2.0000      -0.421476       -11.4689
  37   0.0000       0.137422         3.7394
  38   0.0000       0.150512         4.0957
  39   0.0000       0.173457         4.7200
  40   0.0000       0.184490         5.0202
  41   0.0000       0.189484         5.1561

MULLIKEN ATOMIC CHARGES
-----------------------
   0 C :   -0.217157
   1 O :   -0.319134
   2 C :   -0.063058
   3 C :    0.305134
   4 C :   -0.447444
   5 O :   -0.488892
   6 C :   -0.121227
   7 O :   -0.337104
   8 C :   -0.218831
   9 H :    0.112501
  10 H :    0.114002
  11 H :    0.137897
  12 H :    0.110541
  13 H :    0.106440
  14 H :    0.130138
  15 H :    0.139432
  16 H :    0.137586
  17 H :    0.327555
  18 H :    0.100721
  19 H :    0.118644
  20 H :    0.116007
  21 H :    0.116483
  22 H :    0.139766
Sum of atomic charges:   -0.0000000

LOEWDIN ATOMIC CHARGES
----------------------
   0 C :   -0.359618
   1 O :    0.139832
   2 C :   -0.287071
   3 C :   -0.413559
   4 C :   -0.276672
   5 O :    0.008605
   6 C :   -0.289564
   7 O :    0.124766
   8 C :   -0.358744
   9 H :    0.102194
  10 H :    0.102890
  11 H :    0.113103
  12 H :    0.128540
  13 H :    0.126015
  14 H :    0.127290
  15 H :    0.126926
  16 H :    0.129619
  17 H :    0.178293
  18 H :    0.126377
  19 H :    0.130057
  20 H :    0.103086
  21 H :    0.104008
  22 H :    0.113629

  Mayer bond orders larger than 0.1
B(  0-C ,  1-O ) :   0.9224 B(  0-C ,  9-H ) :   0.9370 B(  0-C , 10-H ) :   0.9377
B(  0-C , 11-H ) :   0.9395 B(  1-O ,  2-C ) :   0.9261 B(  2-C ,  3-C ) :   0.9093
B(  2-C , 12-H ) :   0.9255 B(  2-C , 13-H ) :   0.9201 B(  3-C ,  4-C ) :   0.9109
B(  3-C ,  5-O ) :   0.9590 B(  3-C ,  6-C ) :   0.9313 B(  4-C , 14-H ) :   0.9375
B(  4-C , 15-H ) :   0.9289 B(  4-C , 16-H ) :   0.9264 B(  5-O , 17-H ) :   0.8233
B(  6-C ,  7-O ) :   0.9033 B(  6-C , 18-H ) :   0.9251 B(  6-C , 19-H ) :   0.9199
B(  7-O ,  8-C ) :   0.9153 B(  8-C , 20-H ) :   0.9373 B(  8-C , 21-H ) :   0.9377
B(  8-C , 22-H ) :   0.9391

MP2 TOTAL ENERGY:     -461.812475507 Eh
FINAL SINGLE POINT ENERGY      -461.812475507163

DIPOLE MOMENT
-------------
                                X             Y             Z
Electronic contribution:     -2.29759      -1.94119      -0.58526
Nuclear contribution   :      2.90072       2.20281       0.26935
                        -----------------------------------------
Total Dipole Moment    :      0.60313       0.26162      -0.31590
                        -----------------------------------------
Magnitude (a.u.)       :      0.72939
Magnitude (Debye)      :      1.85396

                             ****ORCA TERMINATED NORMALLY****
TOTAL RUN TIME: 0 days 0 hours 17 minutes 5 seconds 907 msec
