                         Program Version 3.0.3 - RELEASE   -
|  1> ! RI-MP2 RIJK def2-TZVP def2-TZVP/C def2-TZVP/JK TIGHTSCF
|  2> % maxcore 2000
|  3> % mp2 density relaxed end
|  4> *xyz 0 1
|  5>  O        0.0159640741     1.4017972840     0.0078252580
|  6>  C        0.0342144274     0.0276498114    -0.0241629529
|  7>  C        1.0328067571    -0.4894527900    -1.0363702983
|  8>  O        1.6963402008     0.2775334166    -1.6917960566
|  9>  C       -0.0359101179    -0.7065745452     1.3679664811
| 10>  O       -1.4533539740    -0.2770912176     1.4779933538
| 11>  C       -1.3639168210    -0.6918079666     0.0546093924
| 12>  C       -0.6553112398    -1.9345609401     0.6525669702
| 13>  O       -0.7166875674    -3.1174463496     0.7012883863
| 14>  H        0.6767247808     1.6835878803    -0.6463309550
| 15>  H        1.1270742791    -1.5866056554    -1.1464619056
| 16>  H        0.6035420788    -0.5911030358     2.2394816151
| 17>  H       -2.2413718780    -0.5598163120    -0.5734214085
| 18> *
| 19>
| 20>                          ****END OF INPUT****

CARTESIAN COORDINATES (ANGSTROEM)
---------------------------------
  O      0.015964    1.401797    0.007825
  C      0.034214    0.027650   -0.024163
  C      1.032807   -0.489453   -1.036370
  O      1.696340    0.277533   -1.691796
  C     -0.035910   -0.706575    1.367966
  O     -1.453354   -0.277091    1.477993
  C     -1.363917   -0.691808    0.054609
  C     -0.655311   -1.934561    0.652567
  O     -0.716688   -3.117446    0.701288
  H      0.676725    1.683588   -0.646331
  H      1.127074   -1.586606   -1.146462
  H      0.603542   -0.591103    2.239482
  H     -2.241372   -0.559816   -0.573421

 Total Charge           Charge          ....    0
 Multiplicity           Mult            ....    1
 Number of Electrons    NEL             ....   66
 Basis Dimension        Dim             ....  303

ORBITAL ENERGIES
----------------

  NO   OCC          E(Eh)            E(eV)
   0   2.0000     -20.607683      -560.7636
   1   2.0000     -20.607677      -560.7634
   2   2.0000     -20.594123      -560.3946
   3   2.0000     -20.593503      -560.3777
   4   2.0000     -11.382599      -309.7363
   5   2.0000     -11.376955      -309.5827
   6   2.0000     -11.352358      -308.9134
   7   2.0000     -11.346193      -308.7456
   8   2.0000     -11.346179      -308.7452
   9   2.0000      -1.471232       -40.0343
  10   2.0000      -1.450045       -39.4577
  11   2.0000      -1.427936       -38.8561
  12   2.0000      -1.395766       -37.9807
  13   2.0000      -1.110987       -30.2315
  14   2.0000      -0.946944       -25.7677
  15   2.0000      -0.946063       -25.7437
  16   2.0000      -0.860324       -23.4106
  17   2.0000      -0.774486       -21.0748
  18   2.0000      -0.756412       -20.5830
  19   2.0000      -0.733280       -19.9536
  20   2.0000      -0.701930       -19.1005
  21   2.0000      -0.667443       -18.1621
  22   2.0000      -0.662276       -18.0214
  23   2.0000      -0.645204       -17.5569
  24   2.0000      -0.607215       -16.5232
  25   2.0000      -0.580750       -15.8030
  26   2.0000      -0.579499       -15.7690
  27   2.0000      -0.561664       -15.2837
  28   2.0000      -0.544434       -14.8148
  29   2.0000      -0.491958       -13.3869
  30   2.0000      -0.473203       -12.8765
  31   2.0000      -0.456219       -12.4143
  32   2.0000      -0.424548       -11.5525
  33   0.0000       0.077005         2.0954
  34   0.0000       0.116102         3.1593
  35   0.0000       0.146223         3.9789
  36   0.0000       0.159100         4.3293
  37   0.0000       0.165712         4.5093

MULLIKEN ATOMIC CHARGES
-----------------------
   0 O :   -0.435964
   1 C :    0.194394
   2 C :    0.080931
   3 O :   -0.274442
   4 C :   -0.033072
   5 O :   -0.261035
   6 C :   -0.032918
   7 C :    0.154666
   8 O :   -0.220470
   9 H :    0.340032
  10 H :    0.135714
  11 H :    0.176128
  12 H :    0.176035
Sum of atomic charges:   -0.0000000

LOEWDIN ATOMIC CHARGES
----------------------
   0 O :    0.062749
   1 C :   -0.349591
   2 C :   -0.244830
   3 O :    0.144501
   4 C :   -0.148764
   5 O :    0.185222
   6 C :   -0.148784
   7 C :   -0.293224
   8 O :    0.191055
   9 H :    0.194552
  10 H :    0.134651
  11 H :    0.136205
  12 H :    0.136258

  Mayer bond orders larger than 0.1
B(  0-O ,  1-C ) :   1.1734 B(  0-O ,  9-H ) :   0.7916 B(  1-C ,  2-C ) :   0.9051
B(  1-C ,  4-C ) :   0.8640 B(  1-C ,  6-C ) :   0.8651 B(  2-C ,  3-O ) :   1.8857
B(  2-C , 10-H ) :   0.9117 B(  4-C ,  5-O ) :   0.8790 B(  4-C ,  7-C ) :   0.8707
B(  4-C , 11-H ) :   0.8740 B(  5-O ,  6-C ) :   0.8792 B(  6-C ,  7-C ) :   0.8709
B(  6-C , 12-H ) :   0.8739 B(  7-C ,  8-O ) :   2.0438

MP2 TOTAL ENERGY:     -492.859624525 Eh
FINAL SINGLE POINT ENERGY      -492.859624524523

DIPOLE MOMENT
-------------
                                X             Y             Z
Electronic contribution:     -0.38054      -1.17614       0.36999
Nuclear contribution   :      0.71512       1.19062      -0.70629
                        -----------------------------------------
Total Dipole Moment    :      0.33458       0.01448      -0.33630
                        -----------------------------------------
Magnitude (a.u.)       :      0.47460
Magnitude (Debye)      :      1.20634

                             ****ORCA TERMINATED NORMALLY****
TOTAL RUN TIME: 0 days 0 hours 12 minutes 58 seconds 136 msec
