                         Program Version 3.0.3 - RELEASE   -
|  1> ! RI-MP2 RIJK def2-TZVP def2-TZVP/C def2-TZVP/JK TIGHTSCF
|  2> % maxcore 2000
|  3> % mp2 density relaxed end
|  4> *xyz 0 1
|  5>  C       -0.1956360885     1.4634396383     0.0047797786
|  6>  C        0.0145074705    -0.0324122330     0.0061899085
|  7>  C       -0.7368762837    -0.8782342284     1.0045453245
|  8>  C        0.7676724993    -0.7627493621     1.1025223777
|  9>  C        1.5587218792    -1.8711382655     0.4385685605
| 10>  O        0.7556593298    -2.8558151997    -0.2406320903
| 11>  C        1.3684991802    -1.8100116457    -1.0147948675
| 12>  C        0.3931375208    -0.6808610508    -1.3470143522
| 13>  O       -0.7017802044    -1.1070564599    -2.1365438034
| 14>  H        0.6920174603     1.9940808596    -0.3596090540
| 15>  H       -1.0359782069     1.7344105183    -0.6446546626
| 16>  H       -0.4177338196     1.8348350670     1.0102015352
| 17>  H       -1.3236050711    -0.3406140582     1.7424901916
| 18>  H       -1.1457539244    -1.8379120394     0.7141242557
| 19>  H        1.2212625528    -0.2412913315     1.9378475485
| 20>  H        2.4587333290    -2.2600631016     0.9059106366
| 21>  H        2.0946325844    -2.1449207877    -1.7515509954
| 22>  H        0.9134969109     0.0686538443    -1.9549718561
| 23>  H       -1.0768116186    -1.8767217139    -1.6923865459
| 24> *
| 25>
| 26>                          ****END OF INPUT****

CARTESIAN COORDINATES (ANGSTROEM)
---------------------------------
  C     -0.195636    1.463440    0.004780
  C      0.014507   -0.032412    0.006190
  C     -0.736876   -0.878234    1.004545
  C      0.767672   -0.762749    1.102522
  C      1.558722   -1.871138    0.438569
  O      0.755659   -2.855815   -0.240632
  C      1.368499   -1.810012   -1.014795
  C      0.393138   -0.680861   -1.347014
  O     -0.701780   -1.107056   -2.136544
  H      0.692017    1.994081   -0.359609
  H     -1.035978    1.734411   -0.644655
  H     -0.417734    1.834835    1.010202
  H     -1.323605   -0.340614    1.742490
  H     -1.145754   -1.837912    0.714124
  H      1.221263   -0.241291    1.937848
  H      2.458733   -2.260063    0.905911
  H      2.094633   -2.144921   -1.751551
  H      0.913497    0.068654   -1.954972
  H     -1.076812   -1.876722   -1.692387

 Total Charge           Charge          ....    0
 Multiplicity           Mult            ....    1
 Number of Electrons    NEL             ....   68
 Basis Dimension        Dim             ....  339

ORBITAL ENERGIES
----------------

  NO   OCC          E(Eh)            E(eV)
   0   2.0000     -20.572797      -559.8143
   1   2.0000     -20.555232      -559.3363
   2   2.0000     -11.294718      -307.3449
   3   2.0000     -11.288880      -307.1860
   4   2.0000     -11.285081      -307.0827
   5   2.0000     -11.242037      -305.9114
   6   2.0000     -11.239578      -305.8445
   7   2.0000     -11.230438      -305.5958
   8   2.0000     -11.222968      -305.3925
   9   2.0000      -1.419844       -38.6359
  10   2.0000      -1.360025       -37.0082
  11   2.0000      -1.168786       -31.8043
  12   2.0000      -0.996121       -27.1058
  13   2.0000      -0.983516       -26.7628
  14   2.0000      -0.918717       -24.9996
  15   2.0000      -0.838917       -22.8281
  16   2.0000      -0.784752       -21.3542
  17   2.0000      -0.765385       -20.8272
  18   2.0000      -0.729585       -19.8530
  19   2.0000      -0.672744       -18.3063
  20   2.0000      -0.632803       -17.2194
  21   2.0000      -0.623810       -16.9747
  22   2.0000      -0.615065       -16.7368
  23   2.0000      -0.575329       -15.6555
  24   2.0000      -0.564754       -15.3677
  25   2.0000      -0.545470       -14.8430
  26   2.0000      -0.544098       -14.8057
  27   2.0000      -0.525811       -14.3080
  28   2.0000      -0.500233       -13.6120
  29   2.0000      -0.490330       -13.3426
  30   2.0000      -0.456765       -12.4292
  31   2.0000      -0.425589       -11.5809
  32   2.0000      -0.411462       -11.1965
  33   2.0000      -0.383041       -10.4231
  34   0.0000       0.139782         3.8037
  35   0.0000       0.151416         4.1202
  36   0.0000       0.165190         4.4951
  37   0.0000       0.171636         4.6704
  38   0.0000       0.189342         5.1523

MULLIKEN ATOMIC CHARGES
-----------------------
   0 C :   -0.434435
   1 C :    0.095732
   2 C :   -0.347902
   3 C :   -0.047831
   4 C :   -0.044005
   5 O :   -0.331157
   6 C :   -0.022056
   7 C :    0.090553
   8 O :   -0.461934
   9 H :    0.128812
  10 H :    0.149922
  11 H :    0.127882
  12 H :    0.132833
  13 H :    0.148255
  14 H :    0.129577
  15 H :    0.132813
  16 H :    0.127413
  17 H :    0.097297
  18 H :    0.328229
Sum of atomic charges:    0.0000000

LOEWDIN ATOMIC CHARGES
----------------------
   0 C :   -0.268376
   1 C :   -0.222193
   2 C :   -0.179375
   3 C :   -0.164469
   4 C :   -0.224261
   5 O :    0.158249
   6 C :   -0.233085
   7 C :   -0.275767
   8 O :   -0.008057
   9 H :    0.125728
  10 H :    0.133479
  11 H :    0.128509
  12 H :    0.137497
  13 H :    0.137111
  14 H :    0.146840
  15 H :    0.138092
  16 H :    0.134999
  17 H :    0.155119
  18 H :    0.179960

  Mayer bond orders larger than 0.1
B(  0-C ,  1-C ) :   0.9093 B(  0-C ,  9-H ) :   0.9361 B(  0-C , 10-H ) :   0.9390
B(  0-C , 11-H ) :   0.9330 B(  1-C ,  2-C ) :   0.8758 B(  1-C ,  3-C ) :   0.8373
B(  1-C ,  7-C ) :   0.9023 B(  2-C ,  3-C ) :   0.8726 B(  2-C , 12-H ) :   0.9299
B(  2-C , 13-H ) :   0.9097 B(  3-C ,  4-C ) :   0.8890 B(  3-C , 14-H ) :   0.9093
B(  4-C ,  5-O ) :   0.8844 B(  4-C ,  6-C ) :   0.9848 B(  4-C , 15-H ) :   0.9226
B(  5-O ,  6-C ) :   0.9010 B(  6-C ,  7-C ) :   0.9370 B(  6-C , 16-H ) :   0.9323
B(  7-C ,  8-O ) :   0.9562 B(  7-C , 17-H ) :   0.9264 B(  8-O , 18-H ) :   0.8315

MP2 TOTAL ENERGY:     -422.299155560 Eh
FINAL SINGLE POINT ENERGY      -422.299155559783

DIPOLE MOMENT
-------------
                                X             Y             Z
Electronic contribution:      1.37946      -5.68692      -1.98607
Nuclear contribution   :     -0.84986       6.11898       2.54766
                        -----------------------------------------
Total Dipole Moment    :      0.52960       0.43206       0.56159
                        -----------------------------------------
Magnitude (a.u.)       :      0.88461
Magnitude (Debye)      :      2.24850

                             ****ORCA TERMINATED NORMALLY****
TOTAL RUN TIME: 0 days 0 hours 17 minutes 34 seconds 70 msec
