                         Program Version 3.0.3 - RELEASE   -
|  1> ! RI-MP2 RIJK def2-TZVP def2-TZVP/C def2-TZVP/JK TIGHTSCF
|  2> % maxcore 2000
|  3> % mp2 density relaxed end
|  4> *xyz 0 1
|  5>  C       -0.0727458088     1.4853962783     0.0312935719
|  6>  C        0.0032571601    -0.0090393911    -0.0108099208
|  7>  C        0.0222156955    -0.7781487693    -1.1058476661
|  8>  C        0.0641039741    -2.2501101898    -0.7787733579
|  9>  C        0.4113459601    -2.2763675263     0.7334095418
| 10>  O        1.7783679395    -2.6026859209     0.9623894572
| 11>  C        0.0582417482    -0.8597380161     1.2194556107
| 12>  C        0.5704332323    -0.3757319898     2.5559777843
| 13>  C       -0.8960460581    -0.6549257343     2.3828324500
| 14>  H        0.8078741987     1.9205574683     0.5198558784
| 15>  H       -0.1405751875     1.9049905905    -0.9757152110
| 16>  H       -0.9472844917     1.8301488527     0.5973572777
| 17>  H       -0.0255554045    -0.4000336291    -2.1216617745
| 18>  H       -0.9047844573    -2.7289702993    -0.9777330274
| 19>  H        0.8141530817    -2.8148346658    -1.3435014411
| 20>  H       -0.1456231954    -3.0473521399     1.2719454794
| 21>  H        2.3091038629    -1.8988393446     0.5722194295
| 22>  H        1.1689700088    -1.0767923509     3.1268196369
| 23>  H        0.8847583316     0.6589526866     2.6437523055
| 24>  H       -1.5793205743     0.1871251354     2.3439656793
| 25>  H       -1.3112912359    -1.5424159246     2.8491952362
| 26> *
| 27>
| 28>                          ****END OF INPUT****

CARTESIAN COORDINATES (ANGSTROEM)
---------------------------------
  C     -0.072746    1.485396    0.031294
  C      0.003257   -0.009039   -0.010810
  C      0.022216   -0.778149   -1.105848
  C      0.064104   -2.250110   -0.778773
  C      0.411346   -2.276368    0.733410
  O      1.778368   -2.602686    0.962389
  C      0.058242   -0.859738    1.219456
  C      0.570433   -0.375732    2.555978
  C     -0.896046   -0.654926    2.382832
  H      0.807874    1.920557    0.519856
  H     -0.140575    1.904991   -0.975715
  H     -0.947284    1.830149    0.597357
  H     -0.025555   -0.400034   -2.121662
  H     -0.904784   -2.728970   -0.977733
  H      0.814153   -2.814835   -1.343501
  H     -0.145623   -3.047352    1.271945
  H      2.309104   -1.898839    0.572219
  H      1.168970   -1.076792    3.126820
  H      0.884758    0.658953    2.643752
  H     -1.579321    0.187125    2.343966
  H     -1.311291   -1.542416    2.849195

 Total Charge           Charge          ....    0
 Multiplicity           Mult            ....    1
 Number of Electrons    NEL             ....   68
 Basis Dimension        Dim             ....  351

ORBITAL ENERGIES
----------------

  NO   OCC          E(Eh)            E(eV)
   0   2.0000     -20.547023      -559.1129
   1   2.0000     -11.277344      -306.8721
   2   2.0000     -11.236588      -305.7631
   3   2.0000     -11.234577      -305.7084
   4   2.0000     -11.228582      -305.5452
   5   2.0000     -11.226800      -305.4968
   6   2.0000     -11.225334      -305.4569
   7   2.0000     -11.220843      -305.3347
   8   2.0000     -11.217645      -305.2477
   9   2.0000      -1.354544       -36.8590
  10   2.0000      -1.166656       -31.7463
  11   2.0000      -1.088023       -29.6066
  12   2.0000      -1.008437       -27.4410
  13   2.0000      -0.910451       -24.7746
  14   2.0000      -0.885357       -24.0918
  15   2.0000      -0.825651       -22.4671
  16   2.0000      -0.782404       -21.2903
  17   2.0000      -0.710492       -19.3335
  18   2.0000      -0.682931       -18.5835
  19   2.0000      -0.643475       -17.5098
  20   2.0000      -0.622138       -16.9292
  21   2.0000      -0.608921       -16.5696
  22   2.0000      -0.597762       -16.2659
  23   2.0000      -0.574482       -15.6325
  24   2.0000      -0.562769       -15.3137
  25   2.0000      -0.539832       -14.6896
  26   2.0000      -0.518512       -14.1094
  27   2.0000      -0.512160       -13.9366
  28   2.0000      -0.502011       -13.6604
  29   2.0000      -0.466868       -12.7041
  30   2.0000      -0.443632       -12.0718
  31   2.0000      -0.432133       -11.7589
  32   2.0000      -0.412910       -11.2359
  33   2.0000      -0.323840        -8.8121
  34   0.0000       0.137546         3.7428
  35   0.0000       0.153064         4.1651
  36   0.0000       0.156707         4.2642
  37   0.0000       0.164344         4.4720
  38   0.0000       0.169740         4.6189

MULLIKEN ATOMIC CHARGES
-----------------------
   0 C :   -0.449666
   1 C :    0.013030
   2 C :   -0.221840
   3 C :   -0.189036
   4 C :    0.103001
   5 O :   -0.465104
   6 C :    0.077450
   7 C :   -0.279793
   8 C :   -0.324689
   9 H :    0.141542
  10 H :    0.142239
  11 H :    0.139915
  12 H :    0.121198
  13 H :    0.111979
  14 H :    0.132776
  15 H :    0.096503
  16 H :    0.314766
  17 H :    0.143319
  18 H :    0.131660
  19 H :    0.129118
  20 H :    0.131632
Sum of atomic charges:    0.0000000

LOEWDIN ATOMIC CHARGES
----------------------
   0 C :   -0.267823
   1 C :   -0.159389
   2 C :   -0.144290
   3 C :   -0.224886
   4 C :   -0.268224
   5 O :   -0.019555
   6 C :   -0.191216
   7 C :   -0.201818
   8 C :   -0.197510
   9 H :    0.131251
  10 H :    0.132398
  11 H :    0.131294
  12 H :    0.135991
  13 H :    0.142596
  14 H :    0.141008
  15 H :    0.142680
  16 H :    0.178259
  17 H :    0.139729
  18 H :    0.133085
  19 H :    0.132232
  20 H :    0.134188

  Mayer bond orders larger than 0.1
B(  0-C ,  1-C ) :   0.8789 B(  0-C ,  9-H ) :   0.9324 B(  0-C , 10-H ) :   0.9484
B(  0-C , 11-H ) :   0.9361 B(  1-C ,  2-C ) :   1.7321 B(  1-C ,  6-C ) :   0.9176
B(  2-C ,  3-C ) :   0.9534 B(  2-C , 12-H ) :   0.9274 B(  3-C ,  4-C ) :   0.9476
B(  3-C , 13-H ) :   0.9029 B(  3-C , 14-H ) :   0.9272 B(  4-C ,  5-O ) :   0.9335
B(  4-C ,  6-C ) :   0.9354 B(  4-C , 15-H ) :   0.9225 B(  5-O , 16-H ) :   0.8435
B(  6-C ,  7-C ) :   0.8332 B(  6-C ,  8-C ) :   0.8171 B(  7-C ,  8-C ) :   0.9333
B(  7-C , 17-H ) :   0.9170 B(  7-C , 18-H ) :   0.9287 B(  8-C , 19-H ) :   0.9252
B(  8-C , 20-H ) :   0.9236

MP2 TOTAL ENERGY:     -386.415999747 Eh
FINAL SINGLE POINT ENERGY      -386.415999746610

DIPOLE MOMENT
-------------
                                X             Y             Z
Electronic contribution:      1.68788      -3.45057      -0.55254
Nuclear contribution   :     -1.94405       4.04360       0.33714
                        -----------------------------------------
Total Dipole Moment    :     -0.25617       0.59303      -0.21540
                        -----------------------------------------
Magnitude (a.u.)       :      0.68096
Magnitude (Debye)      :      1.73087

                             ****ORCA TERMINATED NORMALLY****
TOTAL RUN TIME: 0 days 0 hours 21 minutes 44 seconds 110 msec
