                         Program Version 3.0.3 - RELEASE   -
|  1> ! RI-MP2 RIJK def2-TZVP def2-TZVP/C def2-TZVP/JK TIGHTSCF
|  2> % maxcore 2000
|  3> % mp2 density relaxed end
|  4> *xyz 0 1
|  5>  C       -0.1297156364     1.5531557630     0.1386455358
|  6>  C        0.1656161795     0.0748946970     0.0197114185
|  7>  C        1.5850802616    -0.4514744997    -0.1041276434
|  8>  C        0.7556940940    -0.7529989209     1.1262523240
|  9>  C        1.1214095437    -0.1637516986     2.4702978092
| 10>  O        0.1860348423    -2.0428867923     1.1836368183
| 11>  C        1.0683728878    -3.0626222760     1.5532160701
| 12>  C        1.0977151453    -3.5477946086     2.9813246133
| 13>  C        0.4408351408    -4.3746695712     1.8928276249
| 14>  H        0.6511960625     2.0866934821     0.6884410603
| 15>  H       -0.1967436944     2.0114860216    -0.8541618472
| 16>  H       -1.0809611878     1.7326821374     0.6520984707
| 17>  H       -0.5626875913    -0.4815838365    -0.5639731818
| 18>  H        1.7679060438    -1.2596832804    -0.8034564482
| 19>  H        2.4015398599     0.2579019576    -0.0067172817
| 20>  H        1.5080871177     0.8526529796     2.3665002264
| 21>  H        0.2450468729    -0.1318327608     3.1266170753
| 22>  H        1.8922398011    -0.7635381673     2.9630691797
| 23>  H        2.0033525500    -3.0649212243     0.9943312786
| 24>  H        2.0398581892    -3.8846727365     3.4008106955
| 25>  H        0.4381287836    -3.0476759810     3.6809796656
| 26>  H       -0.6428680393    -4.4042789675     1.8832152222
| 27>  H        0.9243665234    -5.2850807167     1.5572067439
| 28> *
| 29>
| 30>                          ****END OF INPUT****

CARTESIAN COORDINATES (ANGSTROEM)
---------------------------------
  C     -0.129716    1.553156    0.138646
  C      0.165616    0.074895    0.019711
  C      1.585080   -0.451474   -0.104128
  C      0.755694   -0.752999    1.126252
  C      1.121410   -0.163752    2.470298
  O      0.186035   -2.042887    1.183637
  C      1.068373   -3.062622    1.553216
  C      1.097715   -3.547795    2.981325
  C      0.440835   -4.374670    1.892828
  H      0.651196    2.086693    0.688441
  H     -0.196744    2.011486   -0.854162
  H     -1.080961    1.732682    0.652098
  H     -0.562688   -0.481584   -0.563973
  H      1.767906   -1.259683   -0.803456
  H      2.401540    0.257902   -0.006717
  H      1.508087    0.852653    2.366500
  H      0.245047   -0.131833    3.126617
  H      1.892240   -0.763538    2.963069
  H      2.003353   -3.064921    0.994331
  H      2.039858   -3.884673    3.400811
  H      0.438129   -3.047676    3.680980
  H     -0.642868   -4.404279    1.883215
  H      0.924367   -5.285081    1.557207

 Total Charge           Charge          ....    0
 Multiplicity           Mult            ....    1
 Number of Electrons    NEL             ....   70
 Basis Dimension        Dim             ....  363

ORBITAL ENERGIES
----------------

  NO   OCC          E(Eh)            E(eV)
   0   2.0000     -20.556123      -559.3605
   1   2.0000     -11.281454      -306.9840
   2   2.0000     -11.276874      -306.8594
   3   2.0000     -11.224754      -305.4411
   4   2.0000     -11.221073      -305.3409
   5   2.0000     -11.220112      -305.3148
   6   2.0000     -11.217719      -305.2497
   7   2.0000     -11.216380      -305.2132
   8   2.0000     -11.215694      -305.1945
   9   2.0000      -1.382625       -37.6231
  10   2.0000      -1.150372       -31.3032
  11   2.0000      -1.108262       -30.1573
  12   2.0000      -0.978217       -26.6186
  13   2.0000      -0.950023       -25.8514
  14   2.0000      -0.839090       -22.8328
  15   2.0000      -0.823449       -22.4072
  16   2.0000      -0.778931       -21.1958
  17   2.0000      -0.747081       -20.3291
  18   2.0000      -0.693141       -18.8613
  19   2.0000      -0.653712       -17.7884
  20   2.0000      -0.635527       -17.2936
  21   2.0000      -0.623211       -16.9584
  22   2.0000      -0.578907       -15.7529
  23   2.0000      -0.568948       -15.4819
  24   2.0000      -0.557207       -15.1624
  25   2.0000      -0.543686       -14.7944
  26   2.0000      -0.538723       -14.6594
  27   2.0000      -0.520584       -14.1658
  28   2.0000      -0.514282       -13.9943
  29   2.0000      -0.506068       -13.7708
  30   2.0000      -0.488899       -13.3036
  31   2.0000      -0.420184       -11.4338
  32   2.0000      -0.405123       -11.0240
  33   2.0000      -0.385443       -10.4884
  34   2.0000      -0.377401       -10.2696
  35   0.0000       0.139902         3.8069
  36   0.0000       0.158842         4.3223
  37   0.0000       0.164350         4.4722
  38   0.0000       0.175226         4.7681
  39   0.0000       0.182368         4.9625

MULLIKEN ATOMIC CHARGES
-----------------------
   0 C :   -0.408746
   1 C :   -0.067377
   2 C :   -0.337130
   3 C :    0.194242
   4 C :   -0.406610
   5 O :   -0.281394
   6 C :    0.016679
   7 C :   -0.268575
   8 C :   -0.241286
   9 H :    0.117683
  10 H :    0.137261
  11 H :    0.134419
  12 H :    0.123075
  13 H :    0.138806
  14 H :    0.123082
  15 H :    0.124085
  16 H :    0.132643
  17 H :    0.147788
  18 H :    0.101193
  19 H :    0.124051
  20 H :    0.132851
  21 H :    0.134184
  22 H :    0.129076
Sum of atomic charges:   -0.0000000

LOEWDIN ATOMIC CHARGES
----------------------
   0 C :   -0.294112
   1 C :   -0.215049
   2 C :   -0.199345
   3 C :   -0.340204
   4 C :   -0.267551
   5 O :    0.242499
   6 C :   -0.313472
   7 C :   -0.239454
   8 C :   -0.229007
   9 H :    0.122593
  10 H :    0.126805
  11 H :    0.126444
  12 H :    0.155344
  13 H :    0.135617
  14 H :    0.133635
  15 H :    0.128342
  16 H :    0.129777
  17 H :    0.130568
  18 H :    0.133688
  19 H :    0.128292
  20 H :    0.134997
  21 H :    0.138631
  22 H :    0.130962

  Mayer bond orders larger than 0.1
B(  0-C ,  1-C ) :   0.8963 B(  0-C ,  9-H ) :   0.9358 B(  0-C , 10-H ) :   0.9405
B(  0-C , 11-H ) :   0.9406 B(  1-C ,  2-C ) :   0.9013 B(  1-C ,  3-C ) :   0.8609
B(  1-C , 12-H ) :   0.9196 B(  2-C ,  3-C ) :   0.8908 B(  2-C , 13-H ) :   0.9178
B(  2-C , 14-H ) :   0.9164 B(  3-C ,  4-C ) :   0.9148 B(  3-C ,  5-O ) :   0.9524
B(  4-C , 15-H ) :   0.9257 B(  4-C , 16-H ) :   0.9371 B(  4-C , 17-H ) :   0.9332
B(  5-O ,  6-C ) :   0.9692 B(  6-C ,  7-C ) :   0.8808 B(  6-C ,  8-C ) :   0.8931
B(  6-C , 18-H ) :   0.9274 B(  7-C ,  8-C ) :   0.9188 B(  7-C , 19-H ) :   0.9195
B(  7-C , 20-H ) :   0.9245 B(  8-C , 21-H ) :   0.9220 B(  8-C , 22-H ) :   0.9243

MP2 TOTAL ENERGY:     -387.572310984 Eh
FINAL SINGLE POINT ENERGY      -387.572310983782

DIPOLE MOMENT
-------------
                                X             Y             Z
Electronic contribution:     -1.15984      -3.82986      -1.24409
Nuclear contribution   :      1.54060       3.98241       1.33235
                        -----------------------------------------
Total Dipole Moment    :      0.38076       0.15255       0.08826
                        -----------------------------------------
Magnitude (a.u.)       :      0.41957
Magnitude (Debye)      :      1.06647

                             ****ORCA TERMINATED NORMALLY****
TOTAL RUN TIME: 0 days 0 hours 21 minutes 1 seconds 33 msec
