                         Program Version 3.0.3 - RELEASE   -
|  1> ! RI-MP2 RIJK def2-TZVP def2-TZVP/C def2-TZVP/JK TIGHTSCF
|  2> % maxcore 2000
|  3> % mp2 density relaxed end
|  4> *xyz 0 1
|  5>  C       -0.0219941603     1.5688690238     0.0024758392
|  6>  C        1.4906159022     1.9688546001    -0.0240256852
|  7>  C        2.1810200648     0.5911104417    -0.0357903564
|  8>  C        1.2407221377    -0.2549955863    -0.9056679445
|  9>  C        0.0381029582     0.0215814644     0.0223896321
| 10>  C        0.6527439998    -0.4035196612     1.3662525532
| 11>  O        2.0314746469     0.0037389193     1.2668798919
| 12>  H       -0.5488403431     1.9687965230     0.8735665547
| 13>  H       -0.5459613260     1.9254061266    -0.8893260914
| 14>  H        1.7451384971     2.5545930470    -0.9130410795
| 15>  H        1.7955397895     2.5395721777     0.8558406956
| 16>  H        3.2428959725     0.5952256828    -0.2846218696
| 17>  H        1.1077636158     0.1352937538    -1.9183856873
| 18>  H        1.5363553083    -1.3061948331    -0.9489683730
| 19>  H       -0.9012477291    -0.4797200103    -0.2148685441
| 20>  H        0.1806129367     0.0921060822     2.2240494118
| 21>  H        0.6049081190    -1.4893408615     1.5258611227
| 22> *
| 23>
| 24>                          ****END OF INPUT****

CARTESIAN COORDINATES (ANGSTROEM)
---------------------------------
  C     -0.021994    1.568869    0.002476
  C      1.490616    1.968855   -0.024026
  C      2.181020    0.591110   -0.035790
  C      1.240722   -0.254996   -0.905668
  C      0.038103    0.021581    0.022390
  C      0.652744   -0.403520    1.366253
  O      2.031475    0.003739    1.266880
  H     -0.548840    1.968797    0.873567
  H     -0.545961    1.925406   -0.889326
  H      1.745138    2.554593   -0.913041
  H      1.795540    2.539572    0.855841
  H      3.242896    0.595226   -0.284622
  H      1.107764    0.135294   -1.918386
  H      1.536355   -1.306195   -0.948968
  H     -0.901248   -0.479720   -0.214869
  H      0.180613    0.092106    2.224049
  H      0.604908   -1.489341    1.525861

 Total Charge           Charge          ....    0
 Multiplicity           Mult            ....    1
 Number of Electrons    NEL             ....   54
 Basis Dimension        Dim             ....  277

ORBITAL ENERGIES
----------------

  NO   OCC          E(Eh)            E(eV)
   0   2.0000     -20.541313      -558.9575
   1   2.0000     -11.272489      -306.7400
   2   2.0000     -11.266846      -306.5865
   3   2.0000     -11.230546      -305.5987
   4   2.0000     -11.222448      -305.3783
   5   2.0000     -11.220141      -305.3156
   6   2.0000     -11.217358      -305.2398
   7   2.0000      -1.367475       -37.2109
   8   2.0000      -1.112859       -30.2824
   9   2.0000      -1.004332       -27.3293
  10   2.0000      -0.962328       -26.1863
  11   2.0000      -0.859893       -23.3989
  12   2.0000      -0.786685       -21.4068
  13   2.0000      -0.742860       -20.2142
  14   2.0000      -0.700451       -19.0602
  15   2.0000      -0.656792       -17.8722
  16   2.0000      -0.642307       -17.4781
  17   2.0000      -0.568367       -15.4661
  18   2.0000      -0.557039       -15.1578
  19   2.0000      -0.536741       -14.6055
  20   2.0000      -0.516389       -14.0517
  21   2.0000      -0.501356       -13.6426
  22   2.0000      -0.491677       -13.3792
  23   2.0000      -0.476632       -12.9698
  24   2.0000      -0.460999       -12.5444
  25   2.0000      -0.434002       -11.8098
  26   2.0000      -0.395021       -10.7491
  27   0.0000       0.134045         3.6475
  28   0.0000       0.166552         4.5321
  29   0.0000       0.175238         4.7685
  30   0.0000       0.179264         4.8780
  31   0.0000       0.195544         5.3210

MULLIKEN ATOMIC CHARGES
-----------------------
   0 C :   -0.277916
   1 C :   -0.250032
   2 C :    0.101322
   3 C :   -0.288968
   4 C :   -0.036388
   5 C :   -0.068236
   6 O :   -0.330888
   7 H :    0.119441
   8 H :    0.118877
   9 H :    0.110865
  10 H :    0.119885
  11 H :    0.118167
  12 H :    0.121328
  13 H :    0.122784
  14 H :    0.122807
  15 H :    0.098149
  16 H :    0.098803
Sum of atomic charges:    0.0000000

LOEWDIN ATOMIC CHARGES
----------------------
   0 C :   -0.228517
   1 C :   -0.231492
   2 C :   -0.300041
   3 C :   -0.215422
   4 C :   -0.247485
   5 C :   -0.267906
   6 O :    0.150200
   7 H :    0.133158
   8 H :    0.133814
   9 H :    0.133476
  10 H :    0.137095
  11 H :    0.136741
  12 H :    0.140269
  13 H :    0.139211
  14 H :    0.143928
  15 H :    0.122545
  16 H :    0.120426

  Mayer bond orders larger than 0.1
B(  0-C ,  1-C ) :   0.9691 B(  0-C ,  4-C ) :   0.9104 B(  0-C ,  7-H ) :   0.9304
B(  0-C ,  8-H ) :   0.9256 B(  1-C ,  2-C ) :   0.9210 B(  1-C ,  9-H ) :   0.9200
B(  1-C , 10-H ) :   0.9250 B(  2-C ,  3-C ) :   0.9474 B(  2-C ,  6-O ) :   0.9238
B(  2-C , 11-H ) :   0.9257 B(  3-C ,  4-C ) :   0.9094 B(  3-C , 12-H ) :   0.9226
B(  3-C , 13-H ) :   0.9196 B(  4-C ,  5-C ) :   0.9466 B(  4-C , 14-H ) :   0.9176
B(  5-C ,  6-O ) :   0.9415 B(  5-C , 15-H ) :   0.9175 B(  5-C , 16-H ) :   0.9251

MP2 TOTAL ENERGY:     -309.204890932 Eh
FINAL SINGLE POINT ENERGY      -309.204890932350

DIPOLE MOMENT
-------------
                                X             Y             Z
Electronic contribution:      2.11284      -1.39227       1.65005
Nuclear contribution   :     -2.58370       1.47974      -2.15028
                        -----------------------------------------
Total Dipole Moment    :     -0.47085       0.08747      -0.50023
                        -----------------------------------------
Magnitude (a.u.)       :      0.69252
Magnitude (Debye)      :      1.76025

                             ****ORCA TERMINATED NORMALLY****
TOTAL RUN TIME: 0 days 0 hours 9 minutes 32 seconds 141 msec
