                         Program Version 3.0.3 - RELEASE   -
|  1> ! RI-MP2 RIJK def2-TZVP def2-TZVP/C def2-TZVP/JK TIGHTSCF
|  2> % maxcore 2000
|  3> % mp2 density relaxed end
|  4> *xyz 0 1
|  5>  C        0.3125582922     0.8428344315     1.1054503948
|  6>  C       -0.0092470308    -0.0403649016    -0.0813935045
|  7>  C        0.6330692085     0.1892345278    -1.3828007532
|  8>  O        1.0692168200    -0.8758330937    -0.5297584918
|  9>  C       -1.3457340108    -0.7412361058    -0.0376570872
| 10>  C       -1.4790868812    -1.8519856785     0.9997427154
| 11>  O       -2.6986218005    -2.5468848836     0.8710471777
| 12>  C       -2.5485190451    -0.0632608111    -0.5362677339
| 13>  O       -1.9170703123    -1.1038388331    -1.3033666862
| 14>  H        1.3023406966     1.2884608522     0.9829506823
| 15>  H       -0.4248905543     1.6458066727     1.2070010435
| 16>  H        0.3153948964     0.2680939219     2.0371422447
| 17>  H        0.1226757433    -0.1236743004    -2.2893588733
| 18>  H        1.3340521808     1.0167713624    -1.4873718114
| 19>  H       -0.6111492705    -2.5204638273     0.8908023082
| 20>  H       -1.4525834547    -1.4321606611     2.0107213894
| 21>  H       -2.7803394441    -2.7578424422    -0.0683223759
| 22>  H       -3.5155488444    -0.3284908081    -0.1170275662
| 23>  H       -2.4656863590     0.9334410278    -0.9659198223
| 24> *
| 25>
| 26>                          ****END OF INPUT****

CARTESIAN COORDINATES (ANGSTROEM)
---------------------------------
  C      0.312558    0.842834    1.105450
  C     -0.009247   -0.040365   -0.081394
  C      0.633069    0.189235   -1.382801
  O      1.069217   -0.875833   -0.529758
  C     -1.345734   -0.741236   -0.037657
  C     -1.479087   -1.851986    0.999743
  O     -2.698622   -2.546885    0.871047
  C     -2.548519   -0.063261   -0.536268
  O     -1.917070   -1.103839   -1.303367
  H      1.302341    1.288461    0.982951
  H     -0.424891    1.645807    1.207001
  H      0.315395    0.268094    2.037142
  H      0.122676   -0.123674   -2.289359
  H      1.334052    1.016771   -1.487372
  H     -0.611149   -2.520464    0.890802
  H     -1.452583   -1.432161    2.010721
  H     -2.780339   -2.757842   -0.068322
  H     -3.515549   -0.328491   -0.117028
  H     -2.465686    0.933441   -0.965920

 Total Charge           Charge          ....    0
 Multiplicity           Mult            ....    1
 Number of Electrons    NEL             ....   70
 Basis Dimension        Dim             ....  339

ORBITAL ENERGIES
----------------

  NO   OCC          E(Eh)            E(eV)
   0   2.0000     -20.582063      -560.0664
   1   2.0000     -20.572129      -559.7961
   2   2.0000     -20.557868      -559.4080
   3   2.0000     -11.305315      -307.6333
   4   2.0000     -11.304303      -307.6057
   5   2.0000     -11.293708      -307.3174
   6   2.0000     -11.285995      -307.1075
   7   2.0000     -11.284814      -307.0754
   8   2.0000     -11.238035      -305.8025
   9   2.0000      -1.434465       -39.0338
  10   2.0000      -1.410621       -38.3850
  11   2.0000      -1.361923       -37.0598
  12   2.0000      -1.052613       -28.6431
  13   2.0000      -0.981946       -26.7201
  14   2.0000      -0.924963       -25.1695
  15   2.0000      -0.916704       -24.9448
  16   2.0000      -0.862044       -23.4574
  17   2.0000      -0.771162       -20.9844
  18   2.0000      -0.726435       -19.7673
  19   2.0000      -0.705914       -19.2089
  20   2.0000      -0.665127       -18.0990
  21   2.0000      -0.658662       -17.9231
  22   2.0000      -0.613181       -16.6855
  23   2.0000      -0.605039       -16.4639
  24   2.0000      -0.597655       -16.2630
  25   2.0000      -0.576646       -15.6913
  26   2.0000      -0.568796       -15.4777
  27   2.0000      -0.536929       -14.6106
  28   2.0000      -0.528945       -14.3933
  29   2.0000      -0.508917       -13.8483
  30   2.0000      -0.483604       -13.1595
  31   2.0000      -0.476209       -12.9583
  32   2.0000      -0.449463       -12.2305
  33   2.0000      -0.437517       -11.9054
  34   2.0000      -0.423822       -11.5328
  35   0.0000       0.133922         3.6442
  36   0.0000       0.160549         4.3688
  37   0.0000       0.161744         4.4013
  38   0.0000       0.173729         4.7274
  39   0.0000       0.190440         5.1821

MULLIKEN ATOMIC CHARGES
-----------------------
   0 C :   -0.431474
   1 C :    0.159015
   2 C :   -0.081756
   3 O :   -0.343789
   4 C :    0.152273
   5 C :   -0.041499
   6 O :   -0.475844
   7 C :   -0.111000
   8 O :   -0.363236
   9 H :    0.146858
  10 H :    0.138959
  11 H :    0.145231
  12 H :    0.140321
  13 H :    0.113977
  14 H :    0.128426
  15 H :    0.119835
  16 H :    0.332564
  17 H :    0.145233
  18 H :    0.125906
Sum of atomic charges:   -0.0000000

LOEWDIN ATOMIC CHARGES
----------------------
   0 C :   -0.256732
   1 C :   -0.320571
   2 C :   -0.231910
   3 O :    0.167587
   4 C :   -0.304534
   5 C :   -0.303513
   6 O :   -0.032419
   7 C :   -0.229981
   8 O :    0.161344
   9 H :    0.135315
  10 H :    0.132918
  11 H :    0.131618
  12 H :    0.128079
  13 H :    0.120628
  14 H :    0.132812
  15 H :    0.134938
  16 H :    0.181157
  17 H :    0.128538
  18 H :    0.124725

  Mayer bond orders larger than 0.1
B(  0-C ,  1-C ) :   0.8892 B(  0-C ,  9-H ) :   0.9327 B(  0-C , 10-H ) :   0.9353
B(  0-C , 11-H ) :   0.9401 B(  1-C ,  2-C ) :   0.9975 B(  1-C ,  3-O ) :   0.8044
B(  1-C ,  4-C ) :   0.9056 B(  2-C ,  3-O ) :   0.9170 B(  2-C , 12-H ) :   0.8921
B(  2-C , 13-H ) :   0.9173 B(  4-C ,  5-C ) :   0.8998 B(  4-C ,  7-C ) :   0.9766
B(  4-C ,  8-O ) :   0.8703 B(  5-C ,  6-O ) :   0.9409 B(  5-C , 14-H ) :   0.9359
B(  5-C , 15-H ) :   0.9269 B(  6-O , 16-H ) :   0.8217 B(  7-C ,  8-O ) :   0.8659
B(  7-C , 17-H ) :   0.9090 B(  7-C , 18-H ) :   0.9105

MP2 TOTAL ENERGY:     -459.386154581 Eh
FINAL SINGLE POINT ENERGY      -459.386154581189

DIPOLE MOMENT
-------------
                                X             Y             Z
Electronic contribution:     -0.89582      -3.72812      -2.92592
Nuclear contribution   :      0.84371       4.88762       2.94617
                        -----------------------------------------
Total Dipole Moment    :     -0.05212       1.15950       0.02025
                        -----------------------------------------
Magnitude (a.u.)       :      1.16085
Magnitude (Debye)      :      2.95065

                             ****ORCA TERMINATED NORMALLY****
TOTAL RUN TIME: 0 days 0 hours 16 minutes 0 seconds 130 msec
