                         Program Version 3.0.3 - RELEASE   -
|  1> ! RI-MP2 RIJK def2-TZVP def2-TZVP/C def2-TZVP/JK TIGHTSCF
|  2> % maxcore 2000
|  3> % mp2 density relaxed end
|  4> *xyz 0 1
|  5>  C       -0.0827376031     1.5785939496    -0.0796014140
|  6>  C        0.0705665772     0.0595130019    -0.0423579319
|  7>  N        0.7441250627    -0.4673111528    -1.2211983590
|  8>  N        0.1593657637    -0.5322441719    -2.4321245953
|  9>  N        0.9632670550    -1.0034586225    -3.2671428004
| 10>  O        2.1842509057    -1.2820357688    -2.6088660357
| 11>  C        2.0451019964    -0.9339894916    -1.2905444120
| 12>  O        2.8719602321    -1.0281739744    -0.4294071624
| 13>  H        0.8936614860     2.0685253367    -0.1253596876
| 14>  H       -0.6712715687     1.8890990819    -0.9470465216
| 15>  H       -0.5964969129     1.9182890268     0.8239874153
| 16>  H        0.6895715334    -0.2583115910     0.8004053083
| 17>  H       -0.9008041576    -0.4359585639     0.0383309963
| 18> *
| 19>
| 20>                          ****END OF INPUT****

CARTESIAN COORDINATES (ANGSTROEM)
---------------------------------
  C     -0.082738    1.578594   -0.079601
  C      0.070567    0.059513   -0.042358
  N      0.744125   -0.467311   -1.221198
  N      0.159366   -0.532244   -2.432125
  N      0.963267   -1.003459   -3.267143
  O      2.184251   -1.282036   -2.608866
  C      2.045102   -0.933989   -1.290544
  O      2.871960   -1.028174   -0.429407
  H      0.893661    2.068525   -0.125360
  H     -0.671272    1.889099   -0.947047
  H     -0.596497    1.918289    0.823987
  H      0.689572   -0.258312    0.800405
  H     -0.900804   -0.435959    0.038331

 Total Charge           Charge          ....    0
 Multiplicity           Mult            ....    1
 Number of Electrons    NEL             ....   60
 Basis Dimension        Dim             ....  278

ORBITAL ENERGIES
----------------

  NO   OCC          E(Eh)            E(eV)
   0   2.0000     -20.674878      -562.5920
   1   2.0000     -20.561359      -559.5030
   2   2.0000     -15.720535      -427.7775
   3   2.0000     -15.714463      -427.6123
   4   2.0000     -15.676182      -426.5706
   5   2.0000     -11.437893      -311.2409
   6   2.0000     -11.308029      -307.7071
   7   2.0000     -11.248067      -306.0755
   8   2.0000      -1.582633       -43.0656
   9   2.0000      -1.426686       -38.8221
  10   2.0000      -1.384057       -37.6621
  11   2.0000      -1.255390       -34.1609
  12   2.0000      -1.070397       -29.1270
  13   2.0000      -0.953920       -25.9575
  14   2.0000      -0.926915       -25.2226
  15   2.0000      -0.861911       -23.4538
  16   2.0000      -0.753232       -20.4965
  17   2.0000      -0.736626       -20.0446
  18   2.0000      -0.680027       -18.5045
  19   2.0000      -0.669964       -18.2306
  20   2.0000      -0.641375       -17.4527
  21   2.0000      -0.606813       -16.5122
  22   2.0000      -0.592381       -16.1195
  23   2.0000      -0.575933       -15.6719
  24   2.0000      -0.571765       -15.5585
  25   2.0000      -0.550619       -14.9831
  26   2.0000      -0.533827       -14.5262
  27   2.0000      -0.526787       -14.3346
  28   2.0000      -0.470342       -12.7987
  29   2.0000      -0.412042       -11.2122
  30   0.0000       0.100420         2.7326
  31   0.0000       0.128592         3.4992
  32   0.0000       0.161742         4.4012
  33   0.0000       0.177184         4.8214
  34   0.0000       0.191720         5.2170

MULLIKEN ATOMIC CHARGES
-----------------------
   0 C :   -0.401652
   1 C :   -0.139190
   2 N :   -0.001940
   3 N :   -0.073664
   4 N :   -0.000880
   5 O :   -0.122689
   6 C :    0.306510
   7 O :   -0.323206
   8 H :    0.146648
   9 H :    0.150604
  10 H :    0.142238
  11 H :    0.167799
  12 H :    0.149424
Sum of atomic charges:   -0.0000000

LOEWDIN ATOMIC CHARGES
----------------------
   0 C :   -0.306354
   1 C :   -0.265785
   2 N :    0.147230
   3 N :   -0.006668
   4 N :   -0.023035
   5 O :    0.220848
   6 C :   -0.565262
   7 O :    0.112551
   8 H :    0.129233
   9 H :    0.128700
  10 H :    0.131075
  11 H :    0.153655
  12 H :    0.143812

  Mayer bond orders larger than 0.1
B(  0-C ,  1-C ) :   0.9312 B(  0-C ,  8-H ) :   0.9317 B(  0-C ,  9-H ) :   0.9322
B(  0-C , 10-H ) :   0.9319 B(  1-C ,  2-N ) :   0.8340 B(  1-C , 11-H ) :   0.9147
B(  1-C , 12-H ) :   0.9270 B(  2-N ,  3-N ) :   0.9713 B(  2-N ,  6-C ) :   1.0802
B(  3-N ,  4-N ) :   1.4844 B(  4-N ,  5-O ) :   0.8400 B(  5-O ,  6-C ) :   1.0840
B(  6-C ,  7-O ) :   1.9599

MP2 TOTAL ENERGY:     -431.220121208 Eh
FINAL SINGLE POINT ENERGY      -431.220121208312

DIPOLE MOMENT
-------------
                                X             Y             Z
Electronic contribution:      4.74872      -6.25608      -6.35670
Nuclear contribution   :     -5.85045       6.92904       7.13490
                        -----------------------------------------
Total Dipole Moment    :     -1.10173       0.67296       0.77821
                        -----------------------------------------
Magnitude (a.u.)       :      1.50741
Magnitude (Debye)      :      3.83154

                             ****ORCA TERMINATED NORMALLY****
TOTAL RUN TIME: 0 days 0 hours 9 minutes 17 seconds 939 msec
