                         Program Version 3.0.3 - RELEASE   -
|  1> ! RI-MP2 RIJK def2-TZVP def2-TZVP/C def2-TZVP/JK TIGHTSCF
|  2> % maxcore 2000
|  3> % mp2 density relaxed end
|  4> *xyz 0 1
|  5>  O       -0.0909808284     1.4284338966     0.0198546718
|  6>  C        0.0299032697     0.0086026859    -0.0082896552
|  7>  C       -1.3991999901    -0.5422759938     0.0035133744
|  8>  O       -1.3978010059    -1.9390155930    -0.2433056338
|  9>  C       -0.9239042358    -2.2668814028    -1.5222608073
| 10>  C       -1.1020726322    -3.7147370690    -1.8824723657
| 11>  C       -1.9681747211    -2.6758452587    -2.5524812703
| 12>  C        0.2730860525    -1.5144425492    -1.9519459484
| 13>  C        0.7361451306    -0.4818633229    -1.2486664367
| 14>  H        0.7933128545     1.8032243599     0.0768979473
| 15>  H        0.5581584419    -0.3443938478     0.8927437265
| 16>  H       -1.8687998628    -0.3970083395     0.9787452689
| 17>  H       -1.9846735957     0.0003363638    -0.7528774525
| 18>  H       -0.3226032001    -4.2008721223    -2.4586731411
| 19>  H       -1.5614814495    -4.3324468687    -1.1193165829
| 20>  H       -3.0007277599    -2.6043814403    -2.2309312252
| 21>  H       -1.7915480668    -2.4389807534    -3.5958807835
| 22>  H        0.7545076732    -1.8392561541    -2.8702470630
| 23>  H        1.6275341059     0.0554602893    -1.5643106833
| 24> *
| 25>
| 26>                          ****END OF INPUT****

CARTESIAN COORDINATES (ANGSTROEM)
---------------------------------
  O     -0.090981    1.428434    0.019855
  C      0.029903    0.008603   -0.008290
  C     -1.399200   -0.542276    0.003513
  O     -1.397801   -1.939016   -0.243306
  C     -0.923904   -2.266881   -1.522261
  C     -1.102073   -3.714737   -1.882472
  C     -1.968175   -2.675845   -2.552481
  C      0.273086   -1.514443   -1.951946
  C      0.736145   -0.481863   -1.248666
  H      0.793313    1.803224    0.076898
  H      0.558158   -0.344394    0.892744
  H     -1.868800   -0.397008    0.978745
  H     -1.984674    0.000336   -0.752877
  H     -0.322603   -4.200872   -2.458673
  H     -1.561481   -4.332447   -1.119317
  H     -3.000728   -2.604381   -2.230931
  H     -1.791548   -2.438981   -3.595881
  H      0.754508   -1.839256   -2.870247
  H      1.627534    0.055460   -1.564311

 Total Charge           Charge          ....    0
 Multiplicity           Mult            ....    1
 Number of Electrons    NEL             ....   68
 Basis Dimension        Dim             ....  339

ORBITAL ENERGIES
----------------

  NO   OCC          E(Eh)            E(eV)
   0   2.0000     -20.561762      -559.5140
   1   2.0000     -20.560738      -559.4861
   2   2.0000     -11.292068      -307.2728
   3   2.0000     -11.285926      -307.1057
   4   2.0000     -11.272303      -306.7350
   5   2.0000     -11.239208      -305.8344
   6   2.0000     -11.230417      -305.5952
   7   2.0000     -11.228977      -305.5560
   8   2.0000     -11.228109      -305.5324
   9   2.0000      -1.390206       -37.8294
  10   2.0000      -1.364975       -37.1429
  11   2.0000      -1.141011       -31.0485
  12   2.0000      -1.076569       -29.2949
  13   2.0000      -0.982284       -26.7293
  14   2.0000      -0.868407       -23.6305
  15   2.0000      -0.833426       -22.6787
  16   2.0000      -0.825528       -22.4637
  17   2.0000      -0.730150       -19.8684
  18   2.0000      -0.708302       -19.2739
  19   2.0000      -0.688826       -18.7439
  20   2.0000      -0.664330       -18.0773
  21   2.0000      -0.628252       -17.0956
  22   2.0000      -0.607307       -16.5257
  23   2.0000      -0.588323       -16.0091
  24   2.0000      -0.578718       -15.7477
  25   2.0000      -0.569494       -15.4967
  26   2.0000      -0.537114       -14.6156
  27   2.0000      -0.520929       -14.1752
  28   2.0000      -0.499720       -13.5981
  29   2.0000      -0.475035       -12.9263
  30   2.0000      -0.445495       -12.1225
  31   2.0000      -0.433796       -11.8042
  32   2.0000      -0.401981       -10.9385
  33   2.0000      -0.338929        -9.2227
  34   0.0000       0.131799         3.5864
  35   0.0000       0.148424         4.0388
  36   0.0000       0.153631         4.1805
  37   0.0000       0.170390         4.6365
  38   0.0000       0.181975         4.9518

MULLIKEN ATOMIC CHARGES
-----------------------
   0 O :   -0.468114
   1 C :    0.152043
   2 C :   -0.049896
   3 O :   -0.295319
   4 C :    0.286606
   5 C :   -0.285337
   6 C :   -0.309822
   7 C :   -0.205181
   8 C :   -0.245247
   9 H :    0.316081
  10 H :    0.087105
  11 H :    0.130328
  12 H :    0.099313
  13 H :    0.133446
  14 H :    0.138015
  15 H :    0.137148
  16 H :    0.130465
  17 H :    0.130826
  18 H :    0.117542
Sum of atomic charges:   -0.0000000

LOEWDIN ATOMIC CHARGES
----------------------
   0 O :   -0.018503
   1 C :   -0.340178
   2 C :   -0.272724
   3 O :    0.220764
   4 C :   -0.325107
   5 C :   -0.196585
   6 C :   -0.202335
   7 C :   -0.125975
   8 C :   -0.156054
   9 H :    0.173847
  10 H :    0.138469
  11 H :    0.132179
  12 H :    0.130925
  13 H :    0.134434
  14 H :    0.141972
  15 H :    0.139286
  16 H :    0.132434
  17 H :    0.152124
  18 H :    0.141028

  Mayer bond orders larger than 0.1
B(  0-O ,  1-C ) :   0.9757 B(  0-O ,  9-H ) :   0.8461 B(  1-C ,  2-C ) :   0.9249
B(  1-C ,  8-C ) :   0.9123 B(  1-C , 10-H ) :   0.9326 B(  2-C ,  3-O ) :   0.9093
B(  2-C , 11-H ) :   0.9275 B(  2-C , 12-H ) :   0.9190 B(  3-O ,  4-C ) :   0.9990
B(  4-C ,  5-C ) :   0.8532 B(  4-C ,  6-C ) :   0.8373 B(  4-C ,  7-C ) :   0.9510
B(  5-C ,  6-C ) :   0.9307 B(  5-C , 13-H ) :   0.9268 B(  5-C , 14-H ) :   0.9188
B(  6-C , 15-H ) :   0.9215 B(  6-C , 16-H ) :   0.9167 B(  7-C ,  8-C ) :   1.7864
B(  7-C , 17-H ) :   0.9013 B(  8-C , 18-H ) :   0.9083

MP2 TOTAL ENERGY:     -422.300256427 Eh
FINAL SINGLE POINT ENERGY      -422.300256427227

DIPOLE MOMENT
-------------
                                X             Y             Z
Electronic contribution:      0.81363       1.68390       2.13114
Nuclear contribution   :     -0.20862      -1.71291      -2.43793
                        -----------------------------------------
Total Dipole Moment    :      0.60501      -0.02901      -0.30679
                        -----------------------------------------
Magnitude (a.u.)       :      0.67897
Magnitude (Debye)      :      1.72580

                             ****ORCA TERMINATED NORMALLY****
TOTAL RUN TIME: 0 days 0 hours 16 minutes 6 seconds 141 msec
