                         Program Version 3.0.3 - RELEASE   -
|  1> ! RI-MP2 RIJK def2-TZVP def2-TZVP/C def2-TZVP/JK TIGHTSCF
|  2> % maxcore 2000
|  3> % mp2 density relaxed end
|  4> *xyz 0 1
|  5>  O       -0.0543991282     0.0723203296    -0.2097093706
|  6>  C        0.0067769172     1.2343925506     0.0237361591
|  7>  O       -0.9973594107     2.0666442781     0.4796906888
|  8>  C       -0.1032649809     3.2267678165     0.5138554220
|  9>  C        1.0239847045     2.3427231748     0.0010366524
| 10>  C        2.4768896194     2.2607849631     0.3486819619
| 11>  C        2.0724529792     2.6215852316    -1.0660123711
| 12>  C        2.2732588798     1.7090877191    -2.1526408673
| 13>  C        2.4510955595     0.9582438463    -3.0738487442
| 14>  H       -0.4570166423     4.0105335525    -0.1598891949
| 15>  H        0.0003737827     3.6062117757     1.5333228885
| 16>  H        2.8965060051     3.0469375788     0.9667813785
| 17>  H        2.8820995102     1.2687023775     0.5120305425
| 18>  H        2.1683332868     3.6738296004    -1.3228517441
| 19>  H        2.5963595878     0.2825601253    -3.8801053514
| 20> *
| 21>
| 22>                          ****END OF INPUT****

CARTESIAN COORDINATES (ANGSTROEM)
---------------------------------
  O     -0.054399    0.072320   -0.209709
  C      0.006777    1.234393    0.023736
  O     -0.997359    2.066644    0.479691
  C     -0.103265    3.226768    0.513855
  C      1.023985    2.342723    0.001037
  C      2.476890    2.260785    0.348682
  C      2.072453    2.621585   -1.066012
  C      2.273259    1.709088   -2.152641
  C      2.451096    0.958244   -3.073849
  H     -0.457017    4.010534   -0.159889
  H      0.000374    3.606212    1.533323
  H      2.896506    3.046938    0.966781
  H      2.882100    1.268702    0.512031
  H      2.168333    3.673830   -1.322852
  H      2.596360    0.282560   -3.880105

 Total Charge           Charge          ....    0
 Multiplicity           Mult            ....    1
 Number of Electrons    NEL             ....   64
 Basis Dimension        Dim             ....  315

ORBITAL ENERGIES
----------------

  NO   OCC          E(Eh)            E(eV)
   0   2.0000     -20.604814      -560.6855
   1   2.0000     -20.554311      -559.3112
   2   2.0000     -11.387057      -309.8576
   3   2.0000     -11.317266      -307.9585
   4   2.0000     -11.293626      -307.3152
   5   2.0000     -11.285736      -307.1005
   6   2.0000     -11.272843      -306.7496
   7   2.0000     -11.244712      -305.9842
   8   2.0000     -11.233874      -305.6892
   9   2.0000      -1.465393       -39.8754
  10   2.0000      -1.382369       -37.6162
  11   2.0000      -1.197321       -32.5808
  12   2.0000      -1.041897       -28.3515
  13   2.0000      -0.984934       -26.8014
  14   2.0000      -0.912803       -24.8386
  15   2.0000      -0.889192       -24.1962
  16   2.0000      -0.762287       -20.7429
  17   2.0000      -0.732971       -19.9452
  18   2.0000      -0.703879       -19.1535
  19   2.0000      -0.699362       -19.0306
  20   2.0000      -0.691895       -18.8274
  21   2.0000      -0.659916       -17.9572
  22   2.0000      -0.593410       -16.1475
  23   2.0000      -0.583553       -15.8793
  24   2.0000      -0.568393       -15.4668
  25   2.0000      -0.554652       -15.0928
  26   2.0000      -0.504119       -13.7178
  27   2.0000      -0.492802       -13.4098
  28   2.0000      -0.457688       -12.4543
  29   2.0000      -0.446504       -12.1500
  30   2.0000      -0.396718       -10.7952
  31   2.0000      -0.378045       -10.2871
  32   0.0000       0.124558         3.3894
  33   0.0000       0.142428         3.8757
  34   0.0000       0.151573         4.1245
  35   0.0000       0.153010         4.1636
  36   0.0000       0.163720         4.4550

MULLIKEN ATOMIC CHARGES
-----------------------
   0 O :   -0.255265
   1 C :    0.277305
   2 O :   -0.237721
   3 C :   -0.000942
   4 C :   -0.061383
   5 C :   -0.241219
   6 C :   -0.268937
   7 C :   -0.018029
   8 C :   -0.102077
   9 H :    0.123069
  10 H :    0.122555
  11 H :    0.150852
  12 H :    0.164458
  13 H :    0.150576
  14 H :    0.196759
Sum of atomic charges:   -0.0000000

LOEWDIN ATOMIC CHARGES
----------------------
   0 O :    0.169541
   1 C :   -0.421196
   2 O :    0.231936
   3 C :   -0.192798
   4 C :   -0.175311
   5 C :   -0.141066
   6 C :   -0.161273
   7 C :   -0.088746
   8 C :   -0.074258
   9 H :    0.128116
  10 H :    0.127651
  11 H :    0.142991
  12 H :    0.153682
  13 H :    0.171340
  14 H :    0.129392

  Mayer bond orders larger than 0.1
B(  0-O ,  1-C ) :   2.0473 B(  1-C ,  2-O ) :   1.0920 B(  1-C ,  4-C ) :   0.9283
B(  2-O ,  3-C ) :   0.9045 B(  3-C ,  4-C ) :   0.9269 B(  3-C ,  9-H ) :   0.9136
B(  3-C , 10-H ) :   0.9177 B(  4-C ,  5-C ) :   0.8393 B(  4-C ,  6-C ) :   0.7845
B(  5-C ,  6-C ) :   0.8671 B(  5-C , 11-H ) :   0.9209 B(  5-C , 12-H ) :   0.9187
B(  6-C ,  7-C ) :   1.2169 B(  6-C ,  8-C ) :  -0.1227 B(  6-C , 13-H ) :   0.9389
B(  7-C ,  8-C ) :   2.5611 B(  8-C , 14-H ) :   0.8887

MP2 TOTAL ENERGY:     -419.877426707 Eh
FINAL SINGLE POINT ENERGY      -419.877426707078

DIPOLE MOMENT
-------------
                                X             Y             Z
Electronic contribution:     -3.18658      -3.20725      -0.50426
Nuclear contribution   :      4.07875       4.62205       0.71645
                        -----------------------------------------
Total Dipole Moment    :      0.89218       1.41479       0.21219
                        -----------------------------------------
Magnitude (a.u.)       :      1.68602
Magnitude (Debye)      :      4.28551

                             ****ORCA TERMINATED NORMALLY****
TOTAL RUN TIME: 0 days 0 hours 15 minutes 45 seconds 56 msec
