                         Program Version 3.0.3 - RELEASE   -
|  1> ! RI-MP2 RIJK def2-TZVP def2-TZVP/C def2-TZVP/JK TIGHTSCF
|  2> % maxcore 2000
|  3> % mp2 density relaxed end
|  4> *xyz 0 1
|  5>  C        0.1653807205     1.5235249659     0.0431205806
|  6>  C       -0.0245678884     0.0576582121    -0.0119237380
|  7>  C       -1.1013965801    -0.7252675663     0.0538126724
|  8>  N       -2.4461191789    -0.4263344863     0.2003443804
|  9>  O       -0.6753986227    -2.0646938873    -0.0552350897
| 10>  C        0.6788460971    -2.0516915853    -0.1868366718
| 11>  O        1.3861903468    -3.0006013586    -0.3037511358
| 12>  O        1.0963926483    -0.7467697447    -0.1619247355
| 13>  H        0.8088680567     1.8064493619     0.8832709605
| 14>  H        0.6372787995     1.8946051057    -0.8731739294
| 15>  H       -0.8061535970     2.0061355550     0.1622653488
| 16>  H       -3.0027861638    -0.7416982549    -0.5883244043
| 17>  H       -2.8428726778    -0.8237879972     1.0464829317
| 18> *
| 19>
| 20>                          ****END OF INPUT****

CARTESIAN COORDINATES (ANGSTROEM)
---------------------------------
  C      0.165381    1.523525    0.043121
  C     -0.024568    0.057658   -0.011924
  C     -1.101397   -0.725268    0.053813
  N     -2.446119   -0.426334    0.200344
  O     -0.675399   -2.064694   -0.055235
  C      0.678846   -2.051692   -0.186837
  O      1.386190   -3.000601   -0.303751
  O      1.096393   -0.746770   -0.161925
  H      0.808868    1.806449    0.883271
  H      0.637279    1.894605   -0.873174
  H     -0.806154    2.006136    0.162265
  H     -3.002786   -0.741698   -0.588324
  H     -2.842873   -0.823788    1.046483

 Total Charge           Charge          ....    0
 Multiplicity           Mult            ....    1
 Number of Electrons    NEL             ....   60
 Basis Dimension        Dim             ....  278

ORBITAL ENERGIES
----------------

  NO   OCC          E(Eh)            E(eV)
   0   2.0000     -20.639415      -561.6270
   1   2.0000     -20.638199      -561.5939
   2   2.0000     -20.550380      -559.2043
   3   2.0000     -15.593619      -424.3239
   4   2.0000     -11.441708      -311.3447
   5   2.0000     -11.339741      -308.5700
   6   2.0000     -11.319409      -308.0168
   7   2.0000     -11.253309      -306.2181
   8   2.0000      -1.543121       -41.9905
   9   2.0000      -1.412253       -38.4294
  10   2.0000      -1.397776       -38.0354
  11   2.0000      -1.235332       -33.6151
  12   2.0000      -1.074862       -29.2485
  13   2.0000      -0.966051       -26.2876
  14   2.0000      -0.866993       -23.5921
  15   2.0000      -0.844876       -22.9903
  16   2.0000      -0.737805       -20.0767
  17   2.0000      -0.732308       -19.9271
  18   2.0000      -0.687072       -18.6962
  19   2.0000      -0.673303       -18.3215
  20   2.0000      -0.651562       -17.7299
  21   2.0000      -0.605140       -16.4667
  22   2.0000      -0.603693       -16.4273
  23   2.0000      -0.587491       -15.9864
  24   2.0000      -0.569037       -15.4843
  25   2.0000      -0.566228       -15.4079
  26   2.0000      -0.514958       -14.0127
  27   2.0000      -0.495239       -13.4761
  28   2.0000      -0.458191       -12.4680
  29   2.0000      -0.353151        -9.6097
  30   0.0000       0.114353         3.1117
  31   0.0000       0.145342         3.9549
  32   0.0000       0.156511         4.2589
  33   0.0000       0.189471         5.1558
  34   0.0000       0.189780         5.1642

MULLIKEN ATOMIC CHARGES
-----------------------
   0 C :   -0.406649
   1 C :    0.134608
   2 C :    0.133148
   3 N :   -0.519649
   4 O :   -0.206069
   5 C :    0.365304
   6 O :   -0.282936
   7 O :   -0.220555
   8 H :    0.154578
   9 H :    0.154577
  10 H :    0.172309
  11 H :    0.260667
  12 H :    0.260666
Sum of atomic charges:   -0.0000000

LOEWDIN ATOMIC CHARGES
----------------------
   0 C :   -0.261637
   1 C :   -0.261894
   2 C :   -0.352357
   3 N :   -0.085032
   4 O :    0.297677
   5 C :   -0.564691
   6 O :    0.133830
   7 O :    0.318663
   8 H :    0.139239
   9 H :    0.139244
  10 H :    0.146750
  11 H :    0.175102
  12 H :    0.175105

  Mayer bond orders larger than 0.1
B(  0-C ,  1-C ) :   0.8767 B(  0-C ,  8-H ) :   0.9265 B(  0-C ,  9-H ) :   0.9265
B(  0-C , 10-H ) :   0.9388 B(  1-C ,  2-C ) :   1.7150 B(  1-C ,  7-O ) :   0.9820
B(  2-C ,  3-N ) :   1.1712 B(  2-C ,  4-O ) :   0.9722 B(  3-N , 11-H ) :   0.8749
B(  3-N , 12-H ) :   0.8749 B(  4-O ,  5-C ) :   1.0842 B(  5-C ,  6-O ) :   2.0626
B(  5-C ,  7-O ) :   1.0658

MP2 TOTAL ENERGY:     -435.108037909 Eh
FINAL SINGLE POINT ENERGY      -435.108037909132

DIPOLE MOMENT
-------------
                                X             Y             Z
Electronic contribution:      2.95438      -7.03370      -0.64241
Nuclear contribution   :     -4.29467       8.29336       0.83684
                        -----------------------------------------
Total Dipole Moment    :     -1.34029       1.25965       0.19443
                        -----------------------------------------
Magnitude (a.u.)       :      1.84957
Magnitude (Debye)      :      4.70123

                             ****ORCA TERMINATED NORMALLY****
TOTAL RUN TIME: 0 days 0 hours 8 minutes 41 seconds 18 msec
