                         Program Version 3.0.3 - RELEASE   -
|  1> ! RI-MP2 RIJK def2-TZVP def2-TZVP/C def2-TZVP/JK TIGHTSCF
|  2> % maxcore 2000
|  3> % mp2 density relaxed end
|  4> *xyz 0 1
|  5>  C       -0.3569581579     1.4980784579    -0.1175935915
|  6>  C        0.1472530335     0.0690393770    -0.0766757862
|  7>  O        1.4435867937    -0.0799804300    -0.7046888807
|  8>  C        1.9485761959    -0.8395459064     0.4104121752
|  9>  C        0.6781674638    -0.5608750051     1.2449282786
| 10>  C        0.8596310629     0.3467646938     2.4587247997
| 11>  C        1.5185515460    -0.3780708811     3.6375937697
| 12>  C        1.7343013706     0.5252674247     4.8445400991
| 13>  O        2.3419030946    -0.2488239753     5.8675452533
| 14>  H        0.3376398352     2.1868369367     0.3697844388
| 15>  H       -0.4730484267     1.8151822141    -1.1588922460
| 16>  H       -1.3342724020     1.5781619840     0.3708527298
| 17>  H       -0.5860424211    -0.5874110149    -0.5694450868
| 18>  H        2.1155698990    -1.8928029873     0.1486179366
| 19>  H        2.8852042101    -0.4203655232     0.8002008004
| 20>  H        0.1328736382    -1.4618823455     1.5411986074
| 21>  H        1.4674104683     1.2174290082     2.1800777543
| 22>  H       -0.1172655221     0.7398282856     2.7708494968
| 23>  H        0.9028262001    -1.2314132151     3.9475830267
| 24>  H        2.4903620169    -0.7887974882     3.3370536029
| 25>  H        2.3701371625     1.3799172897     4.5596635576
| 26>  H        0.7673699639     0.9381697480     5.1772280732
| 27>  H        2.4845532544     0.3187327826     6.6304292213
| 28> *
| 29>
| 30>                          ****END OF INPUT****

CARTESIAN COORDINATES (ANGSTROEM)
---------------------------------
  C     -0.356958    1.498078   -0.117594
  C      0.147253    0.069039   -0.076676
  O      1.443587   -0.079980   -0.704689
  C      1.948576   -0.839546    0.410412
  C      0.678167   -0.560875    1.244928
  C      0.859631    0.346765    2.458725
  C      1.518552   -0.378071    3.637594
  C      1.734301    0.525267    4.844540
  O      2.341903   -0.248824    5.867545
  H      0.337640    2.186837    0.369784
  H     -0.473048    1.815182   -1.158892
  H     -1.334272    1.578162    0.370853
  H     -0.586042   -0.587411   -0.569445
  H      2.115570   -1.892803    0.148618
  H      2.885204   -0.420366    0.800201
  H      0.132874   -1.461882    1.541199
  H      1.467410    1.217429    2.180078
  H     -0.117266    0.739828    2.770849
  H      0.902826   -1.231413    3.947583
  H      2.490362   -0.788797    3.337054
  H      2.370137    1.379917    4.559664
  H      0.767370    0.938170    5.177228
  H      2.484553    0.318733    6.630429

 Total Charge           Charge          ....    0
 Multiplicity           Mult            ....    1
 Number of Electrons    NEL             ....   72
 Basis Dimension        Dim             ....  363

ORBITAL ENERGIES
----------------

  NO   OCC          E(Eh)            E(eV)
   0   2.0000     -20.556916      -559.3821
   1   2.0000     -20.540052      -558.9232
   2   2.0000     -11.279156      -306.9214
   3   2.0000     -11.277577      -306.8785
   4   2.0000     -11.271927      -306.7247
   5   2.0000     -11.231826      -305.6335
   6   2.0000     -11.228046      -305.5307
   7   2.0000     -11.222227      -305.3723
   8   2.0000     -11.215370      -305.1857
   9   2.0000      -1.371623       -37.3238
  10   2.0000      -1.360953       -37.0334
  11   2.0000      -1.084510       -29.5110
  12   2.0000      -1.019832       -27.7510
  13   2.0000      -0.991014       -26.9669
  14   2.0000      -0.901722       -24.5371
  15   2.0000      -0.867563       -23.6076
  16   2.0000      -0.811261       -22.0755
  17   2.0000      -0.731428       -19.9032
  18   2.0000      -0.696991       -18.9661
  19   2.0000      -0.686266       -18.6742
  20   2.0000      -0.656492       -17.8640
  21   2.0000      -0.642887       -17.4939
  22   2.0000      -0.614950       -16.7336
  23   2.0000      -0.589261       -16.0346
  24   2.0000      -0.575908       -15.6713
  25   2.0000      -0.568795       -15.4777
  26   2.0000      -0.531389       -14.4598
  27   2.0000      -0.525178       -14.2908
  28   2.0000      -0.515429       -14.0255
  29   2.0000      -0.511287       -13.9128
  30   2.0000      -0.497123       -13.5274
  31   2.0000      -0.475822       -12.9478
  32   2.0000      -0.445832       -12.1317
  33   2.0000      -0.440903       -11.9976
  34   2.0000      -0.434775       -11.8308
  35   2.0000      -0.404639       -11.0108
  36   0.0000       0.130543         3.5523
  37   0.0000       0.139759         3.8030
  38   0.0000       0.155726         4.2375
  39   0.0000       0.158831         4.3220
  40   0.0000       0.173650         4.7253

MULLIKEN ATOMIC CHARGES
-----------------------
   0 C :   -0.384059
   1 C :    0.088806
   2 O :   -0.329338
   3 C :   -0.042558
   4 C :   -0.033914
   5 C :   -0.350705
   6 C :   -0.155667
   7 C :   -0.062966
   8 O :   -0.464732
   9 H :    0.123258
  10 H :    0.144645
  11 H :    0.124479
  12 H :    0.074710
  13 H :    0.094072
  14 H :    0.094386
  15 H :    0.112683
  16 H :    0.125981
  17 H :    0.115259
  18 H :    0.113020
  19 H :    0.113577
  20 H :    0.092742
  21 H :    0.091014
  22 H :    0.315306
Sum of atomic charges:    0.0000000

LOEWDIN ATOMIC CHARGES
----------------------
   0 C :   -0.297890
   1 C :   -0.286832
   2 O :    0.129352
   3 C :   -0.256717
   4 C :   -0.221841
   5 C :   -0.251193
   6 C :   -0.267319
   7 C :   -0.353829
   8 O :   -0.052180
   9 H :    0.123700
  10 H :    0.130448
  11 H :    0.127123
  12 H :    0.133595
  13 H :    0.115975
  14 H :    0.117433
  15 H :    0.145979
  16 H :    0.141939
  17 H :    0.140765
  18 H :    0.140684
  19 H :    0.140978
  20 H :    0.114167
  21 H :    0.113901
  22 H :    0.171761

  Mayer bond orders larger than 0.1
B(  0-C ,  1-C ) :   0.9043 B(  0-C ,  9-H ) :   0.9351 B(  0-C , 10-H ) :   0.9335
B(  0-C , 11-H ) :   0.9306 B(  1-C ,  2-O ) :   0.9694 B(  1-C ,  4-C ) :   0.9384
B(  1-C , 12-H ) :   0.9271 B(  2-O ,  3-C ) :   0.9547 B(  3-C ,  4-C ) :   0.9483
B(  3-C , 13-H ) :   0.9149 B(  3-C , 14-H ) :   0.9062 B(  4-C ,  5-C ) :   0.9125
B(  4-C , 15-H ) :   0.9237 B(  5-C ,  6-C ) :   0.9112 B(  5-C , 16-H ) :   0.9335
B(  5-C , 17-H ) :   0.9206 B(  6-C ,  7-C ) :   0.9356 B(  6-C , 18-H ) :   0.9236
B(  6-C , 19-H ) :   0.9267 B(  7-C ,  8-O ) :   1.0250 B(  7-C , 20-H ) :   0.9334
B(  7-C , 21-H ) :   0.9319 B(  8-O , 22-H ) :   0.8492

MP2 TOTAL ENERGY:     -424.702765266 Eh
FINAL SINGLE POINT ENERGY      -424.702765265711

DIPOLE MOMENT
-------------
                                X             Y             Z
Electronic contribution:      2.29148      -2.44956      -1.10659
Nuclear contribution   :     -2.75622       2.89541       1.83732
                        -----------------------------------------
Total Dipole Moment    :     -0.46474       0.44584       0.73073
                        -----------------------------------------
Magnitude (a.u.)       :      0.97403
Magnitude (Debye)      :      2.47578

                             ****ORCA TERMINATED NORMALLY****
TOTAL RUN TIME: 0 days 0 hours 16 minutes 49 seconds 229 msec
