                         Program Version 3.0.3 - RELEASE   -
|  1> ! RI-MP2 RIJK def2-TZVP def2-TZVP/C def2-TZVP/JK TIGHTSCF
|  2> % maxcore 2000
|  3> % mp2 density relaxed end
|  4> *xyz 0 1
|  5>  N       -0.0931868733     1.4459927978     0.1179388828
|  6>  C       -0.1191498660     0.0509751188     0.0511160924
|  7>  C       -1.2255121996    -0.6546283564    -0.1514433176
|  8>  O       -1.2430191461    -2.0273558319    -0.2161056444
|  9>  C       -0.0927155439    -2.7460927710    -0.0707660758
| 10>  O       -0.1225256363    -3.9357948501    -0.1289921049
| 11>  C        1.1838489718    -1.9540679400     0.1621558621
| 12>  N        2.2722957034    -2.5741143269     0.3025199500
| 13>  O        1.1057998307    -0.5857301484     0.2115600446
| 14>  H        0.2527159765     1.7718286988     1.0161004466
| 15>  H        0.5014194283     1.8448164225    -0.6031005945
| 16>  H       -2.1975807963    -0.2068243616    -0.2812825026
| 17>  H        3.0410798009    -1.9168220116     0.4508868314
| 18> *
| 19>
| 20>                          ****END OF INPUT****

CARTESIAN COORDINATES (ANGSTROEM)
---------------------------------
  N     -0.093187    1.445993    0.117939
  C     -0.119150    0.050975    0.051116
  C     -1.225512   -0.654628   -0.151443
  O     -1.243019   -2.027356   -0.216106
  C     -0.092716   -2.746093   -0.070766
  O     -0.122526   -3.935795   -0.128992
  C      1.183849   -1.954068    0.162156
  N      2.272296   -2.574114    0.302520
  O      1.105800   -0.585730    0.211560
  H      0.252716    1.771829    1.016100
  H      0.501419    1.844816   -0.603101
  H     -2.197581   -0.206824   -0.281283
  H      3.041080   -1.916822    0.450887

 Total Charge           Charge          ....    0
 Multiplicity           Mult            ....    1
 Number of Electrons    NEL             ....   66
 Basis Dimension        Dim             ....  303

ORBITAL ENERGIES
----------------

  NO   OCC          E(Eh)            E(eV)
   0   2.0000     -20.644331      -561.7608
   1   2.0000     -20.642164      -561.7018
   2   2.0000     -20.570794      -559.7598
   3   2.0000     -15.592799      -424.3016
   4   2.0000     -15.581185      -423.9856
   5   2.0000     -11.415834      -310.6406
   6   2.0000     -11.381760      -309.7134
   7   2.0000     -11.355269      -308.9926
   8   2.0000     -11.318876      -308.0023
   9   2.0000      -1.509081       -41.0642
  10   2.0000      -1.469081       -39.9757
  11   2.0000      -1.401594       -38.1393
  12   2.0000      -1.257290       -34.2126
  13   2.0000      -1.218163       -33.1479
  14   2.0000      -1.046040       -28.4642
  15   2.0000      -0.955732       -26.0068
  16   2.0000      -0.900007       -24.4904
  17   2.0000      -0.812245       -22.1023
  18   2.0000      -0.747358       -20.3367
  19   2.0000      -0.723069       -19.6757
  20   2.0000      -0.709855       -19.3161
  21   2.0000      -0.679871       -18.5002
  22   2.0000      -0.679086       -18.4789
  23   2.0000      -0.650146       -17.6914
  24   2.0000      -0.642581       -17.4855
  25   2.0000      -0.634464       -17.2646
  26   2.0000      -0.570076       -15.5126
  27   2.0000      -0.541216       -14.7272
  28   2.0000      -0.495410       -13.4808
  29   2.0000      -0.476332       -12.9616
  30   2.0000      -0.460163       -12.5217
  31   2.0000      -0.452329       -12.3085
  32   2.0000      -0.363712        -9.8971
  33   0.0000       0.076624         2.0851
  34   0.0000       0.115491         3.1427
  35   0.0000       0.144033         3.9193
  36   0.0000       0.155782         4.2390
  37   0.0000       0.166897         4.5415

MULLIKEN ATOMIC CHARGES
-----------------------
   0 N :   -0.508326
   1 C :    0.142427
   2 C :   -0.018589
   3 O :   -0.186201
   4 C :    0.303405
   5 O :   -0.219702
   6 C :    0.091287
   7 N :   -0.290646
   8 O :   -0.220368
   9 H :    0.256039
  10 H :    0.256053
  11 H :    0.163760
  12 H :    0.230860
Sum of atomic charges:    0.0000000

LOEWDIN ATOMIC CHARGES
----------------------
   0 N :   -0.086949
   1 C :   -0.390557
   2 C :   -0.232563
   3 O :    0.316905
   4 C :   -0.420593
   5 O :    0.201391
   6 C :   -0.360506
   7 N :    0.007014
   8 O :    0.294053
   9 H :    0.172355
  10 H :    0.172359
  11 H :    0.152524
  12 H :    0.174566

  Mayer bond orders larger than 0.1
B(  0-N ,  1-C ) :   1.1992 B(  0-N ,  9-H ) :   0.8778 B(  0-N , 10-H ) :   0.8778
B(  1-C ,  2-C ) :   1.7201 B(  1-C ,  8-O ) :   0.9614 B(  2-C ,  3-O ) :   0.9482
B(  2-C , 11-H ) :   0.9204 B(  3-O ,  4-C ) :   1.0749 B(  4-C ,  5-O ) :   2.0580
B(  4-C ,  6-C ) :   0.8909 B(  6-C ,  7-N ) :   2.0461 B(  6-C ,  8-O ) :   1.0162
B(  7-N , 12-H ) :   0.8482

MP2 TOTAL ENERGY:     -489.127464454 Eh
FINAL SINGLE POINT ENERGY      -489.127464453713

DIPOLE MOMENT
-------------
                                X             Y             Z
Electronic contribution:     -0.53214      -4.64414      -0.29139
Nuclear contribution   :      0.76577       6.73166       0.42108
                        -----------------------------------------
Total Dipole Moment    :      0.23362       2.08751       0.12969
                        -----------------------------------------
Magnitude (a.u.)       :      2.10455
Magnitude (Debye)      :      5.34933

                             ****ORCA TERMINATED NORMALLY****
TOTAL RUN TIME: 0 days 0 hours 12 minutes 39 seconds 315 msec
