                         Program Version 3.0.3 - RELEASE   -
|  1> ! RI-MP2 RIJK def2-TZVP def2-TZVP/C def2-TZVP/JK TIGHTSCF
|  2> % maxcore 2000
|  3> % mp2 density relaxed end
|  4> *xyz 0 1
|  5>  C       -0.3780805318     1.4290798172    -0.0076332708
|  6>  C        0.0735339410    -0.0287069992     0.0382155392
|  7>  C        0.9344651194    -0.4740355533    -1.1635854024
|  8>  C        1.5423073421    -1.8188795331    -0.7232011381
|  9>  C        1.5763186493    -1.7307703998     0.7881345920
| 10>  N        2.0580341207    -2.5748134839     1.6086714591
| 11>  O        2.6270407838    -3.6739639099     0.9320422060
| 12>  C        0.9164252969    -0.4513746714     1.2755719179
| 13>  C        1.9733968931     0.5766535017     1.7208261684
| 14>  H        0.4732752208     2.1151893652    -0.0622810612
| 15>  H       -1.0043089535     1.6109488016    -0.8875342484
| 16>  H       -0.9665493731     1.6958262594     0.8769869377
| 17>  H       -0.8248056530    -0.6623230586     0.0442540870
| 18>  H        0.3536224914    -0.5498945999    -2.0871094365
| 19>  H        1.7277353000     0.2611910636    -1.3452586067
| 20>  H        0.9118913735    -2.6678532628    -1.0163472573
| 21>  H        2.5339017326    -2.0233953984    -1.1368323039
| 22>  H        2.9377197010    -4.2197598843     1.6619087271
| 23>  H        0.2712638673    -0.6635524162     2.1338607395
| 24>  H        2.6508089869     0.8495087773     0.9045013492
| 25>  H        1.5041874241     1.4934267693     2.0903700637
| 26>  H        2.5793948278     0.1525852256     2.5256674984
| 27> *
| 28>
| 29>                          ****END OF INPUT****

CARTESIAN COORDINATES (ANGSTROEM)
---------------------------------
  C     -0.378081    1.429080   -0.007633
  C      0.073534   -0.028707    0.038216
  C      0.934465   -0.474036   -1.163585
  C      1.542307   -1.818880   -0.723201
  C      1.576319   -1.730770    0.788135
  N      2.058034   -2.574813    1.608671
  O      2.627041   -3.673964    0.932042
  C      0.916425   -0.451375    1.275572
  C      1.973397    0.576654    1.720826
  H      0.473275    2.115189   -0.062281
  H     -1.004309    1.610949   -0.887534
  H     -0.966549    1.695826    0.876987
  H     -0.824806   -0.662323    0.044254
  H      0.353622   -0.549895   -2.087109
  H      1.727735    0.261191   -1.345259
  H      0.911891   -2.667853   -1.016347
  H      2.533902   -2.023395   -1.136832
  H      2.937720   -4.219760    1.661909
  H      0.271264   -0.663552    2.133861
  H      2.650809    0.849509    0.904501
  H      1.504187    1.493427    2.090370
  H      2.579395    0.152585    2.525667

 Total Charge           Charge          ....    0
 Multiplicity           Mult            ....    1
 Number of Electrons    NEL             ....   70
 Basis Dimension        Dim             ....  357

ORBITAL ENERGIES
----------------

  NO   OCC          E(Eh)            E(eV)
   0   2.0000     -20.581407      -560.0486
   1   2.0000     -15.602017      -424.5525
   2   2.0000     -11.266548      -306.5784
   3   2.0000     -11.234613      -305.7094
   4   2.0000     -11.231995      -305.6381
   5   2.0000     -11.228979      -305.5560
   6   2.0000     -11.224484      -305.4337
   7   2.0000     -11.217663      -305.2481
   8   2.0000     -11.217422      -305.2416
   9   2.0000      -1.406075       -38.2612
  10   2.0000      -1.175698       -31.9924
  11   2.0000      -1.099179       -29.9102
  12   2.0000      -1.016064       -27.6485
  13   2.0000      -0.985760       -26.8239
  14   2.0000      -0.888483       -24.1769
  15   2.0000      -0.874408       -23.7939
  16   2.0000      -0.766675       -20.8623
  17   2.0000      -0.716505       -19.4971
  18   2.0000      -0.684366       -18.6225
  19   2.0000      -0.668963       -18.2034
  20   2.0000      -0.636068       -17.3083
  21   2.0000      -0.608410       -16.5557
  22   2.0000      -0.584129       -15.8950
  23   2.0000      -0.572685       -15.5835
  24   2.0000      -0.567597       -15.4451
  25   2.0000      -0.545073       -14.8322
  26   2.0000      -0.539049       -14.6683
  27   2.0000      -0.528177       -14.3724
  28   2.0000      -0.511232       -13.9113
  29   2.0000      -0.489896       -13.3307
  30   2.0000      -0.473327       -12.8799
  31   2.0000      -0.454083       -12.3562
  32   2.0000      -0.450935       -12.2706
  33   2.0000      -0.415015       -11.2931
  34   2.0000      -0.372014       -10.1230
  35   0.0000       0.124496         3.3877
  36   0.0000       0.150374         4.0919
  37   0.0000       0.153964         4.1896
  38   0.0000       0.161576         4.3967
  39   0.0000       0.168552         4.5865

MULLIKEN ATOMIC CHARGES
-----------------------
   0 C :   -0.417139
   1 C :   -0.043417
   2 C :   -0.268891
   3 C :   -0.203249
   4 C :   -0.054804
   5 N :   -0.084776
   6 O :   -0.370061
   7 C :    0.033690
   8 C :   -0.463322
   9 H :    0.132230
  10 H :    0.136009
  11 H :    0.136354
  12 H :    0.094935
  13 H :    0.124466
  14 H :    0.113452
  15 H :    0.132257
  16 H :    0.143562
  17 H :    0.332272
  18 H :    0.109899
  19 H :    0.130167
  20 H :    0.137083
  21 H :    0.149284
Sum of atomic charges:   -0.0000000

LOEWDIN ATOMIC CHARGES
----------------------
   0 C :   -0.295008
   1 C :   -0.249294
   2 C :   -0.228186
   3 C :   -0.223907
   4 C :   -0.257793
   5 N :    0.024414
   6 O :   -0.078396
   7 C :   -0.213079
   8 C :   -0.282515
   9 H :    0.124004
  10 H :    0.125337
  11 H :    0.125114
  12 H :    0.156061
  13 H :    0.134269
  14 H :    0.137750
  15 H :    0.152883
  16 H :    0.147393
  17 H :    0.166892
  18 H :    0.157950
  19 H :    0.123732
  20 H :    0.123202
  21 H :    0.129179

  Mayer bond orders larger than 0.1
B(  0-C ,  1-C ) :   0.8967 B(  0-C ,  9-H ) :   0.9338 B(  0-C , 10-H ) :   0.9399
B(  0-C , 11-H ) :   0.9427 B(  1-C ,  2-C ) :   0.9186 B(  1-C ,  7-C ) :   0.9065
B(  1-C , 12-H ) :   0.9299 B(  2-C ,  3-C ) :   0.9440 B(  2-C , 13-H ) :   0.9299
B(  2-C , 14-H ) :   0.9239 B(  3-C ,  4-C ) :   0.9573 B(  3-C , 15-H ) :   0.9099
B(  3-C , 16-H ) :   0.9199 B(  4-C ,  5-N ) :   1.9023 B(  4-C ,  7-C ) :   0.9139
B(  5-N ,  6-O ) :   0.7943 B(  6-O , 17-H ) :   0.8465 B(  7-C ,  8-C ) :   0.8689
B(  7-C , 18-H ) :   0.9136 B(  8-C , 19-H ) :   0.9345 B(  8-C , 20-H ) :   0.9355
B(  8-C , 21-H ) :   0.9373

MP2 TOTAL ENERGY:     -403.643535582 Eh
FINAL SINGLE POINT ENERGY      -403.643535582153

DIPOLE MOMENT
-------------
                                X             Y             Z
Electronic contribution:      3.18186      -9.49204       2.50769
Nuclear contribution   :     -3.35208       9.72917      -2.68380
                        -----------------------------------------
Total Dipole Moment    :     -0.17022       0.23713      -0.17611
                        -----------------------------------------
Magnitude (a.u.)       :      0.34091
Magnitude (Debye)      :      0.86653

                             ****ORCA TERMINATED NORMALLY****
TOTAL RUN TIME: 0 days 0 hours 20 minutes 24 seconds 995 msec
