                         Program Version 3.0.3 - RELEASE   -
|  1> ! RI-MP2 RIJK def2-TZVP def2-TZVP/C def2-TZVP/JK TIGHTSCF
|  2> % maxcore 2000
|  3> % mp2 density relaxed end
|  4> *xyz 0 1
|  5>  C       -0.0963713820     1.6318348778    -0.0426530040
|  6>  C        0.0532879154     0.1156661228    -0.0673815586
|  7>  C        0.7480119859    -0.5982454210    -1.2433017762
|  8>  C        2.1908899016    -0.2311218730    -1.2905426436
|  9>  C        1.7579381926    -1.2982706757    -0.2891789406
| 10>  C        2.3383508871    -2.6828822773    -0.2570075056
| 11>  C        1.0809358897    -0.6010470999     0.8565886414
| 12>  O        1.1668154533    -0.7064549796     2.0490553260
| 13>  H        0.8392161451     2.1398385325    -0.2944478405
| 14>  H       -0.8601567206     1.9651619976    -0.7529088409
| 15>  H       -0.3970870597     1.9631282201     0.9561723859
| 16>  H       -0.9163712634    -0.3547812270     0.1423125101
| 17>  H        0.2363048410    -1.0574857772    -2.0797736435
| 18>  H        2.7616578068    -0.6317120972    -2.1231085236
| 19>  H        2.5349438200     0.7432296053    -0.9561264132
| 20>  H        2.5584164512    -3.0425287101    -1.2670833232
| 21>  H        3.2727037374    -2.6996266191     0.3142342205
| 22>  H        1.6497597185    -3.3907149491     0.2154909795
| 23> *
| 24>
| 25>                          ****END OF INPUT****

CARTESIAN COORDINATES (ANGSTROEM)
---------------------------------
  C     -0.096371    1.631835   -0.042653
  C      0.053288    0.115666   -0.067382
  C      0.748012   -0.598245   -1.243302
  C      2.190890   -0.231122   -1.290543
  C      1.757938   -1.298271   -0.289179
  C      2.338351   -2.682882   -0.257008
  C      1.080936   -0.601047    0.856589
  O      1.166815   -0.706455    2.049055
  H      0.839216    2.139839   -0.294448
  H     -0.860157    1.965162   -0.752909
  H     -0.397087    1.963128    0.956172
  H     -0.916371   -0.354781    0.142313
  H      0.236305   -1.057486   -2.079774
  H      2.761658   -0.631712   -2.123109
  H      2.534944    0.743230   -0.956126
  H      2.558416   -3.042529   -1.267083
  H      3.272704   -2.699627    0.314234
  H      1.649760   -3.390715    0.215491

 Total Charge           Charge          ....    0
 Multiplicity           Mult            ....    1
 Number of Electrons    NEL             ....   60
 Basis Dimension        Dim             ....  308

ORBITAL ENERGIES
----------------

  NO   OCC          E(Eh)            E(eV)
   0   2.0000     -20.541905      -558.9737
   1   2.0000     -11.325432      -308.1807
   2   2.0000     -11.253770      -306.2306
   3   2.0000     -11.253163      -306.2141
   4   2.0000     -11.249217      -306.1067
   5   2.0000     -11.248521      -306.0878
   6   2.0000     -11.229586      -305.5726
   7   2.0000     -11.225066      -305.4496
   8   2.0000      -1.385643       -37.7053
   9   2.0000      -1.208109       -32.8743
  10   2.0000      -1.038304       -28.2537
  11   2.0000      -0.977818       -26.6078
  12   2.0000      -0.926666       -25.2159
  13   2.0000      -0.840193       -22.8628
  14   2.0000      -0.790745       -21.5173
  15   2.0000      -0.688126       -18.7249
  16   2.0000      -0.681481       -18.5440
  17   2.0000      -0.657942       -17.9035
  18   2.0000      -0.610222       -16.6050
  19   2.0000      -0.589777       -16.0486
  20   2.0000      -0.575215       -15.6524
  21   2.0000      -0.567938       -15.4544
  22   2.0000      -0.557271       -15.1641
  23   2.0000      -0.552289       -15.0286
  24   2.0000      -0.532494       -14.4899
  25   2.0000      -0.502462       -13.6727
  26   2.0000      -0.487799       -13.2737
  27   2.0000      -0.435718       -11.8565
  28   2.0000      -0.391110       -10.6426
  29   2.0000      -0.384179       -10.4541
  30   0.0000       0.128745         3.5033
  31   0.0000       0.144771         3.9394
  32   0.0000       0.159297         4.3347
  33   0.0000       0.161082         4.3833
  34   0.0000       0.173449         4.7198

MULLIKEN ATOMIC CHARGES
-----------------------
   0 C :   -0.395309
   1 C :   -0.053159
   2 C :   -0.107254
   3 C :   -0.278974
   4 C :    0.050653
   5 C :   -0.412242
   6 C :    0.100410
   7 O :   -0.265935
   8 H :    0.118246
   9 H :    0.134526
  10 H :    0.146704
  11 H :    0.116159
  12 H :    0.143960
  13 H :    0.138429
  14 H :    0.142912
  15 H :    0.132191
  16 H :    0.147944
  17 H :    0.140740
Sum of atomic charges:    0.0000000

LOEWDIN ATOMIC CHARGES
----------------------
   0 C :   -0.290031
   1 C :   -0.202175
   2 C :   -0.132893
   3 C :   -0.171950
   4 C :   -0.181842
   5 C :   -0.267677
   6 C :   -0.268922
   7 O :    0.152774
   8 H :    0.122912
   9 H :    0.125440
  10 H :    0.131713
  11 H :    0.164970
  12 H :    0.139707
  13 H :    0.144443
  14 H :    0.134338
  15 H :    0.130816
  16 H :    0.135914
  17 H :    0.132461

  Mayer bond orders larger than 0.1
B(  0-C ,  1-C ) :   0.9039 B(  0-C ,  8-H ) :   0.9319 B(  0-C ,  9-H ) :   0.9381
B(  0-C , 10-H ) :   0.9336 B(  1-C ,  2-C ) :   0.9170 B(  1-C ,  4-C ) :  -0.1210
B(  1-C ,  6-C ) :   0.9088 B(  1-C , 11-H ) :   0.9052 B(  2-C ,  3-C ) :   0.8947
B(  2-C ,  4-C ) :   0.8153 B(  2-C , 12-H ) :   0.9090 B(  3-C ,  4-C ) :   0.8404
B(  3-C , 13-H ) :   0.9301 B(  3-C , 14-H ) :   0.9164 B(  4-C ,  5-C ) :   0.8998
B(  4-C ,  6-C ) :   0.8789 B(  5-C , 15-H ) :   0.9387 B(  5-C , 16-H ) :   0.9328
B(  5-C , 17-H ) :   0.9381 B(  6-C ,  7-O ) :   2.0568

MP2 TOTAL ENERGY:     -347.192892473 Eh
FINAL SINGLE POINT ENERGY      -347.192892473387

DIPOLE MOMENT
-------------
                                X             Y             Z
Electronic contribution:     -0.15911      -1.02449       4.14259
Nuclear contribution   :      0.10656       0.98753      -5.35661
                        -----------------------------------------
Total Dipole Moment    :     -0.05255      -0.03696      -1.21402
                        -----------------------------------------
Magnitude (a.u.)       :      1.21572
Magnitude (Debye)      :      3.09012

                             ****ORCA TERMINATED NORMALLY****
TOTAL RUN TIME: 0 days 0 hours 13 minutes 8 seconds 618 msec
