                         Program Version 3.0.3 - RELEASE   -
|  1> ! RI-MP2 RIJK def2-TZVP def2-TZVP/C def2-TZVP/JK TIGHTSCF
|  2> % maxcore 2000
|  3> % mp2 density relaxed end
|  4> *xyz 0 1
|  5>  C       -0.0819580648     0.8514513188    -2.0090965004
|  6>  C        0.0455777342    -0.2919834786    -1.0259592832
|  7>  C        1.3411468199    -0.6657578171    -0.3212932666
|  8>  C        1.6291204667    -2.1454604044    -0.1394259300
|  9>  C        2.5912029346     0.1712445511    -0.5237451219
| 10>  C        0.1932836356    -0.0732254660     0.4617660341
| 11>  C        0.1277721469     1.2810107946     1.1897221627
| 12>  C       -0.9775403305     0.6851001517     2.1099024441
| 13>  C       -0.6630565746    -0.7347297736     1.5545755271
| 14>  H        0.5044038168     1.7248020033    -1.7122360837
| 15>  H        0.2539445544     0.5545188052    -3.0091662874
| 16>  H       -1.1256633555     1.1754705165    -2.0955626579
| 17>  H       -0.5740248575    -1.1491801724    -1.2884745731
| 18>  H        2.1384829360    -2.5580997840    -1.0188768204
| 19>  H        2.2786057779    -2.3200685604     0.7275038661
| 20>  H        0.7116879553    -2.7216222672     0.0134109691
| 21>  H        2.3757568936     1.2395261155    -0.5996599412
| 22>  H        3.2831432182     0.0374384427     0.3167531411
| 23>  H        3.1243061911    -0.1267575932    -1.4347965404
| 24>  H        1.0489959710     1.5217036277     1.7307621809
| 25>  H       -0.1549594137     2.1547747082     0.5955728582
| 26>  H       -0.8481710093     0.8293421649     3.1848710617
| 27>  H       -1.9776482350     1.0283971507     1.8341374599
| 28>  H       -1.5185765941    -1.3288782715     1.2199286572
| 29>  H       -0.0760455772    -1.3425333027     2.2515039239
| 30> *
| 31>
| 32>                          ****END OF INPUT****

CARTESIAN COORDINATES (ANGSTROEM)
---------------------------------
  C     -0.081958    0.851451   -2.009097
  C      0.045578   -0.291983   -1.025959
  C      1.341147   -0.665758   -0.321293
  C      1.629120   -2.145460   -0.139426
  C      2.591203    0.171245   -0.523745
  C      0.193284   -0.073225    0.461766
  C      0.127772    1.281011    1.189722
  C     -0.977540    0.685100    2.109902
  C     -0.663057   -0.734730    1.554576
  H      0.504404    1.724802   -1.712236
  H      0.253945    0.554519   -3.009166
  H     -1.125663    1.175471   -2.095563
  H     -0.574025   -1.149180   -1.288475
  H      2.138483   -2.558100   -1.018877
  H      2.278606   -2.320069    0.727504
  H      0.711688   -2.721622    0.013411
  H      2.375757    1.239526   -0.599660
  H      3.283143    0.037438    0.316753
  H      3.124306   -0.126758   -1.434797
  H      1.048996    1.521704    1.730762
  H     -0.154959    2.154775    0.595573
  H     -0.848171    0.829342    3.184871
  H     -1.977648    1.028397    1.834137
  H     -1.518577   -1.328878    1.219929
  H     -0.076046   -1.342533    2.251504

 Total Charge           Charge          ....    0
 Multiplicity           Mult            ....    1
 Number of Electrons    NEL             ....   70
 Basis Dimension        Dim             ....  375

ORBITAL ENERGIES
----------------

  NO   OCC          E(Eh)            E(eV)
   0   2.0000     -11.225197      -305.4531
   1   2.0000     -11.220629      -305.3288
   2   2.0000     -11.218212      -305.2631
   3   2.0000     -11.215660      -305.1936
   4   2.0000     -11.214995      -305.1755
   5   2.0000     -11.214068      -305.1503
   6   2.0000     -11.211994      -305.0939
   7   2.0000     -11.210594      -305.0558
   8   2.0000     -11.209961      -305.0385
   9   2.0000      -1.167547       -31.7706
  10   2.0000      -1.077660       -29.3246
  11   2.0000      -0.991704       -26.9856
  12   2.0000      -0.937076       -25.4991
  13   2.0000      -0.920599       -25.0508
  14   2.0000      -0.892205       -24.2781
  15   2.0000      -0.820917       -22.3383
  16   2.0000      -0.732216       -19.9246
  17   2.0000      -0.692930       -18.8556
  18   2.0000      -0.646453       -17.5909
  19   2.0000      -0.630158       -17.1475
  20   2.0000      -0.611498       -16.6397
  21   2.0000      -0.591936       -16.1074
  22   2.0000      -0.562690       -15.3116
  23   2.0000      -0.543983       -14.8025
  24   2.0000      -0.541016       -14.7218
  25   2.0000      -0.529285       -14.4026
  26   2.0000      -0.525117       -14.2891
  27   2.0000      -0.513981       -13.9861
  28   2.0000      -0.488759       -13.2998
  29   2.0000      -0.483739       -13.1632
  30   2.0000      -0.467782       -12.7290
  31   2.0000      -0.466745       -12.7008
  32   2.0000      -0.429108       -11.6766
  33   2.0000      -0.370588       -10.0842
  34   2.0000      -0.360568        -9.8116
  35   0.0000       0.128033         3.4840
  36   0.0000       0.155216         4.2236
  37   0.0000       0.158975         4.3259
  38   0.0000       0.166094         4.5196
  39   0.0000       0.187941         5.1141

MULLIKEN ATOMIC CHARGES
-----------------------
   0 C :   -0.417044
   1 C :   -0.168957
   2 C :    0.151034
   3 C :   -0.425985
   4 C :   -0.427469
   5 C :   -0.012436
   6 C :   -0.229256
   7 C :   -0.218850
   8 C :   -0.207088
   9 H :    0.123962
  10 H :    0.133909
  11 H :    0.133889
  12 H :    0.108543
  13 H :    0.130426
  14 H :    0.127009
  15 H :    0.132749
  16 H :    0.131496
  17 H :    0.130984
  18 H :    0.131312
  19 H :    0.113833
  20 H :    0.114459
  21 H :    0.112205
  22 H :    0.110820
  23 H :    0.108864
  24 H :    0.111592
Sum of atomic charges:   -0.0000000

LOEWDIN ATOMIC CHARGES
----------------------
   0 C :   -0.292897
   1 C :   -0.181291
   2 C :   -0.248673
   3 C :   -0.265513
   4 C :   -0.264023
   5 C :   -0.177308
   6 C :   -0.199007
   7 C :   -0.231808
   8 C :   -0.200786
   9 H :    0.123264
  10 H :    0.125837
  11 H :    0.125723
  12 H :    0.151174
  13 H :    0.126075
  14 H :    0.125131
  15 H :    0.128332
  16 H :    0.126289
  17 H :    0.127640
  18 H :    0.127155
  19 H :    0.134157
  20 H :    0.126891
  21 H :    0.122545
  22 H :    0.131113
  23 H :    0.126081
  24 H :    0.133901

  Mayer bond orders larger than 0.1
B(  0-C ,  1-C ) :   0.8897 B(  0-C ,  9-H ) :   0.9418 B(  0-C , 10-H ) :   0.9396
B(  0-C , 11-H ) :   0.9394 B(  1-C ,  2-C ) :   0.9227 B(  1-C ,  5-C ) :   0.8588
B(  1-C , 12-H ) :   0.9235 B(  2-C ,  3-C ) :   0.8812 B(  2-C ,  4-C ) :   0.8904
B(  2-C ,  5-C ) :   0.7992 B(  3-C , 13-H ) :   0.9411 B(  3-C , 14-H ) :   0.9401
B(  3-C , 15-H ) :   0.9346 B(  4-C , 16-H ) :   0.9376 B(  4-C , 17-H ) :   0.9383
B(  4-C , 18-H ) :   0.9381 B(  5-C ,  6-C ) :   0.9014 B(  5-C ,  8-C ) :   0.8941
B(  6-C ,  7-C ) :   0.9687 B(  6-C , 19-H ) :   0.9211 B(  6-C , 20-H ) :   0.9224
B(  7-C ,  8-C ) :   0.9704 B(  7-C , 21-H ) :   0.9285 B(  7-C , 22-H ) :   0.9216
B(  8-C , 23-H ) :   0.9227 B(  8-C , 24-H ) :   0.9228

MP2 TOTAL ENERGY:     -351.691274006 Eh
FINAL SINGLE POINT ENERGY      -351.691274005923

DIPOLE MOMENT
-------------
                                X             Y             Z
Electronic contribution:     -1.61101      -0.27811       1.28447
Nuclear contribution   :      1.60639       0.29273      -1.29732
                        -----------------------------------------
Total Dipole Moment    :     -0.00462       0.01461      -0.01285
                        -----------------------------------------
Magnitude (a.u.)       :      0.02000
Magnitude (Debye)      :      0.05084

                             ****ORCA TERMINATED NORMALLY****
TOTAL RUN TIME: 0 days 0 hours 23 minutes 39 seconds 150 msec
