                         Program Version 3.0.3 - RELEASE   -
|  1> ! RI-MP2 RIJK def2-TZVP def2-TZVP/C def2-TZVP/JK TIGHTSCF
|  2> % maxcore 2000
|  3> % mp2 density relaxed end
|  4> *xyz 0 1
|  5>  C       -0.0522576409     1.3822902761    -0.0524805842
|  6>  C       -0.1976525773    -0.0971051529     0.2562090255
|  7>  O        0.8338558091    -0.4686201368     1.1558072940
|  8>  C        0.7941475835    -1.8136926338     1.5089517398
|  9>  C        1.9218167903    -2.1326464014     2.4677199793
| 10>  O        2.7391512019    -1.3448305531     2.8721163823
| 11>  C        1.9998104814    -3.5893981435     2.9430832335
| 12>  O        1.2287865630    -4.4447120377     2.5940481275
| 13>  H        0.9215502040     1.5847739022    -0.5065355922
| 14>  H       -0.8346967480     1.7032333694    -0.7463474748
| 15>  H       -0.1332971440     1.9742987094     0.8631740163
| 16>  H       -1.1827012344    -0.3078745305     0.7048502711
| 17>  H       -0.1275134052    -0.6976164182    -0.6660193824
| 18>  H       -0.1566634143    -2.0999714456     1.9951456385
| 19>  H        0.8882529578    -2.4873312191     0.6373109074
| 20>  H        2.8434349331    -3.7679486844     3.6427708384
| 21> *
| 22>
| 23>                          ****END OF INPUT****

CARTESIAN COORDINATES (ANGSTROEM)
---------------------------------
  C     -0.052258    1.382290   -0.052481
  C     -0.197653   -0.097105    0.256209
  O      0.833856   -0.468620    1.155807
  C      0.794148   -1.813693    1.508952
  C      1.921817   -2.132646    2.467720
  O      2.739151   -1.344831    2.872116
  C      1.999810   -3.589398    2.943083
  O      1.228787   -4.444712    2.594048
  H      0.921550    1.584774   -0.506536
  H     -0.834697    1.703233   -0.746347
  H     -0.133297    1.974299    0.863174
  H     -1.182701   -0.307875    0.704850
  H     -0.127513   -0.697616   -0.666019
  H     -0.156663   -2.099971    1.995146
  H      0.888253   -2.487331    0.637311
  H      2.843435   -3.767949    3.642771

 Total Charge           Charge          ....    0
 Multiplicity           Mult            ....    1
 Number of Electrons    NEL             ....   62
 Basis Dimension        Dim             ....  296

ORBITAL ENERGIES
----------------

  NO   OCC          E(Eh)            E(eV)
   0   2.0000     -20.598909      -560.5248
   1   2.0000     -20.585526      -560.1606
   2   2.0000     -20.572319      -559.8013
   3   2.0000     -11.360209      -309.1270
   4   2.0000     -11.355358      -308.9950
   5   2.0000     -11.306259      -307.6589
   6   2.0000     -11.288069      -307.1640
   7   2.0000     -11.221576      -305.3546
   8   2.0000      -1.439613       -39.1739
   9   2.0000      -1.421968       -38.6937
  10   2.0000      -1.393586       -37.9214
  11   2.0000      -1.053485       -28.6668
  12   2.0000      -0.994850       -27.0712
  13   2.0000      -0.913690       -24.8628
  14   2.0000      -0.845837       -23.0164
  15   2.0000      -0.771393       -20.9907
  16   2.0000      -0.712217       -19.3804
  17   2.0000      -0.697675       -18.9847
  18   2.0000      -0.696044       -18.9403
  19   2.0000      -0.666649       -18.1404
  20   2.0000      -0.648336       -17.6421
  21   2.0000      -0.621637       -16.9156
  22   2.0000      -0.572897       -15.5893
  23   2.0000      -0.559436       -15.2230
  24   2.0000      -0.542379       -14.7589
  25   2.0000      -0.528553       -14.3827
  26   2.0000      -0.516411       -14.0523
  27   2.0000      -0.508475       -13.8363
  28   2.0000      -0.495350       -13.4792
  29   2.0000      -0.440254       -11.9799
  30   2.0000      -0.422275       -11.4907
  31   0.0000       0.053392         1.4529
  32   0.0000       0.128700         3.5021
  33   0.0000       0.153669         4.1816
  34   0.0000       0.176480         4.8023
  35   0.0000       0.183455         4.9921

MULLIKEN ATOMIC CHARGES
-----------------------
   0 C :   -0.357752
   1 C :   -0.054149
   2 O :   -0.265745
   3 C :   -0.082484
   4 C :    0.214525
   5 O :   -0.240181
   6 C :    0.077064
   7 O :   -0.244346
   8 H :    0.133509
   9 H :    0.123538
  10 H :    0.133487
  11 H :    0.095846
  12 H :    0.095869
  13 H :    0.126390
  14 H :    0.126380
  15 H :    0.118050
Sum of atomic charges:   -0.0000000

LOEWDIN ATOMIC CHARGES
----------------------
   0 C :   -0.313530
   1 C :   -0.345640
   2 O :    0.179867
   3 C :   -0.317148
   4 C :   -0.326939
   5 O :    0.198139
   6 C :   -0.253676
   7 O :    0.160635
   8 H :    0.126006
   9 H :    0.125449
  10 H :    0.125996
  11 H :    0.117686
  12 H :    0.117688
  13 H :    0.141721
  14 H :    0.141721
  15 H :    0.122023

  Mayer bond orders larger than 0.1
B(  0-C ,  1-C ) :   0.9565 B(  0-C ,  8-H ) :   0.9357 B(  0-C ,  9-H ) :   0.9312
B(  0-C , 10-H ) :   0.9357 B(  1-C ,  2-O ) :   0.9051 B(  1-C , 11-H ) :   0.9246
B(  1-C , 12-H ) :   0.9246 B(  2-O ,  3-C ) :   0.9921 B(  3-C ,  4-C ) :   0.9132
B(  3-C , 13-H ) :   0.8988 B(  3-C , 14-H ) :   0.8988 B(  4-C ,  5-O ) :   1.9695
B(  4-C ,  6-C ) :   0.8537 B(  6-C ,  7-O ) :   1.9633 B(  6-C , 15-H ) :   0.9266

MP2 TOTAL ENERGY:     -420.204820360 Eh
FINAL SINGLE POINT ENERGY      -420.204820359592

DIPOLE MOMENT
-------------
                                X             Y             Z
Electronic contribution:      5.91003      -7.76222       6.75961
Nuclear contribution   :     -6.47579       7.72236      -7.18378
                        -----------------------------------------
Total Dipole Moment    :     -0.56577      -0.03986      -0.42417
                        -----------------------------------------
Magnitude (a.u.)       :      0.70824
Magnitude (Debye)      :      1.80019

                             ****ORCA TERMINATED NORMALLY****
TOTAL RUN TIME: 0 days 0 hours 8 minutes 36 seconds 838 msec
