                         Program Version 3.0.3 - RELEASE   -
|  1> ! RI-MP2 RIJK def2-TZVP def2-TZVP/C def2-TZVP/JK TIGHTSCF
|  2> % maxcore 2000
|  3> % mp2 density relaxed end
|  4> *xyz 0 1
|  5>  C       -0.0416439349     1.5254206177     0.2536969198
|  6>  C        0.1488100507     0.0463554480     0.0859681408
|  7>  C       -0.6891654925    -0.9586709076     0.8011491518
|  8>  C        0.7971682361    -0.8945555765     1.1447653166
|  9>  C        1.7240948754    -1.7938498780     0.3475756497
| 10>  C        1.2535511785    -1.5882871861    -1.1097859287
| 11>  O        0.6707487655    -0.2882416853    -1.1683213422
| 12>  C        1.2104137986    -0.3478825575     2.4474519704
| 13>  O        0.4806870199     0.2397795640     3.2163201253
| 14>  H        0.8714322392     2.0621703568    -0.0196113304
| 15>  H       -0.8502405667     1.8752225360    -0.3961134339
| 16>  H       -0.2991488410     1.7596339510     1.2882832881
| 17>  H       -1.3412279603    -0.5795383909     1.5807678194
| 18>  H       -1.0515597730    -1.8363595623     0.2767327192
| 19>  H        2.7607029189    -1.4632880348     0.4803932578
| 20>  H        1.6698667713    -2.8479554299     0.6363730127
| 21>  H        2.0635783002    -1.6218686237    -1.8424905363
| 22>  H        0.5139849399    -2.3507541651    -1.3887648838
| 23>  H        2.2896944742    -0.4877592459     2.6844376137
| 24> *
| 25>
| 26>                          ****END OF INPUT****

CARTESIAN COORDINATES (ANGSTROEM)
---------------------------------
  C     -0.041644    1.525421    0.253697
  C      0.148810    0.046355    0.085968
  C     -0.689165   -0.958671    0.801149
  C      0.797168   -0.894556    1.144765
  C      1.724095   -1.793850    0.347576
  C      1.253551   -1.588287   -1.109786
  O      0.670749   -0.288242   -1.168321
  C      1.210414   -0.347883    2.447452
  O      0.480687    0.239780    3.216320
  H      0.871432    2.062170   -0.019611
  H     -0.850241    1.875223   -0.396113
  H     -0.299149    1.759634    1.288283
  H     -1.341228   -0.579538    1.580768
  H     -1.051560   -1.836360    0.276733
  H      2.760703   -1.463288    0.480393
  H      1.669867   -2.847955    0.636373
  H      2.063578   -1.621869   -1.842491
  H      0.513985   -2.350754   -1.388765
  H      2.289694   -0.487759    2.684438

 Total Charge           Charge          ....    0
 Multiplicity           Mult            ....    1
 Number of Electrons    NEL             ....   68
 Basis Dimension        Dim             ....  339

ORBITAL ENERGIES
----------------

  NO   OCC          E(Eh)            E(eV)
   0   2.0000     -20.570374      -559.7483
   1   2.0000     -20.549853      -559.1899
   2   2.0000     -11.332726      -308.3791
   3   2.0000     -11.309479      -307.7466
   4   2.0000     -11.289610      -307.2059
   5   2.0000     -11.248525      -306.0879
   6   2.0000     -11.246707      -306.0385
   7   2.0000     -11.239756      -305.8493
   8   2.0000     -11.221049      -305.3403
   9   2.0000      -1.404402       -38.2157
  10   2.0000      -1.388232       -37.7757
  11   2.0000      -1.155503       -31.4428
  12   2.0000      -1.053999       -28.6808
  13   2.0000      -0.964006       -26.2319
  14   2.0000      -0.925369       -25.1806
  15   2.0000      -0.864256       -23.5176
  16   2.0000      -0.781501       -21.2657
  17   2.0000      -0.745119       -20.2757
  18   2.0000      -0.700287       -19.0558
  19   2.0000      -0.677972       -18.4486
  20   2.0000      -0.647439       -17.6177
  21   2.0000      -0.641810       -17.4645
  22   2.0000      -0.607950       -16.5432
  23   2.0000      -0.587869       -15.9967
  24   2.0000      -0.573110       -15.5951
  25   2.0000      -0.555416       -15.1136
  26   2.0000      -0.546463       -14.8700
  27   2.0000      -0.533487       -14.5169
  28   2.0000      -0.524701       -14.2778
  29   2.0000      -0.495013       -13.4700
  30   2.0000      -0.477738       -12.9999
  31   2.0000      -0.439661       -11.9638
  32   2.0000      -0.413261       -11.2454
  33   2.0000      -0.372532       -10.1371
  34   0.0000       0.118825         3.2334
  35   0.0000       0.133710         3.6384
  36   0.0000       0.159182         4.3316
  37   0.0000       0.162583         4.4241
  38   0.0000       0.180908         4.9228

MULLIKEN ATOMIC CHARGES
-----------------------
   0 C :   -0.438202
   1 C :    0.204239
   2 C :   -0.277605
   3 C :    0.034842
   4 C :   -0.246548
   5 C :   -0.053433
   6 O :   -0.296599
   7 C :    0.072944
   8 O :   -0.301289
   9 H :    0.136289
  10 H :    0.143875
  11 H :    0.162407
  12 H :    0.152782
  13 H :    0.142691
  14 H :    0.122190
  15 H :    0.131053
  16 H :    0.126760
  17 H :    0.104087
  18 H :    0.079519
Sum of atomic charges:   -0.0000000

LOEWDIN ATOMIC CHARGES
----------------------
   0 C :   -0.257492
   1 C :   -0.299912
   2 C :   -0.148462
   3 C :   -0.214169
   4 C :   -0.213419
   5 C :   -0.282637
   6 O :    0.215672
   7 C :   -0.271422
   8 O :    0.116966
   9 H :    0.132533
  10 H :    0.134393
  11 H :    0.140219
  12 H :    0.151849
  13 H :    0.142060
  14 H :    0.144393
  15 H :    0.142896
  16 H :    0.128344
  17 H :    0.120703
  18 H :    0.117485

  Mayer bond orders larger than 0.1
B(  0-C ,  1-C ) :   0.9007 B(  0-C ,  9-H ) :   0.9349 B(  0-C , 10-H ) :   0.9335
B(  0-C , 11-H ) :   0.9293 B(  1-C ,  2-C ) :   0.9085 B(  1-C ,  3-C ) :   0.7611
B(  1-C ,  6-O ) :   1.0006 B(  2-C ,  3-C ) :   0.8341 B(  2-C , 12-H ) :   0.9022
B(  2-C , 13-H ) :   0.9079 B(  3-C ,  4-C ) :   0.9147 B(  3-C ,  7-C ) :   0.8990
B(  4-C ,  5-C ) :   0.9537 B(  4-C , 14-H ) :   0.9170 B(  4-C , 15-H ) :   0.9229
B(  5-C ,  6-O ) :   0.9186 B(  5-C , 16-H ) :   0.9235 B(  5-C , 17-H ) :   0.9326
B(  7-C ,  8-O ) :   1.9361 B(  7-C , 18-H ) :   0.9599

MP2 TOTAL ENERGY:     -422.327172688 Eh
FINAL SINGLE POINT ENERGY      -422.327172688240

DIPOLE MOMENT
-------------
                                X             Y             Z
Electronic contribution:     -0.01231       0.34987       2.53692
Nuclear contribution   :      0.41630      -1.08663      -3.12427
                        -----------------------------------------
Total Dipole Moment    :      0.40400      -0.73676      -0.58735
                        -----------------------------------------
Magnitude (a.u.)       :      1.02518
Magnitude (Debye)      :      2.60581

                             ****ORCA TERMINATED NORMALLY****
TOTAL RUN TIME: 0 days 0 hours 20 minutes 3 seconds 264 msec
