                         Program Version 3.0.3 - RELEASE   -
|  1> ! RI-MP2 RIJK def2-TZVP def2-TZVP/C def2-TZVP/JK TIGHTSCF
|  2> % maxcore 2000
|  3> % mp2 density relaxed end
|  4> *xyz 0 1
|  5>  N       -0.0441939030     1.2439182346     0.1008812765
|  6>  C        0.0818759924    -0.0807628665     0.1280764448
|  7>  N       -0.9698393054    -0.9429262449     0.1217241321
|  8>  H       -1.9178336585    -0.7257736333    -0.1566949960
|  9>  C       -0.3079724087    -2.2408149858    -0.1488510769
| 10>  C        0.8350557485    -2.1145490938     0.8741437665
| 11>  O        1.7652874735    -3.1578819701     0.8148524543
| 12>  C        1.3339102075    -0.8309568885     0.0738458976
| 13>  C        0.7805194006    -1.7067267635    -1.1771332347
| 14>  O        1.0694810404    -1.8869756330    -2.3094688498
| 15>  H        0.8108685343     1.7756012472     0.1049050262
| 16>  H       -0.9192136037     1.7198496017    -0.0512810562
| 17>  H       -1.0076946657    -3.0750489137    -0.2531835379
| 18>  H        0.4869208175    -1.9218886995     1.8988657273
| 19>  H        2.6201387902    -2.7332316509     0.6659739461
| 20> *
| 21>
| 22>                          ****END OF INPUT****

CARTESIAN COORDINATES (ANGSTROEM)
---------------------------------
  N     -0.044194    1.243918    0.100881
  C      0.081876   -0.080763    0.128076
  N     -0.969839   -0.942926    0.121724
  H     -1.917834   -0.725774   -0.156695
  C     -0.307972   -2.240815   -0.148851
  C      0.835056   -2.114549    0.874144
  O      1.765287   -3.157882    0.814852
  C      1.333910   -0.830957    0.073846
  C      0.780519   -1.706727   -1.177133
  O      1.069481   -1.886976   -2.309469
  H      0.810869    1.775601    0.104905
  H     -0.919214    1.719850   -0.051281
  H     -1.007695   -3.075049   -0.253184
  H      0.486921   -1.921889    1.898866
  H      2.620139   -2.733232    0.665974

 Total Charge           Charge          ....    0
 Multiplicity           Mult            ....    1
 Number of Electrons    NEL             ....   66
 Basis Dimension        Dim             ....  315

ORBITAL ENERGIES
----------------

  NO   OCC          E(Eh)            E(eV)
   0   2.0000     -20.553317      -559.2842
   1   2.0000     -20.552047      -559.2496
   2   2.0000     -15.633537      -425.4102
   3   2.0000     -15.627543      -425.2471
   4   2.0000     -11.380901      -309.6901
   5   2.0000     -11.337773      -308.5165
   6   2.0000     -11.289792      -307.2109
   7   2.0000     -11.287291      -307.1428
   8   2.0000     -11.188730      -304.4608
   9   2.0000      -1.405138       -38.2357
  10   2.0000      -1.370328       -37.2885
  11   2.0000      -1.344733       -36.5920
  12   2.0000      -1.253472       -34.1087
  13   2.0000      -1.079519       -29.3752
  14   2.0000      -0.969820       -26.3902
  15   2.0000      -0.850552       -23.1447
  16   2.0000      -0.815158       -22.1816
  17   2.0000      -0.791745       -21.5445
  18   2.0000      -0.775212       -21.0946
  19   2.0000      -0.709379       -19.3032
  20   2.0000      -0.671703       -18.2780
  21   2.0000      -0.665775       -18.1167
  22   2.0000      -0.627811       -17.0836
  23   2.0000      -0.613637       -16.6979
  24   2.0000      -0.598123       -16.2758
  25   2.0000      -0.577273       -15.7084
  26   2.0000      -0.539697       -14.6859
  27   2.0000      -0.522269       -14.2117
  28   2.0000      -0.467753       -12.7282
  29   2.0000      -0.453844       -12.3497
  30   2.0000      -0.428321       -11.6552
  31   2.0000      -0.375749       -10.2246
  32   2.0000      -0.304421        -8.2837
  33   0.0000       0.092290         2.5113
  34   0.0000       0.123107         3.3499
  35   0.0000       0.135921         3.6986
  36   0.0000       0.163038         4.4365
  37   0.0000       0.170984         4.6527

MULLIKEN ATOMIC CHARGES
-----------------------
   0 N :   -0.432023
   1 C :    0.170259
   2 N :   -0.299233
   3 H :    0.245155
   4 C :    0.057832
   5 C :    0.009434
   6 O :   -0.473622
   7 C :   -0.227143
   8 C :    0.015888
   9 O :   -0.201746
  10 H :    0.294126
  11 H :    0.256893
  12 H :    0.153492
  13 H :    0.096088
  14 H :    0.334601
Sum of atomic charges:    0.0000000

LOEWDIN ATOMIC CHARGES
----------------------
   0 N :    0.048614
   1 C :   -0.314582
   2 N :    0.170601
   3 H :    0.184201
   4 C :   -0.198740
   5 C :   -0.331658
   6 O :    0.002401
   7 C :   -0.297153
   8 C :   -0.277633
   9 O :    0.195809
  10 H :    0.193870
  11 H :    0.174979
  12 H :    0.132909
  13 H :    0.130083
  14 H :    0.186299

  Mayer bond orders larger than 0.1
B(  0-N ,  1-C ) :   1.2434 B(  0-N , 10-H ) :   0.8415 B(  0-N , 11-H ) :   0.8589
B(  1-C ,  2-N ) :   1.2525 B(  1-C ,  7-C ) :   1.1857 B(  2-N ,  3-H ) :   0.8413
B(  2-N ,  4-C ) :   0.8820 B(  4-C ,  5-C ) :   0.8666 B(  4-C ,  6-O ) :  -0.1498
B(  4-C ,  8-C ) :   0.7382 B(  4-C , 12-H ) :   0.8673 B(  5-C ,  6-O ) :   1.0574
B(  5-C ,  7-C ) :   0.9351 B(  5-C , 13-H ) :   0.9573 B(  6-O ,  8-C ) :   0.1424
B(  6-O , 14-H ) :   0.8201 B(  7-C ,  8-C ) :   0.8023 B(  8-C ,  9-O ) :   2.0711

MP2 TOTAL ENERGY:     -453.129426504 Eh
FINAL SINGLE POINT ENERGY      -453.129426503903

DIPOLE MOMENT
-------------
                                X             Y             Z
Electronic contribution:      0.65523      -1.02906      -2.57657
Nuclear contribution   :     -2.76924       2.70266       3.02086
                        -----------------------------------------
Total Dipole Moment    :     -2.11401       1.67360       0.44430
                        -----------------------------------------
Magnitude (a.u.)       :      2.73265
Magnitude (Debye)      :      6.94584

                             ****ORCA TERMINATED NORMALLY****
TOTAL RUN TIME: 0 days 0 hours 16 minutes 30 seconds 408 msec
