                         Program Version 3.0.3 - RELEASE   -
|  1> ! RI-MP2 RIJK def2-TZVP def2-TZVP/C def2-TZVP/JK TIGHTSCF
|  2> % maxcore 2000
|  3> % mp2 density relaxed end
|  4> *xyz 0 1
|  5>  C       -0.2080431420     1.4179002847    -0.0147161127
|  6>  N       -0.0322447478    -0.0354661355    -0.0047925644
|  7>  C        0.0159582630    -0.6598080846    -1.2401133265
|  8>  N       -0.0856301025    -0.0145498943    -2.3232701240
|  9>  O        0.1811535976    -2.0332858065    -1.2408317604
| 10>  C        0.2902006989    -2.7187484306    -0.0801315425
| 11>  C        0.2481945963    -2.1439352518     1.1217951779
| 12>  C        0.0760432449    -0.6969522477     1.2319725280
| 13>  O        0.0271498431    -0.0947001245     2.2849767445
| 14>  H        0.6155107833     1.8880161164    -0.5563676676
| 15>  H       -1.1397393171     1.6755692436    -0.5227019166
| 16>  H       -0.2273740487     1.7444567656     1.0224031701
| 17>  H       -0.0274464544    -0.6448678072    -3.1194753960
| 18>  H        0.4138809541    -3.7790753619    -0.2642371192
| 19>  H        0.3379444513    -2.7159750957     2.0333471695
| 20> *
| 21>
| 22>                          ****END OF INPUT****

CARTESIAN COORDINATES (ANGSTROEM)
---------------------------------
  C     -0.208043    1.417900   -0.014716
  N     -0.032245   -0.035466   -0.004793
  C      0.015958   -0.659808   -1.240113
  N     -0.085630   -0.014550   -2.323270
  O      0.181154   -2.033286   -1.240832
  C      0.290201   -2.718748   -0.080132
  C      0.248195   -2.143935    1.121795
  C      0.076043   -0.696952    1.231973
  O      0.027150   -0.094700    2.284977
  H      0.615511    1.888016   -0.556368
  H     -1.139739    1.675569   -0.522702
  H     -0.227374    1.744457    1.022403
  H     -0.027446   -0.644868   -3.119475
  H      0.413881   -3.779075   -0.264237
  H      0.337944   -2.715975    2.033347

 Total Charge           Charge          ....    0
 Multiplicity           Mult            ....    1
 Number of Electrons    NEL             ....   66
 Basis Dimension        Dim             ....  315

ORBITAL ENERGIES
----------------

  NO   OCC          E(Eh)            E(eV)
   0   2.0000     -20.653296      -562.0047
   1   2.0000     -20.541577      -558.9647
   2   2.0000     -15.624899      -425.1751
   3   2.0000     -15.542368      -422.9293
   4   2.0000     -11.401333      -310.2460
   5   2.0000     -11.379119      -309.6416
   6   2.0000     -11.353624      -308.9478
   7   2.0000     -11.259779      -306.3942
   8   2.0000     -11.257839      -306.3414
   9   2.0000      -1.496811       -40.7303
  10   2.0000      -1.406752       -38.2797
  11   2.0000      -1.292751       -35.1775
  12   2.0000      -1.204013       -32.7629
  13   2.0000      -1.091379       -29.6979
  14   2.0000      -0.987339       -26.8669
  15   2.0000      -0.899627       -24.4801
  16   2.0000      -0.889594       -24.2071
  17   2.0000      -0.779847       -21.2207
  18   2.0000      -0.742885       -20.2149
  19   2.0000      -0.697187       -18.9714
  20   2.0000      -0.692442       -18.8423
  21   2.0000      -0.667688       -18.1687
  22   2.0000      -0.645572       -17.5669
  23   2.0000      -0.625164       -17.0116
  24   2.0000      -0.608863       -16.5680
  25   2.0000      -0.580179       -15.7875
  26   2.0000      -0.559126       -15.2146
  27   2.0000      -0.549709       -14.9583
  28   2.0000      -0.491577       -13.3765
  29   2.0000      -0.465802       -12.6751
  30   2.0000      -0.452621       -12.3164
  31   2.0000      -0.406347       -11.0573
  32   2.0000      -0.371421       -10.1069
  33   0.0000       0.090155         2.4532
  34   0.0000       0.144279         3.9260
  35   0.0000       0.150486         4.0949
  36   0.0000       0.168626         4.5885
  37   0.0000       0.177260         4.8235

MULLIKEN ATOMIC CHARGES
-----------------------
   0 C :   -0.296423
   1 N :   -0.075000
   2 C :    0.259111
   3 N :   -0.426197
   4 O :   -0.224114
   5 C :    0.052708
   6 C :   -0.241920
   7 C :    0.257986
   8 O :   -0.342702
   9 H :    0.150653
  10 H :    0.150874
  11 H :    0.182283
  12 H :    0.231664
  13 H :    0.158068
  14 H :    0.163010
Sum of atomic charges:    0.0000000

LOEWDIN ATOMIC CHARGES
----------------------
   0 C :   -0.258575
   1 N :    0.222303
   2 C :   -0.425234
   3 N :   -0.070015
   4 O :    0.309741
   5 C :   -0.208178
   6 C :   -0.154972
   7 C :   -0.399276
   8 O :    0.113759
   9 H :    0.126945
  10 H :    0.126995
  11 H :    0.133623
  12 H :    0.172588
  13 H :    0.146587
  14 H :    0.163710

  Mayer bond orders larger than 0.1
B(  0-C ,  1-N ) :   0.8401 B(  0-C ,  9-H ) :   0.9301 B(  0-C , 10-H ) :   0.9300
B(  0-C , 11-H ) :   0.9140 B(  1-N ,  2-C ) :   1.0847 B(  1-N ,  7-C ) :   1.0510
B(  2-C ,  3-N ) :   1.9248 B(  2-C ,  4-O ) :   0.9887 B(  3-N , 12-H ) :   0.8521
B(  4-O ,  5-C ) :   1.0346 B(  5-C ,  6-C ) :   1.6418 B(  5-C , 13-H ) :   0.9307
B(  6-C ,  7-C ) :   1.0334 B(  6-C , 14-H ) :   0.9109 B(  7-C ,  8-O ) :   1.9111

MP2 TOTAL ENERGY:     -453.255980430 Eh
FINAL SINGLE POINT ENERGY      -453.255980430042

DIPOLE MOMENT
-------------
                                X             Y             Z
Electronic contribution:      0.43646      -3.49075       0.66228
Nuclear contribution   :     -0.32553       2.48739      -1.08881
                        -----------------------------------------
Total Dipole Moment    :      0.11093      -1.00337      -0.42652
                        -----------------------------------------
Magnitude (a.u.)       :      1.09589
Magnitude (Debye)      :      2.78553

                             ****ORCA TERMINATED NORMALLY****
TOTAL RUN TIME: 0 days 0 hours 15 minutes 37 seconds 911 msec
