                         Program Version 3.0.3 - RELEASE   -
|  1> ! RI-MP2 RIJK def2-TZVP def2-TZVP/C def2-TZVP/JK TIGHTSCF
|  2> % maxcore 2000
|  3> % mp2 density relaxed end
|  4> *xyz 0 1
|  5>  C       -0.3481670229     1.4977439707    -0.1296373134
|  6>  C        0.1445011229     0.0650902581    -0.0861374879
|  7>  O        1.4376046332    -0.0955595974    -0.7189116409
|  8>  C        1.9520342484    -0.8331283349     0.4050869089
|  9>  C        0.6774566414    -0.5613290545     1.2366372742
| 10>  C        0.8441894282     0.3458179894     2.4512447495
| 11>  C        1.5176359989    -0.3909342659     3.6292339421
| 12>  C        1.7017001002     0.4571157100     4.8001956219
| 13>  C        1.8410121761     1.1786613044     5.7513768103
| 14>  H        0.3554727431     2.1822976039     0.3504741104
| 15>  H       -0.4674920290     1.8107835084    -1.1717048940
| 16>  H       -1.3217688706     1.5885885655     0.3640781484
| 17>  H       -0.5953238827    -0.5883922192    -0.5722648372
| 18>  H        2.1355549424    -1.8870136602     0.1573978592
| 19>  H        2.8823758318    -0.3946916346     0.7899911746
| 20>  H        0.1368323863    -1.4671910344     1.5279663338
| 21>  H        1.4468654210     1.2235976081     2.1940872994
| 22>  H       -0.1312970823     0.7207667868     2.7810483610
| 23>  H        0.9146326172    -1.2670537997     3.9026464107
| 24>  H        2.4917322381    -0.7831798706     3.3080041885
| 25>  H        1.9698928484     1.8060778762     6.5980411003
| 26> *
| 27>
| 28>                          ****END OF INPUT****

CARTESIAN COORDINATES (ANGSTROEM)
---------------------------------
  C     -0.348167    1.497744   -0.129637
  C      0.144501    0.065090   -0.086137
  O      1.437605   -0.095560   -0.718912
  C      1.952034   -0.833128    0.405087
  C      0.677457   -0.561329    1.236637
  C      0.844189    0.345818    2.451245
  C      1.517636   -0.390934    3.629234
  C      1.701700    0.457116    4.800196
  C      1.841012    1.178661    5.751377
  H      0.355473    2.182298    0.350474
  H     -0.467492    1.810784   -1.171705
  H     -1.321769    1.588589    0.364078
  H     -0.595324   -0.588392   -0.572265
  H      2.135555   -1.887014    0.157398
  H      2.882376   -0.394692    0.789991
  H      0.136832   -1.467191    1.527966
  H      1.446865    1.223598    2.194087
  H     -0.131297    0.720767    2.781048
  H      0.914633   -1.267054    3.902646
  H      2.491732   -0.783180    3.308004
  H      1.969893    1.806078    6.598041

 Total Charge           Charge          ....    0
 Multiplicity           Mult            ....    1
 Number of Electrons    NEL             ....   68
 Basis Dimension        Dim             ....  351

ORBITAL ENERGIES
----------------

  NO   OCC          E(Eh)            E(eV)
   0   2.0000     -20.544709      -559.0499
   1   2.0000     -11.284116      -307.0564
   2   2.0000     -11.277784      -306.8841
   3   2.0000     -11.258038      -306.3468
   4   2.0000     -11.238473      -305.8144
   5   2.0000     -11.237717      -305.7938
   6   2.0000     -11.235156      -305.7241
   7   2.0000     -11.221500      -305.3525
   8   2.0000     -11.217840      -305.2529
   9   2.0000      -1.376542       -37.4576
  10   2.0000      -1.102244       -29.9936
  11   2.0000      -1.041738       -28.3471
  12   2.0000      -1.009216       -27.4622
  13   2.0000      -0.968032       -26.3415
  14   2.0000      -0.884482       -24.0680
  15   2.0000      -0.861120       -23.4323
  16   2.0000      -0.736770       -20.0485
  17   2.0000      -0.721526       -19.6337
  18   2.0000      -0.695664       -18.9300
  19   2.0000      -0.660298       -17.9676
  20   2.0000      -0.634232       -17.2583
  21   2.0000      -0.617822       -16.8118
  22   2.0000      -0.613828       -16.7031
  23   2.0000      -0.581760       -15.8305
  24   2.0000      -0.545973       -14.8567
  25   2.0000      -0.537520       -14.6267
  26   2.0000      -0.530183       -14.4270
  27   2.0000      -0.525505       -14.2997
  28   2.0000      -0.500731       -13.6256
  29   2.0000      -0.449829       -12.2405
  30   2.0000      -0.444680       -12.1004
  31   2.0000      -0.411894       -11.2082
  32   2.0000      -0.387457       -10.5432
  33   2.0000      -0.384951       -10.4750
  34   0.0000       0.129206         3.5159
  35   0.0000       0.147967         4.0264
  36   0.0000       0.156281         4.2526
  37   0.0000       0.165945         4.5156
  38   0.0000       0.170347         4.6354

MULLIKEN ATOMIC CHARGES
-----------------------
   0 C :   -0.383917
   1 C :    0.086929
   2 O :   -0.327013
   3 C :   -0.041036
   4 C :   -0.056907
   5 C :   -0.280354
   6 C :   -0.387694
   7 C :   -0.008734
   8 C :   -0.118434
   9 H :    0.125445
  10 H :    0.145454
  11 H :    0.126252
  12 H :    0.076635
  13 H :    0.094798
  14 H :    0.095147
  15 H :    0.112240
  16 H :    0.136581
  17 H :    0.126459
  18 H :    0.142070
  19 H :    0.145696
  20 H :    0.190386
Sum of atomic charges:    0.0000000

LOEWDIN ATOMIC CHARGES
----------------------
   0 C :   -0.296386
   1 C :   -0.284769
   2 O :    0.131268
   3 C :   -0.257980
   4 C :   -0.222575
   5 C :   -0.233097
   6 C :   -0.245765
   7 C :   -0.112841
   8 C :   -0.107492
   9 H :    0.124864
  10 H :    0.131010
  11 H :    0.127928
  12 H :    0.134131
  13 H :    0.115986
  14 H :    0.117787
  15 H :    0.146024
  16 H :    0.146530
  17 H :    0.145434
  18 H :    0.156757
  19 H :    0.157103
  20 H :    0.126084

  Mayer bond orders larger than 0.1
B(  0-C ,  1-C ) :   0.9074 B(  0-C ,  9-H ) :   0.9343 B(  0-C , 10-H ) :   0.9333
B(  0-C , 11-H ) :   0.9297 B(  1-C ,  2-O ) :   0.9692 B(  1-C ,  4-C ) :   0.9357
B(  1-C , 12-H ) :   0.9254 B(  2-O ,  3-C ) :   0.9583 B(  3-C ,  4-C ) :   0.9463
B(  3-C , 13-H ) :   0.9134 B(  3-C , 14-H ) :   0.9057 B(  4-C ,  5-C ) :   0.9028
B(  4-C , 15-H ) :   0.9184 B(  5-C ,  6-C ) :   0.9237 B(  5-C , 16-H ) :   0.9339
B(  5-C , 17-H ) :   0.9246 B(  6-C ,  7-C ) :   1.1266 B(  6-C ,  8-C ) :  -0.1238
B(  6-C , 18-H ) :   0.9184 B(  6-C , 19-H ) :   0.9290 B(  7-C ,  8-C ) :   2.6130
B(  8-C , 20-H ) :   0.8945

MP2 TOTAL ENERGY:     -386.354530737 Eh
FINAL SINGLE POINT ENERGY      -386.354530736796

DIPOLE MOMENT
-------------
                                X             Y             Z
Electronic contribution:      2.44779      -0.94720       1.92892
Nuclear contribution   :     -2.83716       0.71257      -1.52747
                        -----------------------------------------
Total Dipole Moment    :     -0.38937      -0.23463       0.40145
                        -----------------------------------------
Magnitude (a.u.)       :      0.60648
Magnitude (Debye)      :      1.54155

                             ****ORCA TERMINATED NORMALLY****
TOTAL RUN TIME: 0 days 0 hours 17 minutes 0 seconds 381 msec
