                         Program Version 3.0.3 - RELEASE   -
|  1> ! RI-MP2 RIJK def2-TZVP def2-TZVP/C def2-TZVP/JK TIGHTSCF
|  2> % maxcore 2000
|  3> % mp2 density relaxed end
|  4> *xyz 0 1
|  5>  O       -0.8755134823     1.4614806056     0.1587877155
|  6>  C       -0.3595124826     0.1948735144    -0.0694794498
|  7>  C       -0.3102455477    -0.6825324515     1.1614988823
|  8>  O       -0.8429347111    -0.1334544410     2.3164752191
|  9>  C       -1.2568481683    -1.0281917631     0.0250635131
| 10>  O       -2.6443073338    -0.9836636419     0.3165112412
| 11>  C       -3.4887662330    -0.2092146016    -0.3628151318
| 12>  N       -3.1625969908     0.7496360644    -1.1284825199
| 13>  H       -1.6644851575     1.5284589773    -0.4220951625
| 14>  H        0.4425227846     0.1375049621    -0.8049865956
| 15>  H        0.5376784410    -1.3357270558     1.3444056380
| 16>  H       -1.0656439620     0.7824232773     2.0849412544
| 17>  H       -1.0205430030    -1.8718001774    -0.6176401970
| 18>  H       -4.5119066691    -0.5213603690    -0.1363871439
| 19>  H       -3.9863135044     1.1956190401    -1.5224755431
| 20> *
| 21>
| 22>                          ****END OF INPUT****

CARTESIAN COORDINATES (ANGSTROEM)
---------------------------------
  O     -0.875513    1.461481    0.158788
  C     -0.359512    0.194874   -0.069479
  C     -0.310246   -0.682532    1.161499
  O     -0.842935   -0.133454    2.316475
  C     -1.256848   -1.028192    0.025064
  O     -2.644307   -0.983664    0.316511
  C     -3.488766   -0.209215   -0.362815
  N     -3.162597    0.749636   -1.128483
  H     -1.664485    1.528459   -0.422095
  H      0.442523    0.137505   -0.804987
  H      0.537678   -1.335727    1.344406
  H     -1.065644    0.782423    2.084941
  H     -1.020543   -1.871800   -0.617640
  H     -4.511907   -0.521360   -0.136387
  H     -3.986314    1.195619   -1.522476

 Total Charge           Charge          ....    0
 Multiplicity           Mult            ....    1
 Number of Electrons    NEL             ....   62
 Basis Dimension        Dim             ....  290

ORBITAL ENERGIES
----------------

  NO   OCC          E(Eh)            E(eV)
   0   2.0000     -20.615937      -560.9882
   1   2.0000     -20.558165      -559.4161
   2   2.0000     -20.554270      -559.3101
   3   2.0000     -15.564067      -423.5198
   4   2.0000     -11.366106      -309.2875
   5   2.0000     -11.298119      -307.4374
   6   2.0000     -11.291007      -307.2439
   7   2.0000     -11.286198      -307.1130
   8   2.0000      -1.453645       -39.5557
   9   2.0000      -1.387864       -37.7657
  10   2.0000      -1.353085       -36.8193
  11   2.0000      -1.221582       -33.2409
  12   2.0000      -1.114406       -30.3245
  13   2.0000      -0.917561       -24.9681
  14   2.0000      -0.824523       -22.4364
  15   2.0000      -0.780760       -21.2456
  16   2.0000      -0.751129       -20.4393
  17   2.0000      -0.733506       -19.9597
  18   2.0000      -0.716835       -19.5061
  19   2.0000      -0.674651       -18.3582
  20   2.0000      -0.647650       -17.6235
  21   2.0000      -0.605427       -16.4745
  22   2.0000      -0.586346       -15.9553
  23   2.0000      -0.577048       -15.7023
  24   2.0000      -0.564026       -15.3479
  25   2.0000      -0.533109       -14.5066
  26   2.0000      -0.491674       -13.3791
  27   2.0000      -0.468288       -12.7428
  28   2.0000      -0.444848       -12.1049
  29   2.0000      -0.403757       -10.9868
  30   2.0000      -0.385468       -10.4891
  31   0.0000       0.134384         3.6568
  32   0.0000       0.142196         3.8693
  33   0.0000       0.160630         4.3710
  34   0.0000       0.173213         4.7134
  35   0.0000       0.189517         5.1570

MULLIKEN ATOMIC CHARGES
-----------------------
   0 O :   -0.508692
   1 C :    0.036316
   2 C :    0.087992
   3 O :   -0.473890
   4 C :   -0.028671
   5 O :   -0.220223
   6 C :    0.142541
   7 N :   -0.467349
   8 H :    0.364455
   9 H :    0.115258
  10 H :    0.124791
  11 H :    0.341935
  12 H :    0.119682
  13 H :    0.129330
  14 H :    0.236523
Sum of atomic charges:    0.0000000

LOEWDIN ATOMIC CHARGES
----------------------
   0 O :   -0.004174
   1 C :   -0.324868
   2 C :   -0.307448
   3 O :    0.011248
   4 C :   -0.250846
   5 O :    0.288242
   6 C :   -0.378701
   7 N :   -0.100261
   8 H :    0.170706
   9 H :    0.134289
  10 H :    0.135867
  11 H :    0.187377
  12 H :    0.140421
  13 H :    0.125613
  14 H :    0.172535

  Mayer bond orders larger than 0.1
B(  0-O ,  1-C ) :   0.9947 B(  0-O ,  8-H ) :   0.7627 B(  1-C ,  2-C ) :   0.8704
B(  1-C ,  4-C ) :   0.8785 B(  1-C ,  9-H ) :   0.9399 B(  2-C ,  3-O ) :   0.9873
B(  2-C ,  4-C ) :   0.8443 B(  2-C , 10-H ) :   0.9385 B(  3-O , 11-H ) :   0.8059
B(  4-C ,  5-O ) :   0.8779 B(  4-C , 12-H ) :   0.9168 B(  5-O ,  6-C ) :   1.1264
B(  6-C ,  7-N ) :   1.7717 B(  6-C , 13-H ) :   0.9279 B(  7-N , 14-H ) :   0.8566

MP2 TOTAL ENERGY:     -436.222358247 Eh
FINAL SINGLE POINT ENERGY      -436.222358247227

DIPOLE MOMENT
-------------
                                X             Y             Z
Electronic contribution:     -0.85442      -0.45358       1.20476
Nuclear contribution   :      0.11055       0.20057      -2.17298
                        -----------------------------------------
Total Dipole Moment    :     -0.74387      -0.25301      -0.96821
                        -----------------------------------------
Magnitude (a.u.)       :      1.24691
Magnitude (Debye)      :      3.16940

                             ****ORCA TERMINATED NORMALLY****
TOTAL RUN TIME: 0 days 0 hours 10 minutes 53 seconds 979 msec
