                         Program Version 3.0.3 - RELEASE   -
|  1> ! RI-MP2 RIJK def2-TZVP def2-TZVP/C def2-TZVP/JK TIGHTSCF
|  2> % maxcore 2000
|  3> % mp2 density relaxed end
|  4> *xyz 0 1
|  5>  C        0.1009899478     1.3837060027    -0.0369408724
|  6>  N       -0.1335232519    -0.0353907600     0.1576613211
|  7>  C        0.5688193963    -0.7004147999     1.1293536019
|  8>  N        1.2226695162    -0.0855738109     2.1031709140
|  9>  N        1.6916588107    -1.1639199199     2.8340584585
| 10>  C        1.3072542418    -2.3025928426     2.2459128453
| 11>  O        1.6429430601    -3.4943177845     2.7512037393
| 12>  N        0.5955132392    -2.0755680819     1.1650610933
| 13>  H        1.1374303460     1.6179432077    -0.3208302173
| 14>  H       -0.5733948698     1.7502412734    -0.8141524309
| 15>  H       -0.1158381530     1.9177966448     0.8916145680
| 16>  H       -0.2661332100    -0.5868778471    -0.6756456966
| 17>  H        2.2435335383    -1.0263410942     3.6618231732
| 18>  H        1.2492133385    -4.1598432976     2.1730760924
| 19> *
| 20>
| 21>                          ****END OF INPUT****

CARTESIAN COORDINATES (ANGSTROEM)
---------------------------------
  C      0.100990    1.383706   -0.036941
  N     -0.133523   -0.035391    0.157661
  C      0.568819   -0.700415    1.129354
  N      1.222670   -0.085574    2.103171
  N      1.691659   -1.163920    2.834058
  C      1.307254   -2.302593    2.245913
  O      1.642943   -3.494318    2.751204
  N      0.595513   -2.075568    1.165061
  H      1.137430    1.617943   -0.320830
  H     -0.573395    1.750241   -0.814152
  H     -0.115838    1.917797    0.891615
  H     -0.266133   -0.586878   -0.675646
  H      2.243534   -1.026341    3.661823
  H      1.249213   -4.159843    2.173076

 Total Charge           Charge          ....    0
 Multiplicity           Mult            ....    1
 Number of Electrons    NEL             ....   60
 Basis Dimension        Dim             ....  284

ORBITAL ENERGIES
----------------

  NO   OCC          E(Eh)            E(eV)
   0   2.0000     -20.627699      -561.3082
   1   2.0000     -15.628480      -425.2726
   2   2.0000     -15.566769      -423.5933
   3   2.0000     -15.563214      -423.4966
   4   2.0000     -15.546972      -423.0546
   5   2.0000     -11.382188      -309.7251
   6   2.0000     -11.323271      -308.1219
   7   2.0000     -11.250416      -306.1394
   8   2.0000      -1.466740       -39.9120
   9   2.0000      -1.383870       -37.6570
  10   2.0000      -1.243525       -33.8380
  11   2.0000      -1.184154       -32.2225
  12   2.0000      -1.083513       -29.4839
  13   2.0000      -0.937238       -25.5035
  14   2.0000      -0.864559       -23.5258
  15   2.0000      -0.802449       -21.8358
  16   2.0000      -0.776712       -21.1354
  17   2.0000      -0.728026       -19.8106
  18   2.0000      -0.671679       -18.2773
  19   2.0000      -0.641158       -17.4468
  20   2.0000      -0.635042       -17.2804
  21   2.0000      -0.607699       -16.5363
  22   2.0000      -0.581747       -15.8301
  23   2.0000      -0.560499       -15.2519
  24   2.0000      -0.537819       -14.6348
  25   2.0000      -0.507905       -13.8208
  26   2.0000      -0.458820       -12.4851
  27   2.0000      -0.441745       -12.0205
  28   2.0000      -0.395084       -10.7508
  29   2.0000      -0.322777        -8.7832
  30   0.0000       0.133045         3.6203
  31   0.0000       0.148462         4.0398
  32   0.0000       0.153456         4.1758
  33   0.0000       0.180367         4.9080
  34   0.0000       0.195577         5.3219

MULLIKEN ATOMIC CHARGES
-----------------------
   0 C :   -0.267679
   1 N :   -0.349548
   2 C :    0.254335
   3 N :   -0.280055
   4 N :   -0.168605
   5 C :    0.328328
   6 O :   -0.422835
   7 N :   -0.365319
   8 H :    0.123469
   9 H :    0.134436
  10 H :    0.148869
  11 H :    0.240429
  12 H :    0.265000
  13 H :    0.359176
Sum of atomic charges:   -0.0000000

LOEWDIN ATOMIC CHARGES
----------------------
   0 C :   -0.324813
   1 N :    0.046179
   2 C :   -0.446607
   3 N :   -0.001058
   4 N :    0.125319
   5 C :   -0.496046
   6 O :    0.089501
   7 N :    0.071224
   8 H :    0.108116
   9 H :    0.116505
  10 H :    0.123377
  11 H :    0.186388
  12 H :    0.190123
  13 H :    0.211792

  Mayer bond orders larger than 0.1
B(  0-C ,  1-N ) :   0.9010 B(  0-C ,  8-H ) :   0.9346 B(  0-C ,  9-H ) :   0.9340
B(  0-C , 10-H ) :   0.9346 B(  1-N ,  2-C ) :   1.1146 B(  1-N , 11-H ) :   0.8716
B(  2-C ,  3-N ) :   1.5861 B(  2-C ,  7-N ) :   1.2807 B(  3-N ,  4-N ) :   0.9485
B(  4-N ,  5-C ) :   1.2669 B(  4-N , 12-H ) :   0.8656 B(  5-C ,  6-O ) :   1.1279
B(  5-C ,  7-N ) :   1.5161 B(  6-O , 13-H ) :   0.8102

MP2 TOTAL ENERGY:     -411.406306812 Eh
FINAL SINGLE POINT ENERGY      -411.406306811810

DIPOLE MOMENT
-------------
                                X             Y             Z
Electronic contribution:      1.80468      -5.89810       4.00750
Nuclear contribution   :     -1.52591       5.57607      -4.08922
                        -----------------------------------------
Total Dipole Moment    :      0.27877      -0.32203      -0.08172
                        -----------------------------------------
Magnitude (a.u.)       :      0.43370
Magnitude (Debye)      :      1.10238

                             ****ORCA TERMINATED NORMALLY****
TOTAL RUN TIME: 0 days 0 hours 10 minutes 24 seconds 621 msec
