                         Program Version 3.0.3 - RELEASE   -
|  1> ! RI-MP2 RIJK def2-TZVP def2-TZVP/C def2-TZVP/JK TIGHTSCF
|  2> % maxcore 2000
|  3> % mp2 density relaxed end
|  4> *xyz 0 1
|  5>  N       -0.1053181695    -1.1315815173    -0.0222780892
|  6>  C       -0.0482124355     0.0230475675    -0.0059360949
|  7>  C        0.0236022254     1.4664528632    -0.0236578891
|  8>  O        0.6359665566     2.0905221459     1.1184873930
|  9>  C        1.3306108592     2.1544290598    -0.1093113458
| 10>  C        2.7605708279     1.6089757384    -0.2609833373
| 11>  C        3.1314025692     2.9376674444    -0.9474311992
| 12>  C        2.2628019430     3.1594036595    -2.1473416032
| 13>  C        1.6931718595     3.4563765676    -0.7803811722
| 14>  H       -0.8682089234     1.9634373418    -0.4004051351
| 15>  H        3.2177975924     1.4860236705     0.7233294226
| 16>  H        2.8974555428     0.6935298321    -0.8436379092
| 17>  H        4.0554851887     3.4782486060    -0.7920279860
| 18>  H        2.4929529572     4.0376832662    -2.7414722249
| 19>  H        1.8937600342     2.3149272978    -2.7246366053
| 20>  H        1.3282366724     4.4324250466    -0.4878961940
| 21> *
| 22>
| 23>                          ****END OF INPUT****

CARTESIAN COORDINATES (ANGSTROEM)
---------------------------------
  N     -0.105318   -1.131582   -0.022278
  C     -0.048212    0.023048   -0.005936
  C      0.023602    1.466453   -0.023658
  O      0.635967    2.090522    1.118487
  C      1.330611    2.154429   -0.109311
  C      2.760571    1.608976   -0.260983
  C      3.131403    2.937667   -0.947431
  C      2.262802    3.159404   -2.147342
  C      1.693172    3.456377   -0.780381
  H     -0.868209    1.963437   -0.400405
  H      3.217798    1.486024    0.723329
  H      2.897456    0.693530   -0.843638
  H      4.055485    3.478249   -0.792028
  H      2.492953    4.037683   -2.741472
  H      1.893760    2.314927   -2.724637
  H      1.328237    4.432425   -0.487896

 Total Charge           Charge          ....    0
 Multiplicity           Mult            ....    1
 Number of Electrons    NEL             ....   64
 Basis Dimension        Dim             ....  321

ORBITAL ENERGIES
----------------

  NO   OCC          E(Eh)            E(eV)
   0   2.0000     -20.604780      -560.6846
   1   2.0000     -15.583319      -424.0437
   2   2.0000     -11.339469      -308.5626
   3   2.0000     -11.330492      -308.3184
   4   2.0000     -11.282972      -307.0253
   5   2.0000     -11.260673      -306.4185
   6   2.0000     -11.259374      -306.3831
   7   2.0000     -11.254251      -306.2437
   8   2.0000     -11.252514      -306.1965
   9   2.0000      -1.452416       -39.5222
  10   2.0000      -1.226644       -33.3787
  11   2.0000      -1.214408       -33.0457
  12   2.0000      -1.004314       -27.3288
  13   2.0000      -0.990597       -26.9555
  14   2.0000      -0.906845       -24.6765
  15   2.0000      -0.827169       -22.5084
  16   2.0000      -0.775356       -21.0985
  17   2.0000      -0.743049       -20.2194
  18   2.0000      -0.722822       -19.6690
  19   2.0000      -0.672554       -18.3011
  20   2.0000      -0.624565       -16.9953
  21   2.0000      -0.603971       -16.4349
  22   2.0000      -0.581075       -15.8119
  23   2.0000      -0.569513       -15.4972
  24   2.0000      -0.543820       -14.7981
  25   2.0000      -0.538033       -14.6406
  26   2.0000      -0.509809       -13.8726
  27   2.0000      -0.478460       -13.0196
  28   2.0000      -0.472117       -12.8470
  29   2.0000      -0.448481       -12.2038
  30   2.0000      -0.439742       -11.9660
  31   2.0000      -0.396185       -10.7807
  32   0.0000       0.135526         3.6879
  33   0.0000       0.138464         3.7678
  34   0.0000       0.142081         3.8662
  35   0.0000       0.157427         4.2838
  36   0.0000       0.167637         4.5616

MULLIKEN ATOMIC CHARGES
-----------------------
   0 N :   -0.056346
   1 C :   -0.172027
   2 C :    0.094148
   3 O :   -0.298237
   4 C :    0.122662
   5 C :   -0.200286
   6 C :   -0.109170
   7 C :   -0.268285
   8 C :   -0.133625
   9 H :    0.159049
  10 H :    0.139788
  11 H :    0.142793
  12 H :    0.144386
  13 H :    0.139634
  14 H :    0.143594
  15 H :    0.151922
Sum of atomic charges:    0.0000000

LOEWDIN ATOMIC CHARGES
----------------------
   0 N :    0.079162
   1 C :   -0.164847
   2 C :   -0.230710
   3 O :    0.223226
   4 C :   -0.261129
   5 C :   -0.162009
   6 C :   -0.165352
   7 C :   -0.194257
   8 C :   -0.137530
   9 H :    0.160903
  10 H :    0.150978
  11 H :    0.139516
  12 H :    0.138391
  13 H :    0.143683
  14 H :    0.136104
  15 H :    0.143870

  Mayer bond orders larger than 0.1
B(  0-N ,  1-C ) :   2.8267 B(  1-C ,  2-C ) :   0.9109 B(  2-C ,  3-O ) :   0.9237
B(  2-C ,  4-C ) :   0.9320 B(  2-C ,  9-H ) :   0.9011 B(  3-O ,  4-C ) :   0.9011
B(  4-C ,  5-C ) :   0.9609 B(  4-C ,  8-C ) :   0.8950 B(  5-C ,  6-C ) :   0.9334
B(  5-C , 10-H ) :   0.9209 B(  5-C , 11-H ) :   0.9096 B(  6-C ,  7-C ) :   0.8918
B(  6-C ,  8-C ) :   0.8592 B(  6-C , 12-H ) :   0.9237 B(  7-C ,  8-C ) :   0.8615
B(  7-C , 13-H ) :   0.9254 B(  7-C , 14-H ) :   0.9232 B(  8-C , 15-H ) :   0.9110

MP2 TOTAL ENERGY:     -400.006591003 Eh
FINAL SINGLE POINT ENERGY      -400.006591003312

DIPOLE MOMENT
-------------
                                X             Y             Z
Electronic contribution:     -4.98166      -4.19853       3.82551
Nuclear contribution   :      5.51632       5.65632      -4.56661
                        -----------------------------------------
Total Dipole Moment    :      0.53466       1.45779      -0.74111
                        -----------------------------------------
Magnitude (a.u.)       :      1.72054
Magnitude (Debye)      :      4.37326

                             ****ORCA TERMINATED NORMALLY****
TOTAL RUN TIME: 0 days 0 hours 16 minutes 20 seconds 295 msec
