                         Program Version 3.0.3 - RELEASE   -
|  1> ! RI-MP2 RIJK def2-TZVP def2-TZVP/C def2-TZVP/JK TIGHTSCF
|  2> % maxcore 2000
|  3> % mp2 density relaxed end
|  4> *xyz 0 1
|  5>  C       -0.0866683299     1.5281231395     0.0109187982
|  6>  C        0.0786623254     0.0171844414     0.0023018517
|  7>  O        1.1703337965    -0.5041969889    -0.0116699581
|  8>  C       -1.2072860799    -0.8009944067     0.0099165591
|  9>  C       -0.9800548278    -2.3118638018    -0.0006824212
| 10>  C       -2.2880285867    -3.1072475036     0.0073387725
| 11>  C       -2.0617695938    -4.6130794511    -0.0032500503
| 12>  O       -3.3319482005    -5.2474457049     0.0053166377
| 13>  H        0.8924871495     2.0081731352     0.0040354495
| 14>  H       -0.6637428872     1.8541342694    -0.8617727180
| 15>  H       -0.6474203453     1.8459079761     0.8971661344
| 16>  H       -1.7959576718    -0.4975561662     0.8879430278
| 17>  H       -1.8125689763    -0.4878322232    -0.8532837953
| 18>  H       -0.3816876494    -2.5750253413    -0.8806279152
| 19>  H       -0.3650693026    -2.5847554349     0.8647201968
| 20>  H       -2.8841353977    -2.8533631907     0.8930768435
| 21>  H       -2.9008950945    -2.8435209157    -0.8639686943
| 22>  H       -1.4806418158    -4.8944602083    -0.8970308832
| 23>  H       -1.4637210358    -4.9043887914     0.8760687050
| 24>  H       -3.1929662465    -6.1988253231    -0.0011420805
| 25> *
| 26>
| 27>                          ****END OF INPUT****

CARTESIAN COORDINATES (ANGSTROEM)
---------------------------------
  C     -0.086668    1.528123    0.010919
  C      0.078662    0.017184    0.002302
  O      1.170334   -0.504197   -0.011670
  C     -1.207286   -0.800994    0.009917
  C     -0.980055   -2.311864   -0.000682
  C     -2.288029   -3.107248    0.007339
  C     -2.061770   -4.613079   -0.003250
  O     -3.331948   -5.247446    0.005317
  H      0.892487    2.008173    0.004035
  H     -0.663743    1.854134   -0.861773
  H     -0.647420    1.845908    0.897166
  H     -1.795958   -0.497556    0.887943
  H     -1.812569   -0.487832   -0.853284
  H     -0.381688   -2.575025   -0.880628
  H     -0.365069   -2.584755    0.864720
  H     -2.884135   -2.853363    0.893077
  H     -2.900895   -2.843521   -0.863969
  H     -1.480642   -4.894460   -0.897031
  H     -1.463721   -4.904389    0.876069
  H     -3.192966   -6.198825   -0.001142

 Total Charge           Charge          ....    0
 Multiplicity           Mult            ....    1
 Number of Electrons    NEL             ....   64
 Basis Dimension        Dim             ....  320

ORBITAL ENERGIES
----------------

  NO   OCC          E(Eh)            E(eV)
   0   2.0000     -20.554438      -559.3147
   1   2.0000     -20.542696      -558.9952
   2   2.0000     -11.329338      -308.2870
   3   2.0000     -11.274377      -306.7914
   4   2.0000     -11.238837      -305.8243
   5   2.0000     -11.234747      -305.7130
   6   2.0000     -11.224074      -305.4226
   7   2.0000     -11.219888      -305.3087
   8   2.0000      -1.386881       -37.7389
   9   2.0000      -1.358367       -36.9630
  10   2.0000      -1.085048       -29.5257
  11   2.0000      -1.026952       -27.9448
  12   2.0000      -0.977709       -26.6048
  13   2.0000      -0.876103       -23.8400
  14   2.0000      -0.802884       -21.8476
  15   2.0000      -0.734012       -19.9735
  16   2.0000      -0.693132       -18.8611
  17   2.0000      -0.665484       -18.1087
  18   2.0000      -0.649846       -17.6832
  19   2.0000      -0.630058       -17.1447
  20   2.0000      -0.624795       -17.0015
  21   2.0000      -0.586049       -15.9472
  22   2.0000      -0.577261       -15.7081
  23   2.0000      -0.559526       -15.2255
  24   2.0000      -0.534196       -14.5362
  25   2.0000      -0.516449       -14.0533
  26   2.0000      -0.496270       -13.5042
  27   2.0000      -0.490097       -13.3362
  28   2.0000      -0.475593       -12.9416
  29   2.0000      -0.473848       -12.8941
  30   2.0000      -0.442787       -12.0488
  31   2.0000      -0.408880       -11.1262
  32   0.0000       0.123925         3.3722
  33   0.0000       0.137083         3.7302
  34   0.0000       0.143939         3.9168
  35   0.0000       0.155932         4.2431
  36   0.0000       0.175669         4.7802

MULLIKEN ATOMIC CHARGES
-----------------------
   0 C :   -0.399274
   1 C :    0.218706
   2 O :   -0.293985
   3 C :   -0.261920
   4 C :   -0.247087
   5 C :   -0.145846
   6 C :   -0.064525
   7 O :   -0.467054
   8 H :    0.153393
   9 H :    0.141844
  10 H :    0.141803
  11 H :    0.133647
  12 H :    0.133675
  13 H :    0.119309
  14 H :    0.119299
  15 H :    0.108499
  16 H :    0.108502
  17 H :    0.092892
  18 H :    0.092894
  19 H :    0.315230
Sum of atomic charges:   -0.0000000

LOEWDIN ATOMIC CHARGES
----------------------
   0 C :   -0.282032
   1 C :   -0.348804
   2 O :    0.147406
   3 C :   -0.246715
   4 C :   -0.261977
   5 C :   -0.273111
   6 C :   -0.353302
   7 O :   -0.053683
   8 H :    0.132517
   9 H :    0.135353
  10 H :    0.135318
  11 H :    0.152295
  12 H :    0.152312
  13 H :    0.142936
  14 H :    0.142936
  15 H :    0.139061
  16 H :    0.139061
  17 H :    0.114469
  18 H :    0.114469
  19 H :    0.171490

  Mayer bond orders larger than 0.1
B(  0-C ,  1-C ) :   0.9297 B(  0-C ,  8-H ) :   0.9383 B(  0-C ,  9-H ) :   0.9183
B(  0-C , 10-H ) :   0.9183 B(  1-C ,  2-O ) :   1.9904 B(  1-C ,  3-C ) :   0.9088
B(  3-C ,  4-C ) :   0.9420 B(  3-C , 11-H ) :   0.9075 B(  3-C , 12-H ) :   0.9076
B(  4-C ,  5-C ) :   0.9118 B(  4-C , 13-H ) :   0.9296 B(  4-C , 14-H ) :   0.9296
B(  5-C ,  6-C ) :   0.9447 B(  5-C , 15-H ) :   0.9222 B(  5-C , 16-H ) :   0.9222
B(  6-C ,  7-O ) :   1.0206 B(  6-C , 17-H ) :   0.9331 B(  6-C , 18-H ) :   0.9331
B(  7-O , 19-H ) :   0.8497

MP2 TOTAL ENERGY:     -385.525698915 Eh
FINAL SINGLE POINT ENERGY      -385.525698914839

DIPOLE MOMENT
-------------
                                X             Y             Z
Electronic contribution:      2.64908      -0.98236      -0.02885
Nuclear contribution   :     -3.06083       1.10183       0.03357
                        -----------------------------------------
Total Dipole Moment    :     -0.41175       0.11947       0.00472
                        -----------------------------------------
Magnitude (a.u.)       :      0.42876
Magnitude (Debye)      :      1.08982

                             ****ORCA TERMINATED NORMALLY****
TOTAL RUN TIME: 0 days 0 hours 12 minutes 0 seconds 438 msec
