                         Program Version 3.0.3 - RELEASE   -
|  1> ! RI-MP2 RIJK def2-TZVP def2-TZVP/C def2-TZVP/JK TIGHTSCF
|  2> % maxcore 2000
|  3> % mp2 density relaxed end
|  4> *xyz 0 1
|  5>  O       -0.0682111103    -0.0016518874    -0.2852788566
|  6>  C        0.0287666196     1.2033365794    -0.2426295349
|  7>  C        1.2684504038     1.9175541917    -0.0767527634
|  8>  C        2.2928033399     2.5431238113     0.0558429531
|  9>  C        3.5251294651     3.3003419338     0.2251367258
| 10>  C        3.3035748547     4.8036795267     0.2620940564
| 11>  C        4.3296109312     5.7348817839    -0.2186396372
| 12>  O        3.1625961252     5.4533676326    -0.9955542485
| 13>  H       -0.8616852555     1.8584912785    -0.3313247334
| 14>  H        4.0163255876     2.9827256175     1.1550852918
| 15>  H        4.2155011067     3.0615716872    -0.5929680551
| 16>  H        2.6062140258     5.1456569770     1.0271706740
| 17>  H        4.3870455564     6.7389988747     0.1977168574
| 18>  H        5.2635519097     5.3444407732    -0.6213069894
| 19> *
| 20>
| 21>                          ****END OF INPUT****

CARTESIAN COORDINATES (ANGSTROEM)
---------------------------------
  O     -0.068211   -0.001652   -0.285279
  C      0.028767    1.203337   -0.242630
  C      1.268450    1.917554   -0.076753
  C      2.292803    2.543124    0.055843
  C      3.525129    3.300342    0.225137
  C      3.303575    4.803680    0.262094
  C      4.329611    5.734882   -0.218640
  O      3.162596    5.453368   -0.995554
  H     -0.861685    1.858491   -0.331325
  H      4.016326    2.982726    1.155085
  H      4.215501    3.061572   -0.592968
  H      2.606214    5.145657    1.027171
  H      4.387046    6.738999    0.197717
  H      5.263552    5.344441   -0.621307

 Total Charge           Charge          ....    0
 Multiplicity           Mult            ....    1
 Number of Electrons    NEL             ....   58
 Basis Dimension        Dim             ....  284

ORBITAL ENERGIES
----------------

  NO   OCC          E(Eh)            E(eV)
   0   2.0000     -20.585379      -560.1566
   1   2.0000     -20.568039      -559.6848
   2   2.0000     -11.358171      -309.0715
   3   2.0000     -11.312066      -307.8170
   4   2.0000     -11.300713      -307.5080
   5   2.0000     -11.282138      -307.0026
   6   2.0000     -11.270924      -306.6974
   7   2.0000     -11.245938      -306.0175
   8   2.0000      -1.431353       -38.9491
   9   2.0000      -1.403340       -38.1868
  10   2.0000      -1.105367       -30.0786
  11   2.0000      -1.029109       -28.0035
  12   2.0000      -0.936883       -25.4939
  13   2.0000      -0.896950       -24.4072
  14   2.0000      -0.845854       -23.0169
  15   2.0000      -0.734512       -19.9871
  16   2.0000      -0.717387       -19.5211
  17   2.0000      -0.675783       -18.3890
  18   2.0000      -0.661488       -18.0000
  19   2.0000      -0.654368       -17.8063
  20   2.0000      -0.619942       -16.8695
  21   2.0000      -0.559996       -15.2383
  22   2.0000      -0.556145       -15.1335
  23   2.0000      -0.546839       -14.8803
  24   2.0000      -0.473724       -12.8907
  25   2.0000      -0.462110       -12.5747
  26   2.0000      -0.453749       -12.3471
  27   2.0000      -0.408381       -11.1126
  28   2.0000      -0.404930       -11.0187
  29   0.0000       0.079547         2.1646
  30   0.0000       0.128622         3.5000
  31   0.0000       0.156796         4.2666
  32   0.0000       0.162713         4.4276
  33   0.0000       0.171019         4.6537

MULLIKEN ATOMIC CHARGES
-----------------------
   0 O :   -0.254307
   1 C :    0.029539
   2 C :    0.108759
   3 C :   -0.006484
   4 C :   -0.345809
   5 C :    0.054025
   6 C :   -0.069921
   7 O :   -0.322364
   8 H :    0.107099
   9 H :    0.158333
  10 H :    0.163879
  11 H :    0.132178
  12 H :    0.124545
  13 H :    0.120527
Sum of atomic charges:   -0.0000000

LOEWDIN ATOMIC CHARGES
----------------------
   0 O :    0.147095
   1 C :   -0.293183
   2 C :   -0.059924
   3 C :   -0.024373
   4 C :   -0.228335
   5 C :   -0.284083
   6 C :   -0.260457
   7 O :    0.154002
   8 H :    0.124668
   9 H :    0.168792
  10 H :    0.170334
  11 H :    0.141786
  12 H :    0.121866
  13 H :    0.121811

  Mayer bond orders larger than 0.1
B(  0-O ,  1-C ) :   2.0139 B(  1-C ,  2-C ) :   0.8462 B(  1-C ,  8-H ) :   1.0069
B(  2-C ,  3-C ) :   2.6816 B(  2-C ,  4-C ) :  -0.1153 B(  2-C ,  8-H ) :  -0.1074
B(  3-C ,  4-C ) :   1.0450 B(  4-C ,  5-C ) :   0.9161 B(  4-C ,  9-H ) :   0.9239
B(  4-C , 10-H ) :   0.9251 B(  5-C ,  6-C ) :   0.9812 B(  5-C ,  7-O ) :   0.9045
B(  5-C , 11-H ) :   0.9150 B(  6-C ,  7-O ) :   0.9046 B(  6-C , 12-H ) :   0.9187
B(  6-C , 13-H ) :   0.9129

MP2 TOTAL ENERGY:     -381.837502486 Eh
FINAL SINGLE POINT ENERGY      -381.837502486421

DIPOLE MOMENT
-------------
                                X             Y             Z
Electronic contribution:     -4.78554      -4.70154      -1.08563
Nuclear contribution   :      5.79514       5.83655       1.77059
                        -----------------------------------------
Total Dipole Moment    :      1.00960       1.13501       0.68496
                        -----------------------------------------
Magnitude (a.u.)       :      1.66635
Magnitude (Debye)      :      4.23551

                             ****ORCA TERMINATED NORMALLY****
TOTAL RUN TIME: 0 days 0 hours 8 minutes 29 seconds 196 msec
