                         Program Version 3.0.3 - RELEASE   -
|  1> ! RI-MP2 RIJK def2-TZVP def2-TZVP/C def2-TZVP/JK TIGHTSCF
|  2> % maxcore 2000
|  3> % mp2 density relaxed end
|  4> *xyz 0 1
|  5>  C       -0.0098422212     1.5162097296     0.0440734776
|  6>  C        0.0224727312    -0.0012844722    -0.0094042706
|  7>  C        0.7306722419    -0.5386273762    -1.2519020526
|  8>  O        0.8321042792    -1.9593387174    -1.2140892422
|  9>  C        1.5072550141    -2.3917550107    -0.0457397960
| 10>  C        0.7876424169    -1.8664671882     1.2110108665
| 11>  O        0.7131891049    -0.4599847074     1.1555333220
| 12>  C        1.5578380531    -3.8569388215    -0.0541490482
| 13>  N        1.6048367633    -5.0096261442    -0.0052420688
| 14>  H        1.0054084854     1.9237673051     0.0233458501
| 15>  H       -0.5673289216     1.9204415818    -0.8060543661
| 16>  H       -0.4929498838     1.8489995815     0.9659016116
| 17>  H       -1.0028076973    -0.4070335556     0.0046269538
| 18>  H        0.1712130966    -0.3018388190    -2.1604957283
| 19>  H        1.7344259796    -0.0890865443    -1.3242139558
| 20>  H        2.5405308885    -2.0060737547    -0.0394789154
| 21>  H       -0.2143141530    -2.3194465205     1.2603417564
| 22>  H        1.3445519820    -2.1302291561     2.1138092858
| 23> *
| 24>
| 25>                          ****END OF INPUT****

CARTESIAN COORDINATES (ANGSTROEM)
---------------------------------
  C     -0.009842    1.516210    0.044073
  C      0.022473   -0.001284   -0.009404
  C      0.730672   -0.538627   -1.251902
  O      0.832104   -1.959339   -1.214089
  C      1.507255   -2.391755   -0.045740
  C      0.787642   -1.866467    1.211011
  O      0.713189   -0.459985    1.155533
  C      1.557838   -3.856939   -0.054149
  N      1.604837   -5.009626   -0.005242
  H      1.005408    1.923767    0.023346
  H     -0.567329    1.920442   -0.806054
  H     -0.492950    1.849000    0.965902
  H     -1.002808   -0.407034    0.004627
  H      0.171213   -0.301839   -2.160496
  H      1.734426   -0.089087   -1.324214
  H      2.540531   -2.006074   -0.039479
  H     -0.214314   -2.319447    1.260342
  H      1.344552   -2.130229    2.113809

 Total Charge           Charge          ....    0
 Multiplicity           Mult            ....    1
 Number of Electrons    NEL             ....   68
 Basis Dimension        Dim             ....  333

ORBITAL ENERGIES
----------------

  NO   OCC          E(Eh)            E(eV)
   0   2.0000     -20.592192      -560.3420
   1   2.0000     -20.581179      -560.0423
   2   2.0000     -15.581307      -423.9889
   3   2.0000     -11.343279      -308.6663
   4   2.0000     -11.306685      -307.6705
   5   2.0000     -11.301838      -307.5386
   6   2.0000     -11.298975      -307.4607
   7   2.0000     -11.279177      -306.9220
   8   2.0000     -11.234767      -305.7135
   9   2.0000      -1.430839       -38.9351
  10   2.0000      -1.387425       -37.7538
  11   2.0000      -1.226454       -33.3735
  12   2.0000      -1.099433       -29.9171
  13   2.0000      -1.023807       -27.8592
  14   2.0000      -0.953166       -25.9370
  15   2.0000      -0.899461       -24.4756
  16   2.0000      -0.822651       -22.3855
  17   2.0000      -0.756985       -20.5986
  18   2.0000      -0.699177       -19.0256
  19   2.0000      -0.688558       -18.7366
  20   2.0000      -0.675925       -18.3929
  21   2.0000      -0.659524       -17.9466
  22   2.0000      -0.609584       -16.5876
  23   2.0000      -0.591137       -16.0856
  24   2.0000      -0.573816       -15.6143
  25   2.0000      -0.561399       -15.2765
  26   2.0000      -0.558422       -15.1954
  27   2.0000      -0.536278       -14.5929
  28   2.0000      -0.522936       -14.2298
  29   2.0000      -0.495957       -13.4957
  30   2.0000      -0.482916       -13.1408
  31   2.0000      -0.476553       -12.9677
  32   2.0000      -0.469772       -12.7832
  33   2.0000      -0.418221       -11.3804
  34   0.0000       0.130490         3.5508
  35   0.0000       0.137760         3.7486
  36   0.0000       0.145705         3.9648
  37   0.0000       0.159565         4.3420
  38   0.0000       0.178044         4.8448

MULLIKEN ATOMIC CHARGES
-----------------------
   0 C :   -0.374101
   1 C :    0.044251
   2 C :   -0.061200
   3 O :   -0.279903
   4 C :    0.136694
   5 C :   -0.066548
   6 O :   -0.291925
   7 C :   -0.155399
   8 N :   -0.052023
   9 H :    0.133409
  10 H :    0.130929
  11 H :    0.147110
  12 H :    0.080329
  13 H :    0.139932
  14 H :    0.100169
  15 H :    0.109715
  16 H :    0.113835
  17 H :    0.144727
Sum of atomic charges:    0.0000000

LOEWDIN ATOMIC CHARGES
----------------------
   0 C :   -0.285370
   1 C :   -0.350389
   2 C :   -0.287958
   3 O :    0.190185
   4 C :   -0.319344
   5 C :   -0.287412
   6 O :    0.182802
   7 C :   -0.154986
   8 N :    0.080162
   9 H :    0.128778
  10 H :    0.130185
  11 H :    0.131678
  12 H :    0.140367
  13 H :    0.138635
  14 H :    0.128303
  15 H :    0.161211
  16 H :    0.132463
  17 H :    0.140690

  Mayer bond orders larger than 0.1
B(  0-C ,  1-C ) :   0.9179 B(  0-C ,  9-H ) :   0.9317 B(  0-C , 10-H ) :   0.9306
B(  0-C , 11-H ) :   0.9334 B(  1-C ,  2-C ) :   0.9425 B(  1-C ,  6-O ) :   0.9381
B(  1-C , 12-H ) :   0.9259 B(  2-C ,  3-O ) :   0.9050 B(  2-C , 13-H ) :   0.9168
B(  2-C , 14-H ) :   0.9228 B(  3-O ,  4-C ) :   1.0116 B(  4-C ,  5-C ) :   0.9244
B(  4-C ,  7-C ) :   0.8979 B(  4-C , 15-H ) :   0.9092 B(  5-C ,  6-O ) :   0.9465
B(  5-C , 16-H ) :   0.9263 B(  5-C , 17-H ) :   0.9099 B(  7-C ,  8-N ) :   2.8478

MP2 TOTAL ENERGY:     -438.375347136 Eh
FINAL SINGLE POINT ENERGY      -438.375347135602

DIPOLE MOMENT
-------------
                                X             Y             Z
Electronic contribution:      2.65077      -9.89109      -0.17316
Nuclear contribution   :     -2.86169      11.55606       0.18437
                        -----------------------------------------
Total Dipole Moment    :     -0.21092       1.66496       0.01121
                        -----------------------------------------
Magnitude (a.u.)       :      1.67831
Magnitude (Debye)      :      4.26592

                             ****ORCA TERMINATED NORMALLY****
TOTAL RUN TIME: 0 days 0 hours 16 minutes 52 seconds 399 msec
