                         Program Version 3.0.3 - RELEASE   -
|  1> ! RI-MP2 RIJK def2-TZVP def2-TZVP/C def2-TZVP/JK TIGHTSCF
|  2> % maxcore 2000
|  3> % mp2 density relaxed end
|  4> *xyz 0 1
|  5>  O        0.0818503072     1.4577852685    -0.0456287347
|  6>  C       -0.0289513614     0.1009519037    -0.0738276878
|  7>  C        0.4131964791    -0.7612894895    -1.2528568566
|  8>  N       -0.5210274301    -1.8524819994    -0.7718170723
|  9>  C       -0.4209022081    -1.8766033578     0.7247402680
| 10>  C       -1.3104259971    -0.8922005830    -0.0072618129
| 11>  C        0.4085893157    -0.7124064925     1.1508438492
| 12>  O        0.9396142697    -0.3466156673     2.1658781407
| 13>  H        0.3372147900     1.7089263878     0.8547511627
| 14>  H        0.0428809877    -0.4135415698    -2.2193535194
| 15>  H        1.4707802977    -1.0383186026    -1.3228008668
| 16>  H       -0.6823947617    -2.7904858953     1.2385256654
| 17>  H       -2.3863039987    -0.7880908128     0.0155836545
| 18> *
| 19>
| 20>                          ****END OF INPUT****

CARTESIAN COORDINATES (ANGSTROEM)
---------------------------------
  O      0.081850    1.457785   -0.045629
  C     -0.028951    0.100952   -0.073828
  C      0.413196   -0.761289   -1.252857
  N     -0.521027   -1.852482   -0.771817
  C     -0.420902   -1.876603    0.724740
  C     -1.310426   -0.892201   -0.007262
  C      0.408589   -0.712406    1.150844
  O      0.939614   -0.346616    2.165878
  H      0.337215    1.708926    0.854751
  H      0.042881   -0.413542   -2.219354
  H      1.470780   -1.038319   -1.322801
  H     -0.682395   -2.790486    1.238526
  H     -2.386304   -0.788091    0.015584

 Total Charge           Charge          ....    0
 Multiplicity           Mult            ....    1
 Number of Electrons    NEL             ....   58
 Basis Dimension        Dim             ....  278

ORBITAL ENERGIES
----------------

  NO   OCC          E(Eh)            E(eV)
   0   2.0000     -20.596215      -560.4515
   1   2.0000     -20.564633      -559.5921
   2   2.0000     -15.604437      -424.6183
   3   2.0000     -11.353126      -308.9343
   4   2.0000     -11.330147      -308.3090
   5   2.0000     -11.304215      -307.6033
   6   2.0000     -11.294530      -307.3398
   7   2.0000     -11.284187      -307.0583
   8   2.0000      -1.429151       -38.8892
   9   2.0000      -1.398550       -38.0565
  10   2.0000      -1.347084       -36.6560
  11   2.0000      -1.025977       -27.9183
  12   2.0000      -1.020356       -27.7653
  13   2.0000      -0.887623       -24.1534
  14   2.0000      -0.804755       -21.8985
  15   2.0000      -0.782731       -21.2992
  16   2.0000      -0.713094       -19.4043
  17   2.0000      -0.701736       -19.0952
  18   2.0000      -0.653101       -17.7718
  19   2.0000      -0.642141       -17.4735
  20   2.0000      -0.628643       -17.1063
  21   2.0000      -0.593211       -16.1421
  22   2.0000      -0.573367       -15.6021
  23   2.0000      -0.551901       -15.0180
  24   2.0000      -0.493526       -13.4295
  25   2.0000      -0.488031       -13.2800
  26   2.0000      -0.454312       -12.3625
  27   2.0000      -0.419934       -11.4270
  28   2.0000      -0.390084       -10.6147
  29   0.0000       0.132670         3.6101
  30   0.0000       0.142865         3.8875
  31   0.0000       0.158417         4.3108
  32   0.0000       0.168918         4.5965
  33   0.0000       0.182154         4.9567

MULLIKEN ATOMIC CHARGES
-----------------------
   0 O :   -0.437576
   1 C :    0.200972
   2 C :   -0.097117
   3 N :   -0.201947
   4 C :   -0.082170
   5 C :   -0.175779
   6 C :    0.143029
   7 O :   -0.291794
   8 H :    0.344146
   9 H :    0.132720
  10 H :    0.126508
  11 H :    0.159657
  12 H :    0.179350
Sum of atomic charges:    0.0000000

LOEWDIN ATOMIC CHARGES
----------------------
   0 O :    0.061448
   1 C :   -0.322387
   2 C :   -0.189226
   3 N :    0.150105
   4 C :   -0.159820
   5 C :   -0.127135
   6 C :   -0.309867
   7 O :    0.143171
   8 H :    0.199867
   9 H :    0.140135
  10 H :    0.128616
  11 H :    0.144854
  12 H :    0.140239

  Mayer bond orders larger than 0.1
B(  0-O ,  1-C ) :   1.1342 B(  0-O ,  8-H ) :   0.8119 B(  1-C ,  2-C ) :   0.9550
B(  1-C ,  5-C ) :   0.7965 B(  1-C ,  6-C ) :   0.8670 B(  2-C ,  3-N ) :   0.8926
B(  2-C ,  9-H ) :   0.9180 B(  2-C , 10-H ) :   0.9188 B(  3-N ,  4-C ) :   0.8622
B(  3-N ,  5-C ) :   0.9383 B(  4-C ,  5-C ) :   0.8305 B(  4-C ,  6-C ) :   0.8863
B(  4-C , 11-H ) :   0.9145 B(  5-C , 12-H ) :   0.8802 B(  6-C ,  7-O ) :   1.9698

MP2 TOTAL ENERGY:     -397.892053183 Eh
FINAL SINGLE POINT ENERGY      -397.892053182769

DIPOLE MOMENT
-------------
                                X             Y             Z
Electronic contribution:      0.55978       0.47405       2.30056
Nuclear contribution   :     -0.98331      -0.50396      -2.51595
                        -----------------------------------------
Total Dipole Moment    :     -0.42353      -0.02991      -0.21539
                        -----------------------------------------
Magnitude (a.u.)       :      0.47609
Magnitude (Debye)      :      1.21013

                             ****ORCA TERMINATED NORMALLY****
TOTAL RUN TIME: 0 days 0 hours 11 minutes 1 seconds 143 msec
