                         Program Version 3.0.3 - RELEASE   -
|  1> ! RI-MP2 RIJK def2-TZVP def2-TZVP/C def2-TZVP/JK TIGHTSCF
|  2> % maxcore 2000
|  3> % mp2 density relaxed end
|  4> *xyz 0 1
|  5>  C        0.1032278737     1.5205014546    -0.1613381780
|  6>  C       -0.0779712991     0.0120552245     0.0596674040
|  7>  C        0.6594472885    -0.4960455418     1.2667076221
|  8>  C        2.1090879296    -0.9070722174     1.2783271019
|  9>  C        1.0512565687    -1.9166793942     1.6563633654
| 10>  C        0.4833560187    -1.6650457978     3.0825603909
| 11>  N        1.2098013030    -0.5247460161     3.7018495134
| 12>  C        0.1189129360    -0.2838797809     2.7216829333
| 13>  H        1.1576169079     1.7678776987    -0.3201042135
| 14>  H       -0.4629577292     1.8643880968    -1.0326943119
| 15>  H       -0.2416983958     2.0919138329     0.7072886022
| 16>  H       -1.1484226482    -0.2169336935     0.1591608021
| 17>  H        0.2686777330    -0.5350790439    -0.8259078273
| 18>  H        2.5335740944    -1.0610426068     0.2902026959
| 19>  H        2.7954530227    -0.5264927921     2.0237336460
| 20>  H        0.8877859366    -2.8337299863     1.1044277613
| 21>  H       -0.0392742310    -2.3915863057     3.6908891753
| 22>  H        0.8093938075    -0.3880903007     4.6297743801
| 23>  H       -0.7522137172     0.3046523097     2.9817705671
| 24> *
| 25>
| 26>                          ****END OF INPUT****

CARTESIAN COORDINATES (ANGSTROEM)
---------------------------------
  C      0.103228    1.520501   -0.161338
  C     -0.077971    0.012055    0.059667
  C      0.659447   -0.496046    1.266708
  C      2.109088   -0.907072    1.278327
  C      1.051257   -1.916679    1.656363
  C      0.483356   -1.665046    3.082560
  N      1.209801   -0.524746    3.701850
  C      0.118913   -0.283880    2.721683
  H      1.157617    1.767878   -0.320104
  H     -0.462958    1.864388   -1.032694
  H     -0.241698    2.091914    0.707289
  H     -1.148423   -0.216934    0.159161
  H      0.268678   -0.535079   -0.825908
  H      2.533574   -1.061043    0.290203
  H      2.795453   -0.526493    2.023734
  H      0.887786   -2.833730    1.104428
  H     -0.039274   -2.391586    3.690889
  H      0.809394   -0.388090    4.629774
  H     -0.752214    0.304652    2.981771

 Total Charge           Charge          ....    0
 Multiplicity           Mult            ....    1
 Number of Electrons    NEL             ....   60
 Basis Dimension        Dim             ....  314

ORBITAL ENERGIES
----------------

  NO   OCC          E(Eh)            E(eV)
   0   2.0000     -15.556719      -423.3198
   1   2.0000     -11.258620      -306.3626
   2   2.0000     -11.256560      -306.3066
   3   2.0000     -11.232983      -305.6650
   4   2.0000     -11.226070      -305.4769
   5   2.0000     -11.223922      -305.4184
   6   2.0000     -11.217193      -305.2353
   7   2.0000     -11.211498      -305.0804
   8   2.0000      -1.280800       -34.8523
   9   2.0000      -1.131061       -30.7777
  10   2.0000      -1.024949       -27.8903
  11   2.0000      -0.913820       -24.8663
  12   2.0000      -0.881163       -23.9777
  13   2.0000      -0.836481       -22.7618
  14   2.0000      -0.762260       -20.7422
  15   2.0000      -0.725045       -19.7295
  16   2.0000      -0.694553       -18.8997
  17   2.0000      -0.636171       -17.3111
  18   2.0000      -0.612513       -16.6673
  19   2.0000      -0.591441       -16.0939
  20   2.0000      -0.558297       -15.1920
  21   2.0000      -0.532145       -14.4804
  22   2.0000      -0.517844       -14.0913
  23   2.0000      -0.501995       -13.6600
  24   2.0000      -0.495740       -13.4898
  25   2.0000      -0.486875       -13.2485
  26   2.0000      -0.442594       -12.0436
  27   2.0000      -0.404350       -11.0029
  28   2.0000      -0.399016       -10.8578
  29   2.0000      -0.321733        -8.7548
  30   0.0000       0.136150         3.7048
  31   0.0000       0.149781         4.0757
  32   0.0000       0.164002         4.4627
  33   0.0000       0.173934         4.7330
  34   0.0000       0.190967         5.1965

MULLIKEN ATOMIC CHARGES
-----------------------
   0 C :   -0.394562
   1 C :   -0.220360
   2 C :    0.161950
   3 C :   -0.307851
   4 C :   -0.119998
   5 C :   -0.090658
   6 N :   -0.380422
   7 C :   -0.167565
   8 H :    0.130582
   9 H :    0.131495
  10 H :    0.124213
  11 H :    0.109295
  12 H :    0.111888
  13 H :    0.123329
  14 H :    0.165286
  15 H :    0.134518
  16 H :    0.137854
  17 H :    0.213480
  18 H :    0.137526
Sum of atomic charges:    0.0000000

LOEWDIN ATOMIC CHARGES
----------------------
   0 C :   -0.310166
   1 C :   -0.258806
   2 C :   -0.188568
   3 C :   -0.183462
   4 C :   -0.150177
   5 C :   -0.210907
   6 N :   -0.002048
   7 C :   -0.192345
   8 H :    0.123088
   9 H :    0.119232
  10 H :    0.120882
  11 H :    0.140185
  12 H :    0.143194
  13 H :    0.141178
  14 H :    0.139733
  15 H :    0.136547
  16 H :    0.129457
  17 H :    0.171411
  18 H :    0.131571

  Mayer bond orders larger than 0.1
B(  0-C ,  1-C ) :   0.9301 B(  0-C ,  8-H ) :   0.9386 B(  0-C ,  9-H ) :   0.9398
B(  0-C , 10-H ) :   0.9381 B(  1-C ,  2-C ) :   0.9172 B(  1-C , 11-H ) :   0.9276
B(  1-C , 12-H ) :   0.9338 B(  2-C ,  3-C ) :   0.8967 B(  2-C ,  4-C ) :   0.8658
B(  2-C ,  5-C ) :  -0.1004 B(  2-C ,  7-C ) :   0.8297 B(  3-C ,  4-C ) :   0.9044
B(  3-C , 13-H ) :   0.9285 B(  3-C , 14-H ) :   0.8905 B(  4-C ,  5-C ) :   0.8883
B(  4-C , 15-H ) :   0.9244 B(  5-C ,  6-N ) :   0.9433 B(  5-C ,  7-C ) :   1.0289
B(  5-C , 16-H ) :   0.9260 B(  6-N ,  7-C ) :   0.9689 B(  6-N , 17-H ) :   0.8685
B(  7-C , 18-H ) :   0.9246

MP2 TOTAL ENERGY:     -327.248099511 Eh
FINAL SINGLE POINT ENERGY      -327.248099511422

DIPOLE MOMENT
-------------
                                X             Y             Z
Electronic contribution:      1.08030      -3.43523       4.85913
Nuclear contribution   :     -1.75303       3.31482      -4.83335
                        -----------------------------------------
Total Dipole Moment    :     -0.67273      -0.12041       0.02577
                        -----------------------------------------
Magnitude (a.u.)       :      0.68391
Magnitude (Debye)      :      1.73836

                             ****ORCA TERMINATED NORMALLY****
TOTAL RUN TIME: 0 days 0 hours 14 minutes 30 seconds 626 msec
