                         Program Version 3.0.3 - RELEASE   -
|  1> ! RI-MP2 RIJK def2-TZVP def2-TZVP/C def2-TZVP/JK TIGHTSCF
|  2> % maxcore 2000
|  3> % mp2 density relaxed end
|  4> *xyz 0 1
|  5>  C       -0.1396981609     1.6210602512    -0.0464949466
|  6>  C        0.1124634964     0.1305425453     0.0295377431
|  7>  O       -0.9716317868    -0.5843303552    -0.5433971433
|  8>  C        1.4036945207    -0.6536486637    -0.2018188390
|  9>  C        2.6762931942    -0.1626222012     0.5305013341
| 10>  N        2.4156518929     1.1256379875     1.2235416435
| 11>  C        1.9669199366    -0.1597094995     1.8242093585
| 12>  C        0.6670439197    -0.7069870946     1.1556616617
| 13>  C       -0.0702487075    -1.8394903909     1.8115501714
| 14>  H       -0.2059538054     1.9268520774    -1.0999946603
| 15>  H       -1.1039768901     1.8410256765     0.4243424093
| 16>  H        0.6484206137     2.1951090600     0.4301742017
| 17>  H       -1.0651188680    -0.2709134955    -1.4496753368
| 18>  H        1.4225473752    -1.4230185878    -0.9642330734
| 19>  H        3.6864050265    -0.4660256418     0.2856814111
| 20>  H        3.2804700968     1.3761832206     1.7041485020
| 21>  H        2.2992444117    -0.4557202751     2.8117536768
| 22>  H       -0.5714509637    -1.5005237077     2.7274257290
| 23>  H       -0.8265850382    -2.2475498550     1.1403551229
| 24>  H        0.6177989562    -2.6458787006     2.0932278841
| 25> *
| 26>
| 27>                          ****END OF INPUT****

CARTESIAN COORDINATES (ANGSTROEM)
---------------------------------
  C     -0.139698    1.621060   -0.046495
  C      0.112463    0.130543    0.029538
  O     -0.971632   -0.584330   -0.543397
  C      1.403695   -0.653649   -0.201819
  C      2.676293   -0.162622    0.530501
  N      2.415652    1.125638    1.223542
  C      1.966920   -0.159709    1.824209
  C      0.667044   -0.706987    1.155662
  C     -0.070249   -1.839490    1.811550
  H     -0.205954    1.926852   -1.099995
  H     -1.103977    1.841026    0.424342
  H      0.648421    2.195109    0.430174
  H     -1.065119   -0.270913   -1.449675
  H      1.422547   -1.423019   -0.964233
  H      3.686405   -0.466026    0.285681
  H      3.280470    1.376183    1.704149
  H      2.299244   -0.455720    2.811754
  H     -0.571451   -1.500524    2.727426
  H     -0.826585   -2.247550    1.140355
  H      0.617799   -2.645879    2.093228

 Total Charge           Charge          ....    0
 Multiplicity           Mult            ....    1
 Number of Electrons    NEL             ....   68
 Basis Dimension        Dim             ....  345

ORBITAL ENERGIES
----------------

  NO   OCC          E(Eh)            E(eV)
   0   2.0000     -20.554290      -559.3107
   1   2.0000     -15.561760      -423.4570
   2   2.0000     -11.292391      -307.2816
   3   2.0000     -11.264720      -306.5286
   4   2.0000     -11.261881      -306.4514
   5   2.0000     -11.237912      -305.7991
   6   2.0000     -11.225960      -305.4739
   7   2.0000     -11.210189      -305.0447
   8   2.0000     -11.200199      -304.7729
   9   2.0000      -1.368053       -37.2266
  10   2.0000      -1.281266       -34.8650
  11   2.0000      -1.121736       -30.5240
  12   2.0000      -0.983415       -26.7601
  13   2.0000      -0.958291       -26.0764
  14   2.0000      -0.889649       -24.2086
  15   2.0000      -0.852179       -23.1890
  16   2.0000      -0.755523       -20.5588
  17   2.0000      -0.728301       -19.8181
  18   2.0000      -0.695260       -18.9190
  19   2.0000      -0.658771       -17.9261
  20   2.0000      -0.622456       -16.9379
  21   2.0000      -0.601462       -16.3666
  22   2.0000      -0.581637       -15.8271
  23   2.0000      -0.569603       -15.4997
  24   2.0000      -0.547410       -14.8958
  25   2.0000      -0.540408       -14.7053
  26   2.0000      -0.516352       -14.0507
  27   2.0000      -0.511425       -13.9166
  28   2.0000      -0.497701       -13.5431
  29   2.0000      -0.479280       -13.0419
  30   2.0000      -0.449624       -12.2349
  31   2.0000      -0.394433       -10.7331
  32   2.0000      -0.385503       -10.4901
  33   2.0000      -0.321276        -8.7424
  34   0.0000       0.137337         3.7371
  35   0.0000       0.143728         3.9110
  36   0.0000       0.158111         4.3024
  37   0.0000       0.175786         4.7834
  38   0.0000       0.193936         5.2773

MULLIKEN ATOMIC CHARGES
-----------------------
   0 C :   -0.375572
   1 C :    0.141873
   2 O :   -0.467621
   3 C :   -0.142400
   4 C :   -0.100028
   5 N :   -0.387329
   6 C :   -0.184479
   7 C :    0.185987
   8 C :   -0.435726
   9 H :    0.100147
  10 H :    0.128783
  11 H :    0.167923
  12 H :    0.315986
  13 H :    0.141504
  14 H :    0.139422
  15 H :    0.212607
  16 H :    0.137662
  17 H :    0.130136
  18 H :    0.165999
  19 H :    0.125127
Sum of atomic charges:   -0.0000000

LOEWDIN ATOMIC CHARGES
----------------------
   0 C :   -0.282821
   1 C :   -0.305089
   2 O :    0.023209
   3 C :   -0.125442
   4 C :   -0.211428
   5 N :    0.001093
   6 C :   -0.188751
   7 C :   -0.167710
   8 C :   -0.272628
   9 H :    0.121446
  10 H :    0.127951
  11 H :    0.132321
  12 H :    0.178385
  13 H :    0.140647
  14 H :    0.130944
  15 H :    0.171953
  16 H :    0.133347
  17 H :    0.128872
  18 H :    0.137108
  19 H :    0.126596

  Mayer bond orders larger than 0.1
B(  0-C ,  1-C ) :   0.8909 B(  0-C ,  9-H ) :   0.9136 B(  0-C , 10-H ) :   0.9365
B(  0-C , 11-H ) :   0.9233 B(  1-C ,  2-O ) :   0.9493 B(  1-C ,  3-C ) :   0.8613
B(  1-C ,  7-C ) :   0.9039 B(  2-O , 12-H ) :   0.8406 B(  3-C ,  4-C ) :   0.8508
B(  3-C ,  7-C ) :   0.8495 B(  3-C , 13-H ) :   0.9141 B(  4-C ,  5-N ) :   0.9382
B(  4-C ,  6-C ) :   1.0190 B(  4-C , 14-H ) :   0.9170 B(  5-N ,  6-C ) :   0.9458
B(  5-N , 15-H ) :   0.8689 B(  6-C ,  7-C ) :   0.8504 B(  6-C , 16-H ) :   0.9246
B(  7-C ,  8-C ) :   0.8771 B(  8-C , 17-H ) :   0.9385 B(  8-C , 18-H ) :   0.9391
B(  8-C , 19-H ) :   0.9319

MP2 TOTAL ENERGY:     -402.363321763 Eh
FINAL SINGLE POINT ENERGY      -402.363321763094

DIPOLE MOMENT
-------------
                                X             Y             Z
Electronic contribution:      1.78786       0.07625      -1.17980
Nuclear contribution   :     -1.08234      -0.20365       1.16519
                        -----------------------------------------
Total Dipole Moment    :      0.70552      -0.12740      -0.01461
                        -----------------------------------------
Magnitude (a.u.)       :      0.71708
Magnitude (Debye)      :      1.82267

                             ****ORCA TERMINATED NORMALLY****
TOTAL RUN TIME: 0 days 0 hours 22 minutes 18 seconds 963 msec
