                         Program Version 3.0.3 - RELEASE   -
|  1> ! RI-MP2 RIJK def2-TZVP def2-TZVP/C def2-TZVP/JK TIGHTSCF
|  2> % maxcore 2000
|  3> % mp2 density relaxed end
|  4> *xyz 0 1
|  5>  C       -0.0013932147     1.5988028168    -0.0903979997
|  6>  C       -0.0164249504     0.0726111755     0.0551573823
|  7>  C        0.7849535459    -0.6419667963    -1.0982294267
|  8>  O        1.6447895477    -1.6804176001    -0.5172650044
|  9>  C        1.5779173101    -1.4421676182     0.8040017908
| 10>  C        0.7071774544    -0.4893711291     1.2513638248
| 11>  C        0.8697652015    -0.5223165850     2.6523543692
| 12>  N        1.7805365552    -1.4242052378     3.0238414610
| 13>  N        2.2118550553    -1.9933472299     1.8496962890
| 14>  H        1.0237361482     1.9817974580    -0.0612535922
| 15>  H       -0.4604034714     1.9114843605    -1.0349507682
| 16>  H       -0.5607940751     2.0704686796     0.7229682014
| 17>  H       -1.0616500274    -0.2643759746     0.0311753033
| 18>  H        0.1447485910    -1.1324887027    -1.8337036667
| 19>  H        1.4417749860     0.0682189500    -1.6122643574
| 20>  H        0.3789779802     0.0623454142     3.4171569415
| 21>  H        2.9148338835    -2.7106772710     1.8734126622
| 22> *
| 23>
| 24>                          ****END OF INPUT****

CARTESIAN COORDINATES (ANGSTROEM)
---------------------------------
  C     -0.001393    1.598803   -0.090398
  C     -0.016425    0.072611    0.055157
  C      0.784954   -0.641967   -1.098229
  O      1.644790   -1.680418   -0.517265
  C      1.577917   -1.442168    0.804002
  C      0.707177   -0.489371    1.251364
  C      0.869765   -0.522317    2.652354
  N      1.780537   -1.424205    3.023841
  N      2.211855   -1.993347    1.849696
  H      1.023736    1.981797   -0.061254
  H     -0.460403    1.911484   -1.034951
  H     -0.560794    2.070469    0.722968
  H     -1.061650   -0.264376    0.031175
  H      0.144749   -1.132489   -1.833704
  H      1.441775    0.068219   -1.612264
  H      0.378978    0.062345    3.417157
  H      2.914834   -2.710677    1.873413

 Total Charge           Charge          ....    0
 Multiplicity           Mult            ....    1
 Number of Electrons    NEL             ....   66
 Basis Dimension        Dim             ....  327

ORBITAL ENERGIES
----------------

  NO   OCC          E(Eh)            E(eV)
   0   2.0000     -20.601781      -560.6030
   1   2.0000     -15.629749      -425.3071
   2   2.0000     -15.574474      -423.8030
   3   2.0000     -11.324486      -308.1549
   4   2.0000     -11.301310      -307.5243
   5   2.0000     -11.258300      -306.3539
   6   2.0000     -11.257045      -306.3198
   7   2.0000     -11.226730      -305.4949
   8   2.0000     -11.205903      -304.9281
   9   2.0000      -1.436350       -39.0851
  10   2.0000      -1.351707       -36.7818
  11   2.0000      -1.110616       -30.2214
  12   2.0000      -1.078937       -29.3594
  13   2.0000      -1.022983       -27.8368
  14   2.0000      -0.940974       -25.6052
  15   2.0000      -0.844852       -22.9896
  16   2.0000      -0.818050       -22.2603
  17   2.0000      -0.777412       -21.1545
  18   2.0000      -0.732530       -19.9332
  19   2.0000      -0.681972       -18.5574
  20   2.0000      -0.637549       -17.3486
  21   2.0000      -0.612197       -16.6587
  22   2.0000      -0.603709       -16.4278
  23   2.0000      -0.596862       -16.2414
  24   2.0000      -0.585426       -15.9302
  25   2.0000      -0.554398       -15.0859
  26   2.0000      -0.528898       -14.3920
  27   2.0000      -0.504192       -13.7198
  28   2.0000      -0.491090       -13.3632
  29   2.0000      -0.490723       -13.3533
  30   2.0000      -0.444152       -12.0860
  31   2.0000      -0.366434        -9.9712
  32   2.0000      -0.310700        -8.4546
  33   0.0000       0.130977         3.5641
  34   0.0000       0.146970         3.9992
  35   0.0000       0.161932         4.4064
  36   0.0000       0.166977         4.5437
  37   0.0000       0.175727         4.7818

MULLIKEN ATOMIC CHARGES
-----------------------
   0 C :   -0.418346
   1 C :   -0.010336
   2 C :   -0.030584
   3 O :   -0.289109
   4 C :    0.198148
   5 C :   -0.076337
   6 C :   -0.155242
   7 N :   -0.196522
   8 N :   -0.153672
   9 H :    0.133171
  10 H :    0.134773
  11 H :    0.135948
  12 H :    0.104418
  13 H :    0.125634
  14 H :    0.113403
  15 H :    0.126772
  16 H :    0.257880
Sum of atomic charges:   -0.0000000

LOEWDIN ATOMIC CHARGES
----------------------
   0 C :   -0.289412
   1 C :   -0.231427
   2 C :   -0.189719
   3 O :    0.224338
   4 C :   -0.349208
   5 C :   -0.173087
   6 C :   -0.257673
   7 N :    0.012587
   8 N :    0.145908
   9 H :    0.125926
  10 H :    0.123227
  11 H :    0.126899
  12 H :    0.153922
  13 H :    0.126379
  14 H :    0.129318
  15 H :    0.133170
  16 H :    0.188851

  Mayer bond orders larger than 0.1
B(  0-C ,  1-C ) :   0.8944 B(  0-C ,  9-H ) :   0.9305 B(  0-C , 10-H ) :   0.9380
B(  0-C , 11-H ) :   0.9362 B(  1-C ,  2-C ) :   0.9547 B(  1-C ,  5-C ) :   0.9334
B(  1-C , 12-H ) :   0.9120 B(  2-C ,  3-O ) :   0.8339 B(  2-C , 13-H ) :   0.9262
B(  2-C , 14-H ) :   0.9250 B(  3-O ,  4-C ) :   1.0990 B(  4-C ,  5-C ) :   1.3242
B(  4-C ,  7-N ) :   0.1087 B(  4-C ,  8-N ) :   1.2314 B(  5-C ,  6-C ) :   1.2524
B(  6-C ,  7-N ) :   1.5790 B(  6-C , 15-H ) :   0.9438 B(  7-N ,  8-N ) :   0.9999
B(  8-N , 16-H ) :   0.8675

MP2 TOTAL ENERGY:     -417.308200003 Eh
FINAL SINGLE POINT ENERGY      -417.308200002738

DIPOLE MOMENT
-------------
                                X             Y             Z
Electronic contribution:      4.19185      -7.04548       3.93274
Nuclear contribution   :     -4.44909       7.27172      -4.90665
                        -----------------------------------------
Total Dipole Moment    :     -0.25723       0.22624      -0.97391
                        -----------------------------------------
Magnitude (a.u.)       :      1.03240
Magnitude (Debye)      :      2.62416

                             ****ORCA TERMINATED NORMALLY****
TOTAL RUN TIME: 0 days 0 hours 17 minutes 24 seconds 926 msec
