                         Program Version 3.0.3 - RELEASE   -
|  1> ! RI-MP2 RIJK def2-TZVP def2-TZVP/C def2-TZVP/JK TIGHTSCF
|  2> % maxcore 2000
|  3> % mp2 density relaxed end
|  4> *xyz 0 1
|  5>  C       -0.2450447780     1.5122592284    -0.1064881627
|  6>  C       -0.0492041665     0.0221832322     0.0666682892
|  7>  C        1.2622624041    -0.6282767451    -0.2224225064
|  8>  N        0.7569269542    -0.5584741044     1.1456533909
|  9>  C        1.4362994613     0.2992824780     2.0769015529
| 10>  C        0.8220035882     0.4700885999     3.4415030862
| 11>  C        2.0913280389    -0.3330605539     3.2844033401
| 12>  C        2.0679294652    -1.8229783867     3.4950531064
| 13>  O        2.1422878731    -2.0684217678     4.8969826305
| 14>  H        0.6869640003     2.0715412291     0.0049035264
| 15>  H       -0.6388187046     1.7208354129    -1.1069165217
| 16>  H       -0.9639165880     1.9029947907     0.6217513742
| 17>  H       -0.9479369664    -0.5609951319    -0.1320402331
| 18>  H        1.3176932372    -1.6195241762    -0.6657834328
| 19>  H        2.0872365781     0.0322028790    -0.4899732477
| 20>  H        1.9586973153     1.1636752490     1.6635813668
| 21>  H        0.8677281692     1.4427352199     3.9181026321
| 22>  H       -0.0864416811    -0.0900125778     3.6343316859
| 23>  H        3.0065628530     0.1437671866     3.6242225747
| 24>  H        1.1518231833    -2.2394104367     3.0569065702
| 25>  H        2.9221053092    -2.2845953147     2.9727117189
| 26>  H        2.1483828141    -3.0212894107     5.0273970990
| 27> *
| 28>
| 29>                          ****END OF INPUT****

CARTESIAN COORDINATES (ANGSTROEM)
---------------------------------
  C     -0.245045    1.512259   -0.106488
  C     -0.049204    0.022183    0.066668
  C      1.262262   -0.628277   -0.222423
  N      0.756927   -0.558474    1.145653
  C      1.436299    0.299282    2.076902
  C      0.822004    0.470089    3.441503
  C      2.091328   -0.333061    3.284403
  C      2.067929   -1.822978    3.495053
  O      2.142288   -2.068422    4.896983
  H      0.686964    2.071541    0.004904
  H     -0.638819    1.720835   -1.106917
  H     -0.963917    1.902995    0.621751
  H     -0.947937   -0.560995   -0.132040
  H      1.317693   -1.619524   -0.665783
  H      2.087237    0.032203   -0.489973
  H      1.958697    1.163675    1.663581
  H      0.867728    1.442735    3.918103
  H     -0.086442   -0.090013    3.634332
  H      3.006563    0.143767    3.624223
  H      1.151823   -2.239410    3.056907
  H      2.922105   -2.284595    2.972712
  H      2.148383   -3.021289    5.027397

 Total Charge           Charge          ....    0
 Multiplicity           Mult            ....    1
 Number of Electrons    NEL             ....   70
 Basis Dimension        Dim             ....  357

ORBITAL ENERGIES
----------------

  NO   OCC          E(Eh)            E(eV)
   0   2.0000     -20.544203      -559.0362
   1   2.0000     -15.556008      -423.3005
   2   2.0000     -11.264746      -306.5293
   3   2.0000     -11.259370      -306.3830
   4   2.0000     -11.255182      -306.2691
   5   2.0000     -11.250350      -306.1376
   6   2.0000     -11.223254      -305.4003
   7   2.0000     -11.221018      -305.3394
   8   2.0000     -11.215022      -305.1763
   9   2.0000      -1.347039       -36.6548
  10   2.0000      -1.274700       -34.6864
  11   2.0000      -1.136473       -30.9250
  12   2.0000      -0.992419       -27.0051
  13   2.0000      -0.942126       -25.6366
  14   2.0000      -0.898439       -24.4478
  15   2.0000      -0.820551       -22.3283
  16   2.0000      -0.783697       -21.3255
  17   2.0000      -0.736894       -20.0519
  18   2.0000      -0.698920       -19.0186
  19   2.0000      -0.676284       -18.4026
  20   2.0000      -0.648797       -17.6547
  21   2.0000      -0.637174       -17.3384
  22   2.0000      -0.595048       -16.1921
  23   2.0000      -0.577398       -15.7118
  24   2.0000      -0.570588       -15.5265
  25   2.0000      -0.550382       -14.9767
  26   2.0000      -0.533657       -14.5216
  27   2.0000      -0.511430       -13.9167
  28   2.0000      -0.502714       -13.6795
  29   2.0000      -0.481585       -13.1046
  30   2.0000      -0.457659       -12.4535
  31   2.0000      -0.439779       -11.9670
  32   2.0000      -0.418351       -11.3839
  33   2.0000      -0.385722       -10.4960
  34   2.0000      -0.359163        -9.7733
  35   0.0000       0.142191         3.8692
  36   0.0000       0.146070         3.9748
  37   0.0000       0.156293         4.2530
  38   0.0000       0.171806         4.6751
  39   0.0000       0.182695         4.9714

MULLIKEN ATOMIC CHARGES
-----------------------
   0 C :   -0.387906
   1 C :   -0.037407
   2 C :   -0.187092
   3 N :   -0.211687
   4 C :   -0.100910
   5 C :   -0.249551
   6 C :   -0.007198
   7 C :   -0.110250
   8 O :   -0.463625
   9 H :    0.123357
  10 H :    0.140253
  11 H :    0.136662
  12 H :    0.114684
  13 H :    0.129347
  14 H :    0.114148
  15 H :    0.099099
  16 H :    0.129303
  17 H :    0.128964
  18 H :    0.117191
  19 H :    0.119614
  20 H :    0.091344
  21 H :    0.311662
Sum of atomic charges:    0.0000000

LOEWDIN ATOMIC CHARGES
----------------------
   0 C :   -0.299191
   1 C :   -0.275149
   2 C :   -0.244146
   3 N :    0.133469
   4 C :   -0.256860
   5 C :   -0.199887
   6 C :   -0.209183
   7 C :   -0.331100
   8 O :   -0.054407
   9 H :    0.124035
  10 H :    0.129967
  11 H :    0.128146
  12 H :    0.140065
  13 H :    0.122337
  14 H :    0.124220
  15 H :    0.135504
  16 H :    0.131243
  17 H :    0.141851
  18 H :    0.148920
  19 H :    0.123382
  20 H :    0.117474
  21 H :    0.169311

  Mayer bond orders larger than 0.1
B(  0-C ,  1-C ) :   0.9116 B(  0-C ,  9-H ) :   0.9339 B(  0-C , 10-H ) :   0.9310
B(  0-C , 11-H ) :   0.9385 B(  1-C ,  2-C ) :   0.9448 B(  1-C ,  3-N ) :   0.8996
B(  1-C , 12-H ) :   0.9259 B(  2-C ,  3-N ) :   0.8674 B(  2-C , 13-H ) :   0.9209
B(  2-C , 14-H ) :   0.9189 B(  3-N ,  4-C ) :   0.9432 B(  4-C ,  5-C ) :   0.9019
B(  4-C ,  6-C ) :   0.8543 B(  4-C , 15-H ) :   0.9110 B(  5-C ,  6-C ) :   0.8952
B(  5-C , 16-H ) :   0.9251 B(  5-C , 17-H ) :   0.9193 B(  6-C ,  7-C ) :   0.9301
B(  6-C , 18-H ) :   0.9263 B(  7-C ,  8-O ) :   1.0249 B(  7-C , 19-H ) :   0.9167
B(  7-C , 20-H ) :   0.9354 B(  8-O , 21-H ) :   0.8504

MP2 TOTAL ENERGY:     -403.602638308 Eh
FINAL SINGLE POINT ENERGY      -403.602638308094

DIPOLE MOMENT
-------------
                                X             Y             Z
Electronic contribution:      1.43530      -3.31632       3.50723
Nuclear contribution   :     -1.42848       3.32488      -4.25478
                        -----------------------------------------
Total Dipole Moment    :      0.00681       0.00856      -0.74755
                        -----------------------------------------
Magnitude (a.u.)       :      0.74763
Magnitude (Debye)      :      1.90031

                             ****ORCA TERMINATED NORMALLY****
TOTAL RUN TIME: 0 days 0 hours 27 minutes 43 seconds 363 msec
