                         Program Version 3.0.3 - RELEASE   -
|  1> ! RI-MP2 RIJK def2-TZVP def2-TZVP/C def2-TZVP/JK TIGHTSCF
|  2> % maxcore 2000
|  3> % mp2 density relaxed end
|  4> *xyz 0 1
|  5>  C        0.0114965466     1.3433080873    -0.0496674484
|  6>  O       -0.0305259014    -0.0484256906     0.1535054389
|  7>  C       -1.3255290219    -0.6316335185     0.0509860153
|  8>  C       -1.7958327327    -0.7445213259    -1.4025488433
|  9>  C       -1.2335188870    -1.9763704055     0.7309225741
| 10>  C       -0.3389066450    -3.1911616738     0.3254649104
| 11>  C       -1.1082483346    -3.6391664319     1.6008216790
| 12>  C       -0.7891518005    -2.2415430695     2.2011367341
| 13>  C       -2.3819211745    -3.0033029595     0.9732085778
| 14>  H        1.0330368988     1.6686250515     0.1643833893
| 15>  H       -0.2332870026     1.6325891871    -1.0823836764
| 16>  H       -0.6767615521     1.8747368189     0.6271037751
| 17>  H       -2.0443383222    -0.0089319623     0.6136666317
| 18>  H       -2.7778228087    -1.2250166080    -1.4500564047
| 19>  H       -1.8855429869     0.2385401023    -1.8729609850
| 20>  H       -1.0872560354    -1.3419189799    -1.9840567805
| 21>  H       -0.5968176455    -3.7034377332    -0.6061512596
| 22>  H        0.7401772759    -3.0503973761     0.4221402645
| 23>  H       -1.0387387830    -4.6038842679     2.1041359247
| 24>  H        0.2563605249    -2.0287991497     2.4351837678
| 25>  H       -1.4600992224    -1.8792642038     2.9862287628
| 26>  H       -3.1725101193    -2.6987031904     1.6660071776
| 27>  H       -2.7941510803    -3.5003782107     0.0900391748
| 28> *
| 29>
| 30>                          ****END OF INPUT****

CARTESIAN COORDINATES (ANGSTROEM)
---------------------------------
  C      0.011497    1.343308   -0.049667
  O     -0.030526   -0.048426    0.153505
  C     -1.325529   -0.631634    0.050986
  C     -1.795833   -0.744521   -1.402549
  C     -1.233519   -1.976370    0.730923
  C     -0.338907   -3.191162    0.325465
  C     -1.108248   -3.639166    1.600822
  C     -0.789152   -2.241543    2.201137
  C     -2.381921   -3.003303    0.973209
  H      1.033037    1.668625    0.164383
  H     -0.233287    1.632589   -1.082384
  H     -0.676762    1.874737    0.627104
  H     -2.044338   -0.008932    0.613667
  H     -2.777823   -1.225017   -1.450056
  H     -1.885543    0.238540   -1.872961
  H     -1.087256   -1.341919   -1.984057
  H     -0.596818   -3.703438   -0.606151
  H      0.740177   -3.050397    0.422140
  H     -1.038739   -4.603884    2.104136
  H      0.256361   -2.028799    2.435184
  H     -1.460099   -1.879264    2.986229
  H     -3.172510   -2.698703    1.666007
  H     -2.794151   -3.500378    0.090039

 Total Charge           Charge          ....    0
 Multiplicity           Mult            ....    1
 Number of Electrons    NEL             ....   70
 Basis Dimension        Dim             ....  363

ORBITAL ENERGIES
----------------

  NO   OCC          E(Eh)            E(eV)
   0   2.0000     -20.548515      -559.1535
   1   2.0000     -11.276145      -306.8395
   2   2.0000     -11.267133      -306.5943
   3   2.0000     -11.239514      -305.8427
   4   2.0000     -11.236020      -305.7477
   5   2.0000     -11.223157      -305.3976
   6   2.0000     -11.218991      -305.2843
   7   2.0000     -11.217868      -305.2537
   8   2.0000     -11.213520      -305.1354
   9   2.0000      -1.369166       -37.2569
  10   2.0000      -1.203639       -32.7527
  11   2.0000      -1.029398       -28.0113
  12   2.0000      -0.930541       -25.3213
  13   2.0000      -0.899570       -24.4785
  14   2.0000      -0.896733       -24.4013
  15   2.0000      -0.866657       -23.5829
  16   2.0000      -0.785475       -21.3739
  17   2.0000      -0.721440       -19.6314
  18   2.0000      -0.674255       -18.3474
  19   2.0000      -0.662265       -18.0211
  20   2.0000      -0.630086       -17.1455
  21   2.0000      -0.609919       -16.5967
  22   2.0000      -0.606176       -16.4949
  23   2.0000      -0.573952       -15.6180
  24   2.0000      -0.565326       -15.3833
  25   2.0000      -0.541462       -14.7339
  26   2.0000      -0.518268       -14.1028
  27   2.0000      -0.493545       -13.4300
  28   2.0000      -0.476943       -12.9783
  29   2.0000      -0.448149       -12.1948
  30   2.0000      -0.444490       -12.0952
  31   2.0000      -0.441449       -12.0124
  32   2.0000      -0.438353       -11.9282
  33   2.0000      -0.420574       -11.4444
  34   2.0000      -0.406339       -11.0570
  35   0.0000       0.139097         3.7850
  36   0.0000       0.158417         4.3107
  37   0.0000       0.165401         4.5008
  38   0.0000       0.173911         4.7324
  39   0.0000       0.183915         5.0046

MULLIKEN ATOMIC CHARGES
-----------------------
   0 C :   -0.230154
   1 O :   -0.303252
   2 C :    0.049465
   3 C :   -0.423864
   4 C :    0.012323
   5 C :   -0.215857
   6 C :   -0.137096
   7 C :   -0.187045
   8 C :   -0.198520
   9 H :    0.139582
  10 H :    0.110827
  11 H :    0.110044
  12 H :    0.068897
  13 H :    0.134319
  14 H :    0.133111
  15 H :    0.137036
  16 H :    0.109872
  17 H :    0.117448
  18 H :    0.131067
  19 H :    0.115773
  20 H :    0.104267
  21 H :    0.109775
  22 H :    0.111983
Sum of atomic charges:   -0.0000000

LOEWDIN ATOMIC CHARGES
----------------------
   0 C :   -0.362840
   1 O :    0.161897
   2 C :   -0.321078
   3 C :   -0.289379
   4 C :   -0.203225
   5 C :   -0.173785
   6 C :   -0.186430
   7 C :   -0.173474
   8 C :   -0.177935
   9 H :    0.113627
  10 H :    0.099686
  11 H :    0.101219
  12 H :    0.140441
  13 H :    0.128659
  14 H :    0.121147
  15 H :    0.128388
  16 H :    0.127047
  17 H :    0.131467
  18 H :    0.121565
  19 H :    0.131038
  20 H :    0.126887
  21 H :    0.127651
  22 H :    0.127425

  Mayer bond orders larger than 0.1
B(  0-C ,  1-O ) :   0.9267 B(  0-C ,  9-H ) :   0.9408 B(  0-C , 10-H ) :   0.9343
B(  0-C , 11-H ) :   0.9370 B(  1-O ,  2-C ) :   1.0073 B(  1-O ,  4-C ) :  -0.1120
B(  2-C ,  3-C ) :   0.9030 B(  2-C ,  4-C ) :   0.8546 B(  2-C , 12-H ) :   0.9525
B(  3-C , 13-H ) :   0.9330 B(  3-C , 14-H ) :   0.9367 B(  3-C , 15-H ) :   0.9367
B(  4-C ,  5-C ) :   0.9041 B(  4-C ,  7-C ) :   0.8774 B(  4-C ,  8-C ) :   0.8835
B(  5-C ,  6-C ) :   0.9081 B(  5-C , 16-H ) :   0.9297 B(  5-C , 17-H ) :   0.9294
B(  6-C ,  7-C ) :   0.9134 B(  6-C ,  8-C ) :   0.9099 B(  6-C , 18-H ) :   0.8998
B(  7-C , 19-H ) :   0.9303 B(  7-C , 20-H ) :   0.9288 B(  8-C , 21-H ) :   0.9316
B(  8-C , 22-H ) :   0.9301

MP2 TOTAL ENERGY:     -387.560335947 Eh
FINAL SINGLE POINT ENERGY      -387.560335947115

DIPOLE MOMENT
-------------
                                X             Y             Z
Electronic contribution:      1.50518      -1.89226       2.24545
Nuclear contribution   :     -1.84615       2.18795      -2.37112
                        -----------------------------------------
Total Dipole Moment    :     -0.34097       0.29569      -0.12567
                        -----------------------------------------
Magnitude (a.u.)       :      0.46849
Magnitude (Debye)      :      1.19081

                             ****ORCA TERMINATED NORMALLY****
TOTAL RUN TIME: 0 days 0 hours 20 minutes 19 seconds 346 msec
