                         Program Version 3.0.3 - RELEASE   -
|  1> ! RI-MP2 RIJK def2-TZVP def2-TZVP/C def2-TZVP/JK TIGHTSCF
|  2> % maxcore 2000
|  3> % mp2 density relaxed end
|  4> *xyz 0 1
|  5>  C       -0.3219114641     1.4683904216     0.1253655191
|  6>  O       -0.0804239962     0.0796131158     0.1698106548
|  7>  C       -1.2415975253    -0.7388035647     0.0440262103
|  8>  C       -1.7594690290    -0.8006567821    -1.3927865835
|  9>  C       -0.8268702815    -2.1197262498     0.5522655354
| 10>  N       -0.3047804140    -2.0497514492     1.9023954627
| 11>  C       -0.7879273542    -2.7924061261     2.9304990579
| 12>  O       -1.6625860095    -3.6298874365     2.8442388399
| 13>  H        0.6274059160     1.9665107512     0.3377960172
| 14>  H       -0.6757708304     1.8036520960    -0.8595348963
| 15>  H       -1.0612442331     1.7755706013     0.8811659185
| 16>  H       -2.0290629412    -0.3431538920     0.7067075341
| 17>  H       -2.0705506997     0.1840734436    -1.7512205511
| 18>  H       -0.9817367365    -1.1798965453    -2.0630604293
| 19>  H       -2.6272108044    -1.4647840017    -1.4553982872
| 20>  H       -1.6811858562    -2.7989038750     0.5710647372
| 21>  H       -0.0718417188    -2.5351453724    -0.1284352548
| 22>  H        0.3879969007    -1.3403956908     2.0827919550
| 23>  H       -0.2790980625    -2.5485454640     3.8845648901
| 24> *
| 25>
| 26>                          ****END OF INPUT****

CARTESIAN COORDINATES (ANGSTROEM)
---------------------------------
  C     -0.321911    1.468390    0.125366
  O     -0.080424    0.079613    0.169811
  C     -1.241598   -0.738804    0.044026
  C     -1.759469   -0.800657   -1.392787
  C     -0.826870   -2.119726    0.552266
  N     -0.304780   -2.049751    1.902395
  C     -0.787927   -2.792406    2.930499
  O     -1.662586   -3.629887    2.844239
  H      0.627406    1.966511    0.337796
  H     -0.675771    1.803652   -0.859535
  H     -1.061244    1.775571    0.881166
  H     -2.029063   -0.343154    0.706708
  H     -2.070551    0.184073   -1.751221
  H     -0.981737   -1.179897   -2.063060
  H     -2.627211   -1.464784   -1.455398
  H     -1.681186   -2.798904    0.571065
  H     -0.071842   -2.535145   -0.128435
  H      0.387997   -1.340396    2.082792
  H     -0.279098   -2.548545    3.884565

 Total Charge           Charge          ....    0
 Multiplicity           Mult            ....    1
 Number of Electrons    NEL             ....   64
 Basis Dimension        Dim             ....  314

ORBITAL ENERGIES
----------------

  NO   OCC          E(Eh)            E(eV)
   0   2.0000     -20.566451      -559.6416
   1   2.0000     -20.515856      -558.2648
   2   2.0000     -15.582044      -424.0090
   3   2.0000     -11.343544      -308.6735
   4   2.0000     -11.291446      -307.2559
   5   2.0000     -11.281071      -306.9735
   6   2.0000     -11.262303      -306.4629
   7   2.0000     -11.225979      -305.4744
   8   2.0000      -1.387373       -37.7523
   9   2.0000      -1.375792       -37.4372
  10   2.0000      -1.230802       -33.4918
  11   2.0000      -1.058382       -28.8000
  12   2.0000      -0.954756       -25.9802
  13   2.0000      -0.930410       -25.3177
  14   2.0000      -0.823745       -22.4152
  15   2.0000      -0.797081       -21.6897
  16   2.0000      -0.737888       -20.0790
  17   2.0000      -0.684561       -18.6278
  18   2.0000      -0.658081       -17.9073
  19   2.0000      -0.647473       -17.6186
  20   2.0000      -0.629953       -17.1419
  21   2.0000      -0.603945       -16.4342
  22   2.0000      -0.583466       -15.8769
  23   2.0000      -0.565038       -15.3755
  24   2.0000      -0.554223       -15.0812
  25   2.0000      -0.534613       -14.5476
  26   2.0000      -0.528146       -14.3716
  27   2.0000      -0.506332       -13.7780
  28   2.0000      -0.480484       -13.0746
  29   2.0000      -0.434586       -11.8257
  30   2.0000      -0.426213       -11.5978
  31   2.0000      -0.388866       -10.5816
  32   0.0000       0.132994         3.6189
  33   0.0000       0.148961         4.0534
  34   0.0000       0.159020         4.3271
  35   0.0000       0.173204         4.7131
  36   0.0000       0.179612         4.8875

MULLIKEN ATOMIC CHARGES
-----------------------
   0 C :   -0.223075
   1 O :   -0.334153
   2 C :    0.068958
   3 C :   -0.405783
   4 C :   -0.081161
   5 N :   -0.319784
   6 C :    0.191087
   7 O :   -0.376151
   8 H :    0.141766
   9 H :    0.118031
  10 H :    0.117061
  11 H :    0.085320
  12 H :    0.135881
  13 H :    0.133548
  14 H :    0.138675
  15 H :    0.159498
  16 H :    0.125087
  17 H :    0.248632
  18 H :    0.076563
Sum of atomic charges:   -0.0000000

LOEWDIN ATOMIC CHARGES
----------------------
   0 C :   -0.358546
   1 O :    0.143099
   2 C :   -0.354644
   3 C :   -0.293983
   4 C :   -0.255050
   5 N :    0.088322
   6 C :   -0.442221
   7 O :    0.045722
   8 H :    0.114407
   9 H :    0.102747
  10 H :    0.103298
  11 H :    0.137835
  12 H :    0.123631
  13 H :    0.128204
  14 H :    0.131201
  15 H :    0.152036
  16 H :    0.138383
  17 H :    0.186966
  18 H :    0.108594

  Mayer bond orders larger than 0.1
B(  0-C ,  1-O ) :   0.9098 B(  0-C ,  8-H ) :   0.9395 B(  0-C ,  9-H ) :   0.9356
B(  0-C , 10-H ) :   0.9359 B(  1-O ,  2-C ) :   0.9059 B(  2-C ,  3-C ) :   0.9207
B(  2-C ,  4-C ) :   0.9408 B(  2-C , 11-H ) :   0.9325 B(  3-C , 12-H ) :   0.9356
B(  3-C , 13-H ) :   0.9296 B(  3-C , 14-H ) :   0.9324 B(  4-C ,  5-N ) :   0.8233
B(  4-C , 15-H ) :   0.9192 B(  4-C , 16-H ) :   0.9237 B(  5-N ,  6-C ) :   1.1691
B(  5-N , 17-H ) :   0.8640 B(  6-C ,  7-O ) :   1.8799 B(  6-C , 18-H ) :   0.9305

MP2 TOTAL ENERGY:     -401.569470114 Eh
FINAL SINGLE POINT ENERGY      -401.569470114187

DIPOLE MOMENT
-------------
                                X             Y             Z
Electronic contribution:      1.26546      -5.86149       6.46370
Nuclear contribution   :     -0.82608       7.28252      -7.08809
                        -----------------------------------------
Total Dipole Moment    :      0.43938       1.42103      -0.62439
                        -----------------------------------------
Magnitude (a.u.)       :      1.61315
Magnitude (Debye)      :      4.10029

                             ****ORCA TERMINATED NORMALLY****
TOTAL RUN TIME: 0 days 0 hours 11 minutes 31 seconds 146 msec
