                         Program Version 3.0.3 - RELEASE   -
|  1> ! RI-MP2 RIJK def2-TZVP def2-TZVP/C def2-TZVP/JK TIGHTSCF
|  2> % maxcore 2000
|  3> % mp2 density relaxed end
|  4> *xyz 0 1
|  5>  N        0.8538649727     0.2813554771    -0.2093222838
|  6>  C       -0.3336887734     0.6281303182     0.0697921420
|  7>  N       -1.3960206983    -0.1878128507    -0.3020318486
|  8>  C       -2.7169516764     0.1053509134    -0.0399705614
|  9>  O       -3.0803993691     1.1183867492     0.5143781851
| 10>  C       -3.6955731218    -0.9982442081    -0.4640768262
| 11>  O       -4.9852520715    -0.4983027763    -0.7069569030
| 12>  C       -5.7255285930    -0.1522269102     0.3776235045
| 13>  N       -6.8697181527     0.3429697083     0.2054495997
| 14>  H        1.5163996218     0.9785858492     0.1249987781
| 15>  H       -0.6680889216     1.5276251297     0.5894019107
| 16>  H       -1.1463823849    -1.0327715502    -0.7979233908
| 17>  H       -3.3691181660    -1.4743536466    -1.3929980440
| 18>  H       -3.6968534506    -1.7692840044     0.3221361143
| 19>  H       -5.2322614970    -0.3670040889     1.3322925873
| 20>  H       -7.3067693481     0.5303931504     1.1051493862
| 21> *
| 22>
| 23>                          ****END OF INPUT****

CARTESIAN COORDINATES (ANGSTROEM)
---------------------------------
  N      0.853865    0.281355   -0.209322
  C     -0.333689    0.628130    0.069792
  N     -1.396021   -0.187813   -0.302032
  C     -2.716952    0.105351   -0.039971
  O     -3.080399    1.118387    0.514378
  C     -3.695573   -0.998244   -0.464077
  O     -4.985252   -0.498303   -0.706957
  C     -5.725529   -0.152227    0.377624
  N     -6.869718    0.342970    0.205450
  H      1.516400    0.978586    0.124999
  H     -0.668089    1.527625    0.589402
  H     -1.146382   -1.032772   -0.797923
  H     -3.369118   -1.474354   -1.392998
  H     -3.696853   -1.769284    0.322136
  H     -5.232261   -0.367004    1.332293
  H     -7.306769    0.530393    1.105149

 Total Charge           Charge          ....    0
 Multiplicity           Mult            ....    1
 Number of Electrons    NEL             ....   68
 Basis Dimension        Dim             ....  321

ORBITAL ENERGIES
----------------

  NO   OCC          E(Eh)            E(eV)
   0   2.0000     -20.607717      -560.7645
   1   2.0000     -20.558684      -559.4302
   2   2.0000     -15.626844      -425.2280
   3   2.0000     -15.560887      -423.4333
   4   2.0000     -15.541562      -422.9074
   5   2.0000     -11.389016      -309.9109
   6   2.0000     -11.341791      -308.6258
   7   2.0000     -11.338757      -308.5433
   8   2.0000     -11.332361      -308.3692
   9   2.0000      -1.450763       -39.4773
  10   2.0000      -1.419057       -38.6145
  11   2.0000      -1.301249       -35.4088
  12   2.0000      -1.204749       -32.7829
  13   2.0000      -1.194728       -32.5102
  14   2.0000      -1.026117       -27.9221
  15   2.0000      -0.893785       -24.3211
  16   2.0000      -0.838339       -22.8124
  17   2.0000      -0.832263       -22.6470
  18   2.0000      -0.746669       -20.3179
  19   2.0000      -0.734159       -19.9775
  20   2.0000      -0.694158       -18.8890
  21   2.0000      -0.683288       -18.5932
  22   2.0000      -0.668302       -18.1854
  23   2.0000      -0.641235       -17.4489
  24   2.0000      -0.627923       -17.0867
  25   2.0000      -0.604860       -16.4591
  26   2.0000      -0.567992       -15.4559
  27   2.0000      -0.542022       -14.7492
  28   2.0000      -0.512118       -13.9354
  29   2.0000      -0.481481       -13.1018
  30   2.0000      -0.449709       -12.2372
  31   2.0000      -0.439077       -11.9479
  32   2.0000      -0.406161       -11.0522
  33   2.0000      -0.402341       -10.9482
  34   0.0000       0.107921         2.9367
  35   0.0000       0.117670         3.2020
  36   0.0000       0.144782         3.9397
  37   0.0000       0.147365         4.0100
  38   0.0000       0.161785         4.4024

MULLIKEN ATOMIC CHARGES
-----------------------
   0 N :   -0.377596
   1 C :    0.047343
   2 N :   -0.286204
   3 C :    0.303090
   4 O :   -0.336312
   5 C :   -0.137629
   6 O :   -0.215251
   7 C :    0.094675
   8 N :   -0.340094
   9 H :    0.232849
  10 H :    0.148851
  11 H :    0.250043
  12 H :    0.154826
  13 H :    0.150929
  14 H :    0.082833
  15 H :    0.227648
Sum of atomic charges:   -0.0000000

LOEWDIN ATOMIC CHARGES
----------------------
   0 N :   -0.080060
   1 C :   -0.318168
   2 N :    0.136919
   3 C :   -0.433717
   4 O :    0.125318
   5 C :   -0.290354
   6 O :    0.252182
   7 C :   -0.386124
   8 N :   -0.073470
   9 H :    0.169752
  10 H :    0.132899
  11 H :    0.200803
  12 H :    0.143021
  13 H :    0.140035
  14 H :    0.110754
  15 H :    0.170211

  Mayer bond orders larger than 0.1
B(  0-N ,  1-C ) :   1.9259 B(  0-N ,  9-H ) :   0.8626 B(  1-C ,  2-N ) :   0.9743
B(  1-C , 10-H ) :   0.9250 B(  2-N ,  3-C ) :   1.0929 B(  2-N , 11-H ) :   0.8582
B(  3-C ,  4-O ) :   1.9097 B(  3-C ,  5-C ) :   0.9002 B(  5-C ,  6-O ) :   0.9271
B(  5-C , 12-H ) :   0.9123 B(  5-C , 13-H ) :   0.9310 B(  6-O ,  7-C ) :   1.0102
B(  7-C ,  8-N ) :   1.9560 B(  7-C , 14-H ) :   0.9231 B(  8-N , 15-H ) :   0.8497

MP2 TOTAL ENERGY:     -470.468076786 Eh
FINAL SINGLE POINT ENERGY      -470.468076785836

DIPOLE MOMENT
-------------
                                X             Y             Z
Electronic contribution:     -0.77365       1.20068      -0.77342
Nuclear contribution   :      1.79423      -1.97770       1.54507
                        -----------------------------------------
Total Dipole Moment    :      1.02057      -0.77703       0.77165
                        -----------------------------------------
Magnitude (a.u.)       :      1.49692
Magnitude (Debye)      :      3.80488

                             ****ORCA TERMINATED NORMALLY****
TOTAL RUN TIME: 0 days 0 hours 11 minutes 15 seconds 607 msec
