                         Program Version 3.0.3 - RELEASE   -
|  1> ! RI-MP2 RIJK def2-TZVP def2-TZVP/C def2-TZVP/JK TIGHTSCF
|  2> % maxcore 2000
|  3> % mp2 density relaxed end
|  4> *xyz 0 1
|  5>  C        0.0295199342     1.5444692532     0.1470223253
|  6>  C       -0.0825744684     0.0166554565     0.1081055004
|  7>  C       -1.5136278568    -0.5235953917    -0.0758244158
|  8>  C       -2.1237520948    -0.1201423696    -1.4258872257
|  9>  C       -1.5405286007    -2.0432502934     0.0939999332
| 10>  C       -1.1900170232    -2.6599137704     1.4803187045
| 11>  C       -2.2970034170    -3.7053538006     1.2515865759
| 12>  O       -3.0441855163    -4.0131010127     2.4062380050
| 13>  C       -2.9139683768    -2.7728047787     0.1737148063
| 14>  H        1.0603768769     1.8559898367     0.3433519685
| 15>  H       -0.2757792483     2.0028534006    -0.7985309438
| 16>  H       -0.6000699399     1.9663351257     0.9388138100
| 17>  H        0.5519388869    -0.3771635393    -0.6985097978
| 18>  H        0.3271922742    -0.3901313724     1.0408657961
| 19>  H       -2.1387315623    -0.0937081521     0.7224199403
| 20>  H       -2.1899212595     0.9659567575    -1.5358854838
| 21>  H       -1.5188230758    -0.5034936505    -2.2569524053
| 22>  H       -3.1350365525    -0.5237694513    -1.5379800488
| 23>  H       -0.9203103816    -2.5029658520    -0.6863617227
| 24>  H       -0.1741218090    -3.0175359639     1.6609110665
| 25>  H       -1.4853390501    -1.9902197331     2.2950837029
| 26>  H       -1.8877481200    -4.6160541941     0.7898691925
| 27>  H       -3.7087526579    -4.6682460926     2.1704890497
| 28>  H       -3.6736304041    -2.1315609435     0.6337835440
| 29>  H       -3.3229335674    -3.2242013284    -0.7339812473
| 30> *
| 31>
| 32>                          ****END OF INPUT****

CARTESIAN COORDINATES (ANGSTROEM)
---------------------------------
  C      0.029520    1.544469    0.147022
  C     -0.082574    0.016655    0.108106
  C     -1.513628   -0.523595   -0.075824
  C     -2.123752   -0.120142   -1.425887
  C     -1.540529   -2.043250    0.094000
  C     -1.190017   -2.659914    1.480319
  C     -2.297003   -3.705354    1.251587
  O     -3.044186   -4.013101    2.406238
  C     -2.913968   -2.772805    0.173715
  H      1.060377    1.855990    0.343352
  H     -0.275779    2.002853   -0.798531
  H     -0.600070    1.966335    0.938814
  H      0.551939   -0.377164   -0.698510
  H      0.327192   -0.390131    1.040866
  H     -2.138732   -0.093708    0.722420
  H     -2.189921    0.965957   -1.535885
  H     -1.518823   -0.503494   -2.256952
  H     -3.135037   -0.523769   -1.537980
  H     -0.920310   -2.502966   -0.686362
  H     -0.174122   -3.017536    1.660911
  H     -1.485339   -1.990220    2.295084
  H     -1.887748   -4.616054    0.789869
  H     -3.708753   -4.668246    2.170489
  H     -3.673630   -2.131561    0.633784
  H     -3.322934   -3.224201   -0.733981

 Total Charge           Charge          ....    0
 Multiplicity           Mult            ....    1
 Number of Electrons    NEL             ....   72
 Basis Dimension        Dim             ....  375

ORBITAL ENERGIES
----------------

  NO   OCC          E(Eh)            E(eV)
   0   2.0000     -20.552734      -559.2683
   1   2.0000     -11.275098      -306.8110
   2   2.0000     -11.223479      -305.4064
   3   2.0000     -11.221205      -305.3445
   4   2.0000     -11.215306      -305.1840
   5   2.0000     -11.215000      -305.1757
   6   2.0000     -11.213148      -305.1253
   7   2.0000     -11.209793      -305.0340
   8   2.0000     -11.208882      -305.0092
   9   2.0000      -1.359349       -36.9898
  10   2.0000      -1.131920       -30.8011
  11   2.0000      -1.064626       -28.9699
  12   2.0000      -0.979893       -26.6643
  13   2.0000      -0.904130       -24.6026
  14   2.0000      -0.894067       -24.3288
  15   2.0000      -0.841614       -22.9015
  16   2.0000      -0.772960       -21.0333
  17   2.0000      -0.749497       -20.3948
  18   2.0000      -0.694919       -18.9097
  19   2.0000      -0.655482       -17.8366
  20   2.0000      -0.624972       -17.0064
  21   2.0000      -0.606455       -16.5025
  22   2.0000      -0.589558       -16.0427
  23   2.0000      -0.565137       -15.3781
  24   2.0000      -0.554984       -15.1019
  25   2.0000      -0.538829       -14.6623
  26   2.0000      -0.534874       -14.5546
  27   2.0000      -0.525927       -14.3112
  28   2.0000      -0.504822       -13.7369
  29   2.0000      -0.478653       -13.0248
  30   2.0000      -0.473915       -12.8959
  31   2.0000      -0.469023       -12.7628
  32   2.0000      -0.450326       -12.2540
  33   2.0000      -0.438880       -11.9425
  34   2.0000      -0.424027       -11.5384
  35   2.0000      -0.405203       -11.0261
  36   0.0000       0.134105         3.6492
  37   0.0000       0.140414         3.8208
  38   0.0000       0.153377         4.1736
  39   0.0000       0.162313         4.4168
  40   0.0000       0.166182         4.5220

MULLIKEN ATOMIC CHARGES
-----------------------
   0 C :   -0.407521
   1 C :   -0.190081
   2 C :   -0.073028
   3 C :   -0.422541
   4 C :   -0.105622
   5 C :   -0.189363
   6 C :    0.022035
   7 O :   -0.449719
   8 C :   -0.184319
   9 H :    0.134556
  10 H :    0.127402
  11 H :    0.123554
  12 H :    0.102449
  13 H :    0.116455
  14 H :    0.078855
  15 H :    0.136040
  16 H :    0.120148
  17 H :    0.134977
  18 H :    0.089481
  19 H :    0.123210
  20 H :    0.106619
  21 H :    0.075598
  22 H :    0.313676
  23 H :    0.095359
  24 H :    0.121782
Sum of atomic charges:    0.0000000

LOEWDIN ATOMIC CHARGES
----------------------
   0 C :   -0.319671
   1 C :   -0.269611
   2 C :   -0.275286
   3 C :   -0.289461
   4 C :   -0.212895
   5 C :   -0.203225
   6 C :   -0.336602
   7 O :   -0.023941
   8 C :   -0.214193
   9 H :    0.120963
  10 H :    0.118516
  11 H :    0.121063
  12 H :    0.136560
  13 H :    0.140104
  14 H :    0.152474
  15 H :    0.121551
  16 H :    0.123839
  17 H :    0.124463
  18 H :    0.151147
  19 H :    0.124166
  20 H :    0.144657
  21 H :    0.129030
  22 H :    0.174737
  23 H :    0.140474
  24 H :    0.121143

  Mayer bond orders larger than 0.1
B(  0-C ,  1-C ) :   0.9154 B(  0-C ,  9-H ) :   0.9430 B(  0-C , 10-H ) :   0.9429
B(  0-C , 11-H ) :   0.9380 B(  1-C ,  2-C ) :   0.9254 B(  1-C , 12-H ) :   0.9247
B(  1-C , 13-H ) :   0.9369 B(  2-C ,  3-C ) :   0.9093 B(  2-C ,  4-C ) :   0.9062
B(  2-C , 14-H ) :   0.9154 B(  3-C , 15-H ) :   0.9426 B(  3-C , 16-H ) :   0.9311
B(  3-C , 17-H ) :   0.9405 B(  4-C ,  5-C ) :   0.9149 B(  4-C ,  8-C ) :   0.9280
B(  4-C , 18-H ) :   0.9163 B(  5-C ,  6-C ) :   0.9156 B(  5-C ,  7-O ) :  -0.1147
B(  5-C , 19-H ) :   0.9261 B(  5-C , 20-H ) :   0.9014 B(  6-C ,  7-O ) :   1.1533
B(  6-C ,  8-C ) :   0.9214 B(  6-C , 21-H ) :   0.9704 B(  7-O ,  8-C ) :  -0.1158
B(  7-O , 22-H ) :   0.8467 B(  8-C , 23-H ) :   0.8906 B(  8-C , 24-H ) :   0.9218

MP2 TOTAL ENERGY:     -388.815998261 Eh
FINAL SINGLE POINT ENERGY      -388.815998260759

DIPOLE MOMENT
-------------
                                X             Y             Z
Electronic contribution:     -3.19840      -8.00215       4.49762
Nuclear contribution   :      3.09921       7.76812      -5.01852
                        -----------------------------------------
Total Dipole Moment    :     -0.09919      -0.23403      -0.52090
                        -----------------------------------------
Magnitude (a.u.)       :      0.57960
Magnitude (Debye)      :      1.47323

                             ****ORCA TERMINATED NORMALLY****
TOTAL RUN TIME: 0 days 0 hours 20 minutes 43 seconds 27 msec
