                         Program Version 3.0.3 - RELEASE   -
|  1> ! RI-MP2 RIJK def2-TZVP def2-TZVP/C def2-TZVP/JK TIGHTSCF
|  2> % maxcore 2000
|  3> % mp2 density relaxed end
|  4> *xyz 0 1
|  5>  C       -0.1413430589     1.5134208702     0.3369219323
|  6>  N        0.0197377064     0.0726009888     0.1858573889
|  7>  C        1.3145092742    -0.4405673744    -0.2133785097
|  8>  C        0.7999941426    -0.6922422727     1.1781829674
|  9>  C        1.4970618783    -0.0029512194     2.3540571968
| 10>  C        0.5402722350     0.3639882381     3.4746731879
| 11>  O        0.5459491670     1.4251402890     4.0436480427
| 12>  C        0.2525806243    -1.9906733065     1.5027252386
| 13>  C       -0.1675763542    -3.0775972431     1.7993724382
| 14>  H        0.7674349961     2.0487192502     0.6478503842
| 15>  H       -0.4586903940     1.9198933048    -0.6282160058
| 16>  H       -0.9297249629     1.7173300062     1.0670479322
| 17>  H        1.3107502497    -1.2436942991    -0.9450488565
| 18>  H        2.1464304772     0.2592461641    -0.2983432749
| 19>  H        2.2285447385    -0.7106755879     2.7677023876
| 20>  H        2.0402914422     0.8936650139     2.0514172677
| 21>  H       -0.1800845886    -0.4372746951     3.7486475214
| 22>  H       -0.5539184828    -4.0350620771     2.0483207109
| 23> *
| 24>
| 25>                          ****END OF INPUT****

CARTESIAN COORDINATES (ANGSTROEM)
---------------------------------
  C     -0.141343    1.513421    0.336922
  N      0.019738    0.072601    0.185857
  C      1.314509   -0.440567   -0.213379
  C      0.799994   -0.692242    1.178183
  C      1.497062   -0.002951    2.354057
  C      0.540272    0.363988    3.474673
  O      0.545949    1.425140    4.043648
  C      0.252581   -1.990673    1.502725
  C     -0.167576   -3.077597    1.799372
  H      0.767435    2.048719    0.647850
  H     -0.458690    1.919893   -0.628216
  H     -0.929725    1.717330    1.067048
  H      1.310750   -1.243694   -0.945049
  H      2.146430    0.259246   -0.298343
  H      2.228545   -0.710676    2.767702
  H      2.040291    0.893665    2.051417
  H     -0.180085   -0.437275    3.748648
  H     -0.553918   -4.035062    2.048321

 Total Charge           Charge          ....    0
 Multiplicity           Mult            ....    1
 Number of Electrons    NEL             ....   66
 Basis Dimension        Dim             ....  333

ORBITAL ENERGIES
----------------

  NO   OCC          E(Eh)            E(eV)
   0   2.0000     -20.561635      -559.5105
   1   2.0000     -15.579779      -423.9473
   2   2.0000     -11.336626      -308.4853
   3   2.0000     -11.308950      -307.7322
   4   2.0000     -11.275987      -306.8352
   5   2.0000     -11.258615      -306.3625
   6   2.0000     -11.258265      -306.3530
   7   2.0000     -11.244501      -305.9784
   8   2.0000     -11.235400      -305.7308
   9   2.0000      -1.400606       -38.1124
  10   2.0000      -1.298716       -35.3398
  11   2.0000      -1.079580       -29.3769
  12   2.0000      -1.025438       -27.9036
  13   2.0000      -0.998693       -27.1758
  14   2.0000      -0.870617       -23.6907
  15   2.0000      -0.843759       -22.9598
  16   2.0000      -0.805727       -21.9249
  17   2.0000      -0.727549       -19.7976
  18   2.0000      -0.695732       -18.9318
  19   2.0000      -0.686927       -18.6922
  20   2.0000      -0.650707       -17.7066
  21   2.0000      -0.639005       -17.3882
  22   2.0000      -0.613846       -16.7036
  23   2.0000      -0.581276       -15.8173
  24   2.0000      -0.577327       -15.7099
  25   2.0000      -0.554575       -15.0907
  26   2.0000      -0.519430       -14.1344
  27   2.0000      -0.510365       -13.8877
  28   2.0000      -0.477107       -12.9827
  29   2.0000      -0.433593       -11.7987
  30   2.0000      -0.410934       -11.1821
  31   2.0000      -0.399118       -10.8605
  32   2.0000      -0.368643       -10.0313
  33   0.0000       0.126459         3.4411
  34   0.0000       0.141002         3.8369
  35   0.0000       0.150670         4.0999
  36   0.0000       0.157389         4.2828
  37   0.0000       0.167868         4.5679

MULLIKEN ATOMIC CHARGES
-----------------------
   0 C :   -0.308928
   1 N :   -0.212934
   2 C :   -0.170908
   3 C :   -0.087678
   4 C :   -0.153011
   5 C :    0.074237
   6 O :   -0.262866
   7 C :   -0.029115
   8 C :   -0.105065
   9 H :    0.115448
  10 H :    0.149358
  11 H :    0.147311
  12 H :    0.139304
  13 H :    0.121773
  14 H :    0.153632
  15 H :    0.127695
  16 H :    0.106098
  17 H :    0.195648
Sum of atomic charges:    0.0000000

LOEWDIN ATOMIC CHARGES
----------------------
   0 C :   -0.320178
   1 N :    0.124958
   2 C :   -0.203274
   3 C :   -0.272053
   4 C :   -0.211551
   5 C :   -0.283511
   6 O :    0.134356
   7 C :   -0.067410
   8 C :   -0.082255
   9 H :    0.108169
  10 H :    0.123041
  11 H :    0.123658
  12 H :    0.132212
  13 H :    0.127694
  14 H :    0.167400
  15 H :    0.149737
  16 H :    0.120275
  17 H :    0.128733

  Mayer bond orders larger than 0.1
B(  0-C ,  1-N ) :   0.8777 B(  0-C ,  9-H ) :   0.9271 B(  0-C , 10-H ) :   0.9303
B(  0-C , 11-H ) :   0.9366 B(  1-N ,  2-C ) :   0.9420 B(  1-N ,  3-C ) :   0.7974
B(  2-C ,  3-C ) :   0.8964 B(  2-C , 12-H ) :   0.9112 B(  2-C , 13-H ) :   0.9113
B(  3-C ,  4-C ) :   0.9345 B(  3-C ,  7-C ) :   1.2085 B(  3-C ,  8-C ) :  -0.1460
B(  4-C ,  5-C ) :   0.8739 B(  4-C , 14-H ) :   0.9064 B(  4-C , 15-H ) :   0.8991
B(  5-C ,  6-O ) :   1.9898 B(  5-C , 16-H ) :   0.9332 B(  7-C ,  8-C ) :   2.5845
B(  8-C , 17-H ) :   0.8811

MP2 TOTAL ENERGY:     -401.180138118 Eh
FINAL SINGLE POINT ENERGY      -401.180138117628

DIPOLE MOMENT
-------------
                                X             Y             Z
Electronic contribution:     -1.01073      -2.73720       3.57875
Nuclear contribution   :      1.54401       2.31417      -4.08774
                        -----------------------------------------
Total Dipole Moment    :      0.53328      -0.42303      -0.50899
                        -----------------------------------------
Magnitude (a.u.)       :      0.84995
Magnitude (Debye)      :      2.16040

                             ****ORCA TERMINATED NORMALLY****
TOTAL RUN TIME: 0 days 0 hours 17 minutes 10 seconds 773 msec
