                         Program Version 3.0.3 - RELEASE   -
|  1> ! RI-MP2 RIJK def2-TZVP def2-TZVP/C def2-TZVP/JK TIGHTSCF
|  2> % maxcore 2000
|  3> % mp2 density relaxed end
|  4> *xyz 0 1
|  5>  O        0.5742665836     1.2064155341     0.2194325322
|  6>  C        0.2193226675    -0.1039158995     0.0798755279
|  7>  C        0.1642099890    -0.7869977725    -1.1110122175
|  8>  N       -0.2374136265    -2.0742416105    -0.8101490944
|  9>  C       -0.4271873705    -2.2073853453     0.5350004879
| 10>  C       -0.1520579433    -0.9937209246     1.1345391009
| 11>  C       -0.2454373137    -0.6239553318     2.5670527938
| 12>  C        0.3468184277    -1.5054339059     3.6381320548
| 13>  C        1.0005431378    -0.1852418307     3.3260853933
| 14>  H        0.6090797872     1.3929165023     1.1639373190
| 15>  H        0.3752553903    -0.4730995287    -2.1187059006
| 16>  H       -0.3555891090    -2.8074051012    -1.4851025208
| 17>  H       -0.7438823553    -3.1423105500     0.9688058735
| 18>  H       -1.1548955564    -0.1008976278     2.8589696927
| 19>  H       -0.1899577845    -1.6021859947     4.5751586785
| 20>  H        0.8584342251    -2.4053245732     3.3166748064
| 21>  H        1.9462722221    -0.2098285378     2.7955870386
| 22>  H        0.9085642489     0.6162538978     4.0511884536
| 23> *
| 24>
| 25>                          ****END OF INPUT****

CARTESIAN COORDINATES (ANGSTROEM)
---------------------------------
  O      0.574267    1.206416    0.219433
  C      0.219323   -0.103916    0.079876
  C      0.164210   -0.786998   -1.111012
  N     -0.237414   -2.074242   -0.810149
  C     -0.427187   -2.207385    0.535000
  C     -0.152058   -0.993721    1.134539
  C     -0.245437   -0.623955    2.567053
  C      0.346818   -1.505434    3.638132
  C      1.000543   -0.185242    3.326085
  H      0.609080    1.392917    1.163937
  H      0.375255   -0.473100   -2.118706
  H     -0.355589   -2.807405   -1.485103
  H     -0.743882   -3.142311    0.968806
  H     -1.154896   -0.100898    2.858970
  H     -0.189958   -1.602186    4.575159
  H      0.858434   -2.405325    3.316675
  H      1.946272   -0.209829    2.795587
  H      0.908564    0.616254    4.051188

 Total Charge           Charge          ....    0
 Multiplicity           Mult            ....    1
 Number of Electrons    NEL             ....   66
 Basis Dimension        Dim             ....  333

ORBITAL ENERGIES
----------------

  NO   OCC          E(Eh)            E(eV)
   0   2.0000     -20.568676      -559.7021
   1   2.0000     -15.598896      -424.4675
   2   2.0000     -11.266520      -306.5776
   3   2.0000     -11.253434      -306.2215
   4   2.0000     -11.239509      -305.8426
   5   2.0000     -11.235220      -305.7259
   6   2.0000     -11.229647      -305.5742
   7   2.0000     -11.228536      -305.5440
   8   2.0000     -11.212812      -305.1161
   9   2.0000      -1.383531       -37.6478
  10   2.0000      -1.283504       -34.9259
  11   2.0000      -1.146863       -31.2077
  12   2.0000      -1.033378       -28.1196
  13   2.0000      -0.975560       -26.5463
  14   2.0000      -0.854600       -23.2548
  15   2.0000      -0.827080       -22.5060
  16   2.0000      -0.780489       -21.2382
  17   2.0000      -0.763738       -20.7824
  18   2.0000      -0.726320       -19.7642
  19   2.0000      -0.666444       -18.1349
  20   2.0000      -0.647761       -17.6265
  21   2.0000      -0.622067       -16.9273
  22   2.0000      -0.606717       -16.5096
  23   2.0000      -0.588544       -16.0151
  24   2.0000      -0.579150       -15.7595
  25   2.0000      -0.533760       -14.5244
  26   2.0000      -0.527784       -14.3617
  27   2.0000      -0.517774       -14.0894
  28   2.0000      -0.503412       -13.6985
  29   2.0000      -0.434597       -11.8260
  30   2.0000      -0.416224       -11.3260
  31   2.0000      -0.320718        -8.7272
  32   2.0000      -0.286258        -7.7895
  33   0.0000       0.134730         3.6662
  34   0.0000       0.144247         3.9251
  35   0.0000       0.159842         4.3495
  36   0.0000       0.164438         4.4746
  37   0.0000       0.179346         4.8802

MULLIKEN ATOMIC CHARGES
-----------------------
   0 O :   -0.443645
   1 C :    0.088403
   2 C :   -0.125534
   3 N :   -0.245603
   4 C :   -0.140693
   5 C :    0.081434
   6 C :   -0.238619
   7 C :   -0.245875
   8 C :   -0.294213
   9 H :    0.340590
  10 H :    0.144316
  11 H :    0.243422
  12 H :    0.146557
  13 H :    0.138774
  14 H :    0.130403
  15 H :    0.133448
  16 H :    0.153734
  17 H :    0.133101
Sum of atomic charges:    0.0000000

LOEWDIN ATOMIC CHARGES
----------------------
   0 O :    0.056448
   1 C :   -0.290034
   2 C :   -0.225768
   3 N :    0.175947
   4 C :   -0.216264
   5 C :   -0.179979
   6 C :   -0.202103
   7 C :   -0.219166
   8 C :   -0.234492
   9 H :    0.191915
  10 H :    0.133324
  11 H :    0.189981
  12 H :    0.134337
  13 H :    0.153752
  14 H :    0.131125
  15 H :    0.135463
  16 H :    0.136397
  17 H :    0.129117

  Mayer bond orders larger than 0.1
B(  0-O ,  1-C ) :   1.1009 B(  0-O ,  9-H ) :   0.8292 B(  1-C ,  2-C ) :   1.5238
B(  1-C ,  5-C ) :   1.1815 B(  2-C ,  3-N ) :   1.0786 B(  2-C , 10-H ) :   0.9117
B(  3-N ,  4-C ) :   1.1940 B(  3-N , 11-H ) :   0.8784 B(  4-C ,  5-C ) :   1.3684
B(  4-C , 12-H ) :   0.9086 B(  5-C ,  6-C ) :   0.8456 B(  6-C ,  7-C ) :   0.8863
B(  6-C ,  8-C ) :   0.8849 B(  6-C , 13-H ) :   0.9393 B(  7-C ,  8-C ) :   0.9106
B(  7-C , 14-H ) :   0.9313 B(  7-C , 15-H ) :   0.9277 B(  8-C , 16-H ) :   0.9267
B(  8-C , 17-H ) :   0.9300

MP2 TOTAL ENERGY:     -401.269600918 Eh
FINAL SINGLE POINT ENERGY      -401.269600917934

DIPOLE MOMENT
-------------
                                X             Y             Z
Electronic contribution:     -0.97383       0.85889      -6.02479
Nuclear contribution   :      0.81414      -1.62204       6.15506
                        -----------------------------------------
Total Dipole Moment    :     -0.15969      -0.76314       0.13027
                        -----------------------------------------
Magnitude (a.u.)       :      0.79048
Magnitude (Debye)      :      2.00925

                             ****ORCA TERMINATED NORMALLY****
TOTAL RUN TIME: 0 days 0 hours 16 minutes 2 seconds 638 msec
