                         Program Version 3.0.3 - RELEASE   -
|  1> ! RI-MP2 RIJK def2-TZVP def2-TZVP/C def2-TZVP/JK TIGHTSCF
|  2> % maxcore 2000
|  3> % mp2 density relaxed end
|  4> *xyz 0 1
|  5>  C        0.3727270926     1.8030868689     0.9255561155
|  6>  N        0.3278595801     0.3893671306     1.2358936772
|  7>  C        0.0972873451    -0.4108581542     0.2833112749
|  8>  N        0.0424884421    -1.7763369687     0.5216653079
|  9>  C       -0.2011472135    -2.7362533050    -0.4427502349
| 10>  N       -0.4026968705    -2.4508817635    -1.6643219122
| 11>  C       -0.6545811128    -3.4829949347    -2.6444556211
| 12>  C       -0.1989546493    -4.0897093541     0.1013952552
| 13>  N       -0.2013612270    -5.1702322038     0.5127174457
| 14>  H        1.3499151979     2.2096270904     1.2107379914
| 15>  H        0.1962307476     2.0324452821    -0.1369119568
| 16>  H       -0.3769030094     2.3332882621     1.5242651388
| 17>  H       -0.0738163932    -0.1444128396    -0.7627325133
| 18>  H        0.1947939669    -2.0690383860     1.4754471219
| 19>  H       -1.6241659747    -3.2948487909    -3.1194059324
| 20>  H        0.1020021681    -3.4168074706    -3.4345391330
| 21>  H       -0.6536191599    -4.5053674130    -2.2432853849
| 22> *
| 23>
| 24>                          ****END OF INPUT****

CARTESIAN COORDINATES (ANGSTROEM)
---------------------------------
  C      0.372727    1.803087    0.925556
  N      0.327860    0.389367    1.235894
  C      0.097287   -0.410858    0.283311
  N      0.042488   -1.776337    0.521665
  C     -0.201147   -2.736253   -0.442750
  N     -0.402697   -2.450882   -1.664322
  C     -0.654581   -3.482995   -2.644456
  C     -0.198955   -4.089709    0.101395
  N     -0.201361   -5.170232    0.512717
  H      1.349915    2.209627    1.210738
  H      0.196231    2.032445   -0.136912
  H     -0.376903    2.333288    1.524265
  H     -0.073816   -0.144413   -0.762733
  H      0.194794   -2.069038    1.475447
  H     -1.624166   -3.294849   -3.119406
  H      0.102002   -3.416807   -3.434539
  H     -0.653619   -4.505367   -2.243285

 Total Charge           Charge          ....    0
 Multiplicity           Mult            ....    1
 Number of Electrons    NEL             ....   66
 Basis Dimension        Dim             ....  327

ORBITAL ENERGIES
----------------

  NO   OCC          E(Eh)            E(eV)
   0   2.0000     -15.618188      -424.9925
   1   2.0000     -15.610913      -424.7945
   2   2.0000     -15.581844      -424.0035
   3   2.0000     -15.555632      -423.2903
   4   2.0000     -11.381017      -309.6932
   5   2.0000     -11.323723      -308.1342
   6   2.0000     -11.304702      -307.6166
   7   2.0000     -11.266837      -306.5862
   8   2.0000     -11.252307      -306.1908
   9   2.0000      -1.336610       -36.3710
  10   2.0000      -1.261411       -34.3247
  11   2.0000      -1.240661       -33.7601
  12   2.0000      -1.194407       -32.5015
  13   2.0000      -1.003484       -27.3062
  14   2.0000      -0.949397       -25.8344
  15   2.0000      -0.905476       -24.6393
  16   2.0000      -0.816460       -22.2170
  17   2.0000      -0.774279       -21.0692
  18   2.0000      -0.697563       -18.9816
  19   2.0000      -0.660327       -17.9684
  20   2.0000      -0.637413       -17.3449
  21   2.0000      -0.632886       -17.2217
  22   2.0000      -0.599434       -16.3114
  23   2.0000      -0.597589       -16.2612
  24   2.0000      -0.582079       -15.8392
  25   2.0000      -0.571217       -15.5436
  26   2.0000      -0.554109       -15.0781
  27   2.0000      -0.511495       -13.9185
  28   2.0000      -0.502816       -13.6823
  29   2.0000      -0.452900       -12.3240
  30   2.0000      -0.437079       -11.8935
  31   2.0000      -0.419082       -11.4038
  32   2.0000      -0.356778        -9.7084
  33   0.0000       0.075576         2.0565
  34   0.0000       0.132350         3.6014
  35   0.0000       0.143977         3.9178
  36   0.0000       0.155940         4.2433
  37   0.0000       0.166580         4.5329

MULLIKEN ATOMIC CHARGES
-----------------------
   0 C :   -0.253792
   1 N :   -0.238874
   2 C :    0.047438
   3 N :   -0.290667
   4 C :    0.376011
   5 N :   -0.257833
   6 C :   -0.286773
   7 C :   -0.247175
   8 N :   -0.029838
   9 H :    0.139615
  10 H :    0.099752
  11 H :    0.139614
  12 H :    0.124675
  13 H :    0.260324
  14 H :    0.146491
  15 H :    0.146493
  16 H :    0.124539
Sum of atomic charges:   -0.0000000

LOEWDIN ATOMIC CHARGES
----------------------
   0 C :   -0.335433
   1 N :    0.053392
   2 C :   -0.294777
   3 N :    0.154306
   4 C :   -0.340611
   5 N :    0.103177
   6 C :   -0.323499
   7 C :   -0.152219
   8 N :    0.093974
   9 H :    0.118897
  10 H :    0.104442
  11 H :    0.118899
  12 H :    0.131829
  13 H :    0.204858
  14 H :    0.123516
  15 H :    0.123503
  16 H :    0.115744

  Mayer bond orders larger than 0.1
B(  0-C ,  1-N ) :   0.9010 B(  0-C ,  9-H ) :   0.9310 B(  0-C , 10-H ) :   0.9300
B(  0-C , 11-H ) :   0.9310 B(  1-N ,  2-C ) :   1.8457 B(  2-C ,  3-N ) :   0.9990
B(  2-C , 12-H ) :   0.9187 B(  3-N ,  4-C ) :   1.0710 B(  3-N , 13-H ) :   0.8576
B(  4-C ,  5-N ) :   1.7783 B(  4-C ,  7-C ) :   0.8629 B(  5-N ,  6-C ) :   0.8875
B(  6-C , 14-H ) :   0.9296 B(  6-C , 15-H ) :   0.9296 B(  6-C , 16-H ) :   0.9209
B(  7-C ,  8-N ) :   2.8234

MP2 TOTAL ENERGY:     -413.481794961 Eh
FINAL SINGLE POINT ENERGY      -413.481794961231

DIPOLE MOMENT
-------------
                                X             Y             Z
Electronic contribution:      0.09710      -7.33478       3.42457
Nuclear contribution   :     -0.15369       8.08229      -4.02912
                        -----------------------------------------
Total Dipole Moment    :     -0.05659       0.74751      -0.60455
                        -----------------------------------------
Magnitude (a.u.)       :      0.96305
Magnitude (Debye)      :      2.44788

                             ****ORCA TERMINATED NORMALLY****
TOTAL RUN TIME: 0 days 0 hours 14 minutes 37 seconds 47 msec
