                         Program Version 3.0.3 - RELEASE   -
|  1> ! RI-MP2 RIJK def2-TZVP def2-TZVP/C def2-TZVP/JK TIGHTSCF
|  2> % maxcore 2000
|  3> % mp2 density relaxed end
|  4> *xyz 0 1
|  5>  O       -0.0083349736     1.4933464257    -0.0565986031
|  6>  C        0.0357407889     0.0842685321    -0.0304661459
|  7>  C        0.6533143039    -0.5103139061    -1.3172727925
|  8>  C       -0.0779085752    -0.1362409121    -2.5191031663
|  9>  C       -0.6956103336     0.1629277228    -3.5051769775
| 10>  C        0.8251307145    -0.3722885495     1.2129118061
| 11>  O        2.1157595573     0.1849477543     1.1707780790
| 12>  C        0.1197026972     0.0720989945     2.4811972225
| 13>  O        0.6901432176     0.7251436974     3.3199108496
| 14>  H        0.9036662653     1.7872471406     0.0736337810
| 15>  H       -1.0026151322    -0.2574410824     0.0538700339
| 16>  H        1.6962769084    -0.1774084888    -1.3842713015
| 17>  H        0.6824745290    -1.6042849754    -1.2262005636
| 18>  H       -1.2347280974     0.4349720143    -4.3783618925
| 19>  H        0.8667202433    -1.4765807753     1.2341585266
| 20>  H        2.2433868744     0.6039493264     2.0386332123
| 21>  H       -0.9352706877    -0.2450027484     2.5993624420
| 22> *
| 23>
| 24>                          ****END OF INPUT****

CARTESIAN COORDINATES (ANGSTROEM)
---------------------------------
  O     -0.008335    1.493346   -0.056599
  C      0.035741    0.084269   -0.030466
  C      0.653314   -0.510314   -1.317273
  C     -0.077909   -0.136241   -2.519103
  C     -0.695610    0.162928   -3.505177
  C      0.825131   -0.372289    1.212912
  O      2.115760    0.184948    1.170778
  C      0.119703    0.072099    2.481197
  O      0.690143    0.725144    3.319911
  H      0.903666    1.787247    0.073634
  H     -1.002615   -0.257441    0.053870
  H      1.696277   -0.177408   -1.384271
  H      0.682475   -1.604285   -1.226201
  H     -1.234728    0.434972   -4.378362
  H      0.866720   -1.476581    1.234159
  H      2.243387    0.603949    2.038633
  H     -0.935271   -0.245003    2.599362

 Total Charge           Charge          ....    0
 Multiplicity           Mult            ....    1
 Number of Electrons    NEL             ....   68
 Basis Dimension        Dim             ....  327

ORBITAL ENERGIES
----------------

  NO   OCC          E(Eh)            E(eV)
   0   2.0000     -20.587607      -560.2173
   1   2.0000     -20.582163      -560.0691
   2   2.0000     -20.569304      -559.7192
   3   2.0000     -11.357916      -309.0646
   4   2.0000     -11.315572      -307.9124
   5   2.0000     -11.311468      -307.8007
   6   2.0000     -11.263563      -306.4971
   7   2.0000     -11.235995      -305.7470
   8   2.0000     -11.222914      -305.3910
   9   2.0000      -1.437761       -39.1235
  10   2.0000      -1.395844       -37.9828
  11   2.0000      -1.370543       -37.2944
  12   2.0000      -1.092205       -29.7204
  13   2.0000      -1.037438       -28.2301
  14   2.0000      -0.976002       -26.5584
  15   2.0000      -0.868188       -23.6246
  16   2.0000      -0.819562       -22.3014
  17   2.0000      -0.754559       -20.5326
  18   2.0000      -0.723008       -19.6740
  19   2.0000      -0.707961       -19.2646
  20   2.0000      -0.698128       -18.9970
  21   2.0000      -0.666468       -18.1355
  22   2.0000      -0.646120       -17.5818
  23   2.0000      -0.631262       -17.1775
  24   2.0000      -0.599446       -16.3117
  25   2.0000      -0.575590       -15.6626
  26   2.0000      -0.561810       -15.2876
  27   2.0000      -0.547274       -14.8921
  28   2.0000      -0.531473       -14.4621
  29   2.0000      -0.490487       -13.3468
  30   2.0000      -0.460980       -12.5439
  31   2.0000      -0.452037       -12.3006
  32   2.0000      -0.388900       -10.5825
  33   2.0000      -0.386932       -10.5290
  34   0.0000       0.108486         2.9520
  35   0.0000       0.131276         3.5722
  36   0.0000       0.146188         3.9780
  37   0.0000       0.159254         4.3335
  38   0.0000       0.167372         4.5544

MULLIKEN ATOMIC CHARGES
-----------------------
   0 O :   -0.461937
   1 C :    0.134728
   2 C :   -0.473771
   3 C :    0.031108
   4 C :   -0.099383
   5 C :    0.030581
   6 O :   -0.500083
   7 C :    0.127365
   8 O :   -0.287823
   9 H :    0.324487
  10 H :    0.113102
  11 H :    0.170610
  12 H :    0.138921
  13 H :    0.191635
  14 H :    0.111561
  15 H :    0.343274
  16 H :    0.105624
Sum of atomic charges:   -0.0000000

LOEWDIN ATOMIC CHARGES
----------------------
   0 O :    0.008507
   1 C :   -0.326099
   2 C :   -0.234223
   3 C :   -0.110636
   4 C :   -0.099328
   5 C :   -0.355100
   6 O :   -0.005095
   7 C :   -0.263245
   8 O :    0.134150
   9 H :    0.183258
  10 H :    0.153047
  11 H :    0.164243
  12 H :    0.160456
  13 H :    0.126514
  14 H :    0.154501
  15 H :    0.185561
  16 H :    0.123489

  Mayer bond orders larger than 0.1
B(  0-O ,  1-C ) :   0.9239 B(  0-O ,  9-H ) :   0.8217 B(  1-C ,  2-C ) :   0.9093
B(  1-C ,  5-C ) :   0.8664 B(  1-C , 10-H ) :   0.9179 B(  2-C ,  3-C ) :   1.1062
B(  2-C ,  4-C ) :  -0.1407 B(  2-C , 11-H ) :   0.9243 B(  2-C , 12-H ) :   0.9218
B(  3-C ,  4-C ) :   2.6233 B(  4-C , 13-H ) :   0.8917 B(  5-C ,  6-O ) :   1.0539
B(  5-C ,  7-C ) :   0.8797 B(  5-C , 14-H ) :   0.9264 B(  6-O , 15-H ) :   0.7956
B(  7-C ,  8-O ) :   1.9154 B(  7-C , 16-H ) :   0.9297

MP2 TOTAL ENERGY:     -458.195852767 Eh
FINAL SINGLE POINT ENERGY      -458.195852767030

DIPOLE MOMENT
-------------
                                X             Y             Z
Electronic contribution:      0.24305       1.76087       2.46484
Nuclear contribution   :     -0.37529      -2.55641      -2.38083
                        -----------------------------------------
Total Dipole Moment    :     -0.13224      -0.79555       0.08400
                        -----------------------------------------
Magnitude (a.u.)       :      0.81082
Magnitude (Debye)      :      2.06095

                             ****ORCA TERMINATED NORMALLY****
TOTAL RUN TIME: 0 days 0 hours 15 minutes 43 seconds 170 msec
