                         Program Version 3.0.3 - RELEASE   -
|  1> ! RI-MP2 RIJK def2-TZVP def2-TZVP/C def2-TZVP/JK TIGHTSCF
|  2> % maxcore 2000
|  3> % mp2 density relaxed end
|  4> *xyz 0 1
|  5>  C       -0.3629065843     1.5631476442    -0.0498287529
|  6>  C       -0.3340454863     0.0406527904    -0.2065653051
|  7>  C        0.9058645302    -0.4648895117    -0.9564349464
|  8>  C        0.9455823014    -1.9717427568    -1.1036011548
|  9>  C        0.2155380480    -2.6566775336    -2.2412845550
| 10>  C        1.7191733108    -2.6278810970    -2.2084586068
| 11>  C        2.6239369266    -1.9836291144    -3.2720282678
| 12>  C        3.3347959167    -3.3603743085    -3.4334957816
| 13>  C        2.6318021368    -3.8612811491    -2.1371595628
| 14>  H        0.5128156431     1.9212588100     0.5032386687
| 15>  H       -0.3614659044     2.0625372862    -1.0254247659
| 16>  H       -1.2553274995     1.8937367281     0.4909511516
| 17>  H       -0.3716232034    -0.4310369722     0.7843951079
| 18>  H       -1.2345197815    -0.2963050264    -0.7353844880
| 19>  H        0.9421184097    -0.0009329095    -1.9513039700
| 20>  H        1.8088622924    -0.1217088862    -0.4312014702
| 21>  H        0.9422810884    -2.5119411343    -0.1573784115
| 22>  H       -0.2881294745    -3.5985760139    -2.0451830935
| 23>  H       -0.2878347171    -2.0264179599    -2.9700677549
| 24>  H        2.1343920880    -1.5762529269    -4.1609659844
| 25>  H        3.2848181066    -1.2137534586    -2.8596670627
| 26>  H        2.9980210872    -3.8987747963    -4.3227414778
| 27>  H        4.4269023894    -3.3518370091    -3.4278522425
| 28>  H        3.2949072500    -3.8487173927    -1.2654787112
| 29>  H        2.1452689757    -4.8396866417    -2.1863273924
| 30> *
| 31>
| 32>                          ****END OF INPUT****

CARTESIAN COORDINATES (ANGSTROEM)
---------------------------------
  C     -0.362907    1.563148   -0.049829
  C     -0.334045    0.040653   -0.206565
  C      0.905865   -0.464890   -0.956435
  C      0.945582   -1.971743   -1.103601
  C      0.215538   -2.656678   -2.241285
  C      1.719173   -2.627881   -2.208459
  C      2.623937   -1.983629   -3.272028
  C      3.334796   -3.360374   -3.433496
  C      2.631802   -3.861281   -2.137160
  H      0.512816    1.921259    0.503239
  H     -0.361466    2.062537   -1.025425
  H     -1.255327    1.893737    0.490951
  H     -0.371623   -0.431037    0.784395
  H     -1.234520   -0.296305   -0.735384
  H      0.942118   -0.000933   -1.951304
  H      1.808862   -0.121709   -0.431201
  H      0.942281   -2.511941   -0.157378
  H     -0.288129   -3.598576   -2.045183
  H     -0.287835   -2.026418   -2.970068
  H      2.134392   -1.576253   -4.160966
  H      3.284818   -1.213753   -2.859667
  H      2.998021   -3.898775   -4.322741
  H      4.426902   -3.351837   -3.427852
  H      3.294907   -3.848717   -1.265479
  H      2.145269   -4.839687   -2.186327

 Total Charge           Charge          ....    0
 Multiplicity           Mult            ....    1
 Number of Electrons    NEL             ....   70
 Basis Dimension        Dim             ....  375

ORBITAL ENERGIES
----------------

  NO   OCC          E(Eh)            E(eV)
   0   2.0000     -11.225471      -305.4606
   1   2.0000     -11.219434      -305.2963
   2   2.0000     -11.216685      -305.2215
   3   2.0000     -11.216026      -305.2036
   4   2.0000     -11.216022      -305.2035
   5   2.0000     -11.215401      -305.1866
   6   2.0000     -11.214246      -305.1552
   7   2.0000     -11.214075      -305.1505
   8   2.0000     -11.209213      -305.0182
   9   2.0000      -1.161717       -31.6119
  10   2.0000      -1.076877       -29.3033
  11   2.0000      -1.037888       -28.2424
  12   2.0000      -0.933448       -25.4004
  13   2.0000      -0.896737       -24.4015
  14   2.0000      -0.832824       -22.6623
  15   2.0000      -0.816039       -22.2056
  16   2.0000      -0.770313       -20.9613
  17   2.0000      -0.708698       -19.2847
  18   2.0000      -0.655996       -17.8505
  19   2.0000      -0.634824       -17.2745
  20   2.0000      -0.627318       -17.0702
  21   2.0000      -0.610816       -16.6212
  22   2.0000      -0.568417       -15.4674
  23   2.0000      -0.543140       -14.7796
  24   2.0000      -0.532028       -14.4772
  25   2.0000      -0.521963       -14.2033
  26   2.0000      -0.505065       -13.7435
  27   2.0000      -0.492054       -13.3895
  28   2.0000      -0.480742       -13.0816
  29   2.0000      -0.470485       -12.8025
  30   2.0000      -0.464649       -12.6438
  31   2.0000      -0.464296       -12.6341
  32   2.0000      -0.431550       -11.7431
  33   2.0000      -0.384558       -10.4644
  34   2.0000      -0.373512       -10.1638
  35   0.0000       0.136530         3.7152
  36   0.0000       0.150944         4.1074
  37   0.0000       0.160018         4.3543
  38   0.0000       0.166095         4.5197
  39   0.0000       0.170690         4.6447

MULLIKEN ATOMIC CHARGES
-----------------------
   0 C :   -0.384749
   1 C :   -0.179588
   2 C :   -0.288713
   3 C :   -0.059315
   4 C :   -0.343154
   5 C :    0.067825
   6 C :   -0.214512
   7 C :   -0.223078
   8 C :   -0.213173
   9 H :    0.120228
  10 H :    0.120948
  11 H :    0.132562
  12 H :    0.102784
  13 H :    0.110567
  14 H :    0.115091
  15 H :    0.111987
  16 H :    0.111643
  17 H :    0.125450
  18 H :    0.121638
  19 H :    0.109513
  20 H :    0.112828
  21 H :    0.111368
  22 H :    0.113400
  23 H :    0.109062
  24 H :    0.109388
Sum of atomic charges:   -0.0000000

LOEWDIN ATOMIC CHARGES
----------------------
   0 C :   -0.323103
   1 C :   -0.291730
   2 C :   -0.249960
   3 C :   -0.196873
   4 C :   -0.191475
   5 C :   -0.214524
   6 C :   -0.201401
   7 C :   -0.232349
   8 C :   -0.199704
   9 H :    0.119568
  10 H :    0.119557
  11 H :    0.119915
  12 H :    0.134254
  13 H :    0.135582
  14 H :    0.142982
  15 H :    0.139622
  16 H :    0.150093
  17 H :    0.131784
  18 H :    0.134304
  19 H :    0.126186
  20 H :    0.134118
  21 H :    0.131387
  22 H :    0.122212
  23 H :    0.133154
  24 H :    0.126404

  Mayer bond orders larger than 0.1
B(  0-C ,  1-C ) :   0.9188 B(  0-C ,  9-H ) :   0.9388 B(  0-C , 10-H ) :   0.9404
B(  0-C , 11-H ) :   0.9439 B(  1-C ,  2-C ) :   0.9336 B(  1-C , 12-H ) :   0.9327
B(  1-C , 13-H ) :   0.9351 B(  2-C ,  3-C ) :   0.9029 B(  2-C , 14-H ) :   0.9288
B(  2-C , 15-H ) :   0.9323 B(  3-C ,  4-C ) :   0.9291 B(  3-C ,  5-C ) :   0.8098
B(  3-C , 16-H ) :   0.9202 B(  4-C ,  5-C ) :   0.8517 B(  4-C , 17-H ) :   0.9218
B(  4-C , 18-H ) :   0.9205 B(  5-C ,  6-C ) :   0.9128 B(  5-C ,  8-C ) :   0.8980
B(  6-C ,  7-C ) :   0.9686 B(  6-C , 19-H ) :   0.9232 B(  6-C , 20-H ) :   0.9229
B(  7-C ,  8-C ) :   0.9653 B(  7-C , 21-H ) :   0.9211 B(  7-C , 22-H ) :   0.9314
B(  8-C , 23-H ) :   0.9242 B(  8-C , 24-H ) :   0.9222

MP2 TOTAL ENERGY:     -351.683569376 Eh
FINAL SINGLE POINT ENERGY      -351.683569376239

DIPOLE MOMENT
-------------
                                X             Y             Z
Electronic contribution:      1.71901      -4.41570      -1.61287
Nuclear contribution   :     -1.69194       4.40998       1.62352
                        -----------------------------------------
Total Dipole Moment    :      0.02707      -0.00571       0.01065
                        -----------------------------------------
Magnitude (a.u.)       :      0.02965
Magnitude (Debye)      :      0.07536

                             ****ORCA TERMINATED NORMALLY****
TOTAL RUN TIME: 0 days 0 hours 20 minutes 35 seconds 601 msec
