                         Program Version 3.0.3 - RELEASE   -
|  1> ! RI-MP2 RIJK def2-TZVP def2-TZVP/C def2-TZVP/JK TIGHTSCF
|  2> % maxcore 2000
|  3> % mp2 density relaxed end
|  4> *xyz 0 1
|  5>  C       -0.0966643069     1.3986113060     0.0101745630
|  6>  N       -0.0475020174    -0.0480837400     0.0020766733
|  7>  N        0.0037329662    -0.7473413225    -1.1418763984
|  8>  C        0.0906534257    -1.9987559911    -0.7049100584
|  9>  C        0.2113638309    -3.3919552575    -1.2440340914
| 10>  N        0.0651491237    -4.2424882062    -0.0212845294
| 11>  C        0.2239790973    -3.4052927868     1.2090764198
| 12>  C        0.0978111945    -2.0063212871     0.6864015083
| 13>  N        0.0154518185    -0.7597358772     1.1378098682
| 14>  H        0.9120952697     1.8246890782     0.0028187511
| 15>  H       -0.6344437967     1.7302235483    -0.8782100315
| 16>  H       -0.6173185263     1.7201972908     0.9122921252
| 17>  H       -0.5475302773    -3.6573726675    -1.9863658870
| 18>  H        1.1916141324    -3.5608645226    -1.7094035131
| 19>  H       -0.8743233183    -4.6195024815    -0.0185033156
| 20>  H       -0.5272556914    -3.6788187669     1.9562395758
| 21>  H        1.2089543754    -3.5792035364     1.6624729202
| 22> *
| 23>
| 24>                          ****END OF INPUT****

CARTESIAN COORDINATES (ANGSTROEM)
---------------------------------
  C     -0.096664    1.398611    0.010175
  N     -0.047502   -0.048084    0.002077
  N      0.003733   -0.747341   -1.141876
  C      0.090653   -1.998756   -0.704910
  C      0.211364   -3.391955   -1.244034
  N      0.065149   -4.242488   -0.021285
  C      0.223979   -3.405293    1.209076
  C      0.097811   -2.006321    0.686402
  N      0.015452   -0.759736    1.137810
  H      0.912095    1.824689    0.002819
  H     -0.634444    1.730224   -0.878210
  H     -0.617319    1.720197    0.912292
  H     -0.547530   -3.657373   -1.986366
  H      1.191614   -3.560865   -1.709404
  H     -0.874323   -4.619502   -0.018503
  H     -0.527256   -3.678819    1.956240
  H      1.208954   -3.579204    1.662473

 Total Charge           Charge          ....    0
 Multiplicity           Mult            ....    1
 Number of Electrons    NEL             ....   66
 Basis Dimension        Dim             ....  327

ORBITAL ENERGIES
----------------

  NO   OCC          E(Eh)            E(eV)
   0   2.0000     -15.672260      -426.4639
   1   2.0000     -15.608441      -424.7273
   2   2.0000     -15.608380      -424.7256
   3   2.0000     -15.555356      -423.2828
   4   2.0000     -11.274489      -306.7944
   5   2.0000     -11.268620      -306.6347
   6   2.0000     -11.268602      -306.6342
   7   2.0000     -11.251077      -306.1574
   8   2.0000     -11.249805      -306.1228
   9   2.0000      -1.435524       -39.0626
  10   2.0000      -1.228406       -33.4266
  11   2.0000      -1.184712       -32.2376
  12   2.0000      -1.123638       -30.5757
  13   2.0000      -0.981435       -26.7062
  14   2.0000      -0.975150       -26.5352
  15   2.0000      -0.858904       -23.3720
  16   2.0000      -0.798469       -21.7275
  17   2.0000      -0.795112       -21.6361
  18   2.0000      -0.688247       -18.7282
  19   2.0000      -0.675876       -18.3915
  20   2.0000      -0.661461       -17.9993
  21   2.0000      -0.610161       -16.6033
  22   2.0000      -0.609808       -16.5937
  23   2.0000      -0.580719       -15.8022
  24   2.0000      -0.564854       -15.3705
  25   2.0000      -0.561062       -15.2673
  26   2.0000      -0.537615       -14.6293
  27   2.0000      -0.527517       -14.3545
  28   2.0000      -0.469430       -12.7738
  29   2.0000      -0.469312       -12.7706
  30   2.0000      -0.392206       -10.6725
  31   2.0000      -0.391633       -10.6569
  32   2.0000      -0.341069        -9.2809
  33   0.0000       0.124833         3.3969
  34   0.0000       0.134140         3.6501
  35   0.0000       0.153717         4.1828
  36   0.0000       0.173965         4.7338
  37   0.0000       0.180390         4.9087

MULLIKEN ATOMIC CHARGES
-----------------------
   0 C :   -0.315836
   1 N :    0.243306
   2 N :   -0.238785
   3 C :   -0.016728
   4 C :   -0.149486
   5 N :   -0.336341
   6 C :   -0.149495
   7 C :   -0.016769
   8 N :   -0.238860
   9 H :    0.148113
  10 H :    0.165628
  11 H :    0.165803
  12 H :    0.139230
  13 H :    0.124623
  14 H :    0.211743
  15 H :    0.139230
  16 H :    0.124623
Sum of atomic charges:   -0.0000000

LOEWDIN ATOMIC CHARGES
----------------------
   0 C :   -0.277928
   1 N :    0.115675
   2 N :    0.062756
   3 C :   -0.272887
   4 C :   -0.243502
   5 N :   -0.024318
   6 C :   -0.243502
   7 C :   -0.272904
   8 N :    0.062729
   9 H :    0.124673
  10 H :    0.130505
  11 H :    0.130573
  12 H :    0.134191
  13 H :    0.136804
  14 H :    0.166144
  15 H :    0.134190
  16 H :    0.136802

  Mayer bond orders larger than 0.1
B(  0-C ,  1-N ) :   0.8594 B(  0-C ,  9-H ) :   0.9256 B(  0-C , 10-H ) :   0.9283
B(  0-C , 11-H ) :   0.9283 B(  1-N ,  2-N ) :   1.0892 B(  1-N ,  8-N ) :   1.0895
B(  2-N ,  3-C ) :   1.4808 B(  3-C ,  4-C ) :   0.9241 B(  3-C ,  7-C ) :   1.3402
B(  4-C ,  5-N ) :   0.9581 B(  4-C , 12-H ) :   0.9357 B(  4-C , 13-H ) :   0.9111
B(  5-N ,  6-C ) :   0.9581 B(  5-N , 14-H ) :   0.8872 B(  6-C ,  7-C ) :   0.9241
B(  6-C , 15-H ) :   0.9357 B(  6-C , 16-H ) :   0.9111 B(  7-C ,  8-N ) :   1.4809

MP2 TOTAL ENERGY:     -413.476693683 Eh
FINAL SINGLE POINT ENERGY      -413.476693683305

DIPOLE MOMENT
-------------
                                X             Y             Z
Electronic contribution:     -0.05423       0.75989       0.00442
Nuclear contribution   :     -0.31693      -0.38115      -0.00028
                        -----------------------------------------
Total Dipole Moment    :     -0.37116       0.37874       0.00414
                        -----------------------------------------
Magnitude (a.u.)       :      0.53030
Magnitude (Debye)      :      1.34792

                             ****ORCA TERMINATED NORMALLY****
TOTAL RUN TIME: 0 days 0 hours 18 minutes 42 seconds 148 msec
