                         Program Version 3.0.3 - RELEASE   -
|  1> ! RI-MP2 RIJK def2-TZVP def2-TZVP/C def2-TZVP/JK TIGHTSCF
|  2> % maxcore 2000
|  3> % mp2 density relaxed end
|  4> *xyz 0 1
|  5>  O        0.0010180123    -0.0649329544    -0.1398440090
|  6>  C       -0.0134295654     1.1446899764     0.0143075654
|  7>  N       -1.1870063524     1.8559016862     0.1551856200
|  8>  C       -1.2907756898     3.3039074466     0.0805390834
|  9>  C       -0.0422743797     3.9304687330     0.7001372758
| 10>  C        1.2060188549     3.3380255410     0.0474325492
| 11>  N        1.1436633363     1.8877282806     0.1236376940
| 12>  H       -2.0031365570     1.2968693413    -0.0343107739
| 13>  H       -1.4023458025     3.6527160435    -0.9592203609
| 14>  H       -2.1872846536     3.6225074083     0.6229376022
| 15>  H       -0.0588765497     5.0153297981     0.5631381773
| 16>  H       -0.0252072154     3.7218949064     1.7748964989
| 17>  H        1.2806750477     3.6897619916    -0.9946392355
| 18>  H        2.1074999892     3.6808858433     0.5663018527
| 19>  H        1.9693398151     1.3511054982    -0.0879893597
| 20> *
| 21>
| 22>                          ****END OF INPUT****

CARTESIAN COORDINATES (ANGSTROEM)
---------------------------------
  O      0.001018   -0.064933   -0.139844
  C     -0.013430    1.144690    0.014308
  N     -1.187006    1.855902    0.155186
  C     -1.290776    3.303907    0.080539
  C     -0.042274    3.930469    0.700137
  C      1.206019    3.338026    0.047433
  N      1.143663    1.887728    0.123638
  H     -2.003137    1.296869   -0.034311
  H     -1.402346    3.652716   -0.959220
  H     -2.187285    3.622507    0.622938
  H     -0.058877    5.015330    0.563138
  H     -0.025207    3.721895    1.774896
  H      1.280675    3.689762   -0.994639
  H      2.107500    3.680886    0.566302
  H      1.969340    1.351105   -0.087989

 Total Charge           Charge          ....    0
 Multiplicity           Mult            ....    1
 Number of Electrons    NEL             ....   54
 Basis Dimension        Dim             ....  265

ORBITAL ENERGIES
----------------

  NO   OCC          E(Eh)            E(eV)
   0   2.0000     -20.493977      -557.6695
   1   2.0000     -15.572168      -423.7402
   2   2.0000     -15.572144      -423.7396
   3   2.0000     -11.363973      -309.2294
   4   2.0000     -11.277439      -306.8747
   5   2.0000     -11.277433      -306.8746
   6   2.0000     -11.242934      -305.9358
   7   2.0000      -1.379623       -37.5414
   8   2.0000      -1.249949       -34.0128
   9   2.0000      -1.196240       -32.5513
  10   2.0000      -1.057984       -28.7892
  11   2.0000      -0.932550       -25.3760
  12   2.0000      -0.867668       -23.6104
  13   2.0000      -0.775307       -21.0972
  14   2.0000      -0.702766       -19.1232
  15   2.0000      -0.678786       -18.4707
  16   2.0000      -0.654504       -17.8100
  17   2.0000      -0.640636       -17.4326
  18   2.0000      -0.607564       -16.5327
  19   2.0000      -0.597254       -16.2521
  20   2.0000      -0.582127       -15.8405
  21   2.0000      -0.530144       -14.4259
  22   2.0000      -0.504368       -13.7245
  23   2.0000      -0.498486       -13.5645
  24   2.0000      -0.426828       -11.6146
  25   2.0000      -0.389468       -10.5980
  26   2.0000      -0.389089       -10.5877
  27   0.0000       0.121262         3.2997
  28   0.0000       0.154534         4.2051
  29   0.0000       0.159284         4.3343
  30   0.0000       0.166236         4.5235
  31   0.0000       0.193104         5.2546

MULLIKEN ATOMIC CHARGES
-----------------------
   0 O :   -0.396007
   1 C :    0.312999
   2 N :   -0.346798
   3 C :   -0.105442
   4 C :   -0.233255
   5 C :   -0.105436
   6 N :   -0.346784
   7 H :    0.244360
   8 H :    0.111586
   9 H :    0.129947
  10 H :    0.127747
  11 H :    0.121190
  12 H :    0.111590
  13 H :    0.129935
  14 H :    0.244368
Sum of atomic charges:   -0.0000000

LOEWDIN ATOMIC CHARGES
----------------------
   0 O :    0.036267
   1 C :   -0.559575
   2 N :    0.085348
   3 C :   -0.287096
   4 C :   -0.262000
   5 C :   -0.287098
   6 N :    0.085377
   7 H :    0.189375
   8 H :    0.126925
   9 H :    0.134462
  10 H :    0.142860
  11 H :    0.144393
  12 H :    0.126924
  13 H :    0.134460
  14 H :    0.189378

  Mayer bond orders larger than 0.1
B(  0-O ,  1-C ) :   1.9697 B(  1-C ,  2-N ) :   1.1198 B(  1-C ,  6-N ) :   1.1198
B(  2-N ,  3-C ) :   0.8885 B(  2-N ,  7-H ) :   0.8687 B(  3-C ,  4-C ) :   0.9432
B(  3-C ,  8-H ) :   0.9334 B(  3-C ,  9-H ) :   0.9286 B(  4-C ,  5-C ) :   0.9433
B(  4-C , 10-H ) :   0.9288 B(  4-C , 11-H ) :   0.9297 B(  5-C ,  6-N ) :   0.8885
B(  5-C , 12-H ) :   0.9334 B(  5-C , 13-H ) :   0.9286 B(  6-N , 14-H ) :   0.8687

MP2 TOTAL ENERGY:     -341.330145251 Eh
FINAL SINGLE POINT ENERGY      -341.330145251273

DIPOLE MOMENT
-------------
                                X             Y             Z
Electronic contribution:      0.07899      -6.22486      -0.42967
Nuclear contribution   :     -0.10426       8.01524       0.36426
                        -----------------------------------------
Total Dipole Moment    :     -0.02527       1.79039      -0.06542
                        -----------------------------------------
Magnitude (a.u.)       :      1.79176
Magnitude (Debye)      :      4.55430

                             ****ORCA TERMINATED NORMALLY****
TOTAL RUN TIME: 0 days 0 hours 7 minutes 21 seconds 154 msec
