                         Program Version 3.0.3 - RELEASE   -
|  1> ! RI-MP2 RIJK def2-TZVP def2-TZVP/C def2-TZVP/JK TIGHTSCF
|  2> % maxcore 2000
|  3> % mp2 density relaxed end
|  4> *xyz 0 1
|  5>  O        0.3531401207     1.5389940236    -0.0495159709
|  6>  C        0.0951438799     0.1522107333    -0.0033147434
|  7>  C        0.5898246407    -0.5729398533    -1.2680600309
|  8>  C       -0.2477689707    -0.1977289147    -2.4775676282
|  9>  O       -1.3574147934     0.2630285809    -2.4238428839
| 10>  C        0.3901623899    -0.4786853188    -3.7790722144
| 11>  N        0.9095037359    -0.7057651122    -4.7868568904
| 12>  C        0.6738174590    -0.4724577034     1.2010315276
| 13>  N        1.1616421819    -0.9457859972     2.1352010421
| 14>  H        1.2969417387     1.6852063907     0.0854132833
| 15>  H       -0.9942584750     0.0590265734     0.0426618860
| 16>  H        1.6465379156    -0.3550483046    -1.4573601802
| 17>  H        0.5193246066    -1.6627224376    -1.1475197567
| 18> *
| 19>
| 20>                          ****END OF INPUT****

CARTESIAN COORDINATES (ANGSTROEM)
---------------------------------
  O      0.353140    1.538994   -0.049516
  C      0.095144    0.152211   -0.003315
  C      0.589825   -0.572940   -1.268060
  C     -0.247769   -0.197729   -2.477568
  O     -1.357415    0.263029   -2.423843
  C      0.390162   -0.478685   -3.779072
  N      0.909504   -0.705765   -4.786857
  C      0.673817   -0.472458    1.201032
  N      1.161642   -0.945786    2.135201
  H      1.296942    1.685206    0.085413
  H     -0.994258    0.059027    0.042662
  H      1.646538   -0.355048   -1.457360
  H      0.519325   -1.662722   -1.147520

 Total Charge           Charge          ....    0
 Multiplicity           Mult            ....    1
 Number of Electrons    NEL             ....   64
 Basis Dimension        Dim             ....  303

ORBITAL ENERGIES
----------------

  NO   OCC          E(Eh)            E(eV)
   0   2.0000     -20.623539      -561.1950
   1   2.0000     -20.615849      -560.9858
   2   2.0000     -15.628606      -425.2760
   3   2.0000     -15.605079      -424.6358
   4   2.0000     -11.422523      -310.8227
   5   2.0000     -11.374910      -309.5270
   6   2.0000     -11.314993      -307.8966
   7   2.0000     -11.309584      -307.7494
   8   2.0000     -11.300855      -307.5119
   9   2.0000      -1.468246       -39.9530
  10   2.0000      -1.427094       -38.8332
  11   2.0000      -1.263814       -34.3901
  12   2.0000      -1.248621       -33.9767
  13   2.0000      -1.124899       -30.6101
  14   2.0000      -1.011220       -27.5167
  15   2.0000      -0.908807       -24.7299
  16   2.0000      -0.810462       -22.0538
  17   2.0000      -0.749447       -20.3935
  18   2.0000      -0.718816       -19.5600
  19   2.0000      -0.692236       -18.8367
  20   2.0000      -0.682989       -18.5851
  21   2.0000      -0.638624       -17.3778
  22   2.0000      -0.612998       -16.6805
  23   2.0000      -0.605002       -16.4629
  24   2.0000      -0.578461       -15.7407
  25   2.0000      -0.571345       -15.5471
  26   2.0000      -0.531418       -14.4606
  27   2.0000      -0.517708       -14.0876
  28   2.0000      -0.508051       -13.8248
  29   2.0000      -0.506674       -13.7873
  30   2.0000      -0.496787       -13.5183
  31   2.0000      -0.481392       -13.0993
  32   0.0000       0.039386         1.0717
  33   0.0000       0.092562         2.5187
  34   0.0000       0.125485         3.4146
  35   0.0000       0.138347         3.7646
  36   0.0000       0.143119         3.8945

MULLIKEN ATOMIC CHARGES
-----------------------
   0 O :   -0.443330
   1 C :    0.181516
   2 C :   -0.287150
   3 C :    0.331495
   4 O :   -0.223265
   5 C :   -0.149246
   6 N :   -0.028910
   7 C :   -0.178348
   8 N :   -0.042543
   9 H :    0.330504
  10 H :    0.161161
  11 H :    0.166949
  12 H :    0.181168
Sum of atomic charges:    0.0000000

LOEWDIN ATOMIC CHARGES
----------------------
   0 O :    0.024224
   1 C :   -0.333011
   2 C :   -0.194383
   3 C :   -0.314665
   4 O :    0.225795
   5 C :   -0.132616
   6 N :    0.110913
   7 C :   -0.172258
   8 N :    0.082083
   9 H :    0.187303
  10 H :    0.177590
  11 H :    0.163514
  12 H :    0.175513

  Mayer bond orders larger than 0.1
B(  0-O ,  1-C ) :   0.9284 B(  0-O ,  9-H ) :   0.8306 B(  1-C ,  2-C ) :   0.9144
B(  1-C ,  7-C ) :   0.9165 B(  1-C , 10-H ) :   0.9172 B(  2-C ,  3-C ) :   0.9168
B(  2-C , 11-H ) :   0.8947 B(  2-C , 12-H ) :   0.8828 B(  3-C ,  4-O ) :   1.9577
B(  3-C ,  5-C ) :   0.8922 B(  5-C ,  6-N ) :   2.7804 B(  7-C ,  8-N ) :   2.8402

MP2 TOTAL ENERGY:     -452.025093319 Eh
FINAL SINGLE POINT ENERGY      -452.025093319052

DIPOLE MOMENT
-------------
                                X             Y             Z
Electronic contribution:     -1.01153      -0.16490      -2.27012
Nuclear contribution   :      1.28966       0.17147       2.36918
                        -----------------------------------------
Total Dipole Moment    :      0.27812       0.00657       0.09907
                        -----------------------------------------
Magnitude (a.u.)       :      0.29531
Magnitude (Debye)      :      0.75063

                             ****ORCA TERMINATED NORMALLY****
TOTAL RUN TIME: 0 days 0 hours 13 minutes 6 seconds 738 msec
