                         Program Version 3.0.3 - RELEASE   -
|  1> ! RI-MP2 RIJK def2-TZVP def2-TZVP/C def2-TZVP/JK TIGHTSCF
|  2> % maxcore 2000
|  3> % mp2 density relaxed end
|  4> *xyz 0 1
|  5>  C       -0.1975732078     1.4142731854     0.0078832993
|  6>  N       -0.0186811505    -0.0225153707     0.0327479033
|  7>  N        0.1838613746    -0.7381775529    -1.0632307818
|  8>  N        0.3005273273    -1.9810210841    -0.6700650013
|  9>  C        0.1610583002    -1.9729423454     0.6818040608
| 10>  N       -0.0421674460    -0.7430550116     1.1508983491
| 11>  C        0.2257142565    -3.1715027010     1.5268258480
| 12>  C       -0.3137246808    -4.4881992377     1.0000050791
| 13>  C        1.1650601931    -4.3021480210     1.1507712215
| 14>  H        0.5832909430     1.8955776938     0.6007183504
| 15>  H       -0.1305498333     1.7316153648    -1.0319360922
| 16>  H       -1.1754129448     1.6735381836     0.4195659222
| 17>  H        0.0919571049    -2.9631849123     2.5814292934
| 18>  H       -0.8349781017    -5.1281854054     1.7028670350
| 19>  H       -0.7219976363    -4.4774144324    -0.0037907466
| 20>  H        1.7492754816    -4.1664964682     0.2481647160
| 21>  H        1.6769318602    -4.8121553249     1.9589673538
| 22> *
| 23>
| 24>                          ****END OF INPUT****

CARTESIAN COORDINATES (ANGSTROEM)
---------------------------------
  C     -0.197573    1.414273    0.007883
  N     -0.018681   -0.022515    0.032748
  N      0.183861   -0.738178   -1.063231
  N      0.300527   -1.981021   -0.670065
  C      0.161058   -1.972942    0.681804
  N     -0.042167   -0.743055    1.150898
  C      0.225714   -3.171503    1.526826
  C     -0.313725   -4.488199    1.000005
  C      1.165060   -4.302148    1.150771
  H      0.583291    1.895578    0.600718
  H     -0.130550    1.731615   -1.031936
  H     -1.175413    1.673538    0.419566
  H      0.091957   -2.963185    2.581429
  H     -0.834978   -5.128185    1.702867
  H     -0.721998   -4.477414   -0.003791
  H      1.749275   -4.166496    0.248165
  H      1.676932   -4.812155    1.958967

 Total Charge           Charge          ....    0
 Multiplicity           Mult            ....    1
 Number of Electrons    NEL             ....   66
 Basis Dimension        Dim             ....  327

ORBITAL ENERGIES
----------------

  NO   OCC          E(Eh)            E(eV)
   0   2.0000     -15.694609      -427.0720
   1   2.0000     -15.660586      -426.1462
   2   2.0000     -15.608337      -424.7244
   3   2.0000     -15.593866      -424.3307
   4   2.0000     -11.298418      -307.4456
   5   2.0000     -11.290757      -307.2371
   6   2.0000     -11.246229      -306.0254
   7   2.0000     -11.233860      -305.6889
   8   2.0000     -11.233174      -305.6702
   9   2.0000      -1.490941       -40.5706
  10   2.0000      -1.255122       -34.1536
  11   2.0000      -1.198422       -32.6107
  12   2.0000      -1.139838       -31.0166
  13   2.0000      -1.010401       -27.4944
  14   2.0000      -0.908671       -24.7262
  15   2.0000      -0.845918       -23.0186
  16   2.0000      -0.827925       -22.5290
  17   2.0000      -0.799272       -21.7493
  18   2.0000      -0.709348       -19.3024
  19   2.0000      -0.697842       -18.9892
  20   2.0000      -0.673095       -18.3158
  21   2.0000      -0.632631       -17.2148
  22   2.0000      -0.595186       -16.1958
  23   2.0000      -0.592238       -16.1156
  24   2.0000      -0.571757       -15.5583
  25   2.0000      -0.533356       -14.5133
  26   2.0000      -0.521978       -14.2037
  27   2.0000      -0.486922       -13.2498
  28   2.0000      -0.464931       -12.6514
  29   2.0000      -0.459779       -12.5112
  30   2.0000      -0.436163       -11.8686
  31   2.0000      -0.427913       -11.6441
  32   2.0000      -0.358804        -9.7636
  33   0.0000       0.125672         3.4197
  34   0.0000       0.143804         3.9131
  35   0.0000       0.159436         4.3385
  36   0.0000       0.176793         4.8108
  37   0.0000       0.181741         4.9454

MULLIKEN ATOMIC CHARGES
-----------------------
   0 C :   -0.314239
   1 N :    0.239960
   2 N :   -0.180317
   3 N :   -0.157927
   4 C :    0.077561
   5 N :   -0.251575
   6 C :   -0.111005
   7 C :   -0.255148
   8 C :   -0.255112
   9 H :    0.161185
  10 H :    0.177194
  11 H :    0.161164
  12 H :    0.133444
  13 H :    0.134658
  14 H :    0.152740
  15 H :    0.152759
  16 H :    0.134658
Sum of atomic charges:   -0.0000000

LOEWDIN ATOMIC CHARGES
----------------------
   0 C :   -0.269234
   1 N :    0.094427
   2 N :   -0.039961
   3 N :    0.021950
   4 C :   -0.354553
   5 N :    0.065038
   6 C :   -0.196240
   7 C :   -0.210336
   8 C :   -0.210343
   9 H :    0.129761
  10 H :    0.135754
  11 H :    0.129754
  12 H :    0.157954
  13 H :    0.132413
  14 H :    0.140598
  15 H :    0.140604
  16 H :    0.132414

  Mayer bond orders larger than 0.1
B(  0-C ,  1-N ) :   0.8536 B(  0-C ,  9-H ) :   0.9261 B(  0-C , 10-H ) :   0.9229
B(  0-C , 11-H ) :   0.9261 B(  1-N ,  2-N ) :   1.0902 B(  1-N ,  5-N ) :   1.0588
B(  2-N ,  3-N ) :   1.2272 B(  3-N ,  4-C ) :   1.4017 B(  4-C ,  5-N ) :   1.4803
B(  4-C ,  6-C ) :   0.9802 B(  6-C ,  7-C ) :   0.8467 B(  6-C ,  8-C ) :   0.8468
B(  6-C , 12-H ) :   0.9327 B(  7-C ,  8-C ) :   0.9091 B(  7-C , 13-H ) :   0.9285
B(  7-C , 14-H ) :   0.9254 B(  8-C , 15-H ) :   0.9254 B(  8-C , 16-H ) :   0.9285

MP2 TOTAL ENERGY:     -413.466196308 Eh
FINAL SINGLE POINT ENERGY      -413.466196307873

DIPOLE MOMENT
-------------
                                X             Y             Z
Electronic contribution:     -0.12629       2.88476      -2.30431
Nuclear contribution   :     -0.02891      -2.19064       2.96305
                        -----------------------------------------
Total Dipole Moment    :     -0.15520       0.69411       0.65874
                        -----------------------------------------
Magnitude (a.u.)       :      0.96944
Magnitude (Debye)      :      2.46413

                             ****ORCA TERMINATED NORMALLY****
TOTAL RUN TIME: 0 days 0 hours 17 minutes 47 seconds 334 msec
