                         Program Version 3.0.3 - RELEASE   -
|  1> ! RI-MP2 RIJK def2-TZVP def2-TZVP/C def2-TZVP/JK TIGHTSCF
|  2> % maxcore 2000
|  3> % mp2 density relaxed end
|  4> *xyz 0 1
|  5>  C       -0.0808629986     1.5384735716    -0.0220344710
|  6>  C       -0.0054043123     0.0226643049     0.0004027942
|  7>  C       -1.2630791258    -0.7898906885     0.4052795087
|  8>  N       -0.3798845511    -1.7183715054     1.1464470752
|  9>  C        0.7091795972    -0.7063932143     1.1682534452
| 10>  C        2.0197445447    -1.2043538620     0.6204571567
| 11>  N        2.9950070257    -1.6281287364     1.3014181441
| 12>  O        1.9954665851    -1.1069054681    -0.7412838588
| 13>  C        0.7421131136    -0.5813100440    -1.2149483735
| 14>  H        0.9164663712     1.9796193359    -0.1283876090
| 15>  H       -0.6896179112     1.8895764163    -0.8634180474
| 16>  H       -0.5255128203     1.9294176925     0.8982275727
| 17>  H       -1.9369653619    -0.1965442338     1.0393764767
| 18>  H       -1.8512365393    -1.2561664573    -0.3938825149
| 19>  H       -0.7053135858    -2.0268775574     2.0546377224
| 20>  H        0.8320934318    -0.1553672893     2.1050473823
| 21>  H        3.7604907206    -1.9194042002     0.6897795253
| 22>  H        0.1780128195    -1.3970925789    -1.6789380614
| 23>  H        0.9722561970     0.1672920646    -1.9787520073
| 24> *
| 25>
| 26>                          ****END OF INPUT****

CARTESIAN COORDINATES (ANGSTROEM)
---------------------------------
  C     -0.080863    1.538474   -0.022034
  C     -0.005404    0.022664    0.000403
  C     -1.263079   -0.789891    0.405280
  N     -0.379885   -1.718372    1.146447
  C      0.709180   -0.706393    1.168253
  C      2.019745   -1.204354    0.620457
  N      2.995007   -1.628129    1.301418
  O      1.995467   -1.106905   -0.741284
  C      0.742113   -0.581310   -1.214948
  H      0.916466    1.979619   -0.128388
  H     -0.689618    1.889576   -0.863418
  H     -0.525513    1.929418    0.898228
  H     -1.936965   -0.196544    1.039376
  H     -1.851237   -1.256166   -0.393883
  H     -0.705314   -2.026878    2.054638
  H      0.832093   -0.155367    2.105047
  H      3.760491   -1.919404    0.689780
  H      0.178013   -1.397093   -1.678938
  H      0.972256    0.167292   -1.978752

 Total Charge           Charge          ....    0
 Multiplicity           Mult            ....    1
 Number of Electrons    NEL             ....   68
 Basis Dimension        Dim             ....  339

ORBITAL ENERGIES
----------------

  NO   OCC          E(Eh)            E(eV)
   0   2.0000     -20.587246      -560.2075
   1   2.0000     -15.558386      -423.3652
   2   2.0000     -15.525859      -422.4801
   3   2.0000     -11.326335      -308.2053
   4   2.0000     -11.292804      -307.2928
   5   2.0000     -11.272083      -306.7290
   6   2.0000     -11.266331      -306.5725
   7   2.0000     -11.256068      -306.2932
   8   2.0000     -11.234283      -305.7004
   9   2.0000      -1.423251       -38.7286
  10   2.0000      -1.251637       -34.0588
  11   2.0000      -1.187193       -32.3052
  12   2.0000      -1.062668       -28.9167
  13   2.0000      -0.967062       -26.3151
  14   2.0000      -0.945252       -25.7216
  15   2.0000      -0.909354       -24.7448
  16   2.0000      -0.776077       -21.1181
  17   2.0000      -0.766051       -20.8453
  18   2.0000      -0.703150       -19.1337
  19   2.0000      -0.674551       -18.3555
  20   2.0000      -0.657698       -17.8969
  21   2.0000      -0.643289       -17.5048
  22   2.0000      -0.610812       -16.6210
  23   2.0000      -0.599828       -16.3221
  24   2.0000      -0.574496       -15.6328
  25   2.0000      -0.563600       -15.3363
  26   2.0000      -0.534377       -14.5412
  27   2.0000      -0.517454       -14.0806
  28   2.0000      -0.488308       -13.2875
  29   2.0000      -0.468659       -12.7529
  30   2.0000      -0.464211       -12.6318
  31   2.0000      -0.425657       -11.5827
  32   2.0000      -0.391724       -10.6594
  33   2.0000      -0.389002       -10.5853
  34   0.0000       0.123318         3.3557
  35   0.0000       0.136158         3.7050
  36   0.0000       0.167782         4.5656
  37   0.0000       0.173690         4.7264
  38   0.0000       0.183710         4.9990

MULLIKEN ATOMIC CHARGES
-----------------------
   0 C :   -0.433564
   1 C :    0.101358
   2 C :   -0.158787
   3 N :   -0.374331
   4 C :    0.067207
   5 C :    0.070010
   6 N :   -0.374388
   7 O :   -0.254769
   8 C :   -0.064033
   9 H :    0.147831
  10 H :    0.140576
  11 H :    0.133687
  12 H :    0.110260
  13 H :    0.109001
  14 H :    0.211697
  15 H :    0.120839
  16 H :    0.221954
  17 H :    0.106814
  18 H :    0.118636
Sum of atomic charges:   -0.0000000

LOEWDIN ATOMIC CHARGES
----------------------
   0 C :   -0.273174
   1 C :   -0.255850
   2 C :   -0.234657
   3 N :    0.013208
   4 C :   -0.189569
   5 C :   -0.393065
   6 N :   -0.057262
   7 O :    0.236042
   8 C :   -0.215288
   9 H :    0.133037
  10 H :    0.129872
  11 H :    0.127347
  12 H :    0.122742
  13 H :    0.119775
  14 H :    0.159036
  15 H :    0.148225
  16 H :    0.167485
  17 H :    0.132283
  18 H :    0.129812

  Mayer bond orders larger than 0.1
B(  0-C ,  1-C ) :   0.8981 B(  0-C ,  9-H ) :   0.9343 B(  0-C , 10-H ) :   0.9328
B(  0-C , 11-H ) :   0.9350 B(  1-C ,  2-C ) :   0.9277 B(  1-C ,  4-C ) :   0.9135
B(  1-C ,  8-C ) :   0.9311 B(  2-C ,  3-N ) :   0.9473 B(  2-C , 12-H ) :   0.9202
B(  2-C , 13-H ) :   0.9110 B(  3-N ,  4-C ) :   1.0473 B(  3-N , 14-H ) :   0.8794
B(  4-C ,  5-C ) :   0.8621 B(  4-C , 15-H ) :   0.9118 B(  5-C ,  6-N ) :   2.0763
B(  5-C ,  7-O ) :   1.1130 B(  6-N , 16-H ) :   0.8567 B(  7-O ,  8-C ) :   0.9026
B(  8-C , 17-H ) :   0.9002 B(  8-C , 18-H ) :   0.9292

MP2 TOTAL ENERGY:     -418.497050083 Eh
FINAL SINGLE POINT ENERGY      -418.497050082535

DIPOLE MOMENT
-------------
                                X             Y             Z
Electronic contribution:      5.01124      -4.62524       0.65727
Nuclear contribution   :     -6.14806       5.47187      -1.02256
                        -----------------------------------------
Total Dipole Moment    :     -1.13683       0.84662      -0.36529
                        -----------------------------------------
Magnitude (a.u.)       :      1.46375
Magnitude (Debye)      :      3.72057

                             ****ORCA TERMINATED NORMALLY****
TOTAL RUN TIME: 0 days 0 hours 18 minutes 31 seconds 556 msec
