                         Program Version 3.0.3 - RELEASE   -
|  1> ! RI-MP2 RIJK def2-TZVP def2-TZVP/C def2-TZVP/JK TIGHTSCF
|  2> % maxcore 2000
|  3> % mp2 density relaxed end
|  4> *xyz 0 1
|  5>  C        0.2184639641     1.4333078499     0.6795763317
|  6>  C        0.1154426194     0.0483381826     0.2425420820
|  7>  C        0.0316905873    -1.0911998858    -0.1366466537
|  8>  C       -0.0893088690    -2.4836987669    -0.5612302953
|  9>  C       -1.4284779832    -3.1025258458    -0.1738661157
| 10>  C       -1.4621159050    -4.4055767531     0.5709741602
| 11>  N       -1.8491218019    -3.1693261272     1.2392140641
| 12>  C       -2.5688372532    -2.8419809045    -1.1064615226
| 13>  O       -2.4498006730    -2.4046137690    -2.2226214114
| 14>  H        1.0417877259     1.5688634308     1.3895970815
| 15>  H        0.3969329407     2.1040401902    -0.1679381562
| 16>  H       -0.7025939298     1.7620484649     1.1732705867
| 17>  H        0.0036559942    -2.5524899506    -1.6512884483
| 18>  H        0.7291545996    -3.0745508987    -0.1320826359
| 19>  H       -2.2710130897    -5.1125583969     0.4048073667
| 20>  H       -0.4991913817    -4.8605441328     0.7885216527
| 21>  H       -1.0976321341    -2.8107487370     1.8240412822
| 22>  H       -3.5578582907    -3.1082326402    -0.6730606886
| 23> *
| 24>
| 25>                          ****END OF INPUT****

CARTESIAN COORDINATES (ANGSTROEM)
---------------------------------
  C      0.218464    1.433308    0.679576
  C      0.115443    0.048338    0.242542
  C      0.031691   -1.091200   -0.136647
  C     -0.089309   -2.483699   -0.561230
  C     -1.428478   -3.102526   -0.173866
  C     -1.462116   -4.405577    0.570974
  N     -1.849122   -3.169326    1.239214
  C     -2.568837   -2.841981   -1.106462
  O     -2.449801   -2.404614   -2.222621
  H      1.041788    1.568863    1.389597
  H      0.396933    2.104040   -0.167938
  H     -0.702594    1.762048    1.173271
  H      0.003656   -2.552490   -1.651288
  H      0.729155   -3.074551   -0.132083
  H     -2.271013   -5.112558    0.404807
  H     -0.499191   -4.860544    0.788522
  H     -1.097632   -2.810749    1.824041
  H     -3.557858   -3.108233   -0.673061

 Total Charge           Charge          ....    0
 Multiplicity           Mult            ....    1
 Number of Electrons    NEL             ....   66
 Basis Dimension        Dim             ....  333

ORBITAL ENERGIES
----------------

  NO   OCC          E(Eh)            E(eV)
   0   2.0000     -20.557701      -559.4035
   1   2.0000     -15.581857      -424.0039
   2   2.0000     -11.332583      -308.3752
   3   2.0000     -11.289296      -307.1973
   4   2.0000     -11.282537      -307.0134
   5   2.0000     -11.264096      -306.5116
   6   2.0000     -11.247539      -306.0611
   7   2.0000     -11.227218      -305.5081
   8   2.0000     -11.221395      -305.3497
   9   2.0000      -1.398226       -38.0477
  10   2.0000      -1.291072       -35.1318
  11   2.0000      -1.079238       -29.3676
  12   2.0000      -1.028363       -27.9832
  13   2.0000      -0.955507       -26.0007
  14   2.0000      -0.916020       -24.9262
  15   2.0000      -0.891775       -24.2664
  16   2.0000      -0.767172       -20.8758
  17   2.0000      -0.711486       -19.3605
  18   2.0000      -0.691326       -18.8119
  19   2.0000      -0.659131       -17.9359
  20   2.0000      -0.640835       -17.4380
  21   2.0000      -0.616522       -16.7764
  22   2.0000      -0.594165       -16.1680
  23   2.0000      -0.587807       -15.9950
  24   2.0000      -0.579363       -15.7653
  25   2.0000      -0.571833       -15.5604
  26   2.0000      -0.550620       -14.9831
  27   2.0000      -0.504693       -13.7334
  28   2.0000      -0.484071       -13.1722
  29   2.0000      -0.438067       -11.9204
  30   2.0000      -0.403974       -10.9927
  31   2.0000      -0.372456       -10.1350
  32   2.0000      -0.371458       -10.1079
  33   0.0000       0.124733         3.3942
  34   0.0000       0.128261         3.4902
  35   0.0000       0.147195         4.0054
  36   0.0000       0.165795         4.5115
  37   0.0000       0.172666         4.6985

MULLIKEN ATOMIC CHARGES
-----------------------
   0 C :   -0.484179
   1 C :    0.042523
   2 C :   -0.064724
   3 C :   -0.283768
   4 C :    0.157840
   5 C :   -0.188785
   6 N :   -0.364290
   7 C :    0.050049
   8 O :   -0.271713
   9 H :    0.160137
  10 H :    0.165280
  11 H :    0.164319
  12 H :    0.162896
  13 H :    0.148337
  14 H :    0.134486
  15 H :    0.138489
  16 H :    0.233883
  17 H :    0.099219
Sum of atomic charges:   -0.0000000

LOEWDIN ATOMIC CHARGES
----------------------
   0 C :   -0.293999
   1 C :   -0.102286
   2 C :   -0.085485
   3 C :   -0.213329
   4 C :   -0.290930
   5 C :   -0.234890
   6 N :    0.025754
   7 C :   -0.256897
   8 O :    0.139930
   9 H :    0.140096
  10 H :    0.142151
  11 H :    0.141809
  12 H :    0.171473
  13 H :    0.159600
  14 H :    0.129575
  15 H :    0.127084
  16 H :    0.176458
  17 H :    0.123885

  Mayer bond orders larger than 0.1
B(  0-C ,  1-C ) :   0.8583 B(  0-C ,  9-H ) :   0.9504 B(  0-C , 10-H ) :   0.9467
B(  0-C , 11-H ) :   0.9442 B(  1-C ,  2-C ) :   2.7053 B(  2-C ,  3-C ) :   1.0002
B(  3-C ,  4-C ) :   0.9089 B(  3-C , 12-H ) :   0.9124 B(  3-C , 13-H ) :   0.9464
B(  4-C ,  5-C ) :   0.8916 B(  4-C ,  6-N ) :   0.8811 B(  4-C ,  7-C ) :   0.8475
B(  5-C ,  6-N ) :   0.9283 B(  5-C , 14-H ) :   0.9156 B(  5-C , 15-H ) :   0.9068
B(  6-N , 16-H ) :   0.8680 B(  7-C ,  8-O ) :   1.9998 B(  7-C , 17-H ) :   0.9517

MP2 TOTAL ENERGY:     -401.202969200 Eh
FINAL SINGLE POINT ENERGY      -401.202969200241

DIPOLE MOMENT
-------------
                                X             Y             Z
Electronic contribution:     -2.79954      -2.28346      -3.37928
Nuclear contribution   :      3.52992       1.93780       4.19370
                        -----------------------------------------
Total Dipole Moment    :      0.73038      -0.34566       0.81441
                        -----------------------------------------
Magnitude (a.u.)       :      1.14726
Magnitude (Debye)      :      2.91610

                             ****ORCA TERMINATED NORMALLY****
TOTAL RUN TIME: 0 days 0 hours 16 minutes 39 seconds 50 msec
