                         Program Version 3.0.3 - RELEASE   -
|  1> ! RI-MP2 RIJK def2-TZVP def2-TZVP/C def2-TZVP/JK TIGHTSCF
|  2> % maxcore 2000
|  3> % mp2 density relaxed end
|  4> *xyz 0 1
|  5>  C       -0.2264177886     1.5294282732    -0.1015860326
|  6>  C        0.0414637125     0.0313937138     0.0386805641
|  7>  C        1.0474611133    -0.5521549330    -1.0459224886
|  8>  C        2.1991302365    -1.1576022098    -0.1883811524
|  9>  C        1.5008431270    -1.7810867777     1.0256666234
| 10>  N        2.4177656561    -1.2053474830     2.1337957031
| 11>  C        1.1896350613    -0.5116455807     2.7466355206
| 12>  C        0.8722061180    -0.3842403473     1.2448839638
| 13>  C        2.3865124789    -0.1774512116     0.9748165458
| 14>  H        0.7056769075     2.1031778740    -0.0478201334
| 15>  H       -0.7025970993     1.7582252756    -1.0606667270
| 16>  H       -0.8872728266     1.8909722087     0.6933179632
| 17>  H       -0.9086123764    -0.5132983013    -0.0002363736
| 18>  H        0.5711843767    -1.3105682530    -1.6749167723
| 19>  H        1.4133930956     0.2400129481    -1.7079304259
| 20>  H        3.0296032138    -1.6316170681    -0.7142736375
| 21>  H        1.0139616190    -2.7510378382     1.1450685983
| 22>  H        0.5686413437    -1.1803679843     3.3516338361
| 23>  H        1.4360533192     0.3979893274     3.3035940963
| 24>  H        2.9542920516     0.7526804773     1.0362529683
| 25> *
| 26>
| 27>                          ****END OF INPUT****

CARTESIAN COORDINATES (ANGSTROEM)
---------------------------------
  C     -0.226418    1.529428   -0.101586
  C      0.041464    0.031394    0.038681
  C      1.047461   -0.552155   -1.045922
  C      2.199130   -1.157602   -0.188381
  C      1.500843   -1.781087    1.025667
  N      2.417766   -1.205347    2.133796
  C      1.189635   -0.511646    2.746636
  C      0.872206   -0.384240    1.244884
  C      2.386512   -0.177451    0.974817
  H      0.705677    2.103178   -0.047820
  H     -0.702597    1.758225   -1.060667
  H     -0.887273    1.890972    0.693318
  H     -0.908612   -0.513298   -0.000236
  H      0.571184   -1.310568   -1.674917
  H      1.413393    0.240013   -1.707930
  H      3.029603   -1.631617   -0.714274
  H      1.013962   -2.751038    1.145069
  H      0.568641   -1.180368    3.351634
  H      1.436053    0.397989    3.303594
  H      2.954292    0.752680    1.036253

 Total Charge           Charge          ....    0
 Multiplicity           Mult            ....    1
 Number of Electrons    NEL             ....   66
 Basis Dimension        Dim             ....  345

ORBITAL ENERGIES
----------------

  NO   OCC          E(Eh)            E(eV)
   0   2.0000     -15.559143      -423.3858
   1   2.0000     -11.259743      -306.3932
   2   2.0000     -11.259590      -306.3890
   3   2.0000     -11.258695      -306.3647
   4   2.0000     -11.243909      -305.9623
   5   2.0000     -11.238497      -305.8151
   6   2.0000     -11.236819      -305.7694
   7   2.0000     -11.229324      -305.5654
   8   2.0000     -11.218830      -305.2799
   9   2.0000      -1.317527       -35.8517
  10   2.0000      -1.105820       -30.0909
  11   2.0000      -1.020605       -27.7721
  12   2.0000      -0.930016       -25.3070
  13   2.0000      -0.908328       -24.7169
  14   2.0000      -0.878403       -23.9026
  15   2.0000      -0.845551       -23.0086
  16   2.0000      -0.759571       -20.6690
  17   2.0000      -0.697203       -18.9719
  18   2.0000      -0.656233       -17.8570
  19   2.0000      -0.644004       -17.5243
  20   2.0000      -0.617464       -16.8021
  21   2.0000      -0.599369       -16.3097
  22   2.0000      -0.575812       -15.6686
  23   2.0000      -0.555025       -15.1030
  24   2.0000      -0.527372       -14.3505
  25   2.0000      -0.504302       -13.7228
  26   2.0000      -0.467433       -12.7195
  27   2.0000      -0.463609       -12.6154
  28   2.0000      -0.456436       -12.4203
  29   2.0000      -0.433548       -11.7975
  30   2.0000      -0.423677       -11.5288
  31   2.0000      -0.416497       -11.3335
  32   2.0000      -0.354936        -9.6583
  33   0.0000       0.131161         3.5691
  34   0.0000       0.153788         4.1848
  35   0.0000       0.159898         4.3511
  36   0.0000       0.169742         4.6189
  37   0.0000       0.193934         5.2772

MULLIKEN ATOMIC CHARGES
-----------------------
   0 C :   -0.437150
   1 C :    0.033932
   2 C :   -0.298714
   3 C :   -0.064428
   4 C :   -0.078362
   5 N :   -0.229182
   6 C :   -0.114592
   7 C :   -0.027302
   8 C :   -0.104246
   9 H :    0.126952
  10 H :    0.138317
  11 H :    0.133221
  12 H :    0.095489
  13 H :    0.121084
  14 H :    0.120476
  15 H :    0.123049
  16 H :    0.118328
  17 H :    0.111129
  18 H :    0.111888
  19 H :    0.120113
Sum of atomic charges:   -0.0000000

LOEWDIN ATOMIC CHARGES
----------------------
   0 C :   -0.295648
   1 C :   -0.227705
   2 C :   -0.185002
   3 C :   -0.174620
   4 C :   -0.136033
   5 N :    0.115249
   6 C :   -0.208900
   7 C :   -0.175122
   8 C :   -0.137743
   9 H :    0.123872
  10 H :    0.123947
  11 H :    0.124355
  12 H :    0.148247
  13 H :    0.133914
  14 H :    0.136801
  15 H :    0.135170
  16 H :    0.127555
  17 H :    0.122233
  18 H :    0.122330
  19 H :    0.127099

  Mayer bond orders larger than 0.1
B(  0-C ,  1-C ) :   0.8736 B(  0-C ,  9-H ) :   0.9347 B(  0-C , 10-H ) :   0.9408
B(  0-C , 11-H ) :   0.9410 B(  1-C ,  2-C ) :   0.9390 B(  1-C ,  7-C ) :   0.8727
B(  1-C , 12-H ) :   0.9040 B(  2-C ,  3-C ) :   0.9253 B(  2-C , 13-H ) :   0.9218
B(  2-C , 14-H ) :   0.9207 B(  3-C ,  4-C ) :   0.8857 B(  3-C ,  8-C ) :   0.8857
B(  3-C , 15-H ) :   0.9037 B(  4-C ,  5-N ) :   0.9103 B(  4-C ,  7-C ) :   0.9247
B(  4-C , 16-H ) :   0.8962 B(  5-N ,  6-C ) :   0.9713 B(  5-N ,  8-C ) :   0.9138
B(  6-C ,  7-C ) :   0.9342 B(  6-C , 17-H ) :   0.9167 B(  6-C , 18-H ) :   0.9197
B(  7-C ,  8-C ) :   0.9373 B(  8-C , 19-H ) :   0.8915

MP2 TOTAL ENERGY:     -365.249942874 Eh
FINAL SINGLE POINT ENERGY      -365.249942873688

DIPOLE MOMENT
-------------
                                X             Y             Z
Electronic contribution:      3.59692      -3.96442       3.15841
Nuclear contribution   :     -4.25771       4.29774      -3.65422
                        -----------------------------------------
Total Dipole Moment    :     -0.66078       0.33332      -0.49581
                        -----------------------------------------
Magnitude (a.u.)       :      0.89082
Magnitude (Debye)      :      2.26429

                             ****ORCA TERMINATED NORMALLY****
TOTAL RUN TIME: 0 days 0 hours 22 minutes 12 seconds 700 msec
