                         Program Version 3.0.3 - RELEASE   -
|  1> ! RI-MP2 RIJK def2-TZVP def2-TZVP/C def2-TZVP/JK TIGHTSCF
|  2> % maxcore 2000
|  3> % mp2 density relaxed end
|  4> *xyz 0 1
|  5>  C        0.0111227399     1.5175003272     0.1744619779
|  6>  C       -0.0500470869    -0.0075470340    -0.0110895638
|  7>  C       -1.5249539613    -0.4395467585    -0.0701632403
|  8>  C        0.7537872194    -0.4985921437    -1.2474922669
|  9>  C        2.1489353450     0.1438925309    -1.3306462053
| 10>  C        0.8735599870    -2.0372765757    -1.2615636023
| 11>  C        1.3019576607    -2.6251756026    -2.6242320955
| 12>  C        1.3693721142    -4.0816010679    -2.6088023350
| 13>  C        1.4162330993    -5.2822068332    -2.5672268814
| 14>  H        1.0230018603     1.8755866535     0.3780772523
| 15>  H       -0.3569697063     2.0378902898    -0.7185524436
| 16>  H       -0.6202684733     1.8240551529     1.0147201814
| 17>  H        0.4055946574    -0.4696253697     0.8779725981
| 18>  H       -2.0226880804     0.0041113816    -0.9411545736
| 19>  H       -1.6529073311    -1.5230664188    -0.1308052797
| 20>  H       -2.0607642430    -0.0994740155     0.8219653211
| 21>  H        0.1869838531    -0.1941706523    -2.1417140094
| 22>  H        2.7316050310    -0.2682200098    -2.1595236093
| 23>  H        2.0957424074     1.2239846574    -1.4848895564
| 24>  H        2.7157742190    -0.0369879554    -0.4091204866
| 25>  H        1.5937422718    -2.3526248603    -0.4961460351
| 26>  H       -0.0793612999    -2.4998235517    -0.9929081592
| 27>  H        0.5907696274    -2.3024775208    -3.3964943924
| 28>  H        2.2775156112    -2.2264731734    -2.9262839809
| 29>  H        1.4618194082    -6.3425032999    -2.5432902143
| 30> *
| 31>
| 32>                          ****END OF INPUT****

CARTESIAN COORDINATES (ANGSTROEM)
---------------------------------
  C      0.011123    1.517500    0.174462
  C     -0.050047   -0.007547   -0.011090
  C     -1.524954   -0.439547   -0.070163
  C      0.753787   -0.498592   -1.247492
  C      2.148935    0.143893   -1.330646
  C      0.873560   -2.037277   -1.261564
  C      1.301958   -2.625176   -2.624232
  C      1.369372   -4.081601   -2.608802
  C      1.416233   -5.282207   -2.567227
  H      1.023002    1.875587    0.378077
  H     -0.356970    2.037890   -0.718552
  H     -0.620268    1.824055    1.014720
  H      0.405595   -0.469625    0.877973
  H     -2.022688    0.004111   -0.941155
  H     -1.652907   -1.523066   -0.130805
  H     -2.060764   -0.099474    0.821965
  H      0.186984   -0.194171   -2.141714
  H      2.731605   -0.268220   -2.159524
  H      2.095742    1.223985   -1.484890
  H      2.715774   -0.036988   -0.409120
  H      1.593742   -2.352625   -0.496146
  H     -0.079361   -2.499824   -0.992908
  H      0.590770   -2.302478   -3.396494
  H      2.277516   -2.226473   -2.926284
  H      1.461819   -6.342503   -2.543290

 Total Charge           Charge          ....    0
 Multiplicity           Mult            ....    1
 Number of Electrons    NEL             ....   70
 Basis Dimension        Dim             ....  375

ORBITAL ENERGIES
----------------

  NO   OCC          E(Eh)            E(eV)
   0   2.0000     -11.248430      -306.0854
   1   2.0000     -11.229605      -305.5731
   2   2.0000     -11.229349      -305.5661
   3   2.0000     -11.228093      -305.5319
   4   2.0000     -11.225100      -305.4505
   5   2.0000     -11.214951      -305.1743
   6   2.0000     -11.213393      -305.1319
   7   2.0000     -11.211366      -305.0768
   8   2.0000     -11.211218      -305.0728
   9   2.0000      -1.113967       -30.3126
  10   2.0000      -1.068120       -29.0650
  11   2.0000      -1.012552       -27.5529
  12   2.0000      -0.969876       -26.3917
  13   2.0000      -0.928438       -25.2641
  14   2.0000      -0.888697       -24.1827
  15   2.0000      -0.820443       -22.3254
  16   2.0000      -0.756731       -20.5917
  17   2.0000      -0.714738       -19.4490
  18   2.0000      -0.650655       -17.7052
  19   2.0000      -0.633786       -17.2462
  20   2.0000      -0.620121       -16.8743
  21   2.0000      -0.596623       -16.2349
  22   2.0000      -0.580139       -15.7864
  23   2.0000      -0.578570       -15.7437
  24   2.0000      -0.538030       -14.6406
  25   2.0000      -0.530671       -14.4403
  26   2.0000      -0.524778       -14.2799
  27   2.0000      -0.511282       -13.9127
  28   2.0000      -0.498815       -13.5734
  29   2.0000      -0.483473       -13.1560
  30   2.0000      -0.456998       -12.4356
  31   2.0000      -0.449740       -12.2381
  32   2.0000      -0.443622       -12.0716
  33   2.0000      -0.380892       -10.3646
  34   2.0000      -0.378874       -10.3097
  35   0.0000       0.133773         3.6401
  36   0.0000       0.151730         4.1288
  37   0.0000       0.154882         4.2146
  38   0.0000       0.163731         4.4553
  39   0.0000       0.171873         4.6769

MULLIKEN ATOMIC CHARGES
-----------------------
   0 C :   -0.408662
   1 C :   -0.018180
   2 C :   -0.411321
   3 C :   -0.020076
   4 C :   -0.430899
   5 C :   -0.228491
   6 C :   -0.384554
   7 C :   -0.014829
   8 C :   -0.127078
   9 H :    0.139167
  10 H :    0.124510
  11 H :    0.132542
  12 H :    0.082093
  13 H :    0.122232
  14 H :    0.129951
  15 H :    0.131549
  16 H :    0.075973
  17 H :    0.130901
  18 H :    0.142575
  19 H :    0.129252
  20 H :    0.119063
  21 H :    0.119961
  22 H :    0.139525
  23 H :    0.136942
  24 H :    0.187854
Sum of atomic charges:    0.0000000

LOEWDIN ATOMIC CHARGES
----------------------
   0 C :   -0.296065
   1 C :   -0.283205
   2 C :   -0.296263
   3 C :   -0.259613
   4 C :   -0.292359
   5 C :   -0.226801
   6 C :   -0.248840
   7 C :   -0.112679
   8 C :   -0.112690
   9 H :    0.121469
  10 H :    0.123850
  11 H :    0.123530
  12 H :    0.151757
  13 H :    0.123393
  14 H :    0.118355
  15 H :    0.123392
  16 H :    0.152014
  17 H :    0.120623
  18 H :    0.123169
  19 H :    0.125774
  20 H :    0.143909
  21 H :    0.142503
  22 H :    0.156324
  23 H :    0.153313
  24 H :    0.125140

  Mayer bond orders larger than 0.1
B(  0-C ,  1-C ) :   0.9011 B(  0-C ,  9-H ) :   0.9409 B(  0-C , 10-H ) :   0.9338
B(  0-C , 11-H ) :   0.9407 B(  1-C ,  2-C ) :   0.9222 B(  1-C ,  3-C ) :   0.9108
B(  1-C , 12-H ) :   0.9199 B(  2-C , 13-H ) :   0.9319 B(  2-C , 14-H ) :   0.9397
B(  2-C , 15-H ) :   0.9409 B(  3-C ,  4-C ) :   0.8841 B(  3-C ,  5-C ) :   0.9098
B(  3-C , 16-H ) :   0.9210 B(  4-C , 17-H ) :   0.9416 B(  4-C , 18-H ) :   0.9420
B(  4-C , 19-H ) :   0.9332 B(  5-C ,  6-C ) :   0.9310 B(  5-C , 20-H ) :   0.9167
B(  5-C , 21-H ) :   0.9445 B(  6-C ,  7-C ) :   1.1389 B(  6-C ,  8-C ) :  -0.1216
B(  6-C , 22-H ) :   0.9192 B(  6-C , 23-H ) :   0.9230 B(  7-C ,  8-C ) :   2.6079
B(  8-C , 24-H ) :   0.8963

MP2 TOTAL ENERGY:     -351.679224721 Eh
FINAL SINGLE POINT ENERGY      -351.679224721313

DIPOLE MOMENT
-------------
                                X             Y             Z
Electronic contribution:      2.32992      -9.72805      -4.21194
Nuclear contribution   :     -2.37594      10.05235       4.30999
                        -----------------------------------------
Total Dipole Moment    :     -0.04602       0.32430       0.09805
                        -----------------------------------------
Magnitude (a.u.)       :      0.34191
Magnitude (Debye)      :      0.86907

                             ****ORCA TERMINATED NORMALLY****
TOTAL RUN TIME: 0 days 0 hours 22 minutes 40 seconds 440 msec
