                         Program Version 3.0.3 - RELEASE   -
|  1> ! RI-MP2 RIJK def2-TZVP def2-TZVP/C def2-TZVP/JK TIGHTSCF
|  2> % maxcore 2000
|  3> % mp2 density relaxed end
|  4> *xyz 0 1
|  5>  C        0.0889425159     1.5228908269    -0.1093104050
|  6>  C        0.0244615435    -0.0018849891     0.0438977055
|  7>  O        0.7159039529    -0.4251737840     1.2225750114
|  8>  C       -1.3944430189    -0.5403898536     0.0035007803
|  9>  C       -1.8616771625    -1.1744241752    -1.0743922885
| 10>  C       -3.2517851871    -1.7417049430    -1.2011853853
| 11>  C       -3.9670375646    -1.8318315559     0.1541770498
| 12>  C       -3.7408595757    -0.5557217054     0.9716179515
| 13>  C       -2.2452526027    -0.3384668476     1.2404560958
| 14>  H        1.1293891001     1.8579778316    -0.0640816460
| 15>  H       -0.3424293232     1.8369646138    -1.0643631514
| 16>  H       -0.4665660578     2.0290651858     0.6894250278
| 17>  H        0.5858293333    -0.4554253968    -0.7801678051
| 18>  H        0.3799996432     0.0924107154     1.9618714863
| 19>  H       -1.2069140253    -1.2990671043    -1.9361239249
| 20>  H       -3.8374925653    -1.1206535838    -1.8964213849
| 21>  H       -3.2034582709    -2.7324013532    -1.6708963193
| 22>  H       -5.0369840178    -2.0144983731     0.0078837915
| 23>  H       -3.5732048345    -2.6899667019     0.7139868560
| 24>  H       -4.1373478900     0.3042406206     0.4159312310
| 25>  H       -4.2900232187    -0.5989777004     1.9184593435
| 26>  H       -1.9007122655    -1.0299678547     2.0226222494
| 27>  H       -2.0877492084     0.6692207181     1.6487533205
| 28> *
| 29>
| 30>                          ****END OF INPUT****

CARTESIAN COORDINATES (ANGSTROEM)
---------------------------------
  C      0.088943    1.522891   -0.109310
  C      0.024462   -0.001885    0.043898
  O      0.715904   -0.425174    1.222575
  C     -1.394443   -0.540390    0.003501
  C     -1.861677   -1.174424   -1.074392
  C     -3.251785   -1.741705   -1.201185
  C     -3.967038   -1.831832    0.154177
  C     -3.740860   -0.555722    0.971618
  C     -2.245253   -0.338467    1.240456
  H      1.129389    1.857978   -0.064082
  H     -0.342429    1.836965   -1.064363
  H     -0.466566    2.029065    0.689425
  H      0.585829   -0.455425   -0.780168
  H      0.380000    0.092411    1.961871
  H     -1.206914   -1.299067   -1.936124
  H     -3.837493   -1.120654   -1.896421
  H     -3.203458   -2.732401   -1.670896
  H     -5.036984   -2.014498    0.007884
  H     -3.573205   -2.689967    0.713987
  H     -4.137348    0.304241    0.415931
  H     -4.290023   -0.598978    1.918459
  H     -1.900712   -1.029968    2.022622
  H     -2.087749    0.669221    1.648753

 Total Charge           Charge          ....    0
 Multiplicity           Mult            ....    1
 Number of Electrons    NEL             ....   70
 Basis Dimension        Dim             ....  363

ORBITAL ENERGIES
----------------

  NO   OCC          E(Eh)            E(eV)
   0   2.0000     -20.549694      -559.1856
   1   2.0000     -11.279333      -306.9262
   2   2.0000     -11.225180      -305.4527
   3   2.0000     -11.224185      -305.4256
   4   2.0000     -11.222235      -305.3725
   5   2.0000     -11.220273      -305.3192
   6   2.0000     -11.218141      -305.2611
   7   2.0000     -11.217924      -305.2552
   8   2.0000     -11.217638      -305.2474
   9   2.0000      -1.355075       -36.8735
  10   2.0000      -1.124117       -30.5888
  11   2.0000      -1.040454       -28.3122
  12   2.0000      -1.003538       -27.3077
  13   2.0000      -0.978065       -26.6145
  14   2.0000      -0.868625       -23.6365
  15   2.0000      -0.835849       -22.7446
  16   2.0000      -0.800927       -21.7943
  17   2.0000      -0.705077       -19.1861
  18   2.0000      -0.678500       -18.4629
  19   2.0000      -0.629598       -17.1322
  20   2.0000      -0.625721       -17.0267
  21   2.0000      -0.617127       -16.7929
  22   2.0000      -0.586365       -15.9558
  23   2.0000      -0.582926       -15.8622
  24   2.0000      -0.552550       -15.0356
  25   2.0000      -0.546009       -14.8577
  26   2.0000      -0.532889       -14.5007
  27   2.0000      -0.520687       -14.1686
  28   2.0000      -0.518112       -14.0985
  29   2.0000      -0.483103       -13.1459
  30   2.0000      -0.467758       -12.7283
  31   2.0000      -0.465895       -12.6776
  32   2.0000      -0.448284       -12.1984
  33   2.0000      -0.420985       -11.4556
  34   2.0000      -0.338013        -9.1978
  35   0.0000       0.126518         3.4427
  36   0.0000       0.144573         3.9340
  37   0.0000       0.159560         4.3419
  38   0.0000       0.166701         4.5362
  39   0.0000       0.170401         4.6368

MULLIKEN ATOMIC CHARGES
-----------------------
   0 C :   -0.400332
   1 C :    0.067512
   2 O :   -0.470199
   3 C :    0.085392
   4 C :   -0.230816
   5 C :   -0.168526
   6 C :   -0.224800
   7 C :   -0.211102
   8 C :   -0.318008
   9 H :    0.145007
  10 H :    0.132194
  11 H :    0.112113
  12 H :    0.095401
  13 H :    0.315315
  14 H :    0.112334
  15 H :    0.113553
  16 H :    0.124202
  17 H :    0.123180
  18 H :    0.110356
  19 H :    0.105568
  20 H :    0.124759
  21 H :    0.134452
  22 H :    0.122445
Sum of atomic charges:    0.0000000

LOEWDIN ATOMIC CHARGES
----------------------
   0 C :   -0.298929
   1 C :   -0.332168
   2 O :   -0.020857
   3 C :   -0.159010
   4 C :   -0.142287
   5 C :   -0.255919
   6 C :   -0.258982
   7 C :   -0.256867
   8 C :   -0.233514
   9 H :    0.125724
  10 H :    0.128209
  11 H :    0.118792
  12 H :    0.149261
  13 H :    0.170636
  14 H :    0.143539
  15 H :    0.143233
  16 H :    0.142436
  17 H :    0.134723
  18 H :    0.140440
  19 H :    0.139790
  20 H :    0.134952
  21 H :    0.147263
  22 H :    0.139532

  Mayer bond orders larger than 0.1
B(  0-C ,  1-C ) :   0.9573 B(  0-C ,  9-H ) :   0.9374 B(  0-C , 10-H ) :   0.9339
B(  0-C , 11-H ) :   0.9195 B(  1-C ,  2-O ) :   0.9177 B(  1-C ,  3-C ) :   0.8695
B(  1-C , 12-H ) :   0.9275 B(  2-O , 13-H ) :   0.8441 B(  3-C ,  4-C ) :   1.7595
B(  3-C ,  8-C ) :   0.8812 B(  4-C ,  5-C ) :   0.9406 B(  4-C , 14-H ) :   0.9229
B(  5-C ,  6-C ) :   0.9464 B(  5-C , 15-H ) :   0.9150 B(  5-C , 16-H ) :   0.9276
B(  6-C ,  7-C ) :   0.9158 B(  6-C , 17-H ) :   0.9345 B(  6-C , 18-H ) :   0.9333
B(  7-C ,  8-C ) :   0.9532 B(  7-C , 19-H ) :   0.9312 B(  7-C , 20-H ) :   0.9365
B(  8-C , 21-H ) :   0.9252 B(  8-C , 22-H ) :   0.9239

MP2 TOTAL ENERGY:     -387.637463649 Eh
FINAL SINGLE POINT ENERGY      -387.637463648978

DIPOLE MOMENT
-------------
                                X             Y             Z
Electronic contribution:      3.45405      -1.83351       0.40085
Nuclear contribution   :     -4.04192       2.24469      -0.41726
                        -----------------------------------------
Total Dipole Moment    :     -0.58787       0.41119      -0.01641
                        -----------------------------------------
Magnitude (a.u.)       :      0.71759
Magnitude (Debye)      :      1.82396

                             ****ORCA TERMINATED NORMALLY****
TOTAL RUN TIME: 0 days 0 hours 23 minutes 10 seconds 932 msec
