                         Program Version 3.0.3 - RELEASE   -
|  1> ! RI-MP2 RIJK def2-TZVP def2-TZVP/C def2-TZVP/JK TIGHTSCF
|  2> % maxcore 2000
|  3> % mp2 density relaxed end
|  4> *xyz 0 1
|  5>  C        0.0412670602     1.5286373860     0.0047974227
|  6>  C        0.0516268548     0.0283180602    -0.0356437109
|  7>  C        0.0347077348    -0.6572491950    -1.1910846206
|  8>  C        0.0178918020    -2.1304250875    -1.2726504339
|  9>  O        0.0225071177    -2.7115122704    -2.3404016590
| 10>  C       -0.0406486455    -2.8764753421     0.0551691183
| 11>  C        0.6332174337    -2.0988321133     1.1884831286
| 12>  C        0.0583940276    -0.6900023054     1.3081365052
| 13>  O        0.8372739177    -0.0036564686     2.2837349857
| 14>  H        0.9397625650     1.9036450506     0.5062879928
| 15>  H       -0.0069506888     1.9572850030    -0.9981412293
| 16>  H       -0.8209260994     1.9014294001     0.5754098986
| 17>  H        0.0215271299    -0.1422059482    -2.1479923595
| 18>  H       -1.1036746907    -3.0333835397     0.2904607903
| 19>  H        0.3989411072    -3.8667717022    -0.0864157385
| 20>  H        0.5221312601    -2.6169009227     2.1453269740
| 21>  H        1.7081480782    -2.0032825123     0.9960141960
| 22>  H       -0.9895681020    -0.7602636142     1.6523881442
| 23>  H        0.3431464875     0.7613288316     2.5923255852
| 24> *
| 25>
| 26>                          ****END OF INPUT****

CARTESIAN COORDINATES (ANGSTROEM)
---------------------------------
  C      0.041267    1.528637    0.004797
  C      0.051627    0.028318   -0.035644
  C      0.034708   -0.657249   -1.191085
  C      0.017892   -2.130425   -1.272650
  O      0.022507   -2.711512   -2.340402
  C     -0.040649   -2.876475    0.055169
  C      0.633217   -2.098832    1.188483
  C      0.058394   -0.690002    1.308137
  O      0.837274   -0.003656    2.283735
  H      0.939763    1.903645    0.506288
  H     -0.006951    1.957285   -0.998141
  H     -0.820926    1.901429    0.575410
  H      0.021527   -0.142206   -2.147992
  H     -1.103675   -3.033384    0.290461
  H      0.398941   -3.866772   -0.086416
  H      0.522131   -2.616901    2.145327
  H      1.708148   -2.003283    0.996014
  H     -0.989568   -0.760264    1.652388
  H      0.343146    0.761329    2.592326

 Total Charge           Charge          ....    0
 Multiplicity           Mult            ....    1
 Number of Electrons    NEL             ....   68
 Basis Dimension        Dim             ....  339

ORBITAL ENERGIES
----------------

  NO   OCC          E(Eh)            E(eV)
   0   2.0000     -20.575088      -559.8766
   1   2.0000     -20.533460      -558.7439
   2   2.0000     -11.323796      -308.1362
   3   2.0000     -11.306189      -307.6570
   4   2.0000     -11.272972      -306.7532
   5   2.0000     -11.244065      -305.9666
   6   2.0000     -11.237993      -305.8013
   7   2.0000     -11.237363      -305.7842
   8   2.0000     -11.233698      -305.6845
   9   2.0000      -1.382583       -37.6220
  10   2.0000      -1.375339       -37.4249
  11   2.0000      -1.136734       -30.9321
  12   2.0000      -1.059588       -28.8329
  13   2.0000      -0.983778       -26.7700
  14   2.0000      -0.954060       -25.9613
  15   2.0000      -0.849401       -23.1134
  16   2.0000      -0.797844       -21.7104
  17   2.0000      -0.723889       -19.6980
  18   2.0000      -0.719719       -19.5845
  19   2.0000      -0.661557       -18.0019
  20   2.0000      -0.654302       -17.8045
  21   2.0000      -0.620898       -16.8955
  22   2.0000      -0.595289       -16.1986
  23   2.0000      -0.582772       -15.8580
  24   2.0000      -0.574848       -15.6424
  25   2.0000      -0.569078       -15.4854
  26   2.0000      -0.559002       -15.2112
  27   2.0000      -0.534325       -14.5397
  28   2.0000      -0.527580       -14.3562
  29   2.0000      -0.504696       -13.7335
  30   2.0000      -0.480559       -13.0767
  31   2.0000      -0.459288       -12.4979
  32   2.0000      -0.403752       -10.9866
  33   2.0000      -0.371459       -10.1079
  34   0.0000       0.091975         2.5028
  35   0.0000       0.115183         3.1343
  36   0.0000       0.138152         3.7593
  37   0.0000       0.164275         4.4701
  38   0.0000       0.173299         4.7157

MULLIKEN ATOMIC CHARGES
-----------------------
   0 C :   -0.503135
   1 C :    0.133179
   2 C :   -0.286209
   3 C :    0.204909
   4 O :   -0.294021
   5 C :   -0.228644
   6 C :   -0.212333
   7 C :    0.088909
   8 O :   -0.458326
   9 H :    0.170548
  10 H :    0.147385
  11 H :    0.144629
  12 H :    0.128037
  13 H :    0.129551
  14 H :    0.144660
  15 H :    0.131488
  16 H :    0.131768
  17 H :    0.104901
  18 H :    0.322703
Sum of atomic charges:    0.0000000

LOEWDIN ATOMIC CHARGES
----------------------
   0 C :   -0.272903
   1 C :   -0.141348
   2 C :   -0.111549
   3 C :   -0.327749
   4 O :    0.139837
   5 C :   -0.221019
   6 C :   -0.229038
   7 C :   -0.305394
   8 O :   -0.006415
   9 H :    0.137715
  10 H :    0.133850
  11 H :    0.132820
  12 H :    0.154364
  13 H :    0.154965
  14 H :    0.150153
  15 H :    0.142378
  16 H :    0.149931
  17 H :    0.146082
  18 H :    0.173320

  Mayer bond orders larger than 0.1
B(  0-C ,  1-C ) :   0.8478 B(  0-C ,  9-H ) :   0.9334 B(  0-C , 10-H ) :   0.9412
B(  0-C , 11-H ) :   0.9273 B(  1-C ,  2-C ) :   1.6171 B(  1-C ,  7-C ) :   0.8707
B(  2-C ,  3-C ) :   1.0185 B(  2-C , 12-H ) :   0.9287 B(  3-C ,  4-O ) :   1.9614
B(  3-C ,  5-C ) :   0.9108 B(  5-C ,  6-C ) :   0.8785 B(  5-C , 13-H ) :   0.9074
B(  5-C , 14-H ) :   0.9198 B(  6-C ,  7-C ) :   0.9174 B(  6-C , 15-H ) :   0.9307
B(  6-C , 16-H ) :   0.9281 B(  7-C ,  8-O ) :   0.9967 B(  7-C , 17-H ) :   0.9446
B(  8-O , 18-H ) :   0.8429

MP2 TOTAL ENERGY:     -422.357996686 Eh
FINAL SINGLE POINT ENERGY      -422.357996685952

DIPOLE MOMENT
-------------
                                X             Y             Z
Electronic contribution:      0.32454      -3.28669      -3.70307
Nuclear contribution   :     -0.85333       4.28882       4.78406
                        -----------------------------------------
Total Dipole Moment    :     -0.52880       1.00213       1.08099
                        -----------------------------------------
Magnitude (a.u.)       :      1.56603
Magnitude (Debye)      :      3.98053

                             ****ORCA TERMINATED NORMALLY****
TOTAL RUN TIME: 0 days 0 hours 18 minutes 50 seconds 645 msec
