                         Program Version 3.0.3 - RELEASE   -
|  1> ! RI-MP2 RIJK def2-TZVP def2-TZVP/C def2-TZVP/JK TIGHTSCF
|  2> % maxcore 2000
|  3> % mp2 density relaxed end
|  4> *xyz 0 1
|  5>  C        0.0949707753     1.3646620414    -0.1253450071
|  6>  O        0.0307583005    -0.0405237525    -0.0594762161
|  7>  C       -1.2874485398    -0.5220862690     0.0797314451
|  8>  C       -1.2063710690    -2.0444527670     0.1542246872
|  9>  C       -2.5793282433    -2.7490619961     0.0703985808
| 10>  C       -3.5347769838    -2.3561605020     1.2048503770
| 11>  O       -3.2589788772    -2.4280285064    -1.1395611116
| 12>  C       -2.3445325248    -4.2152729949     0.1217975721
| 13>  N       -2.1483989786    -5.3541201301     0.1347804283
| 14>  H        1.1464964342     1.6381528611    -0.2393203656
| 15>  H       -0.4713711843     1.7597789591    -0.9834598091
| 16>  H       -0.2978751420     1.8354025525     0.7898117171
| 17>  H       -1.7515701335    -0.1040753704     0.9879528171
| 18>  H       -1.9102888078    -0.2168969601    -0.7757315462
| 19>  H       -0.5814603094    -2.3924035910    -0.6767393763
| 20>  H       -0.6963032754    -2.3471786058     1.0743739751
| 21>  H       -3.7799781426    -1.2952212725     1.1235395644
| 22>  H       -4.4596510984    -2.9308740624     1.1271135856
| 23>  H       -3.0782532794    -2.5472650386     2.1786562768
| 24>  H       -2.7130604807    -2.7136846254    -1.8814761045
| 25> *
| 26>
| 27>                          ****END OF INPUT****

CARTESIAN COORDINATES (ANGSTROEM)
---------------------------------
  C      0.094971    1.364662   -0.125345
  O      0.030758   -0.040524   -0.059476
  C     -1.287449   -0.522086    0.079731
  C     -1.206371   -2.044453    0.154225
  C     -2.579328   -2.749062    0.070399
  C     -3.534777   -2.356161    1.204850
  O     -3.258979   -2.428029   -1.139561
  C     -2.344533   -4.215273    0.121798
  N     -2.148399   -5.354120    0.134780
  H      1.146496    1.638153   -0.239320
  H     -0.471371    1.759779   -0.983460
  H     -0.297875    1.835403    0.789812
  H     -1.751570   -0.104075    0.987953
  H     -1.910289   -0.216897   -0.775732
  H     -0.581460   -2.392404   -0.676739
  H     -0.696303   -2.347179    1.074374
  H     -3.779978   -1.295221    1.123540
  H     -4.459651   -2.930874    1.127114
  H     -3.078253   -2.547265    2.178656
  H     -2.713060   -2.713685   -1.881476

 Total Charge           Charge          ....    0
 Multiplicity           Mult            ....    1
 Number of Electrons    NEL             ....   70
 Basis Dimension        Dim             ....  345

ORBITAL ENERGIES
----------------

  NO   OCC          E(Eh)            E(eV)
   0   2.0000     -20.589850      -560.2783
   1   2.0000     -20.568081      -559.6859
   2   2.0000     -15.577624      -423.8887
   3   2.0000     -11.350683      -308.8678
   4   2.0000     -11.290772      -307.2375
   5   2.0000     -11.280400      -306.9553
   6   2.0000     -11.273881      -306.7779
   7   2.0000     -11.250810      -306.1501
   8   2.0000     -11.244704      -305.9839
   9   2.0000      -1.401978       -38.1498
  10   2.0000      -1.389162       -37.8010
  11   2.0000      -1.222938       -33.2778
  12   2.0000      -1.100246       -29.9392
  13   2.0000      -1.018646       -27.7188
  14   2.0000      -0.941471       -25.6187
  15   2.0000      -0.896756       -24.4020
  16   2.0000      -0.833152       -22.6712
  17   2.0000      -0.761296       -20.7159
  18   2.0000      -0.694731       -18.9046
  19   2.0000      -0.690590       -18.7919
  20   2.0000      -0.645819       -17.5736
  21   2.0000      -0.641466       -17.4552
  22   2.0000      -0.629463       -17.1286
  23   2.0000      -0.592240       -16.1157
  24   2.0000      -0.583314       -15.8728
  25   2.0000      -0.565662       -15.3925
  26   2.0000      -0.558223       -15.1900
  27   2.0000      -0.546768       -14.8783
  28   2.0000      -0.520537       -14.1645
  29   2.0000      -0.514553       -14.0017
  30   2.0000      -0.496287       -13.5047
  31   2.0000      -0.487233       -13.2583
  32   2.0000      -0.470398       -12.8002
  33   2.0000      -0.458256       -12.4698
  34   2.0000      -0.436225       -11.8703
  35   0.0000       0.114329         3.1111
  36   0.0000       0.135895         3.6979
  37   0.0000       0.146932         3.9982
  38   0.0000       0.169049         4.6000
  39   0.0000       0.180922         4.9231

MULLIKEN ATOMIC CHARGES
-----------------------
   0 C :   -0.215767
   1 O :   -0.299193
   2 C :   -0.099722
   3 C :   -0.196732
   4 C :    0.302414
   5 C :   -0.406215
   6 O :   -0.453708
   7 C :   -0.216098
   8 N :   -0.047354
   9 H :    0.142623
  10 H :    0.113156
  11 H :    0.112957
  12 H :    0.101060
  13 H :    0.114118
  14 H :    0.135704
  15 H :    0.136703
  16 H :    0.150011
  17 H :    0.157682
  18 H :    0.141135
  19 H :    0.327226
Sum of atomic charges:    0.0000000

LOEWDIN ATOMIC CHARGES
----------------------
   0 C :   -0.358941
   1 O :    0.135292
   2 C :   -0.327081
   3 C :   -0.218044
   4 C :   -0.396627
   5 C :   -0.242621
   6 O :    0.032608
   7 C :   -0.154005
   8 N :    0.070611
   9 H :    0.114718
  10 H :    0.102192
  11 H :    0.101822
  12 H :    0.119906
  13 H :    0.123759
  14 H :    0.151719
  15 H :    0.153397
  16 H :    0.132914
  17 H :    0.137555
  18 H :    0.135769
  19 H :    0.185057

  Mayer bond orders larger than 0.1
B(  0-C ,  1-O ) :   0.9152 B(  0-C ,  9-H ) :   0.9388 B(  0-C , 10-H ) :   0.9364
B(  0-C , 11-H ) :   0.9378 B(  1-O ,  2-C ) :   0.9702 B(  2-C ,  3-C ) :   0.9205
B(  2-C , 12-H ) :   0.9281 B(  2-C , 13-H ) :   0.9251 B(  3-C ,  4-C ) :   0.9444
B(  3-C , 14-H ) :   0.9129 B(  3-C , 15-H ) :   0.9123 B(  4-C ,  5-C ) :   0.8700
B(  4-C ,  6-O ) :   0.9162 B(  4-C ,  7-C ) :   0.8993 B(  5-C , 16-H ) :   0.9370
B(  5-C , 17-H ) :   0.9312 B(  5-C , 18-H ) :   0.9249 B(  6-O , 19-H ) :   0.8346
B(  7-C ,  8-N ) :   2.8753

MP2 TOTAL ENERGY:     -439.569085534 Eh
FINAL SINGLE POINT ENERGY      -439.569085534408

DIPOLE MOMENT
-------------
                                X             Y             Z
Electronic contribution:     -1.04006      -9.70211      -2.20729
Nuclear contribution   :      1.00787      11.25981       2.25583
                        -----------------------------------------
Total Dipole Moment    :     -0.03219       1.55770       0.04854
                        -----------------------------------------
Magnitude (a.u.)       :      1.55879
Magnitude (Debye)      :      3.96213

                             ****ORCA TERMINATED NORMALLY****
TOTAL RUN TIME: 0 days 0 hours 16 minutes 51 seconds 352 msec
