                         Program Version 3.0.3 - RELEASE   -
|  1> ! RI-MP2 RIJK def2-TZVP def2-TZVP/C def2-TZVP/JK TIGHTSCF
|  2> % maxcore 2000
|  3> % mp2 density relaxed end
|  4> *xyz 0 1
|  5>  N       -0.1828286287    -1.1870170139    -0.0245203883
|  6>  C       -0.1430183222    -0.0315116976     0.0133626944
|  7>  C       -0.0681471386     1.4173869004     0.0571545235
|  8>  C       -0.0855162839     2.0134797719     1.5301327796
|  9>  C        1.4161015111     2.1078308068     1.3983738174
| 10>  C        2.5738282288     1.7566034324     1.9441434115
| 11>  C        3.5872175832     1.4823389455     0.8348468795
| 12>  C        2.6907147620     1.2213749114    -0.4238330581
| 13>  C        1.4064341012     2.0031084146    -0.1005427196
| 14>  H       -0.8121083731     1.8393603742    -0.6224694137
| 15>  H       -0.6005289017     2.9790277000     1.5349521326
| 16>  H       -0.4942937923     1.3822015952     2.3205902946
| 17>  H        2.7844532107     1.5933357925     2.9944079895
| 18>  H        4.2655735260     2.3322438968     0.6764535443
| 19>  H        4.2214853328     0.6212744415     1.0693773821
| 20>  H        3.1682388771     1.5276494457    -1.3581272300
| 21>  H        2.4721517882     0.1507851444    -0.4950312002
| 22>  H        1.3362115593     2.9620110283    -0.6266869593
| 23> *
| 24>
| 25>                          ****END OF INPUT****

CARTESIAN COORDINATES (ANGSTROEM)
---------------------------------
  N     -0.182829   -1.187017   -0.024520
  C     -0.143018   -0.031512    0.013363
  C     -0.068147    1.417387    0.057155
  C     -0.085516    2.013480    1.530133
  C      1.416102    2.107831    1.398374
  C      2.573828    1.756603    1.944143
  C      3.587218    1.482339    0.834847
  C      2.690715    1.221375   -0.423833
  C      1.406434    2.003108   -0.100543
  H     -0.812108    1.839360   -0.622469
  H     -0.600529    2.979028    1.534952
  H     -0.494294    1.382202    2.320590
  H      2.784453    1.593336    2.994408
  H      4.265574    2.332244    0.676454
  H      4.221485    0.621274    1.069377
  H      3.168239    1.527649   -1.358127
  H      2.472152    0.150785   -0.495031
  H      1.336212    2.962011   -0.626687

 Total Charge           Charge          ....    0
 Multiplicity           Mult            ....    1
 Number of Electrons    NEL             ....   64
 Basis Dimension        Dim             ....  333

ORBITAL ENERGIES
----------------

  NO   OCC          E(Eh)            E(eV)
   0   2.0000     -15.565543      -423.5599
   1   2.0000     -11.289845      -307.2123
   2   2.0000     -11.269776      -306.6662
   3   2.0000     -11.263830      -306.5044
   4   2.0000     -11.251329      -306.1642
   5   2.0000     -11.240230      -305.8622
   6   2.0000     -11.235778      -305.7411
   7   2.0000     -11.234134      -305.6963
   8   2.0000     -11.233613      -305.6821
   9   2.0000      -1.220279       -33.2055
  10   2.0000      -1.184555       -32.2334
  11   2.0000      -1.077473       -29.3195
  12   2.0000      -0.988296       -26.8929
  13   2.0000      -0.928400       -25.2630
  14   2.0000      -0.900706       -24.5095
  15   2.0000      -0.809110       -22.0170
  16   2.0000      -0.731934       -19.9169
  17   2.0000      -0.679703       -18.4956
  18   2.0000      -0.673821       -18.3356
  19   2.0000      -0.641464       -17.4551
  20   2.0000      -0.594378       -16.1739
  21   2.0000      -0.587647       -15.9907
  22   2.0000      -0.558810       -15.2060
  23   2.0000      -0.541993       -14.7484
  24   2.0000      -0.529018       -14.3953
  25   2.0000      -0.501444       -13.6450
  26   2.0000      -0.495877       -13.4935
  27   2.0000      -0.489372       -13.3165
  28   2.0000      -0.464466       -12.6388
  29   2.0000      -0.443485       -12.0678
  30   2.0000      -0.436354       -11.8738
  31   2.0000      -0.347403        -9.4533
  32   0.0000       0.120417         3.2767
  33   0.0000       0.137749         3.7483
  34   0.0000       0.144408         3.9295
  35   0.0000       0.157574         4.2878
  36   0.0000       0.166552         4.5321

MULLIKEN ATOMIC CHARGES
-----------------------
   0 N :   -0.052793
   1 C :   -0.254634
   2 C :    0.063793
   3 C :   -0.188827
   4 C :   -0.092022
   5 C :   -0.202289
   6 C :   -0.167552
   7 C :   -0.276365
   8 C :   -0.029279
   9 H :    0.149112
  10 H :    0.138273
  11 H :    0.145286
  12 H :    0.136300
  13 H :    0.117918
  14 H :    0.124455
  15 H :    0.126815
  16 H :    0.143701
  17 H :    0.118109
Sum of atomic charges:    0.0000000

LOEWDIN ATOMIC CHARGES
----------------------
   0 N :    0.060396
   1 C :   -0.177704
   2 C :   -0.170454
   3 C :   -0.150749
   4 C :   -0.150979
   5 C :   -0.129814
   6 C :   -0.226477
   7 C :   -0.212142
   8 C :   -0.140146
   9 H :    0.163514
  10 H :    0.145596
  11 H :    0.141071
  12 H :    0.138178
  13 H :    0.137035
  14 H :    0.136941
  15 H :    0.132362
  16 H :    0.147972
  17 H :    0.155401

  Mayer bond orders larger than 0.1
B(  0-N ,  1-C ) :   2.8547 B(  1-C ,  2-C ) :   0.9470 B(  2-C ,  3-C ) :   0.8641
B(  2-C ,  8-C ) :   0.8559 B(  2-C ,  9-H ) :   0.9022 B(  3-C ,  4-C ) :   0.9239
B(  3-C , 10-H ) :   0.9170 B(  3-C , 11-H ) :   0.9078 B(  4-C ,  5-C ) :   1.7787
B(  4-C ,  8-C ) :   0.9231 B(  5-C ,  6-C ) :   0.9229 B(  5-C , 12-H ) :   0.9186
B(  6-C ,  7-C ) :   0.9488 B(  6-C , 13-H ) :   0.9112 B(  6-C , 14-H ) :   0.9297
B(  7-C ,  8-C ) :   0.9241 B(  7-C , 15-H ) :   0.9360 B(  7-C , 16-H ) :   0.9180
B(  8-C , 17-H ) :   0.9007

MP2 TOTAL ENERGY:     -364.143837500 Eh
FINAL SINGLE POINT ENERGY      -364.143837499748

DIPOLE MOMENT
-------------
                                X             Y             Z
Electronic contribution:     -4.41406      -2.90865      -0.21641
Nuclear contribution   :      4.65447       4.31499       0.31147
                        -----------------------------------------
Total Dipole Moment    :      0.24041       1.40635       0.09507
                        -----------------------------------------
Magnitude (a.u.)       :      1.42991
Magnitude (Debye)      :      3.63454

                             ****ORCA TERMINATED NORMALLY****
TOTAL RUN TIME: 0 days 0 hours 19 minutes 1 seconds 775 msec
