                         Program Version 3.0.3 - RELEASE   -
|  1> ! RI-MP2 RIJK def2-TZVP def2-TZVP/C def2-TZVP/JK TIGHTSCF
|  2> % maxcore 2000
|  3> % mp2 density relaxed end
|  4> *xyz 0 1
|  5>  C       -0.0957976343     0.9140980130    -2.1047793607
|  6>  C        0.0047942466    -0.2140331818    -1.1000875618
|  7>  C        1.3034942239    -0.5340844600    -0.3534039485
|  8>  C        2.5687738331     0.2618224678    -0.5738551465
|  9>  O        3.1458859960     0.0610996653    -1.8602023944
| 10>  C        0.1165249491     0.0350984563     0.3685004071
| 11>  C       -0.0314087568     1.3273936243     1.1691589253
| 12>  C       -0.8046024774     0.4310961185     2.1604035299
| 13>  O       -0.6131529317    -0.7348101699     1.3268366659
| 14>  H        0.3935573672     1.8250464551    -1.7480384854
| 15>  H        0.3800149238     0.6420236967    -3.0516154951
| 16>  H       -1.1438566995     1.1616909243    -2.3050916464
| 17>  H       -0.5815337012    -1.0959028817    -1.3480860582
| 18>  H        1.4630542573    -1.5944664964    -0.1636758152
| 19>  H        2.3689812187     1.3360765716    -0.5147304838
| 20>  H        3.2936090690     0.0295982412     0.2228377464
| 21>  H        3.2813786263    -0.8852323332    -1.9725457338
| 22>  H        0.8944022054     1.7597403209     1.5535327444
| 23>  H       -0.6209306627     2.1102115629     0.6875410433
| 24>  H       -0.3423553053     0.3051568271     3.1461015793
| 25>  H       -1.8667165576     0.6684420083     2.2886162184
| 26> *
| 27>
| 28>                          ****END OF INPUT****

CARTESIAN COORDINATES (ANGSTROEM)
---------------------------------
  C     -0.095798    0.914098   -2.104779
  C      0.004794   -0.214033   -1.100088
  C      1.303494   -0.534084   -0.353404
  C      2.568774    0.261822   -0.573855
  O      3.145886    0.061100   -1.860202
  C      0.116525    0.035098    0.368500
  C     -0.031409    1.327394    1.169159
  C     -0.804602    0.431096    2.160404
  O     -0.613153   -0.734810    1.326837
  H      0.393557    1.825046   -1.748038
  H      0.380015    0.642024   -3.051615
  H     -1.143857    1.161691   -2.305092
  H     -0.581534   -1.095903   -1.348086
  H      1.463054   -1.594466   -0.163676
  H      2.368981    1.336077   -0.514730
  H      3.293609    0.029598    0.222838
  H      3.281379   -0.885232   -1.972546
  H      0.894402    1.759740    1.553533
  H     -0.620931    2.110212    0.687541
  H     -0.342355    0.305157    3.146102
  H     -1.866717    0.668442    2.288616

 Total Charge           Charge          ....    0
 Multiplicity           Mult            ....    1
 Number of Electrons    NEL             ....   70
 Basis Dimension        Dim             ....  351

ORBITAL ENERGIES
----------------

  NO   OCC          E(Eh)            E(eV)
   0   2.0000     -20.553854      -559.2988
   1   2.0000     -20.550519      -559.2080
   2   2.0000     -11.289452      -307.2016
   3   2.0000     -11.282448      -307.0110
   4   2.0000     -11.278672      -306.9083
   5   2.0000     -11.236665      -305.7652
   6   2.0000     -11.229185      -305.5617
   7   2.0000     -11.226891      -305.4992
   8   2.0000     -11.217201      -305.2355
   9   2.0000      -1.384568       -37.6760
  10   2.0000      -1.357004       -36.9259
  11   2.0000      -1.144159       -31.1341
  12   2.0000      -1.011734       -27.5307
  13   2.0000      -0.975513       -26.5451
  14   2.0000      -0.933730       -25.4081
  15   2.0000      -0.864337       -23.5198
  16   2.0000      -0.775440       -21.1008
  17   2.0000      -0.728601       -19.8262
  18   2.0000      -0.692068       -18.8321
  19   2.0000      -0.671815       -18.2810
  20   2.0000      -0.661212       -17.9925
  21   2.0000      -0.655587       -17.8394
  22   2.0000      -0.595423       -16.2023
  23   2.0000      -0.591236       -16.0883
  24   2.0000      -0.566198       -15.4070
  25   2.0000      -0.553190       -15.0531
  26   2.0000      -0.538694       -14.6586
  27   2.0000      -0.534504       -14.5446
  28   2.0000      -0.508313       -13.8319
  29   2.0000      -0.496368       -13.5068
  30   2.0000      -0.475797       -12.9471
  31   2.0000      -0.467707       -12.7270
  32   2.0000      -0.454651       -12.3717
  33   2.0000      -0.394061       -10.7229
  34   2.0000      -0.366285        -9.9671
  35   0.0000       0.128857         3.5064
  36   0.0000       0.145327         3.9545
  37   0.0000       0.161830         4.4036
  38   0.0000       0.168774         4.5926
  39   0.0000       0.179487         4.8841

MULLIKEN ATOMIC CHARGES
-----------------------
   0 C :   -0.399762
   1 C :   -0.066147
   2 C :   -0.174989
   3 C :   -0.032738
   4 O :   -0.476428
   5 C :    0.140056
   6 C :   -0.309088
   7 C :    0.004694
   8 O :   -0.321324
   9 H :    0.120775
  10 H :    0.140534
  11 H :    0.136022
  12 H :    0.123109
  13 H :    0.125363
  14 H :    0.103976
  15 H :    0.113609
  16 H :    0.312212
  17 H :    0.129570
  18 H :    0.131440
  19 H :    0.098997
  20 H :    0.100119
Sum of atomic charges:   -0.0000000

LOEWDIN ATOMIC CHARGES
----------------------
   0 C :   -0.288210
   1 C :   -0.193925
   2 C :   -0.193025
   3 C :   -0.326032
   4 O :   -0.050870
   5 C :   -0.270709
   6 C :   -0.204399
   7 C :   -0.257179
   8 O :    0.164106
   9 H :    0.125745
  10 H :    0.129871
  11 H :    0.125832
  12 H :    0.155759
  13 H :    0.153629
  14 H :    0.130742
  15 H :    0.121983
  16 H :    0.172357
  17 H :    0.134301
  18 H :    0.136004
  19 H :    0.116885
  20 H :    0.117135

  Mayer bond orders larger than 0.1
B(  0-C ,  1-C ) :   0.8953 B(  0-C ,  9-H ) :   0.9362 B(  0-C , 10-H ) :   0.9328
B(  0-C , 11-H ) :   0.9370 B(  1-C ,  2-C ) :   0.8855 B(  1-C ,  5-C ) :   0.8513
B(  1-C , 12-H ) :   0.9162 B(  2-C ,  3-C ) :   0.9286 B(  2-C ,  5-C ) :   0.8350
B(  2-C , 13-H ) :   0.8992 B(  3-C ,  4-O ) :   0.9142 B(  3-C , 14-H ) :   0.9249
B(  3-C , 15-H ) :   0.9337 B(  4-O , 16-H ) :   0.8492 B(  5-C ,  6-C ) :   0.9393
B(  5-C ,  8-O ) :   0.9778 B(  6-C ,  7-C ) :   0.9942 B(  6-C , 17-H ) :   0.9187
B(  6-C , 18-H ) :   0.9174 B(  7-C ,  8-O ) :   0.9322 B(  7-C , 19-H ) :   0.9145
B(  7-C , 20-H ) :   0.9156

MP2 TOTAL ENERGY:     -423.477519488 Eh
FINAL SINGLE POINT ENERGY      -423.477519488080

DIPOLE MOMENT
-------------
                                X             Y             Z
Electronic contribution:      0.32566      -3.69000       1.86359
Nuclear contribution   :     -0.38264       3.90885      -1.51971
                        -----------------------------------------
Total Dipole Moment    :     -0.05698       0.21885       0.34388
                        -----------------------------------------
Magnitude (a.u.)       :      0.41158
Magnitude (Debye)      :      1.04616

                             ****ORCA TERMINATED NORMALLY****
TOTAL RUN TIME: 0 days 0 hours 17 minutes 18 seconds 888 msec
