                         Program Version 3.0.3 - RELEASE   -
|  1> ! RI-MP2 RIJK def2-TZVP def2-TZVP/C def2-TZVP/JK TIGHTSCF
|  2> % maxcore 2000
|  3> % mp2 density relaxed end
|  4> *xyz 0 1
|  5>  N        0.0397189577     1.2076675350     0.5600756272
|  6>  C       -0.0394956482    -0.1056139734     0.2285783940
|  7>  N        1.1342172271    -0.7870708012     0.1493610465
|  8>  H        1.9633757259    -0.2731732317    -0.1045371552
|  9>  H        1.0274130695    -1.7125251087    -0.2499480817
| 10>  C       -1.2508160413    -0.7629264174    -0.0243702214
| 11>  C       -2.6404633195    -0.1849045029     0.1179428371
| 12>  C       -2.8266188786     0.6857687719     1.2715614099
| 13>  N       -2.9110526911     1.4181949116     2.1641409191
| 14>  N       -1.1100140409    -2.0460915621    -0.4705776978
| 15>  O       -2.1425380612    -2.6925198948    -0.7003411502
| 16>  H        0.8838176914     1.5162058476     1.0180265397
| 17>  H       -0.7988734476     1.6662288993     0.8873018696
| 18>  H       -2.9516928699     0.3688458039    -0.7786120870
| 19>  H       -3.3032435832    -1.0598367270     0.1766980303
| 20> *
| 21>
| 22>                          ****END OF INPUT****

CARTESIAN COORDINATES (ANGSTROEM)
---------------------------------
  N      0.039719    1.207668    0.560076
  C     -0.039496   -0.105614    0.228578
  N      1.134217   -0.787071    0.149361
  H      1.963376   -0.273173   -0.104537
  H      1.027413   -1.712525   -0.249948
  C     -1.250816   -0.762926   -0.024370
  C     -2.640463   -0.184905    0.117943
  C     -2.826619    0.685769    1.271561
  N     -2.911053    1.418195    2.164141
  N     -1.110014   -2.046092   -0.470578
  O     -2.142538   -2.692520   -0.700341
  H      0.883818    1.516206    1.018027
  H     -0.798873    1.666229    0.887302
  H     -2.951693    0.368846   -0.778612
  H     -3.303244   -1.059837    0.176698

 Total Charge           Charge          ....    0
 Multiplicity           Mult            ....    1
 Number of Electrons    NEL             ....   66
 Basis Dimension        Dim             ....  315

ORBITAL ENERGIES
----------------

  NO   OCC          E(Eh)            E(eV)
   0   2.0000     -20.562482      -559.5336
   1   2.0000     -15.675515      -426.5525
   2   2.0000     -15.622197      -425.1016
   3   2.0000     -15.611030      -424.7977
   4   2.0000     -15.581315      -423.9891
   5   2.0000     -11.385297      -309.8097
   6   2.0000     -11.288666      -307.1802
   7   2.0000     -11.286327      -307.1166
   8   2.0000     -11.259170      -306.3776
   9   2.0000      -1.454671       -39.5836
  10   2.0000      -1.330637       -36.2085
  11   2.0000      -1.233907       -33.5763
  12   2.0000      -1.215289       -33.0697
  13   2.0000      -1.126735       -30.6600
  14   2.0000      -1.025304       -27.8999
  15   2.0000      -0.921885       -25.0858
  16   2.0000      -0.813078       -22.1250
  17   2.0000      -0.770368       -20.9628
  18   2.0000      -0.756108       -20.5747
  19   2.0000      -0.696026       -18.9398
  20   2.0000      -0.678675       -18.4677
  21   2.0000      -0.665639       -18.1130
  22   2.0000      -0.653400       -17.7799
  23   2.0000      -0.612590       -16.6694
  24   2.0000      -0.597309       -16.2536
  25   2.0000      -0.573523       -15.6064
  26   2.0000      -0.564539       -15.3619
  27   2.0000      -0.556248       -15.1363
  28   2.0000      -0.482305       -13.1242
  29   2.0000      -0.470397       -12.8001
  30   2.0000      -0.458797       -12.4845
  31   2.0000      -0.381715       -10.3870
  32   2.0000      -0.334337        -9.0978
  33   0.0000       0.083151         2.2626
  34   0.0000       0.103515         2.8168
  35   0.0000       0.132276         3.5994
  36   0.0000       0.151765         4.1297
  37   0.0000       0.171978         4.6798

MULLIKEN ATOMIC CHARGES
-----------------------
   0 N :   -0.485609
   1 C :    0.269376
   2 N :   -0.485724
   3 H :    0.256448
   4 H :    0.289647
   5 C :    0.043297
   6 C :   -0.151095
   7 C :   -0.195787
   8 N :   -0.076541
   9 N :   -0.039678
  10 O :   -0.340912
  11 H :    0.265047
  12 H :    0.283011
  13 H :    0.174789
  14 H :    0.193729
Sum of atomic charges:    0.0000000

LOEWDIN ATOMIC CHARGES
----------------------
   0 N :    0.014043
   1 C :   -0.304454
   2 N :   -0.004471
   3 H :    0.174286
   4 H :    0.186280
   5 C :   -0.299967
   6 C :   -0.228704
   7 C :   -0.202516
   8 N :    0.045649
   9 N :   -0.044203
  10 O :   -0.061232
  11 H :    0.180844
  12 H :    0.188158
  13 H :    0.173773
  14 H :    0.182514

  Mayer bond orders larger than 0.1
B(  0-N ,  1-C ) :   1.2141 B(  0-N , 11-H ) :   0.8649 B(  0-N , 12-H ) :   0.8523
B(  1-C ,  2-N ) :   1.2114 B(  1-C ,  5-C ) :   1.2909 B(  2-N ,  3-H ) :   0.8652
B(  2-N ,  4-H ) :   0.8303 B(  5-C ,  6-C ) :   0.8947 B(  5-C ,  9-N ) :   1.2064
B(  5-C , 10-O ) :   0.1260 B(  6-C ,  7-C ) :   0.9242 B(  6-C , 13-H ) :   0.8995
B(  6-C , 14-H ) :   0.8816 B(  7-C ,  8-N ) :   2.8115 B(  9-N , 10-O ) :   1.3683

MP2 TOTAL ENERGY:     -449.358032156 Eh
FINAL SINGLE POINT ENERGY      -449.358032155868

DIPOLE MOMENT
-------------
                                X             Y             Z
Electronic contribution:     -2.34180      -1.49583       0.61213
Nuclear contribution   :      4.09173       2.67471      -1.01853
                        -----------------------------------------
Total Dipole Moment    :      1.74993       1.17888      -0.40640
                        -----------------------------------------
Magnitude (a.u.)       :      2.14876
Magnitude (Debye)      :      5.46172

                             ****ORCA TERMINATED NORMALLY****
TOTAL RUN TIME: 0 days 0 hours 15 minutes 14 seconds 910 msec
