                         Program Version 3.0.3 - RELEASE   -
|  1> ! RI-MP2 RIJK def2-TZVP def2-TZVP/C def2-TZVP/JK TIGHTSCF
|  2> % maxcore 2000
|  3> % mp2 density relaxed end
|  4> *xyz 0 1
|  5>  O       -0.0351449647     1.4274880425     0.0081794299
|  6>  C        0.0094699434     0.0077784859     0.0012398702
|  7>  C       -1.3899785534    -0.5205085811     0.0118952423
|  8>  C       -2.5393809899     0.2340788640     0.0230594566
|  9>  N       -3.6066920858    -0.6275473787     0.0301772661
| 10>  C       -3.1600302894    -1.9244862575     0.0234365611
| 11>  C       -1.7853692187    -1.8956433614     0.0121172295
| 12>  C       -0.8802437536    -3.0865654070     0.0017144131
| 13>  O       -1.6721149567    -4.2657579845     0.0094060055
| 14>  H        0.8690427631     1.7529724157     0.0016467734
| 15>  H        0.5486016368    -0.3631753977    -0.8888221973
| 16>  H        0.5650701951    -0.3714659667     0.8775638304
| 17>  H       -2.6681356947     1.3027229873     0.0266896054
| 18>  H       -4.5716506350    -0.3500930403     0.0392671580
| 19>  H       -3.8367278359    -2.7615382245     0.0274170233
| 20>  H       -0.2266848971    -3.0590173934    -0.8885578558
| 21>  H       -0.2077963953    -3.0599527354     0.8778228542
| 22>  H       -1.0788949082    -5.0217923170     0.0030551442
| 23> *
| 24>
| 25>                          ****END OF INPUT****

CARTESIAN COORDINATES (ANGSTROEM)
---------------------------------
  O     -0.035145    1.427488    0.008179
  C      0.009470    0.007778    0.001240
  C     -1.389979   -0.520509    0.011895
  C     -2.539381    0.234079    0.023059
  N     -3.606692   -0.627547    0.030177
  C     -3.160030   -1.924486    0.023437
  C     -1.785369   -1.895643    0.012117
  C     -0.880244   -3.086565    0.001714
  O     -1.672115   -4.265758    0.009406
  H      0.869043    1.752972    0.001647
  H      0.548602   -0.363175   -0.888822
  H      0.565070   -0.371466    0.877564
  H     -2.668136    1.302723    0.026690
  H     -4.571651   -0.350093    0.039267
  H     -3.836728   -2.761538    0.027417
  H     -0.226685   -3.059017   -0.888558
  H     -0.207796   -3.059953    0.877823
  H     -1.078895   -5.021792    0.003055

 Total Charge           Charge          ....    0
 Multiplicity           Mult            ....    1
 Number of Electrons    NEL             ....   68
 Basis Dimension        Dim             ....  333

ORBITAL ENERGIES
----------------

  NO   OCC          E(Eh)            E(eV)
   0   2.0000     -20.554338      -559.3120
   1   2.0000     -20.554337      -559.3119
   2   2.0000     -15.591170      -424.2573
   3   2.0000     -11.278828      -306.9125
   4   2.0000     -11.278825      -306.9124
   5   2.0000     -11.237989      -305.8012
   6   2.0000     -11.237947      -305.8001
   7   2.0000     -11.205883      -304.9276
   8   2.0000     -11.204876      -304.9002
   9   2.0000      -1.359084       -36.9826
  10   2.0000      -1.358371       -36.9632
  11   2.0000      -1.278808       -34.7981
  12   2.0000      -1.064621       -28.9698
  13   2.0000      -0.992771       -27.0147
  14   2.0000      -0.913288       -24.8518
  15   2.0000      -0.912350       -24.8263
  16   2.0000      -0.761869       -20.7315
  17   2.0000      -0.731835       -19.9142
  18   2.0000      -0.729160       -19.8415
  19   2.0000      -0.681508       -18.5448
  20   2.0000      -0.674013       -18.3408
  21   2.0000      -0.636825       -17.3289
  22   2.0000      -0.619982       -16.8706
  23   2.0000      -0.590929       -16.0800
  24   2.0000      -0.571996       -15.5648
  25   2.0000      -0.566055       -15.4031
  26   2.0000      -0.551505       -15.0072
  27   2.0000      -0.515423       -14.0254
  28   2.0000      -0.506070       -13.7709
  29   2.0000      -0.489409       -13.3175
  30   2.0000      -0.458734       -12.4828
  31   2.0000      -0.447218       -12.1694
  32   2.0000      -0.323744        -8.8095
  33   2.0000      -0.285304        -7.7635
  34   0.0000       0.131697         3.5837
  35   0.0000       0.142533         3.8785
  36   0.0000       0.143684         3.9098
  37   0.0000       0.167309         4.5527
  38   0.0000       0.181770         4.9462

MULLIKEN ATOMIC CHARGES
-----------------------
   0 O :   -0.469981
   1 C :   -0.113216
   2 C :   -0.001132
   3 C :   -0.089516
   4 N :   -0.249108
   5 C :   -0.089515
   6 C :   -0.001133
   7 C :   -0.113216
   8 O :   -0.469981
   9 H :    0.313102
  10 H :    0.103557
  11 H :    0.103526
  12 H :    0.157045
  13 H :    0.242342
  14 H :    0.157045
  15 H :    0.103564
  16 H :    0.103518
  17 H :    0.313101
Sum of atomic charges:   -0.0000000

LOEWDIN ATOMIC CHARGES
----------------------
   0 O :   -0.040970
   1 C :   -0.307609
   2 C :   -0.177943
   3 C :   -0.208501
   4 N :    0.178430
   5 C :   -0.208501
   6 C :   -0.177943
   7 C :   -0.307609
   8 O :   -0.040970
   9 H :    0.171843
  10 H :    0.120921
  11 H :    0.120910
  12 H :    0.137541
  13 H :    0.189187
  14 H :    0.137541
  15 H :    0.120921
  16 H :    0.120910
  17 H :    0.171843

  Mayer bond orders larger than 0.1
B(  0-O ,  1-C ) :   1.0628 B(  0-O ,  2-C ) :  -0.1348 B(  0-O ,  9-H ) :   0.8500
B(  1-C ,  2-C ) :   0.8863 B(  1-C , 10-H ) :   0.9420 B(  1-C , 11-H ) :   0.9421
B(  2-C ,  3-C ) :   1.4972 B(  2-C ,  6-C ) :   1.1834 B(  3-C ,  4-N ) :   1.1270
B(  3-C , 12-H ) :   0.9004 B(  4-N ,  5-C ) :   1.1270 B(  4-N , 13-H ) :   0.8803
B(  5-C ,  6-C ) :   1.4972 B(  5-C , 14-H ) :   0.9004 B(  6-C ,  7-C ) :   0.8863
B(  6-C ,  8-O ) :  -0.1348 B(  7-C ,  8-O ) :   1.0628 B(  7-C , 15-H ) :   0.9421
B(  7-C , 16-H ) :   0.9421 B(  8-O , 17-H ) :   0.8500

MP2 TOTAL ENERGY:     -438.387213203 Eh
FINAL SINGLE POINT ENERGY      -438.387213202979

DIPOLE MOMENT
-------------
                                X             Y             Z
Electronic contribution:     -3.23578       0.93039       0.03301
Nuclear contribution   :      3.71275      -1.06753      -0.03910
                        -----------------------------------------
Total Dipole Moment    :      0.47698      -0.13715      -0.00609
                        -----------------------------------------
Magnitude (a.u.)       :      0.49634
Magnitude (Debye)      :      1.26159

                             ****ORCA TERMINATED NORMALLY****
TOTAL RUN TIME: 0 days 0 hours 15 minutes 18 seconds 607 msec
