                         Program Version 3.0.3 - RELEASE   -
|  1> ! RI-MP2 RIJK def2-TZVP def2-TZVP/C def2-TZVP/JK TIGHTSCF
|  2> % maxcore 2000
|  3> % mp2 density relaxed end
|  4> *xyz 0 1
|  5>  N        0.0789069073     1.3571355827     0.3836531218
|  6>  C       -0.0323539900     0.0132632390     0.0883606266
|  7>  C       -1.2411503283    -0.6314168746     0.0788818001
|  8>  C       -1.4850805341    -2.0152441626    -0.1749295773
|  9>  C       -0.6072488352    -3.0493443731    -0.1760579251
| 10>  C        0.7974991821    -2.9421592576     0.2362272881
| 11>  O        1.3454500326    -3.7756712506     0.9264373790
| 12>  N        1.5390675853    -1.8747648212    -0.2970661847
| 13>  C        1.2072758905    -0.6428179972    -0.3217311597
| 14>  H        0.9026751398     1.8350230480     0.0531054432
| 15>  H       -0.7601407994     1.9147391444     0.3440815446
| 16>  H       -2.1243939236    -0.0143041343     0.2298927925
| 17>  H       -2.5306279739    -2.2641099811    -0.3437792615
| 18>  H       -0.9663786451    -4.0601144668    -0.3411574227
| 19>  H        1.9502501422     0.0419380551    -0.7502532749
| 20> *
| 21>
| 22>                          ****END OF INPUT****

CARTESIAN COORDINATES (ANGSTROEM)
---------------------------------
  N      0.078907    1.357136    0.383653
  C     -0.032354    0.013263    0.088361
  C     -1.241150   -0.631417    0.078882
  C     -1.485081   -2.015244   -0.174930
  C     -0.607249   -3.049344   -0.176058
  C      0.797499   -2.942159    0.236227
  O      1.345450   -3.775671    0.926437
  N      1.539068   -1.874765   -0.297066
  C      1.207276   -0.642818   -0.321731
  H      0.902675    1.835023    0.053105
  H     -0.760141    1.914739    0.344082
  H     -2.124394   -0.014304    0.229893
  H     -2.530628   -2.264110   -0.343779
  H     -0.966379   -4.060114   -0.341157
  H      1.950250    0.041938   -0.750253

 Total Charge           Charge          ....    0
 Multiplicity           Mult            ....    1
 Number of Electrons    NEL             ....   64
 Basis Dimension        Dim             ....  315

ORBITAL ENERGIES
----------------

  NO   OCC          E(Eh)            E(eV)
   0   2.0000     -20.527183      -558.5730
   1   2.0000     -15.598039      -424.4442
   2   2.0000     -15.587631      -424.1610
   3   2.0000     -11.351282      -308.8841
   4   2.0000     -11.320385      -308.0433
   5   2.0000     -11.319418      -308.0170
   6   2.0000     -11.269744      -306.6653
   7   2.0000     -11.254579      -306.2527
   8   2.0000     -11.246100      -306.0219
   9   2.0000      -1.384836       -37.6833
  10   2.0000      -1.273828       -34.6626
  11   2.0000      -1.235549       -33.6210
  12   2.0000      -1.109036       -30.1784
  13   2.0000      -1.033016       -28.1098
  14   2.0000      -0.933104       -25.3911
  15   2.0000      -0.900547       -24.5051
  16   2.0000      -0.792491       -21.5648
  17   2.0000      -0.756819       -20.5941
  18   2.0000      -0.720108       -19.5951
  19   2.0000      -0.681081       -18.5331
  20   2.0000      -0.662475       -18.0269
  21   2.0000      -0.643776       -17.5180
  22   2.0000      -0.628616       -17.1055
  23   2.0000      -0.593321       -16.1451
  24   2.0000      -0.570542       -15.5252
  25   2.0000      -0.542534       -14.7631
  26   2.0000      -0.524850       -14.2819
  27   2.0000      -0.463713       -12.6183
  28   2.0000      -0.450488       -12.2584
  29   2.0000      -0.425920       -11.5899
  30   2.0000      -0.409515       -11.1435
  31   2.0000      -0.311442        -8.4748
  32   0.0000       0.055951         1.5225
  33   0.0000       0.089608         2.4384
  34   0.0000       0.115025         3.1300
  35   0.0000       0.144358         3.9282
  36   0.0000       0.160528         4.3682

MULLIKEN ATOMIC CHARGES
-----------------------
   0 N :   -0.499328
   1 C :    0.248753
   2 C :   -0.210369
   3 C :   -0.107294
   4 C :   -0.188908
   5 C :    0.243443
   6 O :   -0.291942
   7 N :   -0.157419
   8 C :   -0.064762
   9 H :    0.254468
  10 H :    0.253600
  11 H :    0.119514
  12 H :    0.134616
  13 H :    0.146184
  14 H :    0.119444
Sum of atomic charges:    0.0000000

LOEWDIN ATOMIC CHARGES
----------------------
   0 N :   -0.035072
   1 C :   -0.246053
   2 C :   -0.138097
   3 C :   -0.143949
   4 C :   -0.115830
   5 C :   -0.430698
   6 O :    0.137704
   7 N :    0.194565
   8 C :   -0.176986
   9 H :    0.171718
  10 H :    0.171318
  11 H :    0.152610
  12 H :    0.157406
  13 H :    0.157308
  14 H :    0.144056

  Mayer bond orders larger than 0.1
B(  0-N ,  1-C ) :   1.0732 B(  0-N ,  9-H ) :   0.8716 B(  0-N , 10-H ) :   0.8725
B(  1-C ,  2-C ) :   1.5001 B(  1-C ,  8-C ) :   0.9611 B(  2-C ,  3-C ) :   1.1606
B(  2-C , 11-H ) :   0.9198 B(  3-C ,  4-C ) :   1.5499 B(  3-C , 12-H ) :   0.9183
B(  4-C ,  5-C ) :   0.9902 B(  4-C , 13-H ) :   0.9145 B(  5-C ,  6-O ) :   1.9760
B(  5-C ,  7-N ) :   1.0128 B(  7-N ,  8-C ) :   1.7758 B(  8-C , 14-H ) :   0.9421

MP2 TOTAL ENERGY:     -416.118334188 Eh
FINAL SINGLE POINT ENERGY      -416.118334187600

DIPOLE MOMENT
-------------
                                X             Y             Z
Electronic contribution:      3.10823      -3.80151       0.61974
Nuclear contribution   :     -4.40610       5.95777      -1.29898
                        -----------------------------------------
Total Dipole Moment    :     -1.29787       2.15625      -0.67924
                        -----------------------------------------
Magnitude (a.u.)       :      2.60677
Magnitude (Debye)      :      6.62588

                             ****ORCA TERMINATED NORMALLY****
TOTAL RUN TIME: 0 days 0 hours 15 minutes 53 seconds 679 msec
