                         Program Version 3.0.3 - RELEASE   -
|  1> ! RI-MP2 RIJK def2-TZVP def2-TZVP/C def2-TZVP/JK TIGHTSCF
|  2> % maxcore 2000
|  3> % mp2 density relaxed end
|  4> *xyz 0 1
|  5>  C        0.0078090352     1.6319673293    -0.0084480392
|  6>  C       -0.0379411637     0.0996763307    -0.0069747393
|  7>  C        0.7508581255    -0.5327140169    -1.1566297604
|  8>  C        2.2771304914    -0.2601459886    -1.1440541610
|  9>  C        2.8597202462    -1.4656928707    -1.8538301855
| 10>  C        4.2835585516    -1.4981923948    -2.3118056785
| 11>  C        1.9501853857    -2.4369606678    -1.9578601209
| 12>  C        0.6305745252    -2.0854457766    -1.3081211268
| 13>  C        0.4333294645    -2.8696238677     0.0034331557
| 14>  H        1.0312188003     2.0035013142     0.1083676996
| 15>  H       -0.3851713220     2.0381929634    -0.9476037378
| 16>  H       -0.5899095814     2.0472912749     0.8090590675
| 17>  H        0.3418933161    -0.2732081390     0.9525036197
| 18>  H       -1.0846862205    -0.2262817066    -0.0674887860
| 19>  H        0.3670002799    -0.1082915934    -2.0941641734
| 20>  H        2.5383684632     0.6849435129    -1.6353453100
| 21>  H        2.6735674783    -0.1871586323    -0.1188118778
| 22>  H        4.9734337862    -1.3402880776    -1.4723188760
| 23>  H        4.5362436830    -2.4524880023    -2.7824669817
| 24>  H        4.4884552107    -0.6967998516    -3.0335111746
| 25>  H        2.1382820054    -3.4132783950    -2.3955309430
| 26>  H       -0.2167982403    -2.3274416935    -1.9636196719
| 27>  H        1.2364893464    -2.6616777473     0.7182369489
| 28>  H       -0.5213193027    -2.6288461709     0.4818060449
| 29>  H        0.4422826358    -3.9469180728    -0.1939248025
| 30> *
| 31>
| 32>                          ****END OF INPUT****

CARTESIAN COORDINATES (ANGSTROEM)
---------------------------------
  C      0.007809    1.631967   -0.008448
  C     -0.037941    0.099676   -0.006975
  C      0.750858   -0.532714   -1.156630
  C      2.277130   -0.260146   -1.144054
  C      2.859720   -1.465693   -1.853830
  C      4.283559   -1.498192   -2.311806
  C      1.950185   -2.436961   -1.957860
  C      0.630575   -2.085446   -1.308121
  C      0.433329   -2.869624    0.003433
  H      1.031219    2.003501    0.108368
  H     -0.385171    2.038193   -0.947604
  H     -0.589910    2.047291    0.809059
  H      0.341893   -0.273208    0.952504
  H     -1.084686   -0.226282   -0.067489
  H      0.367000   -0.108292   -2.094164
  H      2.538368    0.684944   -1.635345
  H      2.673567   -0.187159   -0.118812
  H      4.973434   -1.340288   -1.472319
  H      4.536244   -2.452488   -2.782467
  H      4.488455   -0.696800   -3.033511
  H      2.138282   -3.413278   -2.395531
  H     -0.216798   -2.327442   -1.963620
  H      1.236489   -2.661678    0.718237
  H     -0.521319   -2.628846    0.481806
  H      0.442283   -3.946918   -0.193925

 Total Charge           Charge          ....    0
 Multiplicity           Mult            ....    1
 Number of Electrons    NEL             ....   70
 Basis Dimension        Dim             ....  375

ORBITAL ENERGIES
----------------

  NO   OCC          E(Eh)            E(eV)
   0   2.0000     -11.222879      -305.3901
   1   2.0000     -11.221616      -305.3557
   2   2.0000     -11.218751      -305.2777
   3   2.0000     -11.218125      -305.2607
   4   2.0000     -11.215739      -305.1958
   5   2.0000     -11.214273      -305.1559
   6   2.0000     -11.209639      -305.0298
   7   2.0000     -11.207371      -304.9681
   8   2.0000     -11.206193      -304.9360
   9   2.0000      -1.139764       -31.0145
  10   2.0000      -1.046721       -28.4827
  11   2.0000      -1.013407       -27.5762
  12   2.0000      -0.959261       -26.1028
  13   2.0000      -0.920173       -25.0392
  14   2.0000      -0.880116       -23.9492
  15   2.0000      -0.821648       -22.3582
  16   2.0000      -0.738014       -20.0824
  17   2.0000      -0.703478       -19.1426
  18   2.0000      -0.656309       -17.8591
  19   2.0000      -0.615228       -16.7412
  20   2.0000      -0.591943       -16.1076
  21   2.0000      -0.582688       -15.8557
  22   2.0000      -0.568557       -15.4712
  23   2.0000      -0.562220       -15.2988
  24   2.0000      -0.550766       -14.9871
  25   2.0000      -0.538352       -14.6493
  26   2.0000      -0.517289       -14.0762
  27   2.0000      -0.507089       -13.7986
  28   2.0000      -0.500843       -13.6286
  29   2.0000      -0.486515       -13.2387
  30   2.0000      -0.463108       -12.6018
  31   2.0000      -0.447237       -12.1699
  32   2.0000      -0.443622       -12.0716
  33   2.0000      -0.430848       -11.7240
  34   2.0000      -0.328739        -8.9454
  35   0.0000       0.130217         3.5434
  36   0.0000       0.150530         4.0961
  37   0.0000       0.153600         4.1797
  38   0.0000       0.160531         4.3683
  39   0.0000       0.182301         4.9607

MULLIKEN ATOMIC CHARGES
-----------------------
   0 C :   -0.394862
   1 C :   -0.214386
   2 C :   -0.079474
   3 C :   -0.273219
   4 C :    0.048623
   5 C :   -0.443194
   6 C :   -0.226349
   7 C :    0.089969
   8 C :   -0.447188
   9 H :    0.128832
  10 H :    0.122941
  11 H :    0.133629
  12 H :    0.111985
  13 H :    0.112532
  14 H :    0.086160
  15 H :    0.125626
  16 H :    0.107157
  17 H :    0.135522
  18 H :    0.135474
  19 H :    0.137705
  20 H :    0.114437
  21 H :    0.092197
  22 H :    0.131440
  23 H :    0.132522
  24 H :    0.131922
Sum of atomic charges:    0.0000000

LOEWDIN ATOMIC CHARGES
----------------------
   0 C :   -0.317255
   1 C :   -0.278039
   2 C :   -0.211498
   3 C :   -0.194529
   4 C :   -0.187440
   5 C :   -0.276530
   6 C :   -0.125472
   7 C :   -0.233276
   8 C :   -0.291214
   9 H :    0.120478
  10 H :    0.120697
  11 H :    0.119962
  12 H :    0.137592
  13 H :    0.137530
  14 H :    0.156576
  15 H :    0.137680
  16 H :    0.142290
  17 H :    0.130326
  18 H :    0.129199
  19 H :    0.129958
  20 H :    0.136840
  21 H :    0.148723
  22 H :    0.123498
  23 H :    0.120511
  24 H :    0.123395

  Mayer bond orders larger than 0.1
B(  0-C ,  1-C ) :   0.9159 B(  0-C ,  9-H ) :   0.9395 B(  0-C , 10-H ) :   0.9399
B(  0-C , 11-H ) :   0.9430 B(  1-C ,  2-C ) :   0.9121 B(  1-C , 12-H ) :   0.9268
B(  1-C , 13-H ) :   0.9420 B(  2-C ,  3-C ) :   0.9565 B(  2-C ,  7-C ) :   0.9044
B(  2-C , 14-H ) :   0.9278 B(  3-C ,  4-C ) :   0.9519 B(  3-C , 15-H ) :   0.9246
B(  3-C , 16-H ) :   0.8878 B(  4-C ,  5-C ) :   0.8885 B(  4-C ,  6-C ) :   1.7692
B(  5-C , 17-H ) :   0.9289 B(  5-C , 18-H ) :   0.9495 B(  5-C , 19-H ) :   0.9375
B(  6-C ,  7-C ) :   0.9307 B(  6-C , 20-H ) :   0.9258 B(  7-C ,  8-C ) :   0.8590
B(  7-C , 21-H ) :   0.9219 B(  8-C , 22-H ) :   0.9417 B(  8-C , 23-H ) :   0.9348
B(  8-C , 24-H ) :   0.9379

MP2 TOTAL ENERGY:     -351.732936307 Eh
FINAL SINGLE POINT ENERGY      -351.732936307097

DIPOLE MOMENT
-------------
                                X             Y             Z
Electronic contribution:      1.19696      -2.60363      -2.99414
Nuclear contribution   :     -1.15739       2.65552       3.01110
                        -----------------------------------------
Total Dipole Moment    :      0.03957       0.05189       0.01695
                        -----------------------------------------
Magnitude (a.u.)       :      0.06742
Magnitude (Debye)      :      0.17138

                             ****ORCA TERMINATED NORMALLY****
TOTAL RUN TIME: 0 days 0 hours 38 minutes 12 seconds 478 msec
