                         Program Version 3.0.3 - RELEASE   -
|  1> ! RI-MP2 RIJK def2-TZVP def2-TZVP/C def2-TZVP/JK TIGHTSCF
|  2> % maxcore 2000
|  3> % mp2 density relaxed end
|  4> *xyz 0 1
|  5>  C        0.1018071196     1.7123273544     0.1926823766
|  6>  C        0.0340495073     0.1915059418     0.0353292378
|  7>  C       -1.3600189081    -0.3063376050     0.3828329054
|  8>  O       -2.0137792798    -1.0428615414    -0.3078797147
|  9>  C        0.6152260037    -0.5076057596    -1.1945323535
| 10>  C        2.0724628107    -0.3721466962    -1.2838534777
| 11>  N        1.5320657055    -1.3989065409    -0.3356913748
| 12>  C        1.0822631702    -0.6589876494     0.8210861962
| 13>  O        1.3824354037    -0.7670067326     1.9668230362
| 14>  H        1.1088155550     2.0912098032     0.0053770602
| 15>  H       -0.5851787967     2.2089096104    -0.4998312963
| 16>  H       -0.1742568530     1.9958343868     1.2130784377
| 17>  H       -1.7414095131     0.0774451481     1.3534752821
| 18>  H        0.0062058721    -0.9665736065    -1.9612005905
| 19>  H        2.5764299669    -0.8307698393    -2.1280083443
| 20>  H        2.5829474060     0.4937618061    -0.8719590705
| 21> *
| 22>
| 23>                          ****END OF INPUT****

CARTESIAN COORDINATES (ANGSTROEM)
---------------------------------
  C      0.101807    1.712327    0.192682
  C      0.034050    0.191506    0.035329
  C     -1.360019   -0.306338    0.382833
  O     -2.013779   -1.042862   -0.307880
  C      0.615226   -0.507606   -1.194532
  C      2.072463   -0.372147   -1.283853
  N      1.532066   -1.398907   -0.335691
  C      1.082263   -0.658988    0.821086
  O      1.382435   -0.767007    1.966823
  H      1.108816    2.091210    0.005377
  H     -0.585179    2.208910   -0.499831
  H     -0.174257    1.995834    1.213078
  H     -1.741410    0.077445    1.353475
  H      0.006206   -0.966574   -1.961201
  H      2.576430   -0.830770   -2.128008
  H      2.582947    0.493762   -0.871959

 Total Charge           Charge          ....    0
 Multiplicity           Mult            ....    1
 Number of Electrons    NEL             ....   66
 Basis Dimension        Dim             ....  321

ORBITAL ENERGIES
----------------

  NO   OCC          E(Eh)            E(eV)
   0   2.0000     -20.580407      -560.0214
   1   2.0000     -20.572533      -559.8071
   2   2.0000     -15.597376      -424.4262
   3   2.0000     -11.377677      -309.6023
   4   2.0000     -11.355594      -309.0014
   5   2.0000     -11.301133      -307.5195
   6   2.0000     -11.297544      -307.4218
   7   2.0000     -11.289615      -307.2061
   8   2.0000     -11.259288      -306.3808
   9   2.0000      -1.431143       -38.9434
  10   2.0000      -1.418843       -38.6087
  11   2.0000      -1.323065       -36.0024
  12   2.0000      -1.099653       -29.9231
  13   2.0000      -0.977607       -26.6020
  14   2.0000      -0.939116       -25.5546
  15   2.0000      -0.872270       -23.7357
  16   2.0000      -0.826866       -22.5002
  17   2.0000      -0.727364       -19.7926
  18   2.0000      -0.714804       -19.4508
  19   2.0000      -0.705720       -19.2036
  20   2.0000      -0.669001       -18.2045
  21   2.0000      -0.655256       -17.8304
  22   2.0000      -0.618775       -16.8377
  23   2.0000      -0.602311       -16.3897
  24   2.0000      -0.586157       -15.9501
  25   2.0000      -0.571415       -15.5490
  26   2.0000      -0.556230       -15.1358
  27   2.0000      -0.542877       -14.7724
  28   2.0000      -0.523481       -14.2446
  29   2.0000      -0.467425       -12.7193
  30   2.0000      -0.458235       -12.4692
  31   2.0000      -0.435832       -11.8596
  32   2.0000      -0.402966       -10.9653
  33   0.0000       0.094123         2.5612
  34   0.0000       0.131036         3.5657
  35   0.0000       0.147751         4.0205
  36   0.0000       0.164862         4.4861
  37   0.0000       0.168663         4.5896

MULLIKEN ATOMIC CHARGES
-----------------------
   0 C :   -0.407331
   1 C :    0.120856
   2 C :    0.062600
   3 O :   -0.253679
   4 C :   -0.132451
   5 C :   -0.141088
   6 N :   -0.198354
   7 C :    0.162907
   8 O :   -0.225439
   9 H :    0.138079
  10 H :    0.152711
  11 H :    0.154369
  12 H :    0.106370
  13 H :    0.166817
  14 H :    0.150793
  15 H :    0.142838
Sum of atomic charges:    0.0000000

LOEWDIN ATOMIC CHARGES
----------------------
   0 C :   -0.251779
   1 C :   -0.246652
   2 C :   -0.240048
   3 O :    0.155754
   4 C :   -0.151293
   5 C :   -0.208437
   6 N :    0.157270
   7 C :   -0.350619
   8 O :    0.187228
   9 H :    0.130470
  10 H :    0.134080
  11 H :    0.137736
  12 H :    0.125894
  13 H :    0.147157
  14 H :    0.140779
  15 H :    0.132462

  Mayer bond orders larger than 0.1
B(  0-C ,  1-C ) :   0.9133 B(  0-C ,  9-H ) :   0.9254 B(  0-C , 10-H ) :   0.9323
B(  0-C , 11-H ) :   0.9233 B(  1-C ,  2-C ) :   0.8161 B(  1-C ,  3-O ) :  -0.1010
B(  1-C ,  4-C ) :   0.8925 B(  1-C ,  7-C ) :   0.8494 B(  2-C ,  3-O ) :   2.0032
B(  2-C , 12-H ) :   0.9498 B(  4-C ,  5-C ) :   0.9480 B(  4-C ,  6-N ) :   0.8492
B(  4-C , 13-H ) :   0.8865 B(  5-C ,  6-N ) :   0.8378 B(  5-C , 14-H ) :   0.9258
B(  5-C , 15-H ) :   0.9122 B(  6-N ,  7-C ) :   0.9889 B(  7-C ,  8-O ) :   2.0781

MP2 TOTAL ENERGY:     -437.144463185 Eh
FINAL SINGLE POINT ENERGY      -437.144463185474

DIPOLE MOMENT
-------------
                                X             Y             Z
Electronic contribution:     -0.90601      -5.55795       2.25841
Nuclear contribution   :      1.12589       6.97680      -3.02326
                        -----------------------------------------
Total Dipole Moment    :      0.21988       1.41885      -0.76485
                        -----------------------------------------
Magnitude (a.u.)       :      1.62680
Magnitude (Debye)      :      4.13499

                             ****ORCA TERMINATED NORMALLY****
TOTAL RUN TIME: 0 days 0 hours 17 minutes 20 seconds 649 msec
