                         Program Version 3.0.3 - RELEASE   -
|  1> ! RI-MP2 RIJK def2-TZVP def2-TZVP/C def2-TZVP/JK TIGHTSCF
|  2> % maxcore 2000
|  3> % mp2 density relaxed end
|  4> *xyz 0 1
|  5>  C        0.8149095227     2.0437765899     0.3766214923
|  6>  C        0.6276980318     0.5461665840     0.3019463720
|  7>  C        0.7634417340    -0.3122015252    -0.9024654709
|  8>  C        1.4812679832     0.1587745134    -2.1604056623
|  9>  C        0.8078860842     1.2264940874    -3.0091777173
| 10>  O        2.7564471883     0.6168559423    -1.6738813371
| 11>  C        2.9391095182     0.2625148006    -0.3641563124
| 12>  O        3.9462103219     0.4894132740     0.2309962121
| 13>  N        1.7831945369    -0.3993987586     0.1611003137
| 14>  H        1.5361019335     2.4255154883    -0.3472436961
| 15>  H       -0.1440783341     2.5425308978     0.2024080112
| 16>  H        1.1602437533     2.3239682236     1.3766368003
| 17>  H       -0.0698870693     0.1682350396     1.0467099088
| 18>  H        0.1116812683    -1.1743741846    -1.0091909046
| 19>  H        1.6741174297    -0.7227387968    -2.7863062600
| 20>  H        0.5841508647     2.1250157300    -2.4315496885
| 21>  H        1.4514586781     1.5022623118    -3.8485966096
| 22>  H       -0.1299745253     0.8331523226    -3.4140723414
| 23> *
| 24>
| 25>                          ****END OF INPUT****

CARTESIAN COORDINATES (ANGSTROEM)
---------------------------------
  C      0.814910    2.043777    0.376621
  C      0.627698    0.546167    0.301946
  C      0.763442   -0.312202   -0.902465
  C      1.481268    0.158775   -2.160406
  C      0.807886    1.226494   -3.009178
  O      2.756447    0.616856   -1.673881
  C      2.939110    0.262515   -0.364156
  O      3.946210    0.489413    0.230996
  N      1.783195   -0.399399    0.161100
  H      1.536102    2.425515   -0.347244
  H     -0.144078    2.542531    0.202408
  H      1.160244    2.323968    1.376637
  H     -0.069887    0.168235    1.046710
  H      0.111681   -1.174374   -1.009191
  H      1.674117   -0.722739   -2.786306
  H      0.584151    2.125016   -2.431550
  H      1.451459    1.502262   -3.848597
  H     -0.129975    0.833152   -3.414072

 Total Charge           Charge          ....    0
 Multiplicity           Mult            ....    1
 Number of Electrons    NEL             ....   68
 Basis Dimension        Dim             ....  333

ORBITAL ENERGIES
----------------

  NO   OCC          E(Eh)            E(eV)
   0   2.0000     -20.606073      -560.7198
   1   2.0000     -20.539043      -558.8958
   2   2.0000     -15.593175      -424.3119
   3   2.0000     -11.401477      -310.2500
   4   2.0000     -11.319520      -308.0198
   5   2.0000     -11.300653      -307.5064
   6   2.0000     -11.290315      -307.2251
   7   2.0000     -11.243424      -305.9491
   8   2.0000     -11.242014      -305.9108
   9   2.0000      -1.473309       -40.0908
  10   2.0000      -1.373616       -37.3780
  11   2.0000      -1.295030       -35.2396
  12   2.0000      -1.068053       -29.0632
  13   2.0000      -1.025755       -27.9122
  14   2.0000      -0.949097       -25.8263
  15   2.0000      -0.891727       -24.2651
  16   2.0000      -0.832015       -22.6403
  17   2.0000      -0.751763       -20.4565
  18   2.0000      -0.734709       -19.9924
  19   2.0000      -0.679051       -18.4779
  20   2.0000      -0.671593       -18.2750
  21   2.0000      -0.634100       -17.2547
  22   2.0000      -0.609246       -16.5784
  23   2.0000      -0.599614       -16.3163
  24   2.0000      -0.589621       -16.0444
  25   2.0000      -0.571844       -15.5607
  26   2.0000      -0.564925       -15.3724
  27   2.0000      -0.551780       -15.0147
  28   2.0000      -0.526893       -14.3375
  29   2.0000      -0.507506       -13.8099
  30   2.0000      -0.481855       -13.1119
  31   2.0000      -0.460619       -12.5341
  32   2.0000      -0.445092       -12.1116
  33   2.0000      -0.407412       -11.0862
  34   0.0000       0.121870         3.3163
  35   0.0000       0.144842         3.9414
  36   0.0000       0.150923         4.1068
  37   0.0000       0.169145         4.6027
  38   0.0000       0.186852         5.0845

MULLIKEN ATOMIC CHARGES
-----------------------
   0 C :   -0.419031
   1 C :   -0.043820
   2 C :   -0.053307
   3 C :    0.054333
   4 C :   -0.385417
   5 O :   -0.238401
   6 C :    0.283951
   7 O :   -0.263492
   8 N :   -0.207480
   9 H :    0.162981
  10 H :    0.145098
  11 H :    0.157493
  12 H :    0.130876
  13 H :    0.143357
  14 H :    0.110237
  15 H :    0.134503
  16 H :    0.152006
  17 H :    0.136112
Sum of atomic charges:   -0.0000000

LOEWDIN ATOMIC CHARGES
----------------------
   0 C :   -0.289298
   1 C :   -0.223454
   2 C :   -0.204505
   3 C :   -0.291934
   4 C :   -0.282432
   5 O :    0.263562
   6 C :   -0.535023
   7 O :    0.150359
   8 N :    0.165446
   9 H :    0.133824
  10 H :    0.133811
  11 H :    0.136986
  12 H :    0.151986
  13 H :    0.147804
  14 H :    0.150371
  15 H :    0.127368
  16 H :    0.132310
  17 H :    0.132822

  Mayer bond orders larger than 0.1
B(  0-C ,  1-C ) :   0.8948 B(  0-C ,  9-H ) :   0.9293 B(  0-C , 10-H ) :   0.9259
B(  0-C , 11-H ) :   0.9274 B(  1-C ,  2-C ) :   0.9762 B(  1-C ,  8-N ) :   0.8514
B(  1-C , 12-H ) :   0.9217 B(  2-C ,  3-C ) :   0.9131 B(  2-C ,  8-N ) :   0.8682
B(  2-C , 13-H ) :   0.9043 B(  3-C ,  4-C ) :   0.9351 B(  3-C ,  5-O ) :   0.8966
B(  3-C , 14-H ) :   0.9236 B(  4-C , 15-H ) :   0.9293 B(  4-C , 16-H ) :   0.9351
B(  4-C , 17-H ) :   0.9274 B(  5-O ,  6-C ) :   1.0838 B(  6-C ,  7-O ) :   2.0802
B(  6-C ,  8-N ) :   1.0122

MP2 TOTAL ENERGY:     -438.389198791 Eh
FINAL SINGLE POINT ENERGY      -438.389198790881

DIPOLE MOMENT
-------------
                                X             Y             Z
Electronic contribution:      7.37588      -4.61907       2.96986
Nuclear contribution   :     -9.28534       4.79282      -3.78430
                        -----------------------------------------
Total Dipole Moment    :     -1.90946       0.17375      -0.81444
                        -----------------------------------------
Magnitude (a.u.)       :      2.08316
Magnitude (Debye)      :      5.29497

                             ****ORCA TERMINATED NORMALLY****
TOTAL RUN TIME: 0 days 0 hours 17 minutes 7 seconds 460 msec
