                         Program Version 3.0.3 - RELEASE   -
|  1> ! RI-MP2 RIJK def2-TZVP def2-TZVP/C def2-TZVP/JK TIGHTSCF
|  2> % maxcore 2000
|  3> % mp2 density relaxed end
|  4> *xyz 0 1
|  5>  C       -0.1017550230    -1.2340801742     0.0437249768
|  6>  C       -0.0741929940    -0.0322311995     0.0198111566
|  7>  C       -0.0153790480     1.4247160909    -0.0180274542
|  8>  C        1.4211878087     1.9917592893     0.0038829451
|  9>  C        1.4134761319     3.5214799381    -0.1284276608
| 10>  C        2.8401339593     4.0786668861    -0.2420157675
| 11>  C        3.7761478670     3.4418029500     0.7523095584
| 12>  C        3.4783775364     2.3365266047     1.4340270561
| 13>  C        2.1869248962     1.5775667324     1.2708289798
| 14>  H       -0.1372800938    -2.2948683854     0.0657603625
| 15>  H       -0.5291350272     1.7817627971    -0.9203037646
| 16>  H       -0.5766100403     1.8347574640     0.8333204610
| 17>  H        1.9547374123     1.5775278149    -0.8622694210
| 18>  H        0.8181632113     3.8283643632    -0.9965148146
| 19>  H        0.9250580607     3.9519676150     0.7565578820
| 20>  H        3.2253006254     3.9236988125    -1.2611832790
| 21>  H        2.8299285150     5.1668683546    -0.0996052106
| 22>  H        4.7373694874     3.9274251028     0.9042994889
| 23>  H        4.1912460465     1.9381070933     2.1524142741
| 24>  H        1.5509020895     1.7376183184     2.1563726864
| 25>  H        2.3830511688     0.4993949419     1.2488999648
| 26> *
| 27>
| 28>                          ****END OF INPUT****

CARTESIAN COORDINATES (ANGSTROEM)
---------------------------------
  C     -0.101755   -1.234080    0.043725
  C     -0.074193   -0.032231    0.019811
  C     -0.015379    1.424716   -0.018027
  C      1.421188    1.991759    0.003883
  C      1.413476    3.521480   -0.128428
  C      2.840134    4.078667   -0.242016
  C      3.776148    3.441803    0.752310
  C      3.478378    2.336527    1.434027
  C      2.186925    1.577567    1.270829
  H     -0.137280   -2.294868    0.065760
  H     -0.529135    1.781763   -0.920304
  H     -0.576610    1.834757    0.833320
  H      1.954737    1.577528   -0.862269
  H      0.818163    3.828364   -0.996515
  H      0.925058    3.951968    0.756558
  H      3.225301    3.923699   -1.261183
  H      2.829929    5.166868   -0.099605
  H      4.737369    3.927425    0.904299
  H      4.191246    1.938107    2.152414
  H      1.550902    1.737618    2.156373
  H      2.383051    0.499395    1.248900

 Total Charge           Charge          ....    0
 Multiplicity           Mult            ....    1
 Number of Electrons    NEL             ....   66
 Basis Dimension        Dim             ....  351

ORBITAL ENERGIES
----------------

  NO   OCC          E(Eh)            E(eV)
   0   2.0000     -11.249365      -306.1108
   1   2.0000     -11.234289      -305.7005
   2   2.0000     -11.231080      -305.6132
   3   2.0000     -11.225661      -305.4658
   4   2.0000     -11.223133      -305.3970
   5   2.0000     -11.222257      -305.3731
   6   2.0000     -11.221533      -305.3534
   7   2.0000     -11.220352      -305.3213
   8   2.0000     -11.216863      -305.2264
   9   2.0000      -1.133096       -30.8331
  10   2.0000      -1.069333       -29.0980
  11   2.0000      -1.010398       -27.4943
  12   2.0000      -1.003261       -27.3001
  13   2.0000      -0.934851       -25.4386
  14   2.0000      -0.847931       -23.0734
  15   2.0000      -0.804090       -21.8804
  16   2.0000      -0.717278       -19.5181
  17   2.0000      -0.708217       -19.2716
  18   2.0000      -0.664927       -18.0936
  19   2.0000      -0.636117       -17.3096
  20   2.0000      -0.619163       -16.8483
  21   2.0000      -0.595473       -16.2036
  22   2.0000      -0.568478       -15.4691
  23   2.0000      -0.565516       -15.3885
  24   2.0000      -0.533196       -14.5090
  25   2.0000      -0.529578       -14.4106
  26   2.0000      -0.518825       -14.1179
  27   2.0000      -0.466900       -12.7050
  28   2.0000      -0.457691       -12.4544
  29   2.0000      -0.443633       -12.0719
  30   2.0000      -0.382426       -10.4064
  31   2.0000      -0.380868       -10.3639
  32   2.0000      -0.344482        -9.3738
  33   0.0000       0.129665         3.5284
  34   0.0000       0.154053         4.1920
  35   0.0000       0.162866         4.4318
  36   0.0000       0.165943         4.5155
  37   0.0000       0.167160         4.5487

MULLIKEN ATOMIC CHARGES
-----------------------
   0 C :   -0.138699
   1 C :   -0.002891
   2 C :   -0.378541
   3 C :   -0.051836
   4 C :   -0.243167
   5 C :   -0.145186
   6 C :   -0.194466
   7 C :   -0.169587
   8 C :   -0.203745
   9 H :    0.187818
  10 H :    0.141831
  11 H :    0.142455
  12 H :    0.096631
  13 H :    0.121146
  14 H :    0.109519
  15 H :    0.115644
  16 H :    0.124250
  17 H :    0.118765
  18 H :    0.118448
  19 H :    0.110945
  20 H :    0.140666
Sum of atomic charges:   -0.0000000

LOEWDIN ATOMIC CHARGES
----------------------
   0 C :   -0.111052
   1 C :   -0.110120
   2 C :   -0.229344
   3 C :   -0.235467
   4 C :   -0.233238
   5 C :   -0.254000
   6 C :   -0.176903
   7 C :   -0.172116
   8 C :   -0.227696
   9 H :    0.125489
  10 H :    0.158440
  11 H :    0.158464
  12 H :    0.160683
  13 H :    0.137464
  14 H :    0.142763
  15 H :    0.144110
  16 H :    0.142583
  17 H :    0.140540
  18 H :    0.141207
  19 H :    0.148033
  20 H :    0.150158

  Mayer bond orders larger than 0.1
B(  0-C ,  1-C ) :   2.6113 B(  0-C ,  2-C ) :  -0.1159 B(  0-C ,  9-H ) :   0.8984
B(  1-C ,  2-C ) :   1.1085 B(  2-C ,  3-C ) :   0.8965 B(  2-C , 10-H ) :   0.9214
B(  2-C , 11-H ) :   0.9245 B(  3-C ,  4-C ) :   0.9148 B(  3-C ,  8-C ) :   0.9508
B(  3-C , 12-H ) :   0.9271 B(  4-C ,  5-C ) :   0.9488 B(  4-C , 13-H ) :   0.9338
B(  4-C , 14-H ) :   0.9193 B(  5-C ,  6-C ) :   0.9427 B(  5-C , 15-H ) :   0.9120
B(  5-C , 16-H ) :   0.9278 B(  6-C ,  7-C ) :   1.8084 B(  6-C , 17-H ) :   0.9306
B(  7-C ,  8-C ) :   0.9248 B(  7-C , 18-H ) :   0.9317 B(  8-C , 19-H ) :   0.9024
B(  8-C , 20-H ) :   0.9273

MP2 TOTAL ENERGY:     -349.283752345 Eh
FINAL SINGLE POINT ENERGY      -349.283752344869

DIPOLE MOMENT
-------------
                                X             Y             Z
Electronic contribution:     -1.22301      -4.01090       0.11300
Nuclear contribution   :      1.24272       4.27310      -0.17190
                        -----------------------------------------
Total Dipole Moment    :      0.01972       0.26220      -0.05890
                        -----------------------------------------
Magnitude (a.u.)       :      0.26945
Magnitude (Debye)      :      0.68490

                             ****ORCA TERMINATED NORMALLY****
TOTAL RUN TIME: 0 days 0 hours 19 minutes 25 seconds 214 msec
