                         Program Version 3.0.3 - RELEASE   -
|  1> ! RI-MP2 RIJK def2-TZVP def2-TZVP/C def2-TZVP/JK TIGHTSCF
|  2> % maxcore 2000
|  3> % mp2 density relaxed end
|  4> *xyz 0 1
|  5>  C       -0.0995306501     1.5362959246     0.0783210644
|  6>  C        0.0804017015     0.0263855196    -0.0163238044
|  7>  N        0.7220432209    -0.4866517316     1.1980543564
|  8>  C        0.8451337638    -1.8392796279     1.3419440048
|  9>  N        0.3122847908    -2.7245892029     0.5535979636
| 10>  O        0.6266912677    -3.9827341752     1.1641202721
| 11>  C        1.3609041344    -3.7953875851     2.2946885126
| 12>  O        1.7664429818    -4.6540249430     3.0246681296
| 13>  N        1.5201277348    -2.4153053777     2.3896695088
| 14>  H        0.8656933471     2.0487742376     0.1663714923
| 15>  H       -0.5903121619     1.9133612276    -0.8226097658
| 16>  H       -0.7103069794     1.8058644702     0.9445717504
| 17>  H       -0.8859068182    -0.4773233343    -0.1058649941
| 18>  H        0.6584955956    -0.2428004351    -0.9112778178
| 19>  H        1.5331696894     0.0392124619     1.4950961712
| 20>  H        1.9069653918    -1.9617230486     3.1989633059
| 21> *
| 22>
| 23>                          ****END OF INPUT****

CARTESIAN COORDINATES (ANGSTROEM)
---------------------------------
  C     -0.099531    1.536296    0.078321
  C      0.080402    0.026386   -0.016324
  N      0.722043   -0.486652    1.198054
  C      0.845134   -1.839280    1.341944
  N      0.312285   -2.724589    0.553598
  O      0.626691   -3.982734    1.164120
  C      1.360904   -3.795388    2.294689
  O      1.766443   -4.654025    3.024668
  N      1.520128   -2.415305    2.389670
  H      0.865693    2.048774    0.166371
  H     -0.590312    1.913361   -0.822610
  H     -0.710307    1.805864    0.944572
  H     -0.885907   -0.477323   -0.105865
  H      0.658496   -0.242800   -0.911278
  H      1.533170    0.039212    1.495096
  H      1.906965   -1.961723    3.198963

 Total Charge           Charge          ....    0
 Multiplicity           Mult            ....    1
 Number of Electrons    NEL             ....   68
 Basis Dimension        Dim             ....  321

ORBITAL ENERGIES
----------------

  NO   OCC          E(Eh)            E(eV)
   0   2.0000     -20.632462      -561.4378
   1   2.0000     -20.541792      -558.9706
   2   2.0000     -15.640348      -425.5955
   3   2.0000     -15.614946      -424.9043
   4   2.0000     -15.612564      -424.8395
   5   2.0000     -11.418659      -310.7175
   6   2.0000     -11.381222      -309.6988
   7   2.0000     -11.285533      -307.0950
   8   2.0000     -11.243474      -305.9505
   9   2.0000      -1.508005       -41.0349
  10   2.0000      -1.391392       -37.8617
  11   2.0000      -1.323843       -36.0236
  12   2.0000      -1.250685       -34.0329
  13   2.0000      -1.142491       -31.0888
  14   2.0000      -1.039676       -28.2910
  15   2.0000      -0.896338       -24.3906
  16   2.0000      -0.877623       -23.8813
  17   2.0000      -0.836235       -22.7551
  18   2.0000      -0.785135       -21.3646
  19   2.0000      -0.716812       -19.5055
  20   2.0000      -0.704192       -19.1620
  21   2.0000      -0.674478       -18.3535
  22   2.0000      -0.655531       -17.8379
  23   2.0000      -0.635116       -17.2824
  24   2.0000      -0.584546       -15.9063
  25   2.0000      -0.571141       -15.5415
  26   2.0000      -0.557081       -15.1589
  27   2.0000      -0.542948       -14.7744
  28   2.0000      -0.533422       -14.5151
  29   2.0000      -0.524490       -14.2721
  30   2.0000      -0.518285       -14.1032
  31   2.0000      -0.456217       -12.4143
  32   2.0000      -0.442813       -12.0496
  33   2.0000      -0.370428       -10.0799
  34   0.0000       0.102279         2.7831
  35   0.0000       0.127703         3.4750
  36   0.0000       0.154262         4.1977
  37   0.0000       0.171413         4.6644
  38   0.0000       0.181247         4.9320

MULLIKEN ATOMIC CHARGES
-----------------------
   0 C :   -0.386332
   1 C :   -0.114781
   2 N :   -0.346922
   3 C :    0.332503
   4 N :   -0.201855
   5 O :   -0.135126
   6 C :    0.343205
   7 O :   -0.318652
   8 N :   -0.356273
   9 H :    0.123010
  10 H :    0.143190
  11 H :    0.140960
  12 H :    0.147023
  13 H :    0.128189
  14 H :    0.234462
  15 H :    0.267398
Sum of atomic charges:    0.0000000

LOEWDIN ATOMIC CHARGES
----------------------
   0 C :   -0.316402
   1 C :   -0.298096
   2 N :    0.074006
   3 C :   -0.440587
   4 N :    0.013808
   5 O :    0.229782
   6 C :   -0.565441
   7 O :    0.104474
   8 N :    0.159240
   9 H :    0.120637
  10 H :    0.130219
  11 H :    0.125789
  12 H :    0.143336
  13 H :    0.129563
  14 H :    0.189438
  15 H :    0.200235

  Mayer bond orders larger than 0.1
B(  0-C ,  1-C ) :   0.9206 B(  0-C ,  9-H ) :   0.9354 B(  0-C , 10-H ) :   0.9369
B(  0-C , 11-H ) :   0.9338 B(  1-C ,  2-N ) :   0.8684 B(  1-C , 12-H ) :   0.9263
B(  1-C , 13-H ) :   0.9353 B(  2-N ,  3-C ) :   1.1313 B(  2-N , 14-H ) :   0.8658
B(  3-C ,  4-N ) :   1.6339 B(  3-C ,  8-N ) :   1.0666 B(  4-N ,  5-O ) :   0.7700
B(  5-O ,  6-C ) :   1.1209 B(  6-C ,  7-O ) :   2.0134 B(  6-C ,  8-N ) :   1.0507
B(  8-N , 15-H ) :   0.8582

MP2 TOTAL ENERGY:     -470.470624656 Eh
FINAL SINGLE POINT ENERGY      -470.470624656198

DIPOLE MOMENT
-------------
                                X             Y             Z
Electronic contribution:      2.99707     -13.61480       5.10611
Nuclear contribution   :     -2.62694      16.23113      -5.07881
                        -----------------------------------------
Total Dipole Moment    :      0.37013       2.61633       0.02730
                        -----------------------------------------
Magnitude (a.u.)       :      2.64253
Magnitude (Debye)      :      6.71677

                             ****ORCA TERMINATED NORMALLY****
TOTAL RUN TIME: 0 days 0 hours 14 minutes 19 seconds 187 msec
