                         Program Version 3.0.3 - RELEASE   -
|  1> ! RI-MP2 RIJK def2-TZVP def2-TZVP/C def2-TZVP/JK TIGHTSCF
|  2> % maxcore 2000
|  3> % mp2 density relaxed end
|  4> *xyz 0 1
|  5>  C       -0.0434996924     1.6193990639    -0.0957716388
|  6>  C        0.0804596469     0.0977879681    -0.0528073330
|  7>  C        0.9762498118    -0.5094412364    -1.1459139106
|  8>  O        1.2660810444    -1.8298885398    -0.7133474290
|  9>  C        1.3939569385    -1.8233522129     0.7079840015
| 10>  C        0.9587263810    -3.1759223548     1.2308930694
| 11>  C        2.7633549122    -1.2704810902     1.2157358374
| 12>  C        2.0606316344     0.0204586204     1.7203125442
| 13>  C        0.6867719058    -0.5198492593     1.2201244787
| 14>  H        0.9285425717     2.1105464750     0.0141733464
| 15>  H       -0.4726043253     1.9498196808    -1.0480451144
| 16>  H       -0.6944208436     1.9867745470     0.7040348725
| 17>  H       -0.9194681628    -0.3380942474    -0.1747262816
| 18>  H        0.4929938257    -0.5739512665    -2.1252719775
| 19>  H        1.8994723807     0.0842269306    -1.2638791834
| 20>  H        1.5867821480    -3.9675741995     0.8087056554
| 21>  H        1.0432149584    -3.2169538362     2.3210696443
| 22>  H       -0.0795570959    -3.3805316833     0.9515960638
| 23>  H        3.2293741148    -1.8754764300     1.9977762664
| 24>  H        3.4894974915    -1.1265984326     0.4119425732
| 25>  H        2.1069194559     0.1682391383     2.8014917987
| 26>  H        2.4003679590     0.9435321720     1.2442346360
| 27>  H       -0.0578117407    -0.6550519971     2.0077546206
| 28> *
| 29>
| 30>                          ****END OF INPUT****

CARTESIAN COORDINATES (ANGSTROEM)
---------------------------------
  C     -0.043500    1.619399   -0.095772
  C      0.080460    0.097788   -0.052807
  C      0.976250   -0.509441   -1.145914
  O      1.266081   -1.829889   -0.713347
  C      1.393957   -1.823352    0.707984
  C      0.958726   -3.175922    1.230893
  C      2.763355   -1.270481    1.215736
  C      2.060632    0.020459    1.720313
  C      0.686772   -0.519849    1.220124
  H      0.928543    2.110546    0.014173
  H     -0.472604    1.949820   -1.048045
  H     -0.694421    1.986775    0.704035
  H     -0.919468   -0.338094   -0.174726
  H      0.492994   -0.573951   -2.125272
  H      1.899472    0.084227   -1.263879
  H      1.586782   -3.967574    0.808706
  H      1.043215   -3.216954    2.321070
  H     -0.079557   -3.380532    0.951596
  H      3.229374   -1.875476    1.997776
  H      3.489497   -1.126598    0.411943
  H      2.106919    0.168239    2.801492
  H      2.400368    0.943532    1.244235
  H     -0.057812   -0.655052    2.007755

 Total Charge           Charge          ....    0
 Multiplicity           Mult            ....    1
 Number of Electrons    NEL             ....   70
 Basis Dimension        Dim             ....  363

ORBITAL ENERGIES
----------------

  NO   OCC          E(Eh)            E(eV)
   0   2.0000     -20.543449      -559.0157
   1   2.0000     -11.274466      -306.7938
   2   2.0000     -11.265867      -306.5598
   3   2.0000     -11.226936      -305.5005
   4   2.0000     -11.221505      -305.3527
   5   2.0000     -11.218958      -305.2834
   6   2.0000     -11.217780      -305.2513
   7   2.0000     -11.213349      -305.1307
   8   2.0000     -11.209347      -305.0218
   9   2.0000      -1.372162       -37.3384
  10   2.0000      -1.118897       -30.4467
  11   2.0000      -1.059871       -28.8406
  12   2.0000      -0.979312       -26.6484
  13   2.0000      -0.919801       -25.0291
  14   2.0000      -0.896453       -24.3937
  15   2.0000      -0.850097       -23.1323
  16   2.0000      -0.769255       -20.9325
  17   2.0000      -0.726200       -19.7609
  18   2.0000      -0.675392       -18.3783
  19   2.0000      -0.648243       -17.6396
  20   2.0000      -0.619148       -16.8479
  21   2.0000      -0.596054       -16.2195
  22   2.0000      -0.586937       -15.9714
  23   2.0000      -0.577145       -15.7049
  24   2.0000      -0.557224       -15.1628
  25   2.0000      -0.554598       -15.0914
  26   2.0000      -0.519437       -14.1346
  27   2.0000      -0.513994       -13.9865
  28   2.0000      -0.501130       -13.6364
  29   2.0000      -0.482307       -13.1242
  30   2.0000      -0.469720       -12.7817
  31   2.0000      -0.453159       -12.3311
  32   2.0000      -0.428399       -11.6573
  33   2.0000      -0.411989       -11.2108
  34   2.0000      -0.391855       -10.6629
  35   0.0000       0.132519         3.6060
  36   0.0000       0.146455         3.9852
  37   0.0000       0.157086         4.2745
  38   0.0000       0.172645         4.6979
  39   0.0000       0.186660         5.0793

MULLIKEN ATOMIC CHARGES
-----------------------
   0 C :   -0.398806
   1 C :   -0.129001
   2 C :   -0.048123
   3 O :   -0.307204
   4 C :    0.231000
   5 C :   -0.446004
   6 C :   -0.271763
   7 C :   -0.279689
   8 C :    0.005151
   9 H :    0.120201
  10 H :    0.135572
  11 H :    0.135710
  12 H :    0.087661
  13 H :    0.121335
  14 H :    0.081404
  15 H :    0.139547
  16 H :    0.124734
  17 H :    0.128295
  18 H :    0.118420
  19 H :    0.114916
  20 H :    0.114237
  21 H :    0.115328
  22 H :    0.107080
Sum of atomic charges:    0.0000000

LOEWDIN ATOMIC CHARGES
----------------------
   0 C :   -0.292613
   1 C :   -0.261808
   2 C :   -0.284064
   3 O :    0.193618
   4 C :   -0.322683
   5 C :   -0.274050
   6 C :   -0.200921
   7 C :   -0.219646
   8 C :   -0.164826
   9 H :    0.121182
  10 H :    0.125435
  11 H :    0.126121
  12 H :    0.156121
  13 H :    0.127075
  14 H :    0.120320
  15 H :    0.130669
  16 H :    0.126751
  17 H :    0.127390
  18 H :    0.131156
  19 H :    0.133740
  20 H :    0.129253
  21 H :    0.128015
  22 H :    0.143764

  Mayer bond orders larger than 0.1
B(  0-C ,  1-C ) :   0.9058 B(  0-C ,  9-H ) :   0.9299 B(  0-C , 10-H ) :   0.9419
B(  0-C , 11-H ) :   0.9388 B(  1-C ,  2-C ) :   0.9683 B(  1-C ,  8-C ) :   0.8832
B(  1-C , 12-H ) :   0.9206 B(  2-C ,  3-O ) :   0.9286 B(  2-C , 13-H ) :   0.9239
B(  2-C , 14-H ) :   0.9113 B(  3-O ,  4-C ) :   0.9666 B(  4-C ,  5-C ) :   0.8754
B(  4-C ,  6-C ) :   0.8963 B(  4-C ,  8-C ) :   0.8908 B(  5-C , 15-H ) :   0.9412
B(  5-C , 16-H ) :   0.9421 B(  5-C , 17-H ) :   0.9402 B(  6-C ,  7-C ) :   0.9790
B(  6-C , 18-H ) :   0.9149 B(  6-C , 19-H ) :   0.9116 B(  7-C ,  8-C ) :   0.9450
B(  7-C , 20-H ) :   0.9168 B(  7-C , 21-H ) :   0.9270 B(  8-C , 22-H ) :   0.9067

MP2 TOTAL ENERGY:     -387.624277572 Eh
FINAL SINGLE POINT ENERGY      -387.624277571911

DIPOLE MOMENT
-------------
                                X             Y             Z
Electronic contribution:      0.57351      -2.97007      -2.02708
Nuclear contribution   :     -0.74250       3.40892       2.37824
                        -----------------------------------------
Total Dipole Moment    :     -0.16899       0.43885       0.35116
                        -----------------------------------------
Magnitude (a.u.)       :      0.58691
Magnitude (Debye)      :      1.49180

                             ****ORCA TERMINATED NORMALLY****
TOTAL RUN TIME: 0 days 0 hours 22 minutes 2 seconds 595 msec
