                         Program Version 3.0.3 - RELEASE   -
|  1> ! RI-MP2 RIJK def2-TZVP def2-TZVP/C def2-TZVP/JK TIGHTSCF
|  2> % maxcore 2000
|  3> % mp2 density relaxed end
|  4> *xyz 0 1
|  5>  C        0.2801752840     1.1675365250     0.4385654597
|  6>  C        0.2310947963    -0.2823642886    -0.0551900293
|  7>  C        0.6861919349    -0.4650048780    -1.5067462050
|  8>  O       -0.1271044002     0.2814549891    -2.3998106259
|  9>  C        2.2282050761    -0.3183591405    -1.7481800927
| 10>  C        2.3189385306    -1.8409701432    -2.0570642797
| 11>  C        3.0734657837    -2.6553526218    -1.0225539824
| 12>  O        2.8994662886    -4.0293287825    -1.3352144385
| 13>  C        0.7691498547    -1.9394820787    -1.9794144751
| 14>  H        1.2861804926     1.5928518521     0.3475840663
| 15>  H       -0.4101902381     1.8069399319    -0.1231017495
| 16>  H       -0.0111644723     1.2340656055     1.4908279130
| 17>  H        0.8558159705    -0.9099416175     0.5919685974
| 18>  H       -0.7929192403    -0.6672217498     0.0280706453
| 19>  H       -0.0338999689     1.2149163510    -2.1816609925
| 20>  H        2.4462309782     0.3141031979    -2.6113207345
| 21>  H        2.8211891936     0.0308166363    -0.8960173613
| 22>  H        2.7280052706    -2.0769041342    -3.0425343319
| 23>  H        4.1393439069    -2.3719834372    -1.0362771234
| 24>  H        2.6910423374    -2.4283873580    -0.0127526955
| 25>  H        3.3449667512    -4.5516169086    -0.6619391632
| 26>  H        0.3787290316    -2.6900531955    -1.2871325120
| 27>  H        0.2873621384    -2.0690348747    -2.9497891894
| 28> *
| 29>
| 30>                          ****END OF INPUT****

CARTESIAN COORDINATES (ANGSTROEM)
---------------------------------
  C      0.280175    1.167537    0.438565
  C      0.231095   -0.282364   -0.055190
  C      0.686192   -0.465005   -1.506746
  O     -0.127104    0.281455   -2.399811
  C      2.228205   -0.318359   -1.748180
  C      2.318939   -1.840970   -2.057064
  C      3.073466   -2.655353   -1.022554
  O      2.899466   -4.029329   -1.335214
  C      0.769150   -1.939482   -1.979414
  H      1.286180    1.592852    0.347584
  H     -0.410190    1.806940   -0.123102
  H     -0.011164    1.234066    1.490828
  H      0.855816   -0.909942    0.591969
  H     -0.792919   -0.667222    0.028071
  H     -0.033900    1.214916   -2.181661
  H      2.446231    0.314103   -2.611321
  H      2.821189    0.030817   -0.896017
  H      2.728005   -2.076904   -3.042534
  H      4.139344   -2.371983   -1.036277
  H      2.691042   -2.428387   -0.012753
  H      3.344967   -4.551617   -0.661939
  H      0.378729   -2.690053   -1.287133
  H      0.287362   -2.069035   -2.949789

 Total Charge           Charge          ....    0
 Multiplicity           Mult            ....    1
 Number of Electrons    NEL             ....   72
 Basis Dimension        Dim             ....  363

ORBITAL ENERGIES
----------------

  NO   OCC          E(Eh)            E(eV)
   0   2.0000     -20.554566      -559.3182
   1   2.0000     -20.548926      -559.1647
   2   2.0000     -11.278257      -306.8970
   3   2.0000     -11.274473      -306.7940
   4   2.0000     -11.222108      -305.3691
   5   2.0000     -11.221899      -305.3634
   6   2.0000     -11.221360      -305.3487
   7   2.0000     -11.217462      -305.2427
   8   2.0000     -11.207471      -304.9708
   9   2.0000      -1.359234       -36.9866
  10   2.0000      -1.357648       -36.9435
  11   2.0000      -1.123156       -30.5626
  12   2.0000      -1.035897       -28.1882
  13   2.0000      -0.955177       -25.9917
  14   2.0000      -0.904996       -24.6262
  15   2.0000      -0.873497       -23.7690
  16   2.0000      -0.792029       -21.5522
  17   2.0000      -0.734336       -19.9823
  18   2.0000      -0.694347       -18.8941
  19   2.0000      -0.682428       -18.5698
  20   2.0000      -0.647316       -17.6144
  21   2.0000      -0.632548       -17.2125
  22   2.0000      -0.616783       -16.7835
  23   2.0000      -0.604158       -16.4400
  24   2.0000      -0.568613       -15.4728
  25   2.0000      -0.552190       -15.0259
  26   2.0000      -0.536552       -14.6003
  27   2.0000      -0.525523       -14.3002
  28   2.0000      -0.514640       -14.0041
  29   2.0000      -0.500854       -13.6289
  30   2.0000      -0.483397       -13.1539
  31   2.0000      -0.464452       -12.6384
  32   2.0000      -0.458498       -12.4764
  33   2.0000      -0.438295       -11.9266
  34   2.0000      -0.422455       -11.4956
  35   2.0000      -0.400556       -10.8997
  36   0.0000       0.130021         3.5381
  37   0.0000       0.136751         3.7212
  38   0.0000       0.162045         4.4095
  39   0.0000       0.167754         4.5648
  40   0.0000       0.178392         4.8543

MULLIKEN ATOMIC CHARGES
-----------------------
   0 C :   -0.437895
   1 C :   -0.271734
   2 C :    0.264696
   3 O :   -0.468921
   4 C :   -0.287324
   5 C :   -0.001984
   6 C :   -0.124770
   7 O :   -0.464733
   8 C :   -0.209402
   9 H :    0.132775
  10 H :    0.120782
  11 H :    0.140684
  12 H :    0.103886
  13 H :    0.122553
  14 H :    0.311909
  15 H :    0.113898
  16 H :    0.113702
  17 H :    0.096479
  18 H :    0.101688
  19 H :    0.090239
  20 H :    0.314911
  21 H :    0.119025
  22 H :    0.119538
Sum of atomic charges:    0.0000000

LOEWDIN ATOMIC CHARGES
----------------------
   0 C :   -0.323190
   1 C :   -0.264472
   2 C :   -0.355707
   3 O :    0.006761
   4 C :   -0.185798
   5 C :   -0.229219
   6 C :   -0.340396
   7 O :   -0.044878
   8 C :   -0.171046
   9 H :    0.121082
  10 H :    0.117276
  11 H :    0.124482
  12 H :    0.139061
  13 H :    0.143300
  14 H :    0.171135
  15 H :    0.134900
  16 H :    0.129883
  17 H :    0.146576
  18 H :    0.117176
  19 H :    0.114522
  20 H :    0.171585
  21 H :    0.135891
  22 H :    0.141076

  Mayer bond orders larger than 0.1
B(  0-C ,  1-C ) :   0.9077 B(  0-C ,  9-H ) :   0.9369 B(  0-C , 10-H ) :   0.9402
B(  0-C , 11-H ) :   0.9403 B(  1-C ,  2-C ) :   0.9272 B(  1-C , 12-H ) :   0.9197
B(  1-C , 13-H ) :   0.9333 B(  2-C ,  3-O ) :   0.9691 B(  2-C ,  4-C ) :   0.9144
B(  2-C ,  8-C ) :   0.8842 B(  3-O , 14-H ) :   0.8429 B(  4-C ,  5-C ) :   0.9315
B(  4-C , 15-H ) :   0.9004 B(  4-C , 16-H ) :   0.9153 B(  5-C ,  6-C ) :   0.9265
B(  5-C ,  8-C ) :   0.9488 B(  5-C , 17-H ) :   0.9106 B(  6-C ,  7-O ) :   1.0243
B(  6-C , 18-H ) :   0.9366 B(  6-C , 19-H ) :   0.9157 B(  7-O , 20-H ) :   0.8483
B(  8-C , 21-H ) :   0.9218 B(  8-C , 22-H ) :   0.9010

MP2 TOTAL ENERGY:     -424.717093719 Eh
FINAL SINGLE POINT ENERGY      -424.717093719428

DIPOLE MOMENT
-------------
                                X             Y             Z
Electronic contribution:      0.19945      -3.63140      -4.36894
Nuclear contribution   :      0.41202       4.02380       5.29617
                        -----------------------------------------
Total Dipole Moment    :      0.61147       0.39240       0.92723
                        -----------------------------------------
Magnitude (a.u.)       :      1.17797
Magnitude (Debye)      :      2.99417

                             ****ORCA TERMINATED NORMALLY****
TOTAL RUN TIME: 0 days 0 hours 30 minutes 57 seconds 746 msec
