                         Program Version 3.0.3 - RELEASE   -
|  1> ! RI-MP2 RIJK def2-TZVP def2-TZVP/C def2-TZVP/JK TIGHTSCF
|  2> % maxcore 2000
|  3> % mp2 density relaxed end
|  4> *xyz 0 1
|  5>  C       -0.0035720493     1.5687125709     0.2886412359
|  6>  C       -0.0273929509     0.0630662939    -0.0020791551
|  7>  O        0.7112364530    -0.6610346368     0.9840197121
|  8>  C       -1.4189383688    -0.4687277640    -0.1376923836
|  9>  C       -2.0948153437    -1.0968106481    -1.1359419783
| 10>  C       -3.4096253769    -1.3843356028    -0.6288399968
| 11>  N       -4.4562150969    -1.9575489088    -1.3634616418
| 12>  C       -3.4255295603    -0.9100891608     0.6490936847
| 13>  O       -2.2157021869    -0.3382070245     0.9564814147
| 14>  H        1.0298915055     1.9036874850     0.4094020419
| 15>  H       -0.4686590105     2.1326350078    -0.5260053152
| 16>  H       -0.5540566365     1.7889217783     1.2088248779
| 17>  H        0.4906056992    -0.1333827229    -0.9463865811
| 18>  H        0.1942791261    -0.6350291294     1.7971166912
| 19>  H       -1.7141479439    -1.3304902099    -2.1186611067
| 20>  H       -4.1389629609    -2.6878426364    -1.9878550628
| 21>  H       -5.1984597285    -2.3192196929    -0.7788783656
| 22>  H       -4.1717147699    -0.8874543088     1.4249889888
| 23> *
| 24>
| 25>                          ****END OF INPUT****

CARTESIAN COORDINATES (ANGSTROEM)
---------------------------------
  C     -0.003572    1.568713    0.288641
  C     -0.027393    0.063066   -0.002079
  O      0.711236   -0.661035    0.984020
  C     -1.418938   -0.468728   -0.137692
  C     -2.094815   -1.096811   -1.135942
  C     -3.409625   -1.384336   -0.628840
  N     -4.456215   -1.957549   -1.363462
  C     -3.425530   -0.910089    0.649094
  O     -2.215702   -0.338207    0.956481
  H      1.029892    1.903687    0.409402
  H     -0.468659    2.132635   -0.526005
  H     -0.554057    1.788922    1.208825
  H      0.490606   -0.133383   -0.946387
  H      0.194279   -0.635029    1.797117
  H     -1.714148   -1.330490   -2.118661
  H     -4.138963   -2.687843   -1.987855
  H     -5.198460   -2.319220   -0.778878
  H     -4.171715   -0.887454    1.424989

 Total Charge           Charge          ....    0
 Multiplicity           Mult            ....    1
 Number of Electrons    NEL             ....   68
 Basis Dimension        Dim             ....  333

ORBITAL ENERGIES
----------------

  NO   OCC          E(Eh)            E(eV)
   0   2.0000     -20.613869      -560.9319
   1   2.0000     -20.555340      -559.3392
   2   2.0000     -15.567409      -423.6107
   3   2.0000     -11.294235      -307.3318
   4   2.0000     -11.291219      -307.2497
   5   2.0000     -11.270044      -306.6735
   6   2.0000     -11.265753      -306.5567
   7   2.0000     -11.225501      -305.4614
   8   2.0000     -11.219018      -305.2850
   9   2.0000      -1.451984       -39.5105
  10   2.0000      -1.360250       -37.0143
  11   2.0000      -1.215177       -33.0666
  12   2.0000      -1.068269       -29.0691
  13   2.0000      -1.040183       -28.3048
  14   2.0000      -0.972204       -26.4550
  15   2.0000      -0.863839       -23.5062
  16   2.0000      -0.802132       -21.8271
  17   2.0000      -0.770501       -20.9664
  18   2.0000      -0.730567       -19.8797
  19   2.0000      -0.674709       -18.3598
  20   2.0000      -0.648204       -17.6385
  21   2.0000      -0.638190       -17.3660
  22   2.0000      -0.635447       -17.2914
  23   2.0000      -0.606681       -16.5086
  24   2.0000      -0.597776       -16.2663
  25   2.0000      -0.565096       -15.3770
  26   2.0000      -0.549916       -14.9640
  27   2.0000      -0.544425       -14.8145
  28   2.0000      -0.518573       -14.1111
  29   2.0000      -0.497941       -13.5497
  30   2.0000      -0.493838       -13.4380
  31   2.0000      -0.449760       -12.2386
  32   2.0000      -0.364187        -9.9100
  33   2.0000      -0.298997        -8.1361
  34   0.0000       0.131018         3.5652
  35   0.0000       0.143950         3.9171
  36   0.0000       0.146345         3.9822
  37   0.0000       0.166189         4.5222
  38   0.0000       0.176825         4.8117

MULLIKEN ATOMIC CHARGES
-----------------------
   0 C :   -0.380885
   1 C :    0.090666
   2 O :   -0.463012
   3 C :    0.185421
   4 C :   -0.324928
   5 C :    0.212927
   6 N :   -0.520787
   7 C :   -0.137485
   8 O :   -0.250016
   9 H :    0.139587
  10 H :    0.129366
  11 H :    0.126661
  12 H :    0.099516
  13 H :    0.320213
  14 H :    0.140478
  15 H :    0.250982
  16 H :    0.242901
  17 H :    0.138397
Sum of atomic charges:    0.0000000

LOEWDIN ATOMIC CHARGES
----------------------
   0 C :   -0.293186
   1 C :   -0.341841
   2 O :   -0.021170
   3 C :   -0.247189
   4 C :   -0.137920
   5 C :   -0.286185
   6 N :   -0.091041
   7 C :   -0.244185
   8 O :    0.342204
   9 H :    0.125889
  10 H :    0.127786
  11 H :    0.124644
  12 H :    0.154885
  13 H :    0.175793
  14 H :    0.146144
  15 H :    0.168560
  16 H :    0.167256
  17 H :    0.129554

  Mayer bond orders larger than 0.1
B(  0-C ,  1-C ) :   0.9429 B(  0-C ,  9-H ) :   0.9373 B(  0-C , 10-H ) :   0.9298
B(  0-C , 11-H ) :   0.9220 B(  1-C ,  2-O ) :   0.9001 B(  1-C ,  3-C ) :   0.9369
B(  1-C , 12-H ) :   0.9357 B(  2-O , 13-H ) :   0.8386 B(  3-C ,  4-C ) :   1.4860
B(  3-C ,  8-O ) :   1.0173 B(  4-C ,  5-C ) :   1.1999 B(  4-C , 14-H ) :   0.9042
B(  5-C ,  6-N ) :   0.9928 B(  5-C ,  7-C ) :   1.5207 B(  6-N , 15-H ) :   0.8766
B(  6-N , 16-H ) :   0.8830 B(  7-C ,  8-O ) :   1.0190 B(  7-C , 17-H ) :   0.9421

MP2 TOTAL ENERGY:     -438.384336722 Eh
FINAL SINGLE POINT ENERGY      -438.384336721621

DIPOLE MOMENT
-------------
                                X             Y             Z
Electronic contribution:     -2.07628      -3.08848       1.20385
Nuclear contribution   :      1.37864       2.76535      -1.32283
                        -----------------------------------------
Total Dipole Moment    :     -0.69764      -0.32313      -0.11897
                        -----------------------------------------
Magnitude (a.u.)       :      0.77799
Magnitude (Debye)      :      1.97749

                             ****ORCA TERMINATED NORMALLY****
TOTAL RUN TIME: 0 days 0 hours 15 minutes 46 seconds 265 msec
