                         Program Version 3.0.3 - RELEASE   -
|  1> ! RI-MP2 RIJK def2-TZVP def2-TZVP/C def2-TZVP/JK TIGHTSCF
|  2> % maxcore 2000
|  3> % mp2 density relaxed end
|  4> *xyz 0 1
|  5>  C       -0.2243599245     1.4721565293     0.2567914249
|  6>  C        0.0155445231    -0.0024198408     0.0203464891
|  7>  C        0.5445438304    -0.5955785725    -1.2587257284
|  8>  C        1.0650706066     0.2768982597    -2.3971396418
|  9>  O        2.4809528326     0.3830435286    -2.4076706862
| 10>  C        2.9858213697     0.9750050915    -1.2300122471
| 11>  C        2.6446113327     0.1838705826     0.0388436453
| 12>  O        3.3813006063     0.2057481271     0.9994099014
| 13>  C        1.4029123014    -0.6438297637    -0.0035206840
| 14>  H        0.5049545924     2.1138072451    -0.2420781620
| 15>  H       -1.2174925138     1.7615590416    -0.1041999260
| 16>  H       -0.1786599074     1.6983607483     1.3267976676
| 17>  H       -0.7134646903    -0.6309230451     0.5256090170
| 18>  H        0.1072099236    -1.5388122458    -1.5695052782
| 19>  H        0.7982205218    -0.1724021463    -3.3565004326
| 20>  H        0.6172596208     1.2828064316    -2.3691579663
| 21>  H        4.0741470584     1.0108502327    -1.3179284072
| 22>  H        2.6265764672     2.0141378832    -1.1161679194
| 23>  H        1.5013770789    -1.5774238869     0.5397993639
| 24> *
| 25>
| 26>                          ****END OF INPUT****

CARTESIAN COORDINATES (ANGSTROEM)
---------------------------------
  C     -0.224360    1.472157    0.256791
  C      0.015545   -0.002420    0.020346
  C      0.544544   -0.595579   -1.258726
  C      1.065071    0.276898   -2.397140
  O      2.480953    0.383044   -2.407671
  C      2.985821    0.975005   -1.230012
  C      2.644611    0.183871    0.038844
  O      3.381301    0.205748    0.999410
  C      1.402912   -0.643830   -0.003521
  H      0.504955    2.113807   -0.242078
  H     -1.217493    1.761559   -0.104200
  H     -0.178660    1.698361    1.326798
  H     -0.713465   -0.630923    0.525609
  H      0.107210   -1.538812   -1.569505
  H      0.798221   -0.172402   -3.356500
  H      0.617260    1.282806   -2.369158
  H      4.074147    1.010850   -1.317928
  H      2.626576    2.014138   -1.116168
  H      1.501377   -1.577424    0.539799

 Total Charge           Charge          ....    0
 Multiplicity           Mult            ....    1
 Number of Electrons    NEL             ....   68
 Basis Dimension        Dim             ....  339

ORBITAL ENERGIES
----------------

  NO   OCC          E(Eh)            E(eV)
   0   2.0000     -20.570327      -559.7470
   1   2.0000     -20.545735      -559.0779
   2   2.0000     -11.332777      -308.3805
   3   2.0000     -11.291991      -307.2707
   4   2.0000     -11.290376      -307.2267
   5   2.0000     -11.259964      -306.3992
   6   2.0000     -11.251057      -306.1568
   7   2.0000     -11.247567      -306.0618
   8   2.0000     -11.235868      -305.7435
   9   2.0000      -1.399105       -38.0716
  10   2.0000      -1.382264       -37.6133
  11   2.0000      -1.174653       -31.9639
  12   2.0000      -1.018427       -27.7128
  13   2.0000      -0.993644       -27.0384
  14   2.0000      -0.922023       -25.0895
  15   2.0000      -0.880683       -23.9646
  16   2.0000      -0.777608       -21.1598
  17   2.0000      -0.728650       -19.8276
  18   2.0000      -0.713875       -19.4255
  19   2.0000      -0.675638       -18.3850
  20   2.0000      -0.654030       -17.7971
  21   2.0000      -0.651602       -17.7310
  22   2.0000      -0.621657       -16.9161
  23   2.0000      -0.589156       -16.0317
  24   2.0000      -0.583333       -15.8733
  25   2.0000      -0.564949       -15.3730
  26   2.0000      -0.545680       -14.8487
  27   2.0000      -0.532308       -14.4848
  28   2.0000      -0.516575       -14.0567
  29   2.0000      -0.495145       -13.4736
  30   2.0000      -0.465946       -12.6790
  31   2.0000      -0.432586       -11.7713
  32   2.0000      -0.414918       -11.2905
  33   2.0000      -0.391459       -10.6521
  34   0.0000       0.121450         3.3048
  35   0.0000       0.132174         3.5966
  36   0.0000       0.155997         4.2449
  37   0.0000       0.170197         4.6313
  38   0.0000       0.175816         4.7842

MULLIKEN ATOMIC CHARGES
-----------------------
   0 C :   -0.399934
   1 C :   -0.117169
   2 C :   -0.091746
   3 C :   -0.098403
   4 O :   -0.301666
   5 C :   -0.062119
   6 C :    0.108202
   7 O :   -0.276077
   8 C :   -0.100256
   9 H :    0.124236
  10 H :    0.141383
  11 H :    0.151073
  12 H :    0.127519
  13 H :    0.135797
  14 H :    0.132956
  15 H :    0.116570
  16 H :    0.150907
  17 H :    0.112426
  18 H :    0.146299
Sum of atomic charges:   -0.0000000

LOEWDIN ATOMIC CHARGES
----------------------
   0 C :   -0.288749
   1 C :   -0.196819
   2 C :   -0.181936
   3 C :   -0.288460
   4 O :    0.161227
   5 C :   -0.287485
   6 C :   -0.314534
   7 O :    0.154021
   8 C :   -0.147095
   9 H :    0.122099
  10 H :    0.129780
  11 H :    0.133515
  12 H :    0.155783
  13 H :    0.150895
  14 H :    0.136821
  15 H :    0.125519
  16 H :    0.144921
  17 H :    0.129973
  18 H :    0.160525

  Mayer bond orders larger than 0.1
B(  0-C ,  1-C ) :   0.9206 B(  0-C ,  9-H ) :   0.9337 B(  0-C , 10-H ) :   0.9345
B(  0-C , 11-H ) :   0.9340 B(  1-C ,  2-C ) :   0.8817 B(  1-C ,  8-C ) :   0.8360
B(  1-C , 12-H ) :   0.9250 B(  2-C ,  3-C ) :   0.9076 B(  2-C ,  8-C ) :   0.7952
B(  2-C , 13-H ) :   0.9185 B(  3-C ,  4-O ) :   0.9378 B(  3-C , 14-H ) :   0.9306
B(  3-C , 15-H ) :   0.9448 B(  4-O ,  5-C ) :   0.9236 B(  5-C ,  6-C ) :   0.9031
B(  5-C , 16-H ) :   0.9158 B(  5-C , 17-H ) :   0.9126 B(  6-C ,  7-O ) :   1.9964
B(  6-C ,  8-C ) :   0.9504 B(  8-C , 18-H ) :   0.9187

MP2 TOTAL ENERGY:     -422.319766178 Eh
FINAL SINGLE POINT ENERGY      -422.319766178338

DIPOLE MOMENT
-------------
                                X             Y             Z
Electronic contribution:      6.21959      -2.87415       0.46919
Nuclear contribution   :     -7.46000       2.95811      -0.87259
                        -----------------------------------------
Total Dipole Moment    :     -1.24041       0.08396      -0.40340
                        -----------------------------------------
Magnitude (a.u.)       :      1.30706
Magnitude (Debye)      :      3.32228

                             ****ORCA TERMINATED NORMALLY****
TOTAL RUN TIME: 0 days 0 hours 18 minutes 39 seconds 761 msec
