                         Program Version 3.0.3 - RELEASE   -
|  1> ! RI-MP2 RIJK def2-TZVP def2-TZVP/C def2-TZVP/JK TIGHTSCF
|  2> % maxcore 2000
|  3> % mp2 density relaxed end
|  4> *xyz 0 1
|  5>  O        0.0633337881     1.4007866505     0.0411370114
|  6>  C        0.0871900662     0.0079117052     0.0587402546
|  7>  C       -1.3463909777    -0.5359896664     0.0588750827
|  8>  O       -2.2703912934     0.2515156622     0.0546396719
|  9>  N       -1.5735199465    -1.9208134447     0.0522922477
| 10>  C       -2.9370957510    -2.3388950833    -0.0442016317
| 11>  N       -3.3085764226    -3.4842311931     0.3280709872
| 12>  C       -0.4944229624    -2.8398754316     0.0581047993
| 13>  O       -0.5858781605    -4.0158798161    -0.1333169323
| 14>  H       -0.8749756731     1.6482277082     0.0435334909
| 15>  H        0.6242215943    -0.3868440286    -0.8173995835
| 16>  H        0.6144973930    -0.3621498576     0.9522485554
| 17>  H       -3.5588997417    -1.5399647364    -0.4469840035
| 18>  H       -4.3100874600    -3.5893599839     0.1645195722
| 19>  H        0.4655889674    -2.3396343743     0.2572209876
| 20> *
| 21>
| 22>                          ****END OF INPUT****

CARTESIAN COORDINATES (ANGSTROEM)
---------------------------------
  O      0.063334    1.400787    0.041137
  C      0.087190    0.007912    0.058740
  C     -1.346391   -0.535990    0.058875
  O     -2.270391    0.251516    0.054640
  N     -1.573520   -1.920813    0.052292
  C     -2.937096   -2.338895   -0.044202
  N     -3.308576   -3.484231    0.328071
  C     -0.494423   -2.839875    0.058105
  O     -0.585878   -4.015880   -0.133317
  H     -0.874976    1.648228    0.043533
  H      0.624222   -0.386844   -0.817400
  H      0.614497   -0.362150    0.952249
  H     -3.558900   -1.539965   -0.446984
  H     -4.310087   -3.589360    0.164520
  H      0.465589   -2.339634    0.257221

 Total Charge           Charge          ....    0
 Multiplicity           Mult            ....    1
 Number of Electrons    NEL             ....   68
 Basis Dimension        Dim             ....  315

ORBITAL ENERGIES
----------------

  NO   OCC          E(Eh)            E(eV)
   0   2.0000     -20.584998      -560.1463
   1   2.0000     -20.578692      -559.9747
   2   2.0000     -20.575179      -559.8791
   3   2.0000     -15.655689      -426.0129
   4   2.0000     -15.571845      -423.7314
   5   2.0000     -11.409971      -310.4811
   6   2.0000     -11.393599      -310.0356
   7   2.0000     -11.341704      -308.6235
   8   2.0000     -11.329281      -308.2854
   9   2.0000      -1.460256       -39.7356
  10   2.0000      -1.432579       -38.9825
  11   2.0000      -1.387770       -37.7631
  12   2.0000      -1.310502       -35.6606
  13   2.0000      -1.215931       -33.0872
  14   2.0000      -1.018792       -27.7227
  15   2.0000      -0.938507       -25.5381
  16   2.0000      -0.875283       -23.8177
  17   2.0000      -0.793202       -21.5841
  18   2.0000      -0.772914       -21.0321
  19   2.0000      -0.717536       -19.5252
  20   2.0000      -0.707338       -19.2476
  21   2.0000      -0.688123       -18.7248
  22   2.0000      -0.672468       -18.2988
  23   2.0000      -0.657495       -17.8914
  24   2.0000      -0.639765       -17.4089
  25   2.0000      -0.629075       -17.1180
  26   2.0000      -0.566448       -15.4138
  27   2.0000      -0.563681       -15.3385
  28   2.0000      -0.514269       -13.9940
  29   2.0000      -0.505631       -13.7589
  30   2.0000      -0.481451       -13.1009
  31   2.0000      -0.475627       -12.9425
  32   2.0000      -0.441930       -12.0255
  33   2.0000      -0.418521       -11.3885
  34   0.0000       0.098472         2.6796
  35   0.0000       0.110834         3.0160
  36   0.0000       0.121765         3.3134
  37   0.0000       0.144327         3.9273
  38   0.0000       0.163783         4.4568

MULLIKEN ATOMIC CHARGES
-----------------------
   0 O :   -0.471188
   1 C :   -0.082608
   2 C :    0.269245
   3 O :   -0.359024
   4 N :   -0.058562
   5 C :   -0.022807
   6 N :   -0.297856
   7 C :    0.123027
   8 O :   -0.225124
   9 H :    0.343217
  10 H :    0.142973
  11 H :    0.133347
  12 H :    0.151316
  13 H :    0.234879
  14 H :    0.119164
Sum of atomic charges:    0.0000000

LOEWDIN ATOMIC CHARGES
----------------------
   0 O :   -0.022446
   1 C :   -0.342148
   2 C :   -0.376761
   3 O :    0.120348
   4 N :    0.206275
   5 C :   -0.276248
   6 N :   -0.024368
   7 C :   -0.343753
   8 O :    0.164384
   9 H :    0.184872
  10 H :    0.137038
  11 H :    0.136039
  12 H :    0.134032
  13 H :    0.175027
  14 H :    0.127709

  Mayer bond orders larger than 0.1
B(  0-O ,  1-C ) :   1.0386 B(  0-O ,  9-H ) :   0.8006 B(  1-C ,  2-C ) :   0.9281
B(  1-C , 10-H ) :   0.9150 B(  1-C , 11-H ) :   0.9011 B(  2-C ,  3-O ) :   1.8155
B(  2-C ,  4-N ) :   1.0748 B(  4-N ,  5-C ) :   0.8916 B(  4-N ,  7-C ) :   0.9489
B(  5-C ,  6-N ) :   1.9699 B(  5-C , 12-H ) :   0.9171 B(  6-N , 13-H ) :   0.8510
B(  7-C ,  8-O ) :   2.0208 B(  7-C , 14-H ) :   0.9182

MP2 TOTAL ENERGY:     -490.341940001 Eh
FINAL SINGLE POINT ENERGY      -490.341940001275

DIPOLE MOMENT
-------------
                                X             Y             Z
Electronic contribution:     -1.31139      -1.66425      -0.03971
Nuclear contribution   :      1.03915       2.01596      -0.13709
                        -----------------------------------------
Total Dipole Moment    :     -0.27224       0.35171      -0.17680
                        -----------------------------------------
Magnitude (a.u.)       :      0.47861
Magnitude (Debye)      :      1.21653

                             ****ORCA TERMINATED NORMALLY****
TOTAL RUN TIME: 0 days 0 hours 12 minutes 51 seconds 824 msec
