                         Program Version 3.0.3 - RELEASE   -
|  1> ! RI-MP2 RIJK def2-TZVP def2-TZVP/C def2-TZVP/JK TIGHTSCF
|  2> % maxcore 2000
|  3> % mp2 density relaxed end
|  4> *xyz 0 1
|  5>  C        0.0589306270     1.5222586724     0.1103598532
|  6>  C       -0.0307822434     0.0333777080    -0.0082978393
|  7>  C       -0.0458382812    -0.7163605615    -1.1237300352
|  8>  C       -0.0158528603    -0.2860065386    -2.5570556380
|  9>  C       -0.0476070631    -2.1666138275    -0.7498533432
| 10>  O        1.1316133452    -2.5743333471    -0.0081860475
| 11>  C       -0.0662141864    -2.2620468325     0.7184181117
| 12>  C       -0.6711081360    -3.3837052086     1.5169555643
| 13>  C       -0.0768010659    -0.8273912674     1.2447653984
| 14>  H        0.9825882910     1.8207467852     0.6231451325
| 15>  H        0.0422684634     2.0214014637    -0.8612944113
| 16>  H       -0.7704693560     1.9203637259     0.7093728090
| 17>  H       -0.0667522421     0.7995842513    -2.6686816705
| 18>  H        0.8994057338    -0.6326902681    -3.0536600160
| 19>  H       -0.8562893226    -0.7176388110    -3.1156806960
| 20>  H       -0.4544426776    -2.9287454263    -1.4108380328
| 21>  H       -0.6206728212    -4.3214586852     0.9580273649
| 22>  H       -0.1320309273    -3.5226694099     2.4610447743
| 23>  H       -1.7183822395    -3.1724140327     1.7578874169
| 24>  H        0.7796787977    -0.6390211724     1.9047790161
| 25>  H       -0.9805646356    -0.6261267079     1.8370735386
| 26> *
| 27>
| 28>                          ****END OF INPUT****

CARTESIAN COORDINATES (ANGSTROEM)
---------------------------------
  C      0.058931    1.522259    0.110360
  C     -0.030782    0.033378   -0.008298
  C     -0.045838   -0.716361   -1.123730
  C     -0.015853   -0.286007   -2.557056
  C     -0.047607   -2.166614   -0.749853
  O      1.131613   -2.574333   -0.008186
  C     -0.066214   -2.262047    0.718418
  C     -0.671108   -3.383705    1.516956
  C     -0.076801   -0.827391    1.244765
  H      0.982588    1.820747    0.623145
  H      0.042268    2.021401   -0.861294
  H     -0.770469    1.920364    0.709373
  H     -0.066752    0.799584   -2.668682
  H      0.899406   -0.632690   -3.053660
  H     -0.856289   -0.717639   -3.115681
  H     -0.454443   -2.928745   -1.410838
  H     -0.620673   -4.321459    0.958027
  H     -0.132031   -3.522669    2.461045
  H     -1.718382   -3.172414    1.757887
  H      0.779679   -0.639021    1.904779
  H     -0.980565   -0.626127    1.837074

 Total Charge           Charge          ....    0
 Multiplicity           Mult            ....    1
 Number of Electrons    NEL             ....   68
 Basis Dimension        Dim             ....  351

ORBITAL ENERGIES
----------------

  NO   OCC          E(Eh)            E(eV)
   0   2.0000     -20.551527      -559.2355
   1   2.0000     -11.281524      -306.9859
   2   2.0000     -11.273791      -306.7754
   3   2.0000     -11.232377      -305.6485
   4   2.0000     -11.227938      -305.5277
   5   2.0000     -11.225340      -305.4570
   6   2.0000     -11.223785      -305.4147
   7   2.0000     -11.223079      -305.3955
   8   2.0000     -11.222278      -305.3737
   9   2.0000      -1.396650       -38.0048
  10   2.0000      -1.120302       -30.4850
  11   2.0000      -1.027217       -27.9520
  12   2.0000      -0.995710       -27.0946
  13   2.0000      -0.958040       -26.0696
  14   2.0000      -0.908838       -24.7307
  15   2.0000      -0.849197       -23.1078
  16   2.0000      -0.767044       -20.8723
  17   2.0000      -0.705479       -19.1971
  18   2.0000      -0.663559       -18.0564
  19   2.0000      -0.617507       -16.8032
  20   2.0000      -0.608444       -16.5566
  21   2.0000      -0.590340       -16.0640
  22   2.0000      -0.579004       -15.7555
  23   2.0000      -0.568710       -15.4754
  24   2.0000      -0.560671       -15.2566
  25   2.0000      -0.546519       -14.8716
  26   2.0000      -0.540737       -14.7142
  27   2.0000      -0.521848       -14.2002
  28   2.0000      -0.510878       -13.9017
  29   2.0000      -0.495596       -13.4859
  30   2.0000      -0.482159       -13.1202
  31   2.0000      -0.435905       -11.8616
  32   2.0000      -0.404465       -11.0061
  33   2.0000      -0.326423        -8.8824
  34   0.0000       0.133924         3.6443
  35   0.0000       0.150235         4.0881
  36   0.0000       0.150837         4.1045
  37   0.0000       0.158129         4.3029
  38   0.0000       0.190982         5.1969

MULLIKEN ATOMIC CHARGES
-----------------------
   0 C :   -0.416680
   1 C :   -0.029149
   2 C :   -0.000171
   3 C :   -0.429431
   4 C :    0.034972
   5 O :   -0.331067
   6 C :    0.154606
   7 C :   -0.424592
   8 C :   -0.152501
   9 H :    0.143917
  10 H :    0.127614
  11 H :    0.136978
  12 H :    0.130238
  13 H :    0.148602
  14 H :    0.138665
  15 H :    0.121594
  16 H :    0.142298
  17 H :    0.137272
  18 H :    0.130930
  19 H :    0.121581
  20 H :    0.114322
Sum of atomic charges:   -0.0000000

LOEWDIN ATOMIC CHARGES
----------------------
   0 C :   -0.273002
   1 C :   -0.147538
   2 C :   -0.155080
   3 C :   -0.271972
   4 C :   -0.192268
   5 O :    0.175163
   6 C :   -0.309566
   7 C :   -0.269734
   8 C :   -0.168672
   9 H :    0.133484
  10 H :    0.126889
  11 H :    0.131067
  12 H :    0.126778
  13 H :    0.134609
  14 H :    0.131360
  15 H :    0.137488
  16 H :    0.133280
  17 H :    0.131066
  18 H :    0.130167
  19 H :    0.150279
  20 H :    0.146202

  Mayer bond orders larger than 0.1
B(  0-C ,  1-C ) :   0.8738 B(  0-C ,  9-H ) :   0.9333 B(  0-C , 10-H ) :   0.9499
B(  0-C , 11-H ) :   0.9321 B(  1-C ,  2-C ) :   1.7207 B(  1-C ,  8-C ) :   0.9786
B(  2-C ,  3-C ) :   0.8616 B(  2-C ,  4-C ) :   0.8993 B(  3-C , 12-H ) :   0.9600
B(  3-C , 13-H ) :   0.9273 B(  3-C , 14-H ) :   0.9373 B(  4-C ,  5-O ) :   0.8859
B(  4-C ,  6-C ) :   0.9565 B(  4-C , 15-H ) :   0.9246 B(  5-O ,  6-C ) :   0.9237
B(  6-C ,  7-C ) :   0.8802 B(  6-C ,  8-C ) :   0.9436 B(  7-C , 16-H ) :   0.9422
B(  7-C , 17-H ) :   0.9410 B(  7-C , 18-H ) :   0.9310 B(  8-C , 19-H ) :   0.8880
B(  8-C , 20-H ) :   0.8991

MP2 TOTAL ENERGY:     -386.417823681 Eh
FINAL SINGLE POINT ENERGY      -386.417823681187

DIPOLE MOMENT
-------------
                                X             Y             Z
Electronic contribution:      2.42126      -3.68538      -0.15747
Nuclear contribution   :     -3.10229       4.05195       0.20969
                        -----------------------------------------
Total Dipole Moment    :     -0.68103       0.36657       0.05222
                        -----------------------------------------
Magnitude (a.u.)       :      0.77518
Magnitude (Debye)      :      1.97036

                             ****ORCA TERMINATED NORMALLY****
TOTAL RUN TIME: 0 days 0 hours 19 minutes 37 seconds 776 msec
