                         Program Version 3.0.3 - RELEASE   -
|  1> ! RI-MP2 RIJK def2-TZVP def2-TZVP/C def2-TZVP/JK TIGHTSCF
|  2> % maxcore 2000
|  3> % mp2 density relaxed end
|  4> *xyz 0 1
|  5>  O       -0.3450219348     0.0739212520     0.3641308644
|  6>  C       -0.0973162878     1.2008411507     0.0240007677
|  7>  C        1.3054811465     1.7671073143    -0.1341386312
|  8>  N        1.3612558442     2.7317019918    -1.2050820316
|  9>  C        1.4631751479     2.2424205134    -2.6022350236
| 10>  C        2.4672549009     3.3637594864    -2.8750280382
| 11>  C        3.5266762474     3.4562638869    -3.9241669997
| 12>  C        2.3673833067     4.4312302872    -3.9201149076
| 13>  C        2.5776914965     3.5630740212    -1.3613980782
| 14>  H       -0.8976546309     1.9433221156    -0.1954974215
| 15>  H        1.5339030547     2.2854410701     0.8096274963
| 16>  H        2.0194639806     0.9290140352    -0.2289928116
| 17>  H        1.9087639846     1.2365413692    -2.6775307255
| 18>  H        0.5193908560     2.2537763942    -3.1595493706
| 19>  H        4.5055653387     3.8238211867    -3.6323342650
| 20>  H        3.5516055904     2.6932845996    -4.6959258887
| 21>  H        1.6076188401     4.3254958400    -4.6881465115
| 22>  H        2.5631029595     5.4570477147    -3.6239884506
| 23>  H        2.4807149050     4.5830799916    -0.9711609427
| 24>  H        3.4826060240     3.1014199591    -0.9340412109
| 25> *
| 26>
| 27>                          ****END OF INPUT****

CARTESIAN COORDINATES (ANGSTROEM)
---------------------------------
  O     -0.345022    0.073921    0.364131
  C     -0.097316    1.200841    0.024001
  C      1.305481    1.767107   -0.134139
  N      1.361256    2.731702   -1.205082
  C      1.463175    2.242421   -2.602235
  C      2.467255    3.363759   -2.875028
  C      3.526676    3.456264   -3.924167
  C      2.367383    4.431230   -3.920115
  C      2.577691    3.563074   -1.361398
  H     -0.897655    1.943322   -0.195497
  H      1.533903    2.285441    0.809627
  H      2.019464    0.929014   -0.228993
  H      1.908764    1.236541   -2.677531
  H      0.519391    2.253776   -3.159549
  H      4.505565    3.823821   -3.632334
  H      3.551606    2.693285   -4.695926
  H      1.607619    4.325496   -4.688147
  H      2.563103    5.457048   -3.623988
  H      2.480715    4.583080   -0.971161
  H      3.482606    3.101420   -0.934041

 Total Charge           Charge          ....    0
 Multiplicity           Mult            ....    1
 Number of Electrons    NEL             ....   68
 Basis Dimension        Dim             ....  345

ORBITAL ENERGIES
----------------

  NO   OCC          E(Eh)            E(eV)
   0   2.0000     -20.555838      -559.3528
   1   2.0000     -15.560287      -423.4169
   2   2.0000     -11.327895      -308.2477
   3   2.0000     -11.266978      -306.5901
   4   2.0000     -11.263283      -306.4895
   5   2.0000     -11.261721      -306.4470
   6   2.0000     -11.246616      -306.0360
   7   2.0000     -11.233246      -305.6722
   8   2.0000     -11.232536      -305.6529
   9   2.0000      -1.394923       -37.9578
  10   2.0000      -1.264825       -34.4176
  11   2.0000      -1.143116       -31.1058
  12   2.0000      -1.027140       -27.9499
  13   2.0000      -0.933687       -25.4069
  14   2.0000      -0.872823       -23.7507
  15   2.0000      -0.834021       -22.6949
  16   2.0000      -0.791155       -21.5284
  17   2.0000      -0.737412       -20.0660
  18   2.0000      -0.688531       -18.7359
  19   2.0000      -0.666827       -18.1453
  20   2.0000      -0.662598       -18.0302
  21   2.0000      -0.648570       -17.6485
  22   2.0000      -0.628172       -17.0934
  23   2.0000      -0.588391       -16.0109
  24   2.0000      -0.566077       -15.4037
  25   2.0000      -0.562436       -15.3047
  26   2.0000      -0.530007       -14.4222
  27   2.0000      -0.519842       -14.1456
  28   2.0000      -0.496414       -13.5081
  29   2.0000      -0.463998       -12.6260
  30   2.0000      -0.432275       -11.7628
  31   2.0000      -0.424715       -11.5571
  32   2.0000      -0.409721       -11.1491
  33   2.0000      -0.368004       -10.0139
  34   0.0000       0.127390         3.4665
  35   0.0000       0.136662         3.7188
  36   0.0000       0.152517         4.1502
  37   0.0000       0.162924         4.4334
  38   0.0000       0.166304         4.5254

MULLIKEN ATOMIC CHARGES
-----------------------
   0 O :   -0.262780
   1 C :    0.097482
   2 C :   -0.112910
   3 N :   -0.155191
   4 C :   -0.188842
   5 C :    0.089702
   6 C :   -0.285503
   7 C :   -0.297367
   8 C :   -0.158868
   9 H :    0.080003
  10 H :    0.135483
  11 H :    0.104523
  12 H :    0.108106
  13 H :    0.113830
  14 H :    0.130643
  15 H :    0.131261
  16 H :    0.130310
  17 H :    0.129444
  18 H :    0.109834
  19 H :    0.100841
Sum of atomic charges:   -0.0000000

LOEWDIN ATOMIC CHARGES
----------------------
   0 O :    0.132137
   1 C :   -0.292396
   2 C :   -0.305785
   3 N :    0.093368
   4 C :   -0.203724
   5 C :   -0.233796
   6 C :   -0.210874
   7 C :   -0.204201
   8 C :   -0.204958
   9 H :    0.111635
  10 H :    0.152134
  11 H :    0.129164
  12 H :    0.125379
  13 H :    0.124747
  14 H :    0.134801
  15 H :    0.135082
  16 H :    0.134550
  17 H :    0.134318
  18 H :    0.123997
  19 H :    0.124421

  Mayer bond orders larger than 0.1
B(  0-O ,  1-C ) :   2.0047 B(  1-C ,  2-C ) :   0.8882 B(  1-C ,  9-H ) :   0.9282
B(  2-C ,  3-N ) :   0.8872 B(  2-C , 10-H ) :   0.9043 B(  2-C , 11-H ) :   0.8874
B(  3-N ,  4-C ) :   0.9479 B(  3-N ,  8-C ) :   0.9516 B(  4-C ,  5-C ) :   0.9189
B(  4-C , 12-H ) :   0.9207 B(  4-C , 13-H ) :   0.9116 B(  5-C ,  6-C ) :   0.8609
B(  5-C ,  7-C ) :   0.8605 B(  5-C ,  8-C ) :   0.9207 B(  6-C ,  7-C ) :   0.9259
B(  6-C , 14-H ) :   0.9219 B(  6-C , 15-H ) :   0.9213 B(  7-C , 16-H ) :   0.9244
B(  7-C , 17-H ) :   0.9248 B(  8-C , 18-H ) :   0.9084 B(  8-C , 19-H ) :   0.9198

MP2 TOTAL ENERGY:     -402.406065283 Eh
FINAL SINGLE POINT ENERGY      -402.406065283116

DIPOLE MOMENT
-------------
                                X             Y             Z
Electronic contribution:     -4.54712      -3.96722       4.47399
Nuclear contribution   :      5.27691       4.78629      -4.92584
                        -----------------------------------------
Total Dipole Moment    :      0.72979       0.81907      -0.45185
                        -----------------------------------------
Magnitude (a.u.)       :      1.18644
Magnitude (Debye)      :      3.01568

                             ****ORCA TERMINATED NORMALLY****
TOTAL RUN TIME: 0 days 0 hours 16 minutes 40 seconds 543 msec
