                         Program Version 3.0.3 - RELEASE   -
|  1> ! RI-MP2 RIJK def2-TZVP def2-TZVP/C def2-TZVP/JK TIGHTSCF
|  2> % maxcore 2000
|  3> % mp2 density relaxed end
|  4> *xyz 0 1
|  5>  C       -0.0478195432     1.4203924777    -0.0325582543
|  6>  O        0.2969339254     0.0535033089    -0.1042545415
|  7>  C        0.7696056692    -0.5252924224     1.0934959066
|  8>  C        2.0896120666     0.0760799667     1.5633141791
|  9>  C       -0.2932844613    -0.7409127653     2.2035493863
| 10>  O       -0.1301065852    -2.1689587628     2.1383301601
| 11>  C        0.7684037362    -2.0788495604     1.0028174877
| 12>  C        0.1991012455    -2.7250017855    -0.2440853543
| 13>  H        0.8276114630     2.0697949900     0.1047327345
| 14>  H       -0.5222862513     1.6755456325    -0.9831779072
| 15>  H       -0.7620049598     1.6241449642     0.7792575892
| 16>  H        1.9799138894     1.1232147483     1.8622111527
| 17>  H        2.4664541602    -0.4756765662     2.4292453896
| 18>  H        2.8361358940     0.0208786108     0.7643150103
| 19>  H       -0.0547686261    -0.3422404506     3.1971760052
| 20>  H       -1.3064539586    -0.4273637978     1.9201823400
| 21>  H        1.7405792200    -2.5254520300     1.2522775183
| 22>  H       -0.7456089111    -2.2602925067    -0.5319136895
| 23>  H        0.8987670478    -2.6278017885    -1.0803212115
| 24>  H        0.0300260593    -3.7897879829    -0.0555584311
| 25> *
| 26>
| 27>                          ****END OF INPUT****

CARTESIAN COORDINATES (ANGSTROEM)
---------------------------------
  C     -0.047820    1.420392   -0.032558
  O      0.296934    0.053503   -0.104255
  C      0.769606   -0.525292    1.093496
  C      2.089612    0.076080    1.563314
  C     -0.293284   -0.740913    2.203549
  O     -0.130107   -2.168959    2.138330
  C      0.768404   -2.078850    1.002817
  C      0.199101   -2.725002   -0.244085
  H      0.827611    2.069795    0.104733
  H     -0.522286    1.675546   -0.983178
  H     -0.762005    1.624145    0.779258
  H      1.979914    1.123215    1.862211
  H      2.466454   -0.475677    2.429245
  H      2.836136    0.020879    0.764315
  H     -0.054769   -0.342240    3.197176
  H     -1.306454   -0.427364    1.920182
  H      1.740579   -2.525452    1.252278
  H     -0.745609   -2.260293   -0.531914
  H      0.898767   -2.627802   -1.080321
  H      0.030026   -3.789788   -0.055558

 Total Charge           Charge          ....    0
 Multiplicity           Mult            ....    1
 Number of Electrons    NEL             ....   64
 Basis Dimension        Dim             ....  320

ORBITAL ENERGIES
----------------

  NO   OCC          E(Eh)            E(eV)
   0   2.0000     -20.560605      -559.4825
   1   2.0000     -20.543095      -559.0060
   2   2.0000     -11.290585      -307.2324
   3   2.0000     -11.276974      -306.8621
   4   2.0000     -11.276799      -306.8573
   5   2.0000     -11.273416      -306.7652
   6   2.0000     -11.224305      -305.4289
   7   2.0000     -11.207205      -304.9635
   8   2.0000      -1.394150       -37.9367
   9   2.0000      -1.361852       -37.0579
  10   2.0000      -1.048935       -28.5430
  11   2.0000      -1.003212       -27.2988
  12   2.0000      -0.940980       -25.6054
  13   2.0000      -0.912482       -24.8299
  14   2.0000      -0.854843       -23.2615
  15   2.0000      -0.737436       -20.0667
  16   2.0000      -0.683608       -18.6019
  17   2.0000      -0.672383       -18.2965
  18   2.0000      -0.658752       -17.9256
  19   2.0000      -0.627467       -17.0742
  20   2.0000      -0.594027       -16.1643
  21   2.0000      -0.586248       -15.9526
  22   2.0000      -0.561373       -15.2757
  23   2.0000      -0.555206       -15.1079
  24   2.0000      -0.551999       -15.0207
  25   2.0000      -0.534908       -14.5556
  26   2.0000      -0.513302       -13.9677
  27   2.0000      -0.500903       -13.6303
  28   2.0000      -0.476030       -12.9534
  29   2.0000      -0.432479       -11.7684
  30   2.0000      -0.418405       -11.3854
  31   2.0000      -0.405915       -11.0455
  32   0.0000       0.131145         3.5686
  33   0.0000       0.157234         4.2786
  34   0.0000       0.169568         4.6142
  35   0.0000       0.181816         4.9475
  36   0.0000       0.196795         5.3551

MULLIKEN ATOMIC CHARGES
-----------------------
   0 C :   -0.233210
   1 O :   -0.301104
   2 C :    0.231557
   3 C :   -0.461506
   4 C :   -0.068047
   5 O :   -0.331154
   6 C :    0.082325
   7 C :   -0.391107
   8 H :    0.121847
   9 H :    0.145217
  10 H :    0.111852
  11 H :    0.134685
  12 H :    0.149053
  13 H :    0.140675
  14 H :    0.099238
  15 H :    0.092080
  16 H :    0.085346
  17 H :    0.133893
  18 H :    0.123088
  19 H :    0.135273
Sum of atomic charges:    0.0000000

LOEWDIN ATOMIC CHARGES
----------------------
   0 C :   -0.351455
   1 O :    0.183865
   2 C :   -0.357380
   3 C :   -0.276958
   4 C :   -0.244288
   5 O :    0.133843
   6 C :   -0.263852
   7 C :   -0.294515
   8 H :    0.103046
   9 H :    0.115462
  10 H :    0.103503
  11 H :    0.125003
  12 H :    0.134555
  13 H :    0.130691
  14 H :    0.117813
  15 H :    0.120385
  16 H :    0.135534
  17 H :    0.128147
  18 H :    0.128689
  19 H :    0.127912

  Mayer bond orders larger than 0.1
B(  0-C ,  1-O ) :   0.9072 B(  0-C ,  8-H ) :   0.9355 B(  0-C ,  9-H ) :   0.9413
B(  0-C , 10-H ) :   0.9302 B(  1-O ,  2-C ) :   0.9809 B(  2-C ,  3-C ) :   0.8983
B(  2-C ,  4-C ) :   0.9791 B(  2-C ,  6-C ) :   0.9268 B(  3-C , 11-H ) :   0.9290
B(  3-C , 12-H ) :   0.9307 B(  3-C , 13-H ) :   0.9349 B(  4-C ,  5-O ) :   0.9773
B(  4-C , 14-H ) :   0.9060 B(  4-C , 15-H ) :   0.8944 B(  5-O ,  6-C ) :   0.9486
B(  6-C ,  7-C ) :   0.9201 B(  6-C , 16-H ) :   0.9092 B(  7-C , 17-H ) :   0.9317
B(  7-C , 18-H ) :   0.9268 B(  7-C , 19-H ) :   0.9331

MP2 TOTAL ENERGY:     -385.479626425 Eh
FINAL SINGLE POINT ENERGY      -385.479626425156

DIPOLE MOMENT
-------------
                                X             Y             Z
Electronic contribution:     -1.56775      -2.76196       1.45280
Nuclear contribution   :      1.88274       3.60888      -1.53734
                        -----------------------------------------
Total Dipole Moment    :      0.31500       0.84692      -0.08454
                        -----------------------------------------
Magnitude (a.u.)       :      0.90755
Magnitude (Debye)      :      2.30680

                             ****ORCA TERMINATED NORMALLY****
TOTAL RUN TIME: 0 days 0 hours 14 minutes 9 seconds 312 msec
