                         Program Version 3.0.3 - RELEASE   -
|  1> ! RI-MP2 RIJK def2-TZVP def2-TZVP/C def2-TZVP/JK TIGHTSCF
|  2> % maxcore 2000
|  3> % mp2 density relaxed end
|  4> *xyz 0 1
|  5>  C        0.0701144291     1.4389355299     0.0649223107
|  6>  N        0.0071273362    -0.0112917427     0.0712394996
|  7>  C       -1.1219650832    -0.5845874997    -0.0015424517
|  8>  N       -2.3810813167     0.0010071162    -0.0916476732
|  9>  C       -3.3913436526    -0.7947806865    -0.1546772550
| 10>  N       -3.3805394274    -2.1796778280    -0.1437860380
| 11>  N       -2.2304521838    -2.7438177221    -0.0612915297
| 12>  N       -1.1359694345    -2.0090195349     0.0078801490
| 13>  C        0.1224230592    -2.7363835425     0.0989888640
| 14>  H        0.6920908387     1.7658798508    -0.7765954095
| 15>  H       -0.9069030051     1.9279393210    -0.0048770229
| 16>  H        0.5731977605     1.7786780728     0.9778135379
| 17>  H       -4.3888024946    -0.3660281969    -0.2258084149
| 18>  H       -0.1155184316    -3.7990457911     0.0905498840
| 19>  H        0.7621687349    -2.4658884625    -0.7439296239
| 20>  H        0.6421401511    -2.4529940937     1.0168885536
| 21> *
| 22>
| 23>                          ****END OF INPUT****

CARTESIAN COORDINATES (ANGSTROEM)
---------------------------------
  C      0.070114    1.438936    0.064922
  N      0.007127   -0.011292    0.071239
  C     -1.121965   -0.584587   -0.001542
  N     -2.381081    0.001007   -0.091648
  C     -3.391344   -0.794781   -0.154677
  N     -3.380539   -2.179678   -0.143786
  N     -2.230452   -2.743818   -0.061292
  N     -1.135969   -2.009020    0.007880
  C      0.122423   -2.736384    0.098989
  H      0.692091    1.765880   -0.776595
  H     -0.906903    1.927939   -0.004877
  H      0.573198    1.778678    0.977814
  H     -4.388802   -0.366028   -0.225808
  H     -0.115518   -3.799046    0.090550
  H      0.762169   -2.465888   -0.743930
  H      0.642140   -2.452994    1.016889

 Total Charge           Charge          ....    0
 Multiplicity           Mult            ....    1
 Number of Electrons    NEL             ....   66
 Basis Dimension        Dim             ....  321

ORBITAL ENERGIES
----------------

  NO   OCC          E(Eh)            E(eV)
   0   2.0000     -15.717174      -427.6860
   1   2.0000     -15.673964      -426.5102
   2   2.0000     -15.616214      -424.9388
   3   2.0000     -15.588362      -424.1809
   4   2.0000     -15.540797      -422.8866
   5   2.0000     -11.359898      -309.1185
   6   2.0000     -11.343651      -308.6764
   7   2.0000     -11.279060      -306.9188
   8   2.0000     -11.239157      -305.8330
   9   2.0000      -1.463072       -39.8122
  10   2.0000      -1.293801       -35.2061
  11   2.0000      -1.273409       -34.6512
  12   2.0000      -1.185608       -32.2620
  13   2.0000      -1.028548       -27.9882
  14   2.0000      -0.980634       -26.6844
  15   2.0000      -0.928073       -25.2542
  16   2.0000      -0.875524       -23.8242
  17   2.0000      -0.789422       -21.4813
  18   2.0000      -0.718427       -19.5494
  19   2.0000      -0.691269       -18.8104
  20   2.0000      -0.679922       -18.5016
  21   2.0000      -0.631849       -17.1935
  22   2.0000      -0.595521       -16.2049
  23   2.0000      -0.590746       -16.0750
  24   2.0000      -0.581274       -15.8173
  25   2.0000      -0.575334       -15.6556
  26   2.0000      -0.537796       -14.6342
  27   2.0000      -0.513559       -13.9747
  28   2.0000      -0.500614       -13.6224
  29   2.0000      -0.467478       -12.7207
  30   2.0000      -0.437549       -11.9063
  31   2.0000      -0.406688       -11.0665
  32   2.0000      -0.340584        -9.2678
  33   0.0000       0.053727         1.4620
  34   0.0000       0.134420         3.6578
  35   0.0000       0.144202         3.9239
  36   0.0000       0.166170         4.5217
  37   0.0000       0.176577         4.8049

MULLIKEN ATOMIC CHARGES
-----------------------
   0 C :   -0.291899
   1 N :   -0.295923
   2 C :    0.205078
   3 N :   -0.255201
   4 C :    0.039808
   5 N :   -0.171648
   6 N :   -0.108901
   7 N :    0.124805
   8 C :   -0.287636
   9 H :    0.134615
  10 H :    0.136292
  11 H :    0.134620
  12 H :    0.147904
  13 H :    0.171956
  14 H :    0.158064
  15 H :    0.158065
Sum of atomic charges:   -0.0000000

LOEWDIN ATOMIC CHARGES
----------------------
   0 C :   -0.333709
   1 N :    0.064738
   2 C :   -0.386977
   3 N :    0.146289
   4 C :   -0.290978
   5 N :   -0.002240
   6 N :    0.017068
   7 N :    0.175198
   8 C :   -0.268512
   9 H :    0.118300
  10 H :    0.111799
  11 H :    0.118296
  12 H :    0.140012
  13 H :    0.129716
  14 H :    0.130500
  15 H :    0.130500

  Mayer bond orders larger than 0.1
B(  0-C ,  1-N ) :   0.8838 B(  0-C ,  9-H ) :   0.9332 B(  0-C , 10-H ) :   0.9304
B(  0-C , 11-H ) :   0.9332 B(  1-N ,  2-C ) :   1.8143 B(  2-C ,  3-N ) :   1.0668
B(  2-C ,  7-N ) :   0.9769 B(  3-N ,  4-C ) :   1.6471 B(  4-C ,  5-N ) :   1.1697
B(  4-C , 12-H ) :   0.9279 B(  5-N ,  6-N ) :   1.3178 B(  6-N ,  7-N ) :   1.0883
B(  7-N ,  8-C ) :   0.8607 B(  8-C , 13-H ) :   0.9157 B(  8-C , 14-H ) :   0.9237
B(  8-C , 15-H ) :   0.9237

MP2 TOTAL ENERGY:     -429.482254643 Eh
FINAL SINGLE POINT ENERGY      -429.482254643486

DIPOLE MOMENT
-------------
                                X             Y             Z
Electronic contribution:     -6.51657      -3.45533      -0.41885
Nuclear contribution   :      6.99124       3.58492       0.45021
                        -----------------------------------------
Total Dipole Moment    :      0.47467       0.12959       0.03136
                        -----------------------------------------
Magnitude (a.u.)       :      0.49305
Magnitude (Debye)      :      1.25322

                             ****ORCA TERMINATED NORMALLY****
TOTAL RUN TIME: 0 days 0 hours 17 minutes 37 seconds 551 msec
