                         Program Version 3.0.3 - RELEASE   -
|  1> ! RI-MP2 RIJK def2-TZVP def2-TZVP/C def2-TZVP/JK TIGHTSCF
|  2> % maxcore 2000
|  3> % mp2 density relaxed end
|  4> *xyz 0 1
|  5>  O        0.1914293692     1.4554766906    -0.0783423258
|  6>  C        0.0443906423     0.0558139302    -0.0075078967
|  7>  C        0.8239499851    -0.5330598247     1.2312879092
|  8>  N        0.0996196663     0.0669193506     2.3670542970
|  9>  C       -1.1063304115    -0.2852746873     2.2821372698
| 10>  O       -2.1578885293     0.6388261647     2.2707654777
| 11>  C       -2.5868381869    -0.0432274645     1.0505419715
| 12>  C       -1.4312146777    -0.4393159761     0.0679429398
| 13>  C       -1.7716294549    -1.2492751158     1.2989543873
| 14>  H       -0.0213332775     1.8011621919     0.7989183138
| 15>  H        0.4747340589    -0.3320692209    -0.9380682562
| 16>  H        0.8087601957    -1.6302880242     1.1969191400
| 17>  H        1.8596608734    -0.1899233964     1.2353916261
| 18>  H       -3.6146372492     0.1079746935     0.7490252010
| 19>  H       -1.8330306255    -0.8134436152    -0.8716129397
| 20>  H       -1.9960507785    -2.3022140662     1.3922072651
| 21> *
| 22>
| 23>                          ****END OF INPUT****

CARTESIAN COORDINATES (ANGSTROEM)
---------------------------------
  O      0.191429    1.455477   -0.078342
  C      0.044391    0.055814   -0.007508
  C      0.823950   -0.533060    1.231288
  N      0.099620    0.066919    2.367054
  C     -1.106330   -0.285275    2.282137
  O     -2.157889    0.638826    2.270765
  C     -2.586838   -0.043227    1.050542
  C     -1.431215   -0.439316    0.067943
  C     -1.771629   -1.249275    1.298954
  H     -0.021333    1.801162    0.798918
  H      0.474734   -0.332069   -0.938068
  H      0.808760   -1.630288    1.196919
  H      1.859661   -0.189923    1.235392
  H     -3.614637    0.107975    0.749025
  H     -1.833031   -0.813444   -0.871613
  H     -1.996051   -2.302214    1.392207

 Total Charge           Charge          ....    0
 Multiplicity           Mult            ....    1
 Number of Electrons    NEL             ....   66
 Basis Dimension        Dim             ....  321

ORBITAL ENERGIES
----------------

  NO   OCC          E(Eh)            E(eV)
   0   2.0000     -20.598333      -560.5091
   1   2.0000     -20.553902      -559.3001
   2   2.0000     -15.555026      -423.2738
   3   2.0000     -11.358283      -309.0746
   4   2.0000     -11.329191      -308.2830
   5   2.0000     -11.302633      -307.5603
   6   2.0000     -11.272631      -306.7439
   7   2.0000     -11.271099      -306.7022
   8   2.0000     -11.268569      -306.6333
   9   2.0000      -1.448544       -39.4169
  10   2.0000      -1.366548       -37.1857
  11   2.0000      -1.242490       -33.8099
  12   2.0000      -1.162195       -31.6249
  13   2.0000      -1.001498       -27.2522
  14   2.0000      -0.905801       -24.6481
  15   2.0000      -0.883078       -24.0298
  16   2.0000      -0.795667       -21.6512
  17   2.0000      -0.761868       -20.7315
  18   2.0000      -0.709890       -19.3171
  19   2.0000      -0.689689       -18.7674
  20   2.0000      -0.669544       -18.2192
  21   2.0000      -0.649989       -17.6871
  22   2.0000      -0.610078       -16.6011
  23   2.0000      -0.600799       -16.3486
  24   2.0000      -0.574679       -15.6378
  25   2.0000      -0.561519       -15.2797
  26   2.0000      -0.545338       -14.8394
  27   2.0000      -0.516451       -14.0534
  28   2.0000      -0.479734       -13.0542
  29   2.0000      -0.448786       -12.2121
  30   2.0000      -0.421103       -11.4588
  31   2.0000      -0.415514       -11.3067
  32   2.0000      -0.378411       -10.2971
  33   0.0000       0.104035         2.8309
  34   0.0000       0.135987         3.7004
  35   0.0000       0.158851         4.3226
  36   0.0000       0.167836         4.5671
  37   0.0000       0.182282         4.9602

MULLIKEN ATOMIC CHARGES
-----------------------
   0 O :   -0.457787
   1 C :    0.060340
   2 C :   -0.097390
   3 N :   -0.260636
   4 C :    0.182878
   5 O :   -0.263351
   6 C :    0.030383
   7 C :   -0.157410
   8 C :   -0.194859
   9 H :    0.337121
  10 H :    0.108046
  11 H :    0.116108
  12 H :    0.139189
  13 H :    0.155648
  14 H :    0.136053
  15 H :    0.165665
Sum of atomic charges:   -0.0000000

LOEWDIN ATOMIC CHARGES
----------------------
   0 O :   -0.006292
   1 C :   -0.318964
   2 C :   -0.248438
   3 N :    0.109138
   4 C :   -0.312137
   5 O :    0.219934
   6 C :   -0.181197
   7 C :   -0.146270
   8 C :   -0.150970
   9 H :    0.183665
  10 H :    0.146339
  11 H :    0.131483
  12 H :    0.134808
  13 H :    0.139424
  14 H :    0.156166
  15 H :    0.143310

  Mayer bond orders larger than 0.1
B(  0-O ,  1-C ) :   0.9719 B(  0-O ,  9-H ) :   0.8183 B(  1-C ,  2-C ) :   0.9372
B(  1-C ,  7-C ) :   0.8900 B(  1-C , 10-H ) :   0.9197 B(  2-C ,  3-N ) :   0.8381
B(  2-C , 11-H ) :   0.9133 B(  2-C , 12-H ) :   0.9324 B(  3-N ,  4-C ) :   1.8001
B(  4-C ,  5-O ) :   1.0501 B(  4-C ,  8-C ) :   0.9385 B(  5-O ,  6-C ) :   0.8969
B(  6-C ,  7-C ) :   0.8503 B(  6-C ,  8-C ) :   0.8966 B(  6-C , 13-H ) :   0.9173
B(  7-C ,  8-C ) :   0.8111 B(  7-C , 14-H ) :   0.9154 B(  8-C , 15-H ) :   0.8942

MP2 TOTAL ENERGY:     -437.073641376 Eh
FINAL SINGLE POINT ENERGY      -437.073641375695

DIPOLE MOMENT
-------------
                                X             Y             Z
Electronic contribution:     -2.04902       1.85874       3.54373
Nuclear contribution   :      1.55316      -3.17779      -4.15576
                        -----------------------------------------
Total Dipole Moment    :     -0.49586      -1.31905      -0.61203
                        -----------------------------------------
Magnitude (a.u.)       :      1.53635
Magnitude (Debye)      :      3.90508

                             ****ORCA TERMINATED NORMALLY****
TOTAL RUN TIME: 0 days 0 hours 18 minutes 33 seconds 131 msec
