                         Program Version 3.0.3 - RELEASE   -
|  1> ! RI-MP2 RIJK def2-TZVP def2-TZVP/C def2-TZVP/JK TIGHTSCF
|  2> % maxcore 2000
|  3> % mp2 density relaxed end
|  4> *xyz 0 1
|  5>  C       -0.9833559838     1.0621207190     0.2080481058
|  6>  N       -0.0716161075    -0.0645055908     0.0794122428
|  7>  C        0.9261203739    -0.2347193000     0.9996972823
|  8>  O        1.0740085712     0.4236764564     2.0081055864
|  9>  C       -0.0658595595    -0.7857549886    -1.1600422431
| 10>  C        0.1105306252    -2.2743814457    -1.2603050116
| 11>  C       -0.5612704788    -3.0208897176    -0.1000983317
| 12>  C       -1.9144572937    -2.3270301585    -0.4478712046
| 13>  C       -1.2331094738    -1.6129229378    -1.6227826513
| 14>  H       -0.7501661492     1.8462489692    -0.5241761498
| 15>  H       -2.0152456661     0.7366264012     0.0468191413
| 16>  H       -0.8727210536     1.4713407812     1.2121333431
| 17>  H        1.5952031018    -1.0696678428     0.7203931927
| 18>  H        0.4100903871    -0.2491335766    -1.9828432488
| 19>  H        0.8669112747    -2.6922920531    -1.9142030784
| 20>  H       -0.5974858758    -4.0971022884    -0.2803377475
| 21>  H       -0.1539153348    -2.8489043260     0.8995175560
| 22>  H       -2.6756935625    -3.0383206521    -0.7730489012
| 23>  H       -2.3453127379    -1.6814499959     0.3224538373
| 24>  H       -1.6725810968    -1.4492083130    -2.5994724796
| 25> *
| 26>
| 27>                          ****END OF INPUT****

CARTESIAN COORDINATES (ANGSTROEM)
---------------------------------
  C     -0.983356    1.062121    0.208048
  N     -0.071616   -0.064506    0.079412
  C      0.926120   -0.234719    0.999697
  O      1.074009    0.423676    2.008106
  C     -0.065860   -0.785755   -1.160042
  C      0.110531   -2.274381   -1.260305
  C     -0.561270   -3.020890   -0.100098
  C     -1.914457   -2.327030   -0.447871
  C     -1.233109   -1.612923   -1.622783
  H     -0.750166    1.846249   -0.524176
  H     -2.015246    0.736626    0.046819
  H     -0.872721    1.471341    1.212133
  H      1.595203   -1.069668    0.720393
  H      0.410090   -0.249134   -1.982843
  H      0.866911   -2.692292   -1.914203
  H     -0.597486   -4.097102   -0.280338
  H     -0.153915   -2.848904    0.899518
  H     -2.675694   -3.038321   -0.773049
  H     -2.345313   -1.681450    0.322454
  H     -1.672581   -1.449208   -2.599472

 Total Charge           Charge          ....    0
 Multiplicity           Mult            ....    1
 Number of Electrons    NEL             ....   68
 Basis Dimension        Dim             ....  345

ORBITAL ENERGIES
----------------

  NO   OCC          E(Eh)            E(eV)
   0   2.0000     -20.517837      -558.3187
   1   2.0000     -15.587335      -424.1529
   2   2.0000     -11.341050      -308.6057
   3   2.0000     -11.281016      -306.9721
   4   2.0000     -11.255327      -306.2730
   5   2.0000     -11.249927      -306.1261
   6   2.0000     -11.247136      -306.0501
   7   2.0000     -11.237258      -305.7813
   8   2.0000     -11.236061      -305.7488
   9   2.0000      -1.378675       -37.5156
  10   2.0000      -1.264169       -34.3998
  11   2.0000      -1.180579       -32.1252
  12   2.0000      -1.001416       -27.2499
  13   2.0000      -0.959850       -26.1188
  14   2.0000      -0.904629       -24.6162
  15   2.0000      -0.847275       -23.0555
  16   2.0000      -0.762574       -20.7507
  17   2.0000      -0.746989       -20.3266
  18   2.0000      -0.717541       -19.5253
  19   2.0000      -0.689825       -18.7711
  20   2.0000      -0.647597       -17.6220
  21   2.0000      -0.642684       -17.4883
  22   2.0000      -0.601721       -16.3737
  23   2.0000      -0.587822       -15.9954
  24   2.0000      -0.560807       -15.2603
  25   2.0000      -0.550191       -14.9714
  26   2.0000      -0.534073       -14.5329
  27   2.0000      -0.526345       -14.3226
  28   2.0000      -0.491054       -13.3623
  29   2.0000      -0.478190       -13.0122
  30   2.0000      -0.439549       -11.9607
  31   2.0000      -0.418276       -11.3819
  32   2.0000      -0.408913       -11.1271
  33   2.0000      -0.367634       -10.0038
  34   0.0000       0.131859         3.5881
  35   0.0000       0.147133         4.0037
  36   0.0000       0.148587         4.0433
  37   0.0000       0.163325         4.4443
  38   0.0000       0.176542         4.8040

MULLIKEN ATOMIC CHARGES
-----------------------
   0 C :   -0.331606
   1 N :   -0.072782
   2 C :    0.129169
   3 O :   -0.360901
   4 C :   -0.132375
   5 C :   -0.135304
   6 C :   -0.223553
   7 C :   -0.217976
   8 C :   -0.106233
   9 H :    0.134240
  10 H :    0.136062
  11 H :    0.179993
  12 H :    0.101776
  13 H :    0.123988
  14 H :    0.137066
  15 H :    0.127490
  16 H :    0.127452
  17 H :    0.129077
  18 H :    0.116826
  19 H :    0.137590
Sum of atomic charges:    0.0000000

LOEWDIN ATOMIC CHARGES
----------------------
   0 C :   -0.282068
   1 N :    0.164979
   2 C :   -0.410700
   3 O :    0.056405
   4 C :   -0.224197
   5 C :   -0.163452
   6 C :   -0.213979
   7 C :   -0.213906
   8 C :   -0.162756
   9 H :    0.117838
  10 H :    0.118731
  11 H :    0.134510
  12 H :    0.120713
  13 H :    0.154173
  14 H :    0.136516
  15 H :    0.137041
  16 H :    0.129265
  17 H :    0.135905
  18 H :    0.129153
  19 H :    0.135829

  Mayer bond orders larger than 0.1
B(  0-C ,  1-N ) :   0.8657 B(  0-C ,  9-H ) :   0.9339 B(  0-C , 10-H ) :   0.9327
B(  0-C , 11-H ) :   0.9193 B(  1-N ,  2-C ) :   1.1030 B(  1-N ,  4-C ) :   0.9305
B(  2-C ,  3-O ) :   1.9038 B(  2-C , 12-H ) :   0.9358 B(  4-C ,  5-C ) :   0.9081
B(  4-C ,  8-C ) :   0.8899 B(  4-C , 13-H ) :   0.9364 B(  5-C ,  6-C ) :   0.9329
B(  5-C ,  8-C ) :   0.7881 B(  5-C , 14-H ) :   0.9247 B(  6-C ,  7-C ) :   0.9780
B(  6-C , 15-H ) :   0.9291 B(  6-C , 16-H ) :   0.9211 B(  7-C ,  8-C ) :   0.9328
B(  7-C , 17-H ) :   0.9287 B(  7-C , 18-H ) :   0.9191 B(  8-C , 19-H ) :   0.9229

MP2 TOTAL ENERGY:     -402.443908810 Eh
FINAL SINGLE POINT ENERGY      -402.443908809700

DIPOLE MOMENT
-------------
                                X             Y             Z
Electronic contribution:      3.99464       1.93466       2.16310
Nuclear contribution   :     -4.64825      -2.53262      -3.52453
                        -----------------------------------------
Total Dipole Moment    :     -0.65361      -0.59796      -1.36143
                        -----------------------------------------
Magnitude (a.u.)       :      1.62427
Magnitude (Debye)      :      4.12856

                             ****ORCA TERMINATED NORMALLY****
TOTAL RUN TIME: 0 days 0 hours 21 minutes 14 seconds 53 msec
