                         Program Version 3.0.3 - RELEASE   -
|  1> ! RI-MP2 RIJK def2-TZVP def2-TZVP/C def2-TZVP/JK TIGHTSCF
|  2> % maxcore 2000
|  3> % mp2 density relaxed end
|  4> *xyz 0 1
|  5>  C       -0.0065208629    -1.1893410929    -0.0134092819
|  6>  C       -0.0307402236     0.0115450899    -0.0345290311
|  7>  C       -0.0169318002     1.4670146451    -0.0567487737
|  8>  C        1.4212489775     2.0135423312     0.0461811272
|  9>  N        1.4405975664     3.4665696825     0.0127506158
| 10>  N        1.1655777517     4.1746649207    -1.0767408976
| 11>  C        1.2695767340     5.4135958167    -0.6125549034
| 12>  N        1.5908900305     5.4558040440     0.6999024551
| 13>  N        1.6938254536     4.2082554469     1.0855173431
| 14>  H       -0.0029921129    -2.2512299037     0.0043406353
| 15>  H       -0.4700255892     1.8400872529    -0.9820291512
| 16>  H       -0.6106306388     1.8665433578     0.7739380728
| 17>  H        1.8849397964     1.7213427195     0.9885161193
| 18>  H        2.0289634699     1.6446624093    -0.7823483384
| 19>  H        1.1178195078     6.2890478002    -1.2226492612
| 20> *
| 21>
| 22>                          ****END OF INPUT****

CARTESIAN COORDINATES (ANGSTROEM)
---------------------------------
  C     -0.006521   -1.189341   -0.013409
  C     -0.030740    0.011545   -0.034529
  C     -0.016932    1.467015   -0.056749
  C      1.421249    2.013542    0.046181
  N      1.440598    3.466570    0.012751
  N      1.165578    4.174665   -1.076741
  C      1.269577    5.413596   -0.612555
  N      1.590890    5.455804    0.699902
  N      1.693825    4.208255    1.085517
  H     -0.002992   -2.251230    0.004341
  H     -0.470026    1.840087   -0.982029
  H     -0.610631    1.866543    0.773938
  H      1.884940    1.721343    0.988516
  H      2.028963    1.644662   -0.782348
  H      1.117820    6.289048   -1.222649

 Total Charge           Charge          ....    0
 Multiplicity           Mult            ....    1
 Number of Electrons    NEL             ....   64
 Basis Dimension        Dim             ....  315

ORBITAL ENERGIES
----------------

  NO   OCC          E(Eh)            E(eV)
   0   2.0000     -15.706828      -427.4045
   1   2.0000     -15.669869      -426.3988
   2   2.0000     -15.628197      -425.2649
   3   2.0000     -15.610204      -424.7753
   4   2.0000     -11.308031      -307.7072
   5   2.0000     -11.303282      -307.5779
   6   2.0000     -11.278053      -306.8914
   7   2.0000     -11.249817      -306.1231
   8   2.0000     -11.238231      -305.8078
   9   2.0000      -1.504143       -40.9298
  10   2.0000      -1.270788       -34.5799
  11   2.0000      -1.199292       -32.6344
  12   2.0000      -1.102446       -29.9991
  13   2.0000      -1.025055       -27.8932
  14   2.0000      -0.944959       -25.7136
  15   2.0000      -0.884368       -24.0649
  16   2.0000      -0.842296       -22.9200
  17   2.0000      -0.748298       -20.3622
  18   2.0000      -0.733622       -19.9629
  19   2.0000      -0.701287       -19.0830
  20   2.0000      -0.665237       -18.1020
  21   2.0000      -0.649019       -17.6607
  22   2.0000      -0.619954       -16.8698
  23   2.0000      -0.576945       -15.6995
  24   2.0000      -0.574551       -15.6343
  25   2.0000      -0.549282       -14.9467
  26   2.0000      -0.501515       -13.6469
  27   2.0000      -0.473417       -12.8823
  28   2.0000      -0.441006       -12.0004
  29   2.0000      -0.414991       -11.2925
  30   2.0000      -0.403002       -10.9663
  31   2.0000      -0.395862       -10.7719
  32   0.0000       0.112161         3.0521
  33   0.0000       0.134892         3.6706
  34   0.0000       0.160598         4.3701
  35   0.0000       0.164086         4.4650
  36   0.0000       0.168819         4.5938

MULLIKEN ATOMIC CHARGES
-----------------------
   0 C :   -0.126713
   1 C :   -0.053873
   2 C :   -0.338241
   3 C :   -0.163665
   4 N :    0.243058
   5 N :   -0.268151
   6 C :    0.017845
   7 N :   -0.176634
   8 N :   -0.151115
   9 H :    0.197326
  10 H :    0.170099
  11 H :    0.162129
  12 H :    0.171122
  13 H :    0.159069
  14 H :    0.157744
Sum of atomic charges:   -0.0000000

LOEWDIN ATOMIC CHARGES
----------------------
   0 C :   -0.089311
   1 C :   -0.113303
   2 C :   -0.241232
   3 C :   -0.223569
   4 N :    0.117279
   5 N :    0.040489
   6 C :   -0.353758
   7 N :   -0.001546
   8 N :   -0.030329
   9 H :    0.129257
  10 H :    0.163411
  11 H :    0.162531
  12 H :    0.154326
  13 H :    0.150694
  14 H :    0.135061

  Mayer bond orders larger than 0.1
B(  0-C ,  1-C ) :   2.6267 B(  0-C ,  9-H ) :   0.8970 B(  1-C ,  2-C ) :   1.0652
B(  2-C ,  3-C ) :   0.9270 B(  2-C , 10-H ) :   0.9281 B(  2-C , 11-H ) :   0.9158
B(  3-C ,  4-N ) :   0.8553 B(  3-C , 12-H ) :   0.9121 B(  3-C , 13-H ) :   0.9213
B(  4-N ,  5-N ) :   1.0589 B(  4-N ,  8-N ) :   1.0822 B(  5-N ,  6-C ) :   1.3995
B(  5-N ,  8-N ) :   0.1019 B(  6-C ,  7-N ) :   1.3715 B(  6-C , 14-H ) :   0.9308
B(  7-N ,  8-N ) :   1.2234

MP2 TOTAL ENERGY:     -412.231810329 Eh
FINAL SINGLE POINT ENERGY      -412.231810328928

DIPOLE MOMENT
-------------
                                X             Y             Z
Electronic contribution:      1.51321       4.63450       0.59283
Nuclear contribution   :     -1.73101      -5.50356      -1.17853
                        -----------------------------------------
Total Dipole Moment    :     -0.21779      -0.86905      -0.58570
                        -----------------------------------------
Magnitude (a.u.)       :      1.07039
Magnitude (Debye)      :      2.72072

                             ****ORCA TERMINATED NORMALLY****
TOTAL RUN TIME: 0 days 0 hours 12 minutes 16 seconds 140 msec
