                         Program Version 3.0.3 - RELEASE   -
|  1> ! RI-MP2 RIJK def2-TZVP def2-TZVP/C def2-TZVP/JK TIGHTSCF
|  2> % maxcore 2000
|  3> % mp2 density relaxed end
|  4> *xyz 0 1
|  5>  C       -0.1077925414     1.5939755919     0.0843176017
|  6>  C       -0.0195809396     0.0661698518    -0.0189459246
|  7>  C       -1.4115518838    -0.5653952833     0.0450798431
|  8>  O       -1.9967854571    -0.2392715134     1.2969434116
|  9>  C        0.7089714551    -0.4059224552    -1.2895537961
| 10>  C        2.1887596956    -0.0273348937    -1.3584685022
| 11>  O        2.9292966126    -0.5140363804    -0.2301731440
| 12>  C        2.8702659590    -0.5167468648    -2.6394827283
| 13>  O        4.2455760154    -0.2047547168    -2.6304615404
| 14>  H        0.8800759228     2.0512334919     0.1861404315
| 15>  H       -0.5873582258     2.0195361943    -0.8063324567
| 16>  H       -0.7032220002     1.8750004273     0.9553919708
| 17>  H        0.5385925026    -0.3054353801     0.8493992867
| 18>  H       -2.0260871856    -0.1900880601    -0.7910306853
| 19>  H       -1.3276826813    -1.6580255648    -0.0763210353
| 20>  H       -2.9035477259    -0.5582390560     1.2994891451
| 21>  H        0.6304163295    -1.5013099006    -1.3702952772
| 22>  H        0.2060078395    -0.0003884413    -2.1786155547
| 23>  H        2.3094210107     1.0599405572    -1.3071477178
| 24>  H        2.7494309327    -1.4587418383    -0.1487054783
| 25>  H        2.7033178556    -1.6060004412    -2.7417439909
| 26>  H        2.4256762610    -0.0356287766    -3.5179039620
| 27>  H        4.5342148286    -0.3677039779    -1.7225181067
| 28> *
| 29>
| 30>                          ****END OF INPUT****

CARTESIAN COORDINATES (ANGSTROEM)
---------------------------------
  C     -0.107793    1.593976    0.084318
  C     -0.019581    0.066170   -0.018946
  C     -1.411552   -0.565395    0.045080
  O     -1.996785   -0.239272    1.296943
  C      0.708971   -0.405922   -1.289554
  C      2.188760   -0.027335   -1.358469
  O      2.929297   -0.514036   -0.230173
  C      2.870266   -0.516747   -2.639483
  O      4.245576   -0.204755   -2.630462
  H      0.880076    2.051233    0.186140
  H     -0.587358    2.019536   -0.806332
  H     -0.703222    1.875000    0.955392
  H      0.538593   -0.305435    0.849399
  H     -2.026087   -0.190088   -0.791031
  H     -1.327683   -1.658026   -0.076321
  H     -2.903548   -0.558239    1.299489
  H      0.630416   -1.501310   -1.370295
  H      0.206008   -0.000388   -2.178616
  H      2.309421    1.059941   -1.307148
  H      2.749431   -1.458742   -0.148705
  H      2.703318   -1.606000   -2.741744
  H      2.425676   -0.035629   -3.517904
  H      4.534215   -0.367704   -1.722518

 Total Charge           Charge          ....    0
 Multiplicity           Mult            ....    1
 Number of Electrons    NEL             ....   74
 Basis Dimension        Dim             ....  363

ORBITAL ENERGIES
----------------

  NO   OCC          E(Eh)            E(eV)
   0   2.0000     -20.568988      -559.7106
   1   2.0000     -20.559181      -559.4438
   2   2.0000     -20.548231      -559.1458
   3   2.0000     -11.285493      -307.0939
   4   2.0000     -11.279082      -306.9194
   5   2.0000     -11.275191      -306.8135
   6   2.0000     -11.234638      -305.7100
   7   2.0000     -11.230398      -305.5947
   8   2.0000     -11.208874      -305.0090
   9   2.0000      -1.381712       -37.5983
  10   2.0000      -1.363919       -37.1141
  11   2.0000      -1.347500       -36.6673
  12   2.0000      -1.095297       -29.8046
  13   2.0000      -1.015610       -27.6362
  14   2.0000      -0.927611       -25.2416
  15   2.0000      -0.912182       -24.8217
  16   2.0000      -0.832915       -22.6648
  17   2.0000      -0.778390       -21.1811
  18   2.0000      -0.710937       -19.3456
  19   2.0000      -0.694730       -18.9046
  20   2.0000      -0.667474       -18.1629
  21   2.0000      -0.659433       -17.9441
  22   2.0000      -0.640540       -17.4300
  23   2.0000      -0.622156       -16.9297
  24   2.0000      -0.600639       -16.3442
  25   2.0000      -0.582999       -15.8642
  26   2.0000      -0.563330       -15.3290
  27   2.0000      -0.551504       -15.0072
  28   2.0000      -0.536480       -14.5984
  29   2.0000      -0.520420       -14.1614
  30   2.0000      -0.501092       -13.6354
  31   2.0000      -0.487714       -13.2714
  32   2.0000      -0.479908       -13.0590
  33   2.0000      -0.464226       -12.6322
  34   2.0000      -0.456310       -12.4168
  35   2.0000      -0.445719       -12.1286
  36   2.0000      -0.427349       -11.6288
  37   0.0000       0.121689         3.3113
  38   0.0000       0.136676         3.7191
  39   0.0000       0.153087         4.1657
  40   0.0000       0.164845         4.4857
  41   0.0000       0.175534         4.7765

MULLIKEN ATOMIC CHARGES
-----------------------
   0 C :   -0.445119
   1 C :    0.059541
   2 C :   -0.063220
   3 O :   -0.466442
   4 C :   -0.353745
   5 C :    0.037231
   6 O :   -0.494570
   7 C :    0.019925
   8 O :   -0.477235
   9 H :    0.142265
  10 H :    0.112830
  11 H :    0.160591
  12 H :    0.086278
  13 H :    0.092234
  14 H :    0.095278
  15 H :    0.316372
  16 H :    0.117327
  17 H :    0.120770
  18 H :    0.106728
  19 H :    0.319128
  20 H :    0.078530
  21 H :    0.107049
  22 H :    0.328253
Sum of atomic charges:    0.0000000

LOEWDIN ATOMIC CHARGES
----------------------
   0 C :   -0.291592
   1 C :   -0.288268
   2 C :   -0.332360
   3 O :   -0.045656
   4 C :   -0.237738
   5 C :   -0.355579
   6 O :   -0.028264
   7 C :   -0.345082
   8 O :   -0.047501
   9 H :    0.123691
  10 H :    0.121821
  11 H :    0.130933
  12 H :    0.156914
  13 H :    0.116915
  14 H :    0.115484
  15 H :    0.172615
  16 H :    0.140399
  17 H :    0.148378
  18 H :    0.148317
  19 H :    0.176300
  20 H :    0.114164
  21 H :    0.129768
  22 H :    0.176343

  Mayer bond orders larger than 0.1
B(  0-C ,  1-C ) :   0.9126 B(  0-C ,  9-H ) :   0.9396 B(  0-C , 10-H ) :   0.9297
B(  0-C , 11-H ) :   0.9338 B(  1-C ,  2-C ) :   0.9173 B(  1-C ,  4-C ) :   0.8947
B(  1-C , 12-H ) :   0.9149 B(  2-C ,  3-O ) :   1.0244 B(  2-C , 13-H ) :   0.9191
B(  2-C , 14-H ) :   0.9350 B(  3-O , 15-H ) :   0.8477 B(  4-C ,  5-C ) :   0.9501
B(  4-C , 16-H ) :   0.9209 B(  4-C , 17-H ) :   0.9180 B(  5-C ,  6-O ) :   0.8481
B(  5-C ,  7-C ) :   0.9726 B(  5-C , 18-H ) :   0.9235 B(  6-O , 19-H ) :   0.8381
B(  7-C ,  8-O ) :   0.9508 B(  7-C , 20-H ) :   0.9020 B(  7-C , 21-H ) :   0.9284
B(  8-O , 22-H ) :   0.8233

MP2 TOTAL ENERGY:     -461.835607772 Eh
FINAL SINGLE POINT ENERGY      -461.835607772180

DIPOLE MOMENT
-------------
                                X             Y             Z
Electronic contribution:      3.97837      -1.52396       0.88452
Nuclear contribution   :     -5.13693       0.75346      -0.99984
                        -----------------------------------------
Total Dipole Moment    :     -1.15856      -0.77051      -0.11532
                        -----------------------------------------
Magnitude (a.u.)       :      1.39615
Magnitude (Debye)      :      3.54873

                             ****ORCA TERMINATED NORMALLY****
TOTAL RUN TIME: 0 days 0 hours 16 minutes 48 seconds 678 msec
