                         Program Version 3.0.3 - RELEASE   -
|  1> ! RI-MP2 RIJK def2-TZVP def2-TZVP/C def2-TZVP/JK TIGHTSCF
|  2> % maxcore 2000
|  3> % mp2 density relaxed end
|  4> *xyz 0 1
|  5>  O       -0.0287107615     1.4378446392     0.1207449139
|  6>  C       -0.0200479597     0.0390037945    -0.0455351373
|  7>  C       -1.3792999632    -0.6327429786    -0.0356705388
|  8>  C       -2.0359499033    -0.5270033106    -1.4158146432
|  9>  O       -1.6832347642     0.5149598966    -2.2894855158
| 10>  C       -0.2760094832     0.3899877310    -2.5488995448
| 11>  C        0.2465136283    -0.5625878412    -1.4739905852
| 12>  C       -0.9561880768    -1.5203626045    -1.2118020827
| 13>  O       -0.9859371962    -2.8942397479    -1.3059597736
| 14>  H        0.8759192958     1.7336574732     0.2628726668
| 15>  H        0.6388355098    -0.4431126347     0.6886201868
| 16>  H       -1.9640824825    -0.8868424633     0.8411082775
| 17>  H       -3.0748645205    -0.8268183751    -1.4854507258
| 18>  H       -0.1103555791    -0.0069906288    -3.5622679481
| 19>  H        0.1702646859     1.3863040896    -2.4765794116
| 20>  H        1.2298872433    -0.9916707664    -1.6635148452
| 21>  H       -1.2169171927    -3.1345170430    -2.2102687827
| 22> *
| 23>
| 24>                          ****END OF INPUT****

CARTESIAN COORDINATES (ANGSTROEM)
---------------------------------
  O     -0.028711    1.437845    0.120745
  C     -0.020048    0.039004   -0.045535
  C     -1.379300   -0.632743   -0.035671
  C     -2.035950   -0.527003   -1.415815
  O     -1.683235    0.514960   -2.289486
  C     -0.276009    0.389988   -2.548900
  C      0.246514   -0.562588   -1.473991
  C     -0.956188   -1.520363   -1.211802
  O     -0.985937   -2.894240   -1.305960
  H      0.875919    1.733657    0.262873
  H      0.638836   -0.443113    0.688620
  H     -1.964082   -0.886842    0.841108
  H     -3.074865   -0.826818   -1.485451
  H     -0.110356   -0.006991   -3.562268
  H      0.170265    1.386304   -2.476579
  H      1.229887   -0.991671   -1.663515
  H     -1.216917   -3.134517   -2.210269

 Total Charge           Charge          ....    0
 Multiplicity           Mult            ....    1
 Number of Electrons    NEL             ....   68
 Basis Dimension        Dim             ....  327

ORBITAL ENERGIES
----------------

  NO   OCC          E(Eh)            E(eV)
   0   2.0000     -20.580361      -560.0201
   1   2.0000     -20.558911      -559.4364
   2   2.0000     -20.553057      -559.2771
   3   2.0000     -11.294389      -307.3360
   4   2.0000     -11.292133      -307.2746
   5   2.0000     -11.284963      -307.0794
   6   2.0000     -11.274981      -306.8078
   7   2.0000     -11.240216      -305.8618
   8   2.0000     -11.233943      -305.6911
   9   2.0000      -1.399286       -38.0765
  10   2.0000      -1.378124       -37.5006
  11   2.0000      -1.363608       -37.1057
  12   2.0000      -1.174172       -31.9509
  13   2.0000      -1.024228       -27.8707
  14   2.0000      -0.920278       -25.0420
  15   2.0000      -0.854094       -23.2411
  16   2.0000      -0.805049       -21.9065
  17   2.0000      -0.746943       -20.3254
  18   2.0000      -0.733903       -19.9705
  19   2.0000      -0.701513       -19.0891
  20   2.0000      -0.672295       -18.2941
  21   2.0000      -0.638970       -17.3873
  22   2.0000      -0.620993       -16.8981
  23   2.0000      -0.607318       -16.5260
  24   2.0000      -0.579075       -15.7574
  25   2.0000      -0.569399       -15.4941
  26   2.0000      -0.561721       -15.2852
  27   2.0000      -0.514589       -14.0027
  28   2.0000      -0.510423       -13.8893
  29   2.0000      -0.477199       -12.9853
  30   2.0000      -0.453770       -12.3477
  31   2.0000      -0.434268       -11.8170
  32   2.0000      -0.398894       -10.8545
  33   2.0000      -0.361245        -9.8300
  34   0.0000       0.124412         3.3854
  35   0.0000       0.139473         3.7953
  36   0.0000       0.169408         4.6098
  37   0.0000       0.175918         4.7870
  38   0.0000       0.179578         4.8866

MULLIKEN ATOMIC CHARGES
-----------------------
   0 O :   -0.451967
   1 C :   -0.001372
   2 C :   -0.123831
   3 C :   -0.011412
   4 O :   -0.311104
   5 C :    0.008737
   6 C :   -0.057754
   7 C :    0.050850
   8 O :   -0.445732
   9 H :    0.314046
  10 H :    0.100969
  11 H :    0.138957
  12 H :    0.134549
  13 H :    0.094067
  14 H :    0.090392
  15 H :    0.137243
  16 H :    0.333363
Sum of atomic charges:    0.0000000

LOEWDIN ATOMIC CHARGES
----------------------
   0 O :   -0.004260
   1 C :   -0.295063
   2 C :   -0.117613
   3 C :   -0.249651
   4 O :    0.176740
   5 C :   -0.266520
   6 C :   -0.172881
   7 C :   -0.290624
   8 O :    0.034160
   9 H :    0.175258
  10 H :    0.139748
  11 H :    0.140455
  12 H :    0.148703
  13 H :    0.120031
  14 H :    0.127371
  15 H :    0.144514
  16 H :    0.189632

  Mayer bond orders larger than 0.1
B(  0-O ,  1-C ) :   1.1461 B(  0-O ,  9-H ) :   0.8432 B(  1-C ,  2-C ) :   0.9228
B(  1-C ,  6-C ) :   0.8882 B(  1-C , 10-H ) :   0.9546 B(  2-C ,  3-C ) :   0.8273
B(  2-C ,  7-C ) :   0.7860 B(  2-C , 11-H ) :   0.9012 B(  3-C ,  4-O ) :   0.9833
B(  3-C ,  7-C ) :   0.9377 B(  3-C , 12-H ) :   0.9386 B(  4-O ,  5-C ) :   0.9304
B(  5-C ,  6-C ) :   0.9456 B(  5-C , 13-H ) :   0.9256 B(  5-C , 14-H ) :   0.8970
B(  6-C ,  7-C ) :   0.8708 B(  6-C , 15-H ) :   0.9068 B(  7-C ,  8-O ) :   1.0246
B(  8-O , 16-H ) :   0.8316

MP2 TOTAL ENERGY:     -458.188489131 Eh
FINAL SINGLE POINT ENERGY      -458.188489131270

DIPOLE MOMENT
-------------
                                X             Y             Z
Electronic contribution:     -1.80629      -0.55650       0.22065
Nuclear contribution   :      2.59942       0.07923      -0.45251
                        -----------------------------------------
Total Dipole Moment    :      0.79313      -0.47726      -0.23186
                        -----------------------------------------
Magnitude (a.u.)       :      0.95425
Magnitude (Debye)      :      2.42552

                             ****ORCA TERMINATED NORMALLY****
TOTAL RUN TIME: 0 days 0 hours 15 minutes 37 seconds 36 msec
