                         Program Version 3.0.3 - RELEASE   -
|  1> ! RI-MP2 RIJK def2-TZVP def2-TZVP/C def2-TZVP/JK TIGHTSCF
|  2> % maxcore 2000
|  3> % mp2 density relaxed end
|  4> *xyz 0 1
|  5>  C       -0.3487413658     1.4947652766     0.0922871318
|  6>  C       -0.0892575512     0.0226149967     0.0360920013
|  7>  C        0.1344351698    -0.7359200325    -1.0393741265
|  8>  C        0.3598179600    -2.1899976209    -0.7124713509
|  9>  C        0.0011828360    -2.2720451139     0.7967662767
| 10>  C       -0.0123605214    -0.8105698032     1.3150002932
| 11>  C        1.2692942398    -0.4328768536     2.0392522026
| 12>  O        1.3402103194     0.3391387482     2.9604641173
| 13>  H        0.3626958798     1.9994908803     0.7563603695
| 14>  H       -0.2829271341     1.9516910314    -0.8985523855
| 15>  H       -1.3471502332     1.7012355770     0.4985023128
| 16>  H        0.1570764622    -0.3569784019    -2.0562427341
| 17>  H       -0.2593256994    -2.8591978490    -1.3212971331
| 18>  H        1.4004199710    -2.4839345680    -0.9054346479
| 19>  H       -0.9949839890    -2.7032857373     0.9247230060
| 20>  H        0.6954602027    -2.9049470836     1.3583202182
| 21>  H       -0.8432401258    -0.5935655414     1.9951314172
| 22>  H        2.1857037193    -0.9084298447     1.6145588312
| 23> *
| 24>
| 25>                          ****END OF INPUT****

CARTESIAN COORDINATES (ANGSTROEM)
---------------------------------
  C     -0.348741    1.494765    0.092287
  C     -0.089258    0.022615    0.036092
  C      0.134435   -0.735920   -1.039374
  C      0.359818   -2.189998   -0.712471
  C      0.001183   -2.272045    0.796766
  C     -0.012361   -0.810570    1.315000
  C      1.269294   -0.432877    2.039252
  O      1.340210    0.339139    2.960464
  H      0.362696    1.999491    0.756360
  H     -0.282927    1.951691   -0.898552
  H     -1.347150    1.701236    0.498502
  H      0.157076   -0.356978   -2.056243
  H     -0.259326   -2.859198   -1.321297
  H      1.400420   -2.483935   -0.905435
  H     -0.994984   -2.703286    0.924723
  H      0.695460   -2.904947    1.358320
  H     -0.843240   -0.593566    1.995131
  H      2.185704   -0.908430    1.614559

 Total Charge           Charge          ....    0
 Multiplicity           Mult            ....    1
 Number of Electrons    NEL             ....   60
 Basis Dimension        Dim             ....  308

ORBITAL ENERGIES
----------------

  NO   OCC          E(Eh)            E(eV)
   0   2.0000     -20.554244      -559.3094
   1   2.0000     -11.328400      -308.2614
   2   2.0000     -11.245051      -305.9934
   3   2.0000     -11.243623      -305.9545
   4   2.0000     -11.237789      -305.7958
   5   2.0000     -11.235277      -305.7274
   6   2.0000     -11.230281      -305.5915
   7   2.0000     -11.226152      -305.4791
   8   2.0000      -1.393644       -37.9230
   9   2.0000      -1.154629       -31.4190
  10   2.0000      -1.021804       -27.8047
  11   2.0000      -0.998508       -27.1708
  12   2.0000      -0.918836       -25.0028
  13   2.0000      -0.839845       -22.8534
  14   2.0000      -0.785437       -21.3728
  15   2.0000      -0.724097       -19.7037
  16   2.0000      -0.665902       -18.1201
  17   2.0000      -0.653508       -17.7828
  18   2.0000      -0.636952       -17.3324
  19   2.0000      -0.597286       -16.2530
  20   2.0000      -0.592291       -16.1170
  21   2.0000      -0.567585       -15.4448
  22   2.0000      -0.533739       -14.5238
  23   2.0000      -0.526783       -14.3345
  24   2.0000      -0.511967       -13.9313
  25   2.0000      -0.497467       -13.5368
  26   2.0000      -0.492842       -13.4109
  27   2.0000      -0.472483       -12.8569
  28   2.0000      -0.421768       -11.4769
  29   2.0000      -0.346220        -9.4211
  30   0.0000       0.122089         3.3222
  31   0.0000       0.133869         3.6428
  32   0.0000       0.150779         4.1029
  33   0.0000       0.161422         4.3925
  34   0.0000       0.166554         4.5322

MULLIKEN ATOMIC CHARGES
-----------------------
   0 C :   -0.432217
   1 C :   -0.033439
   2 C :   -0.191038
   3 C :   -0.171181
   4 C :   -0.307481
   5 C :    0.111061
   6 C :    0.028390
   7 O :   -0.262084
   8 H :    0.155236
   9 H :    0.136634
  10 H :    0.142668
  11 H :    0.127296
  12 H :    0.121555
  13 H :    0.118272
  14 H :    0.127751
  15 H :    0.138596
  16 H :    0.108385
  17 H :    0.081596
Sum of atomic charges:    0.0000000

LOEWDIN ATOMIC CHARGES
----------------------
   0 C :   -0.267918
   1 C :   -0.170066
   2 C :   -0.135721
   3 C :   -0.241191
   4 C :   -0.210536
   5 C :   -0.204552
   6 C :   -0.270600
   7 O :    0.132750
   8 H :    0.136178
   9 H :    0.130930
  10 H :    0.134111
  11 H :    0.139441
  12 H :    0.136683
  13 H :    0.138588
  14 H :    0.141810
  15 H :    0.136559
  16 H :    0.158981
  17 H :    0.114553

  Mayer bond orders larger than 0.1
B(  0-C ,  1-C ) :   0.9136 B(  0-C ,  8-H ) :   0.9178 B(  0-C ,  9-H ) :   0.9474
B(  0-C , 10-H ) :   0.9339 B(  1-C ,  2-C ) :   1.7329 B(  1-C ,  5-C ) :   0.8692
B(  2-C ,  3-C ) :   0.9413 B(  2-C , 11-H ) :   0.9206 B(  3-C ,  4-C ) :   0.9454
B(  3-C , 12-H ) :   0.9308 B(  3-C , 13-H ) :   0.9118 B(  4-C ,  5-C ) :   0.8707
B(  4-C , 14-H ) :   0.9262 B(  4-C , 15-H ) :   0.9448 B(  5-C ,  6-C ) :   0.8083
B(  5-C , 16-H ) :   0.9095 B(  6-C ,  7-O ) :   1.9925 B(  6-C , 17-H ) :   0.9408

MP2 TOTAL ENERGY:     -347.220137885 Eh
FINAL SINGLE POINT ENERGY      -347.220137884647

DIPOLE MOMENT
-------------
                                X             Y             Z
Electronic contribution:      1.94350       0.96295       4.05662
Nuclear contribution   :     -2.24087      -1.51276      -4.91069
                        -----------------------------------------
Total Dipole Moment    :     -0.29737      -0.54981      -0.85406
                        -----------------------------------------
Magnitude (a.u.)       :      1.05837
Magnitude (Debye)      :      2.69016

                             ****ORCA TERMINATED NORMALLY****
TOTAL RUN TIME: 0 days 0 hours 13 minutes 10 seconds 54 msec
