                         Program Version 3.0.3 - RELEASE   -
|  1> ! RI-MP2 RIJK def2-TZVP def2-TZVP/C def2-TZVP/JK TIGHTSCF
|  2> % maxcore 2000
|  3> % mp2 density relaxed end
|  4> *xyz 0 1
|  5>  C       -0.1895318413     1.5245846528     0.2375917739
|  6>  C        0.1007182837     0.0551996380     0.0338459057
|  7>  C       -1.1056559902    -0.9258414512     0.1327293103
|  8>  C       -0.5135756474    -1.5035967393     1.4528220106
|  9>  C        0.8105228572    -0.7387205834     1.1797161138
| 10>  N        1.7983244296    -1.4506726658     0.4109475262
| 11>  C        1.9029256705    -1.0301979196    -0.8949056452
| 12>  O        2.7015622056    -1.3763999229    -1.7196362977
| 13>  O        0.9078554220    -0.1173838536    -1.1366055925
| 14>  H        0.7407160537     2.0942194896     0.3195486794
| 15>  H       -0.7626870469     1.9185499302    -0.6071676483
| 16>  H       -0.7753166310     1.6768299995     1.1495356334
| 17>  H       -2.0919195848    -0.4619120129     0.2011775262
| 18>  H       -1.1081845621    -1.6373699597    -0.6947186680
| 19>  H       -1.0220540179    -1.1351634973     2.3475804168
| 20>  H       -0.4250594369    -2.5893843983     1.5176580142
| 21>  H        1.2451567451    -0.1776504808     2.0141169737
| 22>  H        2.5343649312    -2.0127300954     0.8022329976
| 23> *
| 24>
| 25>                          ****END OF INPUT****

CARTESIAN COORDINATES (ANGSTROEM)
---------------------------------
  C     -0.189532    1.524585    0.237592
  C      0.100718    0.055200    0.033846
  C     -1.105656   -0.925841    0.132729
  C     -0.513576   -1.503597    1.452822
  C      0.810523   -0.738721    1.179716
  N      1.798324   -1.450673    0.410948
  C      1.902926   -1.030198   -0.894906
  O      2.701562   -1.376400   -1.719636
  O      0.907855   -0.117384   -1.136606
  H      0.740716    2.094219    0.319549
  H     -0.762687    1.918550   -0.607168
  H     -0.775317    1.676830    1.149536
  H     -2.091920   -0.461912    0.201178
  H     -1.108185   -1.637370   -0.694719
  H     -1.022054   -1.135163    2.347580
  H     -0.425059   -2.589384    1.517658
  H      1.245157   -0.177650    2.014117
  H      2.534365   -2.012730    0.802233

 Total Charge           Charge          ....    0
 Multiplicity           Mult            ....    1
 Number of Electrons    NEL             ....   68
 Basis Dimension        Dim             ....  333

ORBITAL ENERGIES
----------------

  NO   OCC          E(Eh)            E(eV)
   0   2.0000     -20.595830      -560.4410
   1   2.0000     -20.520797      -558.3993
   2   2.0000     -15.591948      -424.2785
   3   2.0000     -11.397137      -310.1319
   4   2.0000     -11.311553      -307.8030
   5   2.0000     -11.287586      -307.1508
   6   2.0000     -11.242571      -305.9259
   7   2.0000     -11.239034      -305.8297
   8   2.0000     -11.235190      -305.7251
   9   2.0000      -1.463646       -39.8278
  10   2.0000      -1.361117       -37.0379
  11   2.0000      -1.245951       -33.9041
  12   2.0000      -1.132298       -30.8114
  13   2.0000      -1.006456       -27.3871
  14   2.0000      -0.924037       -25.1443
  15   2.0000      -0.879226       -23.9250
  16   2.0000      -0.835939       -22.7470
  17   2.0000      -0.787916       -21.4403
  18   2.0000      -0.714349       -19.4384
  19   2.0000      -0.694543       -18.8995
  20   2.0000      -0.654080       -17.7984
  21   2.0000      -0.636200       -17.3119
  22   2.0000      -0.618599       -16.8329
  23   2.0000      -0.603328       -16.4174
  24   2.0000      -0.581369       -15.8199
  25   2.0000      -0.574454       -15.6317
  26   2.0000      -0.566251       -15.4085
  27   2.0000      -0.532058       -14.4780
  28   2.0000      -0.508201       -13.8288
  29   2.0000      -0.503676       -13.7057
  30   2.0000      -0.456502       -12.4221
  31   2.0000      -0.448008       -12.1909
  32   2.0000      -0.435828       -11.8595
  33   2.0000      -0.399749       -10.8777
  34   0.0000       0.121532         3.3071
  35   0.0000       0.143011         3.8915
  36   0.0000       0.156105         4.2478
  37   0.0000       0.164917         4.4876
  38   0.0000       0.182874         4.9762

MULLIKEN ATOMIC CHARGES
-----------------------
   0 C :   -0.430366
   1 C :    0.253735
   2 C :   -0.291913
   3 C :   -0.202720
   4 C :   -0.016229
   5 N :   -0.374486
   6 C :    0.326134
   7 O :   -0.324672
   8 O :   -0.246727
   9 H :    0.140693
  10 H :    0.150004
  11 H :    0.131231
  12 H :    0.128821
  13 H :    0.140405
  14 H :    0.123358
  15 H :    0.119680
  16 H :    0.123292
  17 H :    0.249759
Sum of atomic charges:    0.0000000

LOEWDIN ATOMIC CHARGES
----------------------
   0 C :   -0.263464
   1 C :   -0.302092
   2 C :   -0.192352
   3 C :   -0.218593
   4 C :   -0.221284
   5 N :    0.121527
   6 C :   -0.566232
   7 O :    0.097343
   8 O :    0.278039
   9 H :    0.132383
  10 H :    0.135457
  11 H :    0.132493
  12 H :    0.131879
  13 H :    0.143885
  14 H :    0.134543
  15 H :    0.130594
  16 H :    0.136093
  17 H :    0.189780

  Mayer bond orders larger than 0.1
B(  0-C ,  1-C ) :   0.9275 B(  0-C ,  9-H ) :   0.9346 B(  0-C , 10-H ) :   0.9358
B(  0-C , 11-H ) :   0.9291 B(  1-C ,  2-C ) :   0.8931 B(  1-C ,  4-C ) :   0.8691
B(  1-C ,  8-O ) :   0.9263 B(  2-C ,  3-C ) :   0.9485 B(  2-C , 12-H ) :   0.9302
B(  2-C , 13-H ) :   0.9094 B(  3-C ,  4-C ) :   0.9279 B(  3-C , 14-H ) :   0.9179
B(  3-C , 15-H ) :   0.9184 B(  4-C ,  5-N ) :   0.9307 B(  4-C , 16-H ) :   0.9377
B(  5-N ,  6-C ) :   1.1169 B(  5-N , 17-H ) :   0.8713 B(  6-C ,  7-O ) :   2.0407
B(  6-C ,  8-O ) :   1.0609

MP2 TOTAL ENERGY:     -438.418319075 Eh
FINAL SINGLE POINT ENERGY      -438.418319075203

DIPOLE MOMENT
-------------
                                X             Y             Z
Electronic contribution:      6.78635      -2.78613      -5.24593
Nuclear contribution   :     -7.72283       2.99144       7.04823
                        -----------------------------------------
Total Dipole Moment    :     -0.93648       0.20531       1.80230
                        -----------------------------------------
Magnitude (a.u.)       :      2.04143
Magnitude (Debye)      :      5.18890

                             ****ORCA TERMINATED NORMALLY****
TOTAL RUN TIME: 0 days 0 hours 17 minutes 20 seconds 296 msec
