                         Program Version 3.0.3 - RELEASE   -
|  1> ! RI-MP2 RIJK def2-TZVP def2-TZVP/C def2-TZVP/JK TIGHTSCF
|  2> % maxcore 2000
|  3> % mp2 density relaxed end
|  4> *xyz 0 1
|  5>  N        0.0608648810     1.3165376795    -0.0474158768
|  6>  C        0.0056039284     0.0525544391    -0.0090112730
|  7>  N       -1.1999026973    -0.6371351504     0.0417018566
|  8>  C       -1.4477854028    -2.0863539442     0.0671647210
|  9>  C       -2.9763338684    -1.7743202349     0.0710849594
| 10>  C       -3.7427211800    -2.2476317085     1.2054492957
| 11>  N       -4.3416432121    -2.6270089655     2.1181889544
| 12>  C       -2.5441811657    -0.2622268358     0.0886790131
| 13>  O       -3.1168961527     0.7785394816     0.1135159246
| 14>  H        1.0302961181     1.6276811649    -0.0773322011
| 15>  H        0.8571449823    -0.6395236396    -0.0100670382
| 16>  H       -1.0950675633    -2.6144934362    -0.8221294514
| 17>  H       -1.0863136792    -2.5811641223     0.9714854699
| 18>  H       -3.4781994684    -2.0335741679    -0.8641497641
| 19> *
| 20>
| 21>                          ****END OF INPUT****

CARTESIAN COORDINATES (ANGSTROEM)
---------------------------------
  N      0.060865    1.316538   -0.047416
  C      0.005604    0.052554   -0.009011
  N     -1.199903   -0.637135    0.041702
  C     -1.447785   -2.086354    0.067165
  C     -2.976334   -1.774320    0.071085
  C     -3.742721   -2.247632    1.205449
  N     -4.341643   -2.627009    2.118189
  C     -2.544181   -0.262227    0.088679
  O     -3.116896    0.778539    0.113516
  H      1.030296    1.627681   -0.077332
  H      0.857145   -0.639524   -0.010067
  H     -1.095068   -2.614493   -0.822129
  H     -1.086314   -2.581164    0.971485
  H     -3.478199   -2.033574   -0.864150

 Total Charge           Charge          ....    0
 Multiplicity           Mult            ....    1
 Number of Electrons    NEL             ....   64
 Basis Dimension        Dim             ....  309

ORBITAL ENERGIES
----------------

  NO   OCC          E(Eh)            E(eV)
   0   2.0000     -20.568633      -559.7009
   1   2.0000     -15.634432      -425.4345
   2   2.0000     -15.591335      -424.2618
   3   2.0000     -15.565540      -423.5599
   4   2.0000     -11.396556      -310.1161
   5   2.0000     -11.347194      -308.7729
   6   2.0000     -11.327656      -308.2412
   7   2.0000     -11.322976      -308.1138
   8   2.0000     -11.294142      -307.3292
   9   2.0000      -1.433466       -39.0066
  10   2.0000      -1.334641       -36.3174
  11   2.0000      -1.240500       -33.7557
  12   2.0000      -1.223933       -33.3049
  13   2.0000      -1.087909       -29.6035
  14   2.0000      -0.951301       -25.8862
  15   2.0000      -0.931214       -25.3396
  16   2.0000      -0.768542       -20.9131
  17   2.0000      -0.746349       -20.3092
  18   2.0000      -0.731427       -19.9031
  19   2.0000      -0.699574       -19.0364
  20   2.0000      -0.674711       -18.3598
  21   2.0000      -0.642595       -17.4859
  22   2.0000      -0.603278       -16.4160
  23   2.0000      -0.594481       -16.1766
  24   2.0000      -0.588061       -16.0019
  25   2.0000      -0.571894       -15.5620
  26   2.0000      -0.513674       -13.9778
  27   2.0000      -0.505823       -13.7641
  28   2.0000      -0.478579       -13.0228
  29   2.0000      -0.466707       -12.6998
  30   2.0000      -0.430169       -11.7055
  31   2.0000      -0.398163       -10.8346
  32   0.0000       0.095286         2.5929
  33   0.0000       0.112697         3.0666
  34   0.0000       0.127485         3.4690
  35   0.0000       0.135937         3.6990
  36   0.0000       0.157325         4.2810

MULLIKEN ATOMIC CHARGES
-----------------------
   0 N :   -0.328092
   1 C :   -0.024698
   2 N :   -0.042283
   3 C :   -0.166060
   4 C :    0.033876
   5 C :   -0.222507
   6 N :   -0.045199
   7 C :    0.204836
   8 O :   -0.228219
   9 H :    0.229120
  10 H :    0.115854
  11 H :    0.144331
  12 H :    0.157821
  13 H :    0.171218
Sum of atomic charges:   -0.0000000

LOEWDIN ATOMIC CHARGES
----------------------
   0 N :   -0.047420
   1 C :   -0.317939
   2 N :    0.223183
   3 C :   -0.171646
   4 C :   -0.173976
   5 C :   -0.169142
   6 N :    0.079518
   7 C :   -0.355306
   8 O :    0.185383
   9 H :    0.170974
  10 H :    0.123741
  11 H :    0.132723
  12 H :    0.138374
  13 H :    0.181532

  Mayer bond orders larger than 0.1
B(  0-N ,  1-C ) :   1.9635 B(  0-N ,  9-H ) :   0.8522 B(  1-C ,  2-N ) :   0.9745
B(  1-C , 10-H ) :   0.9222 B(  2-N ,  3-C ) :   0.9066 B(  2-N ,  7-C ) :   1.0278
B(  3-C ,  4-C ) :   0.8864 B(  3-C , 11-H ) :   0.9166 B(  3-C , 12-H ) :   0.9154
B(  4-C ,  5-C ) :   0.9397 B(  4-C ,  7-C ) :   0.8540 B(  4-C , 13-H ) :   0.8881
B(  5-C ,  6-N ) :   2.8378 B(  7-C ,  8-O ) :   2.0503

MP2 TOTAL ENERGY:     -432.161289343 Eh
FINAL SINGLE POINT ENERGY      -432.161289342755

DIPOLE MOMENT
-------------
                                X             Y             Z
Electronic contribution:     -4.35590       0.98107       1.42904
Nuclear contribution   :      6.31975      -2.13389      -2.56860
                        -----------------------------------------
Total Dipole Moment    :      1.96385      -1.15283      -1.13956
                        -----------------------------------------
Magnitude (a.u.)       :      2.54643
Magnitude (Debye)      :      6.47252

                             ****ORCA TERMINATED NORMALLY****
TOTAL RUN TIME: 0 days 0 hours 13 minutes 31 seconds 605 msec
