                         Program Version 3.0.3 - RELEASE   -
|  1> ! RI-MP2 RIJK def2-TZVP def2-TZVP/C def2-TZVP/JK TIGHTSCF
|  2> % maxcore 2000
|  3> % mp2 density relaxed end
|  4> *xyz 0 1
|  5>  O       -0.1484694423     0.0735727348    -0.3862001081
|  6>  C       -0.0312750631     1.2162601323    -0.0447079957
|  7>  C        1.3105061225     1.9511633999    -0.0154207346
|  8>  C        2.5693530339     1.1487803298    -0.5161259441
|  9>  C        2.6787877434     2.1312789058    -1.6889652715
| 10>  O        1.4370587935     2.0909055558    -2.4070907575
| 11>  C        1.5108514211     2.9060537857    -1.2535166810
| 12>  C        1.4902983914     2.6396466330     1.2505485328
| 13>  N        1.6106082162     3.2004770185     2.2548051316
| 14>  H       -0.8996172167     1.8408087323     0.2523970639
| 15>  H        3.4012294302     1.2070141961     0.1862027262
| 16>  H        2.3565264448     0.1134056513    -0.7829267540
| 17>  H        3.5581639647     2.4435015108    -2.2375493744
| 18>  H        1.2419751505     3.9530036238    -1.3203516336
| 19> *
| 20>
| 21>                          ****END OF INPUT****

CARTESIAN COORDINATES (ANGSTROEM)
---------------------------------
  O     -0.148469    0.073573   -0.386200
  C     -0.031275    1.216260   -0.044708
  C      1.310506    1.951163   -0.015421
  C      2.569353    1.148780   -0.516126
  C      2.678788    2.131279   -1.688965
  O      1.437059    2.090906   -2.407091
  C      1.510851    2.906054   -1.253517
  C      1.490298    2.639647    1.250549
  N      1.610608    3.200477    2.254805
  H     -0.899617    1.840809    0.252397
  H      3.401229    1.207014    0.186203
  H      2.356526    0.113406   -0.782927
  H      3.558164    2.443502   -2.237549
  H      1.241975    3.953004   -1.320352

 Total Charge           Charge          ....    0
 Multiplicity           Mult            ....    1
 Number of Electrons    NEL             ....   64
 Basis Dimension        Dim             ....  309

ORBITAL ENERGIES
----------------

  NO   OCC          E(Eh)            E(eV)
   0   2.0000     -20.608102      -560.7750
   1   2.0000     -20.586898      -560.1980
   2   2.0000     -15.596684      -424.4074
   3   2.0000     -11.363646      -309.2205
   4   2.0000     -11.336660      -308.4862
   5   2.0000     -11.326018      -308.1966
   6   2.0000     -11.321852      -308.0833
   7   2.0000     -11.297322      -307.4158
   8   2.0000     -11.275990      -306.8353
   9   2.0000      -1.464838       -39.8603
  10   2.0000      -1.427006       -38.8308
  11   2.0000      -1.245289       -33.8860
  12   2.0000      -1.147357       -31.2212
  13   2.0000      -1.003799       -27.3148
  14   2.0000      -0.923454       -25.1285
  15   2.0000      -0.856585       -23.3089
  16   2.0000      -0.826133       -22.4802
  17   2.0000      -0.771130       -20.9835
  18   2.0000      -0.724415       -19.7123
  19   2.0000      -0.685427       -18.6514
  20   2.0000      -0.670762       -18.2524
  21   2.0000      -0.625146       -17.0111
  22   2.0000      -0.599048       -16.3009
  23   2.0000      -0.572132       -15.5685
  24   2.0000      -0.568954       -15.4820
  25   2.0000      -0.559431       -15.2229
  26   2.0000      -0.531443       -14.4613
  27   2.0000      -0.516396       -14.0518
  28   2.0000      -0.498879       -13.5752
  29   2.0000      -0.468296       -12.7430
  30   2.0000      -0.456953       -12.4343
  31   2.0000      -0.424968       -11.5640
  32   0.0000       0.099385         2.7044
  33   0.0000       0.129760         3.5310
  34   0.0000       0.136567         3.7162
  35   0.0000       0.144597         3.9347
  36   0.0000       0.164566         4.4781

MULLIKEN ATOMIC CHARGES
-----------------------
   0 O :   -0.233837
   1 C :    0.071277
   2 C :    0.349261
   3 C :   -0.239866
   4 C :   -0.046395
   5 O :   -0.299852
   6 C :   -0.015168
   7 C :   -0.296338
   8 N :   -0.039114
   9 H :    0.106208
  10 H :    0.158714
  11 H :    0.158786
  12 H :    0.155301
  13 H :    0.171021
Sum of atomic charges:   -0.0000000

LOEWDIN ATOMIC CHARGES
----------------------
   0 O :    0.173470
   1 C :   -0.235136
   2 C :   -0.217747
   3 C :   -0.143744
   4 C :   -0.221071
   5 O :    0.206045
   6 C :   -0.194459
   7 C :   -0.153245
   8 N :    0.082661
   9 H :    0.126455
  10 H :    0.150040
  11 H :    0.148471
  12 H :    0.136768
  13 H :    0.141491

  Mayer bond orders larger than 0.1
B(  0-O ,  1-C ) :   2.0023 B(  1-C ,  2-C ) :   0.8152 B(  1-C ,  9-H ) :   0.9340
B(  2-C ,  3-C ) :   0.8750 B(  2-C ,  6-C ) :   0.7931 B(  2-C ,  7-C ) :   0.9019
B(  3-C ,  4-C ) :   0.9379 B(  3-C , 10-H ) :   0.9114 B(  3-C , 11-H ) :   0.8918
B(  4-C ,  5-O ) :   0.9225 B(  4-C ,  6-C ) :   0.9251 B(  4-C , 12-H ) :   0.9263
B(  5-O ,  6-C ) :   0.9393 B(  6-C , 13-H ) :   0.9049 B(  7-C ,  8-N ) :   2.8508

MP2 TOTAL ENERGY:     -435.929438549 Eh
FINAL SINGLE POINT ENERGY      -435.929438548754

DIPOLE MOMENT
-------------
                                X             Y             Z
Electronic contribution:     -2.07863       0.28375       1.32377
Nuclear contribution   :      2.66456       0.06662      -1.98993
                        -----------------------------------------
Total Dipole Moment    :      0.58592       0.35037      -0.66616
                        -----------------------------------------
Magnitude (a.u.)       :      0.95385
Magnitude (Debye)      :      2.42450

                             ****ORCA TERMINATED NORMALLY****
TOTAL RUN TIME: 0 days 0 hours 14 minutes 24 seconds 192 msec
