                         Program Version 3.0.3 - RELEASE   -
|  1> ! RI-MP2 RIJK def2-TZVP def2-TZVP/C def2-TZVP/JK TIGHTSCF
|  2> % maxcore 2000
|  3> % mp2 density relaxed end
|  4> *xyz 0 1
|  5>  N        0.0476926922     1.2140684437     0.3864905834
|  6>  C        0.0873824552    -0.1585586177    -0.0672704829
|  7>  C       -1.2648757273    -0.8999644893    -0.2389648429
|  8>  O       -0.8748567334    -1.2591757514    -1.6189005192
|  9>  C        0.2761026345    -0.5071984047    -1.5413117763
| 10>  N        1.1197932675    -0.2001191904    -2.4183248343
| 11>  C       -1.5697295202    -2.0895860468     0.6081607556
| 12>  C       -2.4290143855    -1.9129309946     1.8392092844
| 13>  C       -2.9692775759    -2.6539701110     0.6466558882
| 14>  H        0.9938079060     1.5698144023     0.4827233650
| 15>  H       -0.4006930230     1.7999837565    -0.3128069329
| 16>  H        0.7745265667    -0.7228549730     0.5703428761
| 17>  H       -2.1153573689    -0.2090508409    -0.2746055471
| 18>  H        0.8764166907    -0.5994992059    -3.3270311503
| 19>  H       -0.7540396384    -2.8038614664     0.6796972067
| 20>  H       -2.1620575226    -2.4770271512     2.7252666582
| 21>  H       -2.8189434317    -0.9221313477     2.0462988299
| 22>  H       -3.7265950089    -2.1656015956     0.0425618418
| 23>  H       -3.0785053670    -3.7303680759     0.7114409267
| 24> *
| 25>
| 26>                          ****END OF INPUT****

CARTESIAN COORDINATES (ANGSTROEM)
---------------------------------
  N      0.047693    1.214068    0.386491
  C      0.087382   -0.158559   -0.067270
  C     -1.264876   -0.899964   -0.238965
  O     -0.874857   -1.259176   -1.618901
  C      0.276103   -0.507198   -1.541312
  N      1.119793   -0.200119   -2.418325
  C     -1.569730   -2.089586    0.608161
  C     -2.429014   -1.912931    1.839209
  C     -2.969278   -2.653970    0.646656
  H      0.993808    1.569814    0.482723
  H     -0.400693    1.799984   -0.312807
  H      0.774527   -0.722855    0.570343
  H     -2.115357   -0.209051   -0.274606
  H      0.876417   -0.599499   -3.327031
  H     -0.754040   -2.803861    0.679697
  H     -2.162058   -2.477027    2.725267
  H     -2.818943   -0.922131    2.046299
  H     -3.726595   -2.165602    0.042562
  H     -3.078505   -3.730368    0.711441

 Total Charge           Charge          ....    0
 Multiplicity           Mult            ....    1
 Number of Electrons    NEL             ....   68
 Basis Dimension        Dim             ....  339

ORBITAL ENERGIES
----------------

  NO   OCC          E(Eh)            E(eV)
   0   2.0000     -20.587312      -560.2092
   1   2.0000     -15.561555      -423.4514
   2   2.0000     -15.536686      -422.7747
   3   2.0000     -11.332876      -308.3832
   4   2.0000     -11.303644      -307.5878
   5   2.0000     -11.281481      -306.9847
   6   2.0000     -11.244406      -305.9758
   7   2.0000     -11.238749      -305.8219
   8   2.0000     -11.236949      -305.7729
   9   2.0000      -1.429358       -38.8948
  10   2.0000      -1.204740       -32.7827
  11   2.0000      -1.191776       -32.4299
  12   2.0000      -1.155921       -31.4542
  13   2.0000      -1.001607       -27.2551
  14   2.0000      -0.916048       -24.9269
  15   2.0000      -0.833791       -22.6886
  16   2.0000      -0.802475       -21.8365
  17   2.0000      -0.755482       -20.5577
  18   2.0000      -0.706697       -19.2302
  19   2.0000      -0.691711       -18.8224
  20   2.0000      -0.680639       -18.5211
  21   2.0000      -0.652039       -17.7429
  22   2.0000      -0.642622       -17.4866
  23   2.0000      -0.592698       -16.1281
  24   2.0000      -0.566316       -15.4103
  25   2.0000      -0.544659       -14.8209
  26   2.0000      -0.526807       -14.3351
  27   2.0000      -0.510230       -13.8841
  28   2.0000      -0.504462       -13.7271
  29   2.0000      -0.457068       -12.4374
  30   2.0000      -0.434296       -11.8178
  31   2.0000      -0.429361       -11.6835
  32   2.0000      -0.404325       -11.0022
  33   2.0000      -0.392698       -10.6858
  34   0.0000       0.130849         3.5606
  35   0.0000       0.142021         3.8646
  36   0.0000       0.154464         4.2032
  37   0.0000       0.168603         4.5879
  38   0.0000       0.177274         4.8239

MULLIKEN ATOMIC CHARGES
-----------------------
   0 N :   -0.537807
   1 C :    0.049036
   2 C :    0.104143
   3 O :   -0.264062
   4 C :    0.052474
   5 N :   -0.365237
   6 C :   -0.095227
   7 C :   -0.271266
   8 C :   -0.266200
   9 H :    0.244005
  10 H :    0.233158
  11 H :    0.117811
  12 H :    0.096495
  13 H :    0.228436
  14 H :    0.128347
  15 H :    0.137077
  16 H :    0.137925
  17 H :    0.134046
  18 H :    0.136847
Sum of atomic charges:   -0.0000000

LOEWDIN ATOMIC CHARGES
----------------------
   0 N :   -0.137724
   1 C :   -0.261458
   2 C :   -0.208080
   3 O :    0.228729
   4 C :   -0.402400
   5 N :   -0.062232
   6 C :   -0.215782
   7 C :   -0.216213
   8 C :   -0.218578
   9 H :    0.163929
  10 H :    0.160478
  11 H :    0.157099
  12 H :    0.146996
  13 H :    0.172083
  14 H :    0.152989
  15 H :    0.133787
  16 H :    0.136530
  17 H :    0.135666
  18 H :    0.134182

  Mayer bond orders larger than 0.1
B(  0-N ,  1-C ) :   1.0044 B(  0-N ,  9-H ) :   0.8881 B(  0-N , 10-H ) :   0.8875
B(  1-C ,  2-C ) :   0.9022 B(  1-C ,  4-C ) :   0.9254 B(  1-C , 11-H ) :   0.8978
B(  2-C ,  3-O ) :   0.8943 B(  2-C ,  6-C ) :   0.9731 B(  2-C , 12-H ) :   0.8918
B(  3-O ,  4-C ) :   1.0890 B(  4-C ,  5-N ) :   2.1142 B(  5-N , 13-H ) :   0.8491
B(  6-C ,  7-C ) :   0.8632 B(  6-C ,  8-C ) :   0.8796 B(  6-C , 14-H ) :   0.9113
B(  7-C ,  8-C ) :   0.9091 B(  7-C , 15-H ) :   0.9283 B(  7-C , 16-H ) :   0.9250
B(  8-C , 17-H ) :   0.9286 B(  8-C , 18-H ) :   0.9295

MP2 TOTAL ENERGY:     -418.478395234 Eh
FINAL SINGLE POINT ENERGY      -418.478395233923

DIPOLE MOMENT
-------------
                                X             Y             Z
Electronic contribution:      3.38180       0.94131      -5.27442
Nuclear contribution   :     -3.84517      -1.06065       5.78790
                        -----------------------------------------
Total Dipole Moment    :     -0.46337      -0.11934       0.51348
                        -----------------------------------------
Magnitude (a.u.)       :      0.70187
Magnitude (Debye)      :      1.78400

                             ****ORCA TERMINATED NORMALLY****
TOTAL RUN TIME: 0 days 0 hours 15 minutes 50 seconds 415 msec
