                         Program Version 3.0.3 - RELEASE   -
|  1> ! RI-MP2 RIJK def2-TZVP def2-TZVP/C def2-TZVP/JK TIGHTSCF
|  2> % maxcore 2000
|  3> % mp2 density relaxed end
|  4> *xyz 0 1
|  5>  C        0.5682468874     1.5302864277    -0.2456374989
|  6>  C        0.3204189068     0.0701749130     0.0494547151
|  7>  N        1.4941854114    -0.8051587562     0.2428974799
|  8>  C        0.5572004736    -0.6053586057     1.3573988550
|  9>  C        1.0821082066     0.0189389831     2.6300293462
| 10>  C        2.2152448401    -0.7516100092     3.3494452459
| 11>  C        3.0368343288     0.5415373752     3.1507101577
| 12>  C        4.2809240586     0.4671266342     2.2890957118
| 13>  O        1.9273049502     1.1743857359     2.4597804783
| 14>  H        1.3996531619     1.9079945769     0.3467948347
| 15>  H        0.7923255303     1.6641294206    -1.3098805012
| 16>  H       -0.3241684418     2.1230613908    -0.0154174831
| 17>  H       -0.4980767581    -0.3613897991    -0.5285487191
| 18>  H        1.3466871524    -1.7105206532    -0.1937225336
| 19>  H       -0.1247829163    -1.4272820934     1.5860442984
| 20>  H        0.2265999379     0.2601938195     3.2777289267
| 21>  H        2.0161702560    -1.0394055781     4.3826092896
| 22>  H        2.5930850926    -1.6105817364     2.7914126178
| 23>  H        3.2463406171     1.0756267346     4.0875052123
| 24>  H        4.0554082026    -0.0489807262     1.3519105151
| 25>  H        4.6437408580     1.4732204628     2.0546428084
| 26>  H        5.0788933339    -0.0681180366     2.8166211829
| 27> *
| 28>
| 29>                          ****END OF INPUT****

CARTESIAN COORDINATES (ANGSTROEM)
---------------------------------
  C      0.568247    1.530286   -0.245637
  C      0.320419    0.070175    0.049455
  N      1.494185   -0.805159    0.242897
  C      0.557200   -0.605359    1.357399
  C      1.082108    0.018939    2.630029
  C      2.215245   -0.751610    3.349445
  C      3.036834    0.541537    3.150710
  C      4.280924    0.467127    2.289096
  O      1.927305    1.174386    2.459780
  H      1.399653    1.907995    0.346795
  H      0.792326    1.664129   -1.309881
  H     -0.324168    2.123061   -0.015417
  H     -0.498077   -0.361390   -0.528549
  H      1.346687   -1.710521   -0.193723
  H     -0.124783   -1.427282    1.586044
  H      0.226600    0.260194    3.277729
  H      2.016170   -1.039406    4.382609
  H      2.593085   -1.610582    2.791413
  H      3.246341    1.075627    4.087505
  H      4.055408   -0.048981    1.351911
  H      4.643741    1.473220    2.054643
  H      5.078893   -0.068118    2.816621

 Total Charge           Charge          ....    0
 Multiplicity           Mult            ....    1
 Number of Electrons    NEL             ....   70
 Basis Dimension        Dim             ....  357

ORBITAL ENERGIES
----------------

  NO   OCC          E(Eh)            E(eV)
   0   2.0000     -20.537332      -558.8492
   1   2.0000     -15.550380      -423.1474
   2   2.0000     -11.280863      -306.9679
   3   2.0000     -11.275520      -306.8225
   4   2.0000     -11.257736      -306.3386
   5   2.0000     -11.256105      -306.2942
   6   2.0000     -11.221920      -305.3640
   7   2.0000     -11.204318      -304.8850
   8   2.0000     -11.200920      -304.7925
   9   2.0000      -1.371648       -37.3244
  10   2.0000      -1.255163       -34.1547
  11   2.0000      -1.023936       -27.8627
  12   2.0000      -1.000416       -27.2227
  13   2.0000      -0.977612       -26.6022
  14   2.0000      -0.911630       -24.8067
  15   2.0000      -0.830346       -22.5949
  16   2.0000      -0.773734       -21.0544
  17   2.0000      -0.740349       -20.1459
  18   2.0000      -0.707859       -19.2618
  19   2.0000      -0.675914       -18.3926
  20   2.0000      -0.632219       -17.2036
  21   2.0000      -0.609693       -16.5906
  22   2.0000      -0.574938       -15.6449
  23   2.0000      -0.560744       -15.2586
  24   2.0000      -0.549787       -14.9605
  25   2.0000      -0.542185       -14.7536
  26   2.0000      -0.533705       -14.5228
  27   2.0000      -0.515036       -14.0148
  28   2.0000      -0.499506       -13.5923
  29   2.0000      -0.475395       -12.9362
  30   2.0000      -0.455122       -12.3845
  31   2.0000      -0.443990       -12.0816
  32   2.0000      -0.434445       -11.8218
  33   2.0000      -0.403798       -10.9879
  34   2.0000      -0.381619       -10.3844
  35   0.0000       0.132979         3.6185
  36   0.0000       0.152716         4.1556
  37   0.0000       0.162192         4.4135
  38   0.0000       0.169071         4.6007
  39   0.0000       0.188783         5.1371

MULLIKEN ATOMIC CHARGES
-----------------------
   0 C :   -0.398866
   1 C :   -0.010132
   2 N :   -0.418265
   3 C :   -0.062858
   4 C :    0.155462
   5 C :   -0.307313
   6 C :    0.154592
   7 C :   -0.431747
   8 O :   -0.355904
   9 H :    0.169998
  10 H :    0.119487
  11 H :    0.116666
  12 H :    0.108893
  13 H :    0.213848
  14 H :    0.117097
  15 H :    0.089206
  16 H :    0.129065
  17 H :    0.121133
  18 H :    0.082069
  19 H :    0.158208
  20 H :    0.129451
  21 H :    0.119911
Sum of atomic charges:    0.0000000

LOEWDIN ATOMIC CHARGES
----------------------
   0 C :   -0.299004
   1 C :   -0.273702
   2 N :    0.001716
   3 C :   -0.255791
   4 C :   -0.269401
   5 C :   -0.200244
   6 C :   -0.299793
   7 C :   -0.301592
   8 O :    0.158912
   9 H :    0.133861
  10 H :    0.123537
  11 H :    0.125041
  12 H :    0.135133
  13 H :    0.162611
  14 H :    0.142902
  15 H :    0.138152
  16 H :    0.128337
  17 H :    0.137022
  18 H :    0.131084
  19 H :    0.129774
  20 H :    0.126264
  21 H :    0.125184

  Mayer bond orders larger than 0.1
B(  0-C ,  1-C ) :   0.8751 B(  0-C ,  9-H ) :   0.9362 B(  0-C , 10-H ) :   0.9301
B(  0-C , 11-H ) :   0.9341 B(  1-C ,  2-N ) :   0.9287 B(  1-C ,  3-C ) :   0.9070
B(  1-C , 12-H ) :   0.9302 B(  2-N ,  3-C ) :   0.8108 B(  2-N , 13-H ) :   0.8632
B(  3-C ,  4-C ) :   0.9399 B(  3-C , 14-H ) :   0.9157 B(  4-C ,  5-C ) :   0.9192
B(  4-C ,  8-O ) :   0.9174 B(  4-C , 15-H ) :   0.9215 B(  5-C ,  6-C ) :   0.9337
B(  5-C , 16-H ) :   0.9238 B(  5-C , 17-H ) :   0.9255 B(  6-C ,  7-C ) :   0.9090
B(  6-C ,  8-O ) :   0.9010 B(  6-C , 18-H ) :   0.9219 B(  7-C , 19-H ) :   0.9339
B(  7-C , 20-H ) :   0.9356 B(  7-C , 21-H ) :   0.9271

MP2 TOTAL ENERGY:     -403.618985159 Eh
FINAL SINGLE POINT ENERGY      -403.618985158802

DIPOLE MOMENT
-------------
                                X             Y             Z
Electronic contribution:     -2.10686      -0.49071       1.41908
Nuclear contribution   :      1.72287      -0.29206      -1.21096
                        -----------------------------------------
Total Dipole Moment    :     -0.38399      -0.78276       0.20812
                        -----------------------------------------
Magnitude (a.u.)       :      0.89637
Magnitude (Debye)      :      2.27839

                             ****ORCA TERMINATED NORMALLY****
TOTAL RUN TIME: 0 days 0 hours 18 minutes 34 seconds 854 msec
