                         Program Version 3.0.3 - RELEASE   -
|  1> ! RI-MP2 RIJK def2-TZVP def2-TZVP/C def2-TZVP/JK TIGHTSCF
|  2> % maxcore 2000
|  3> % mp2 density relaxed end
|  4> *xyz 0 1
|  5>  C       -0.1603714281     1.6874510031     0.2363381718
|  6>  C        0.0948087555     0.1765129648     0.1261533875
|  7>  C        0.8930277018    -0.2253501662    -1.1244886491
|  8>  O        1.6310463702    -1.4027385357    -0.7666181322
|  9>  C        1.7238751154    -1.5294923831     0.5900264325
| 10>  N        2.3361525562    -2.4541209517     1.1905907304
| 11>  C        0.9783829642    -0.3914673433     1.2558339497
| 12>  C       -1.2668370300    -0.5204558013     0.1516912857
| 13>  O       -1.7719826871    -1.0995470452    -0.7720305749
| 14>  H        0.7880598808     2.2274872581     0.3150433128
| 15>  H       -0.6989655655     2.0626716821    -0.6397836747
| 16>  H       -0.7565969876     1.9253774544     1.1234775354
| 17>  H        0.2418158725    -0.4760907646    -1.9635355652
| 18>  H        1.5944636071     0.5633399660    -1.4218972068
| 19>  H        2.7709016568    -3.0909773294     0.5205692063
| 20>  H        1.6946333585     0.3614568211     1.6033020526
| 21>  H        0.4264975084    -0.7423722148     2.1310768746
| 22>  H       -1.7924766491    -0.4273911044     1.1306357837
| 23> *
| 24>
| 25>                          ****END OF INPUT****

CARTESIAN COORDINATES (ANGSTROEM)
---------------------------------
  C     -0.160371    1.687451    0.236338
  C      0.094809    0.176513    0.126153
  C      0.893028   -0.225350   -1.124489
  O      1.631046   -1.402739   -0.766618
  C      1.723875   -1.529492    0.590026
  N      2.336153   -2.454121    1.190591
  C      0.978383   -0.391467    1.255834
  C     -1.266837   -0.520456    0.151691
  O     -1.771983   -1.099547   -0.772031
  H      0.788060    2.227487    0.315043
  H     -0.698966    2.062672   -0.639784
  H     -0.756597    1.925377    1.123478
  H      0.241816   -0.476091   -1.963536
  H      1.594464    0.563340   -1.421897
  H      2.770902   -3.090977    0.520569
  H      1.694633    0.361457    1.603302
  H      0.426498   -0.742372    2.131077
  H     -1.792477   -0.427391    1.130636

 Total Charge           Charge          ....    0
 Multiplicity           Mult            ....    1
 Number of Electrons    NEL             ....   68
 Basis Dimension        Dim             ....  333

ORBITAL ENERGIES
----------------

  NO   OCC          E(Eh)            E(eV)
   0   2.0000     -20.597817      -560.4951
   1   2.0000     -20.574784      -559.8683
   2   2.0000     -15.533680      -422.6929
   3   2.0000     -11.346745      -308.7606
   4   2.0000     -11.341749      -308.6247
   5   2.0000     -11.300166      -307.4931
   6   2.0000     -11.276390      -306.8462
   7   2.0000     -11.260606      -306.4167
   8   2.0000     -11.254697      -306.2559
   9   2.0000      -1.436030       -39.0764
  10   2.0000      -1.414180       -38.4818
  11   2.0000      -1.198387       -32.6098
  12   2.0000      -1.134589       -30.8737
  13   2.0000      -0.998503       -27.1706
  14   2.0000      -0.958245       -26.0752
  15   2.0000      -0.897514       -24.4226
  16   2.0000      -0.798823       -21.7371
  17   2.0000      -0.764124       -20.7929
  18   2.0000      -0.719819       -19.5873
  19   2.0000      -0.686405       -18.6780
  20   2.0000      -0.673434       -18.3251
  21   2.0000      -0.657519       -17.8920
  22   2.0000      -0.634685       -17.2706
  23   2.0000      -0.606244       -16.4967
  24   2.0000      -0.600459       -16.3393
  25   2.0000      -0.577232       -15.7073
  26   2.0000      -0.550678       -14.9847
  27   2.0000      -0.537981       -14.6392
  28   2.0000      -0.514915       -14.0116
  29   2.0000      -0.512622       -13.9492
  30   2.0000      -0.494870       -13.4661
  31   2.0000      -0.437664       -11.9094
  32   2.0000      -0.429968       -11.7000
  33   2.0000      -0.400078       -10.8867
  34   0.0000       0.113564         3.0902
  35   0.0000       0.120165         3.2699
  36   0.0000       0.154725         4.2103
  37   0.0000       0.163349         4.4450
  38   0.0000       0.168664         4.5896

MULLIKEN ATOMIC CHARGES
-----------------------
   0 C :   -0.435105
   1 C :    0.126409
   2 C :   -0.069810
   3 O :   -0.252484
   4 C :    0.089631
   5 N :   -0.373629
   6 C :   -0.192219
   7 C :    0.043674
   8 O :   -0.250376
   9 H :    0.145149
  10 H :    0.154899
  11 H :    0.146554
  12 H :    0.148459
  13 H :    0.113439
  14 H :    0.226083
  15 H :    0.139702
  16 H :    0.145605
  17 H :    0.094018
Sum of atomic charges:    0.0000000

LOEWDIN ATOMIC CHARGES
----------------------
   0 C :   -0.258179
   1 C :   -0.300328
   2 C :   -0.224313
   3 O :    0.241771
   4 C :   -0.407500
   5 N :   -0.059494
   6 C :   -0.170097
   7 C :   -0.249122
   8 O :    0.153861
   9 H :    0.131754
  10 H :    0.133822
  11 H :    0.132706
  12 H :    0.139283
  13 H :    0.130089
  14 H :    0.169723
  15 H :    0.158886
  16 H :    0.156684
  17 H :    0.120455

  Mayer bond orders larger than 0.1
B(  0-C ,  1-C ) :   0.8965 B(  0-C ,  9-H ) :   0.9271 B(  0-C , 10-H ) :   0.9361
B(  0-C , 11-H ) :   0.9280 B(  1-C ,  2-C ) :   0.9182 B(  1-C ,  6-C ) :   0.8936
B(  1-C ,  7-C ) :   0.8292 B(  2-C ,  3-O ) :   0.8857 B(  2-C , 12-H ) :   0.9062
B(  2-C , 13-H ) :   0.9270 B(  3-O ,  4-C ) :   1.0901 B(  4-C ,  5-N ) :   2.0760
B(  4-C ,  6-C ) :   0.9124 B(  5-N , 14-H ) :   0.8551 B(  6-C , 15-H ) :   0.9044
B(  6-C , 16-H ) :   0.9120 B(  7-C ,  8-O ) :   1.9983 B(  7-C , 17-H ) :   0.9381

MP2 TOTAL ENERGY:     -438.394808578 Eh
FINAL SINGLE POINT ENERGY      -438.394808577649

DIPOLE MOMENT
-------------
                                X             Y             Z
Electronic contribution:      0.02254      -6.18517      -1.90369
Nuclear contribution   :     -0.11595       7.64789       1.96138
                        -----------------------------------------
Total Dipole Moment    :     -0.09341       1.46271       0.05769
                        -----------------------------------------
Magnitude (a.u.)       :      1.46683
Magnitude (Debye)      :      3.72838

                             ****ORCA TERMINATED NORMALLY****
TOTAL RUN TIME: 0 days 0 hours 17 minutes 5 seconds 47 msec
