                         Program Version 3.0.3 - RELEASE   -
|  1> ! RI-MP2 RIJK def2-TZVP def2-TZVP/C def2-TZVP/JK TIGHTSCF
|  2> % maxcore 2000
|  3> % mp2 density relaxed end
|  4> *xyz 0 1
|  5>  C       -0.0222828945     1.5964631322    -0.1772480355
|  6>  C        0.0331930750     0.1113916124    -0.0460585276
|  7>  C        0.0214423373    -1.0266432517    -1.0412064834
|  8>  C        1.2740437098    -1.6547337945    -0.4385875693
|  9>  C        0.9191278840    -0.8650567581     0.8475902108
| 10>  C       -0.4026329239    -1.5495839468     1.3350740624
| 11>  C       -0.9290826817    -0.9696217726     2.5629624453
| 12>  N       -1.3429231628    -0.5096671065     3.5399758919
| 13>  C       -1.0367830910    -0.9486586662     0.0744582286
| 14>  H        0.9375630286     2.0079954588    -0.5096597182
| 15>  H       -0.7804771745     1.8881978973    -0.9119650989
| 16>  H       -0.2807843484     2.0720448800     0.7751232817
| 17>  H       -0.2845034942    -0.9949005367    -2.0795264585
| 18>  H        1.3441552476    -2.7458784618    -0.3596850117
| 19>  H        2.1806401926    -1.2633951386    -0.9075708560
| 20>  H        1.6752830051    -0.5763628007     1.5733705150
| 21>  H       -0.3755658151    -2.6411511655     1.4328504725
| 22>  H       -2.0927779938    -0.8621114009    -0.1446902990
| 23> *
| 24>
| 25>                          ****END OF INPUT****

CARTESIAN COORDINATES (ANGSTROEM)
---------------------------------
  C     -0.022283    1.596463   -0.177248
  C      0.033193    0.111392   -0.046059
  C      0.021442   -1.026643   -1.041206
  C      1.274044   -1.654734   -0.438588
  C      0.919128   -0.865057    0.847590
  C     -0.402633   -1.549584    1.335074
  C     -0.929083   -0.969622    2.562962
  N     -1.342923   -0.509667    3.539976
  C     -1.036783   -0.948659    0.074458
  H      0.937563    2.007995   -0.509660
  H     -0.780477    1.888198   -0.911965
  H     -0.280784    2.072045    0.775123
  H     -0.284503   -0.994901   -2.079526
  H      1.344155   -2.745878   -0.359685
  H      2.180640   -1.263395   -0.907571
  H      1.675283   -0.576363    1.573371
  H     -0.375566   -2.641151    1.432850
  H     -2.092778   -0.862111   -0.144690

 Total Charge           Charge          ....    0
 Multiplicity           Mult            ....    1
 Number of Electrons    NEL             ....   64
 Basis Dimension        Dim             ....  333

ORBITAL ENERGIES
----------------

  NO   OCC          E(Eh)            E(eV)
   0   2.0000     -15.562380      -423.4739
   1   2.0000     -11.282418      -307.0102
   2   2.0000     -11.266403      -306.5744
   3   2.0000     -11.263313      -306.4903
   4   2.0000     -11.256750      -306.3117
   5   2.0000     -11.255460      -306.2766
   6   2.0000     -11.249988      -306.1277
   7   2.0000     -11.243907      -305.9623
   8   2.0000     -11.233071      -305.6674
   9   2.0000      -1.258673       -34.2502
  10   2.0000      -1.208310       -32.8798
  11   2.0000      -1.031699       -28.0740
  12   2.0000      -1.006614       -27.3914
  13   2.0000      -0.968495       -26.3541
  14   2.0000      -0.866949       -23.5909
  15   2.0000      -0.785584       -21.3768
  16   2.0000      -0.729300       -19.8453
  17   2.0000      -0.721058       -19.6210
  18   2.0000      -0.655572       -17.8390
  19   2.0000      -0.631158       -17.1747
  20   2.0000      -0.614976       -16.7343
  21   2.0000      -0.576338       -15.6830
  22   2.0000      -0.570940       -15.5361
  23   2.0000      -0.558490       -15.1973
  24   2.0000      -0.544648       -14.8206
  25   2.0000      -0.521681       -14.1957
  26   2.0000      -0.495024       -13.4703
  27   2.0000      -0.470256       -12.7963
  28   2.0000      -0.449819       -12.2402
  29   2.0000      -0.434935       -11.8352
  30   2.0000      -0.405472       -11.0335
  31   2.0000      -0.379790       -10.3346
  32   0.0000       0.129884         3.5343
  33   0.0000       0.143603         3.9076
  34   0.0000       0.158779         4.3206
  35   0.0000       0.162453         4.4206
  36   0.0000       0.169898         4.6232

MULLIKEN ATOMIC CHARGES
-----------------------
   0 C :   -0.408975
   1 C :    0.004422
   2 C :   -0.166194
   3 C :   -0.192034
   4 C :   -0.091284
   5 C :    0.030893
   6 C :   -0.235174
   7 N :   -0.052786
   8 C :   -0.130962
   9 H :    0.137829
  10 H :    0.136575
  11 H :    0.154317
  12 H :    0.138319
  13 H :    0.112857
  14 H :    0.127117
  15 H :    0.148982
  16 H :    0.136586
  17 H :    0.149511
Sum of atomic charges:    0.0000000

LOEWDIN ATOMIC CHARGES
----------------------
   0 C :   -0.273759
   1 C :   -0.156226
   2 C :   -0.143248
   3 C :   -0.193470
   4 C :   -0.098760
   5 C :   -0.175133
   6 C :   -0.163830
   7 N :    0.057656
   8 C :   -0.113565
   9 H :    0.130522
  10 H :    0.134881
  11 H :    0.135025
  12 H :    0.140768
  13 H :    0.126445
  14 H :    0.143424
  15 H :    0.139860
  16 H :    0.163922
  17 H :    0.145487

  Mayer bond orders larger than 0.1
B(  0-C ,  1-C ) :   0.8102 B(  0-C ,  9-H ) :   0.9428 B(  0-C , 10-H ) :   0.9442
B(  0-C , 11-H ) :   0.9433 B(  1-C ,  2-C ) :   0.8333 B(  1-C ,  4-C ) :   0.8713
B(  1-C ,  8-C ) :   0.8415 B(  2-C ,  3-C ) :   0.9625 B(  2-C ,  8-C ) :   0.8316
B(  2-C , 12-H ) :   0.9297 B(  3-C ,  4-C ) :   0.9419 B(  3-C , 13-H ) :   0.9166
B(  3-C , 14-H ) :   0.9299 B(  4-C ,  5-C ) :   0.8838 B(  4-C , 15-H ) :   0.9159
B(  5-C ,  6-C ) :   0.9425 B(  5-C ,  8-C ) :   0.9042 B(  5-C , 16-H ) :   0.8933
B(  6-C ,  7-N ) :   2.8846 B(  8-C , 17-H ) :   0.9224

MP2 TOTAL ENERGY:     -364.118845427 Eh
FINAL SINGLE POINT ENERGY      -364.118845427189

DIPOLE MOMENT
-------------
                                X             Y             Z
Electronic contribution:     -2.80805      -2.56092       5.63452
Nuclear contribution   :      3.46186       2.32201      -7.13142
                        -----------------------------------------
Total Dipole Moment    :      0.65382      -0.23890      -1.49690
                        -----------------------------------------
Magnitude (a.u.)       :      1.65083
Magnitude (Debye)      :      4.19609

                             ****ORCA TERMINATED NORMALLY****
TOTAL RUN TIME: 0 days 0 hours 19 minutes 11 seconds 90 msec
