                         Program Version 3.0.3 - RELEASE   -
|  1> ! RI-MP2 RIJK def2-TZVP def2-TZVP/C def2-TZVP/JK TIGHTSCF
|  2> % maxcore 2000
|  3> % mp2 density relaxed end
|  4> *xyz 0 1
|  5>  O       -0.0697242049    -0.0272013796    -0.0001901284
|  6>  C       -0.0156066193     1.1840753953     0.0085917241
|  7>  C        1.2289750911     1.9476904851     0.0001649316
|  8>  C        2.5166744090     1.4368733327    -0.0184534282
|  9>  N        3.3417520226     2.4983985309    -0.0198724453
| 10>  N        2.7072029961     3.6883137238    -0.0035940637
| 11>  C        1.4105472683     3.3656461143     0.0089762156
| 12>  C        0.3978721799     4.3566777849     0.0282153325
| 13>  C       -0.4891744041     5.1692219787     0.0442724039
| 14>  H       -0.9356827331     1.8043245463     0.0237504064
| 15>  H        2.8684003650     0.4180154426    -0.0302366778
| 16>  H        4.3489697399     2.4950988684    -0.0314625200
| 17>  H       -1.2641112306     5.8954418267     0.0573828092
| 18> *
| 19>
| 20>                          ****END OF INPUT****

CARTESIAN COORDINATES (ANGSTROEM)
---------------------------------
  O     -0.069724   -0.027201   -0.000190
  C     -0.015607    1.184075    0.008592
  C      1.228975    1.947690    0.000165
  C      2.516674    1.436873   -0.018453
  N      3.341752    2.498399   -0.019872
  N      2.707203    3.688314   -0.003594
  C      1.410547    3.365646    0.008976
  C      0.397872    4.356678    0.028215
  C     -0.489174    5.169222    0.044272
  H     -0.935683    1.804325    0.023750
  H      2.868400    0.418015   -0.030237
  H      4.348970    2.495099   -0.031463
  H     -1.264111    5.895442    0.057383

 Total Charge           Charge          ....    0
 Multiplicity           Mult            ....    1
 Number of Electrons    NEL             ....   62
 Basis Dimension        Dim             ....  303

ORBITAL ENERGIES
----------------

  NO   OCC          E(Eh)            E(eV)
   0   2.0000     -20.551155      -559.2254
   1   2.0000     -15.674379      -426.5215
   2   2.0000     -15.619154      -425.0188
   3   2.0000     -11.338103      -308.5255
   4   2.0000     -11.313595      -307.8586
   5   2.0000     -11.308699      -307.7253
   6   2.0000     -11.255255      -306.2710
   7   2.0000     -11.251195      -306.1606
   8   2.0000     -11.249639      -306.1182
   9   2.0000      -1.409793       -38.3624
  10   2.0000      -1.388606       -37.7859
  11   2.0000      -1.149608       -31.2824
  12   2.0000      -1.099391       -29.9160
  13   2.0000      -1.041412       -28.3383
  14   2.0000      -0.917343       -24.9622
  15   2.0000      -0.883436       -24.0395
  16   2.0000      -0.796153       -21.6644
  17   2.0000      -0.768434       -20.9101
  18   2.0000      -0.733938       -19.9715
  19   2.0000      -0.668443       -18.1893
  20   2.0000      -0.665404       -18.1066
  21   2.0000      -0.645400       -17.5622
  22   2.0000      -0.640705       -17.4345
  23   2.0000      -0.599260       -16.3067
  24   2.0000      -0.540061       -14.6958
  25   2.0000      -0.498342       -13.5606
  26   2.0000      -0.470411       -12.8005
  27   2.0000      -0.437675       -11.9097
  28   2.0000      -0.412661       -11.2291
  29   2.0000      -0.372689       -10.1414
  30   2.0000      -0.359478        -9.7819
  31   0.0000       0.084326         2.2946
  32   0.0000       0.104704         2.8491
  33   0.0000       0.118761         3.2316
  34   0.0000       0.152491         4.1495
  35   0.0000       0.160385         4.3643

MULLIKEN ATOMIC CHARGES
-----------------------
   0 O :   -0.286935
   1 C :    0.092089
   2 C :   -0.072570
   3 C :   -0.067069
   4 N :   -0.085455
   5 N :   -0.196955
   6 C :   -0.060079
   7 C :    0.033444
   8 C :   -0.103407
   9 H :    0.099465
  10 H :    0.179611
  11 H :    0.268697
  12 H :    0.199163
Sum of atomic charges:    0.0000000

LOEWDIN ATOMIC CHARGES
----------------------
   0 O :    0.123282
   1 C :   -0.265216
   2 C :   -0.168407
   3 C :   -0.165592
   4 N :    0.157244
   5 N :    0.079090
   6 C :   -0.234903
   7 C :   -0.067775
   8 C :   -0.059861
   9 H :    0.124870
  10 H :    0.150390
  11 H :    0.196414
  12 H :    0.130463

  Mayer bond orders larger than 0.1
B(  0-O ,  1-C ) :   1.9832 B(  0-O ,  2-C ) :  -0.1154 B(  1-C ,  2-C ) :   0.8685
B(  1-C ,  9-H ) :   0.9731 B(  2-C ,  3-C ) :   1.3794 B(  2-C ,  6-C ) :   1.1648
B(  3-C ,  4-N ) :   1.2472 B(  3-C ,  5-N ) :   0.1109 B(  3-C , 10-H ) :   0.8894
B(  4-N ,  5-N ) :   1.0630 B(  4-N , 11-H ) :   0.8692 B(  5-N ,  6-C ) :   1.5052
B(  6-C ,  7-C ) :   1.2158 B(  6-C ,  8-C ) :  -0.1607 B(  7-C ,  8-C ) :   2.6160
B(  8-C , 12-H ) :   0.8654

MP2 TOTAL ENERGY:     -414.886878542 Eh
FINAL SINGLE POINT ENERGY      -414.886878542278

DIPOLE MOMENT
-------------
                                X             Y             Z
Electronic contribution:      0.85666      -0.12284      -0.00984
Nuclear contribution   :      0.04237       0.34418       0.00080
                        -----------------------------------------
Total Dipole Moment    :      0.89903       0.22134      -0.00904
                        -----------------------------------------
Magnitude (a.u.)       :      0.92591
Magnitude (Debye)      :      2.35349

                             ****ORCA TERMINATED NORMALLY****
TOTAL RUN TIME: 0 days 0 hours 15 minutes 23 seconds 520 msec
