                         Program Version 3.0.3 - RELEASE   -
|  1> ! RI-MP2 RIJK def2-TZVP def2-TZVP/C def2-TZVP/JK TIGHTSCF
|  2> % maxcore 2000
|  3> % mp2 density relaxed end
|  4> *xyz 0 1
|  5>  O        0.0130338095     0.0378419576     0.4349072684
|  6>  C       -0.0070279527     1.1915569350     0.0769611907
|  7>  C       -1.3036995689     1.9694354010    -0.1693799006
|  8>  C       -0.9612323113     3.3922984253    -0.6098996858
|  9>  O       -0.1489337787     3.3311028911    -1.7802876754
| 10>  C        1.1368068729     3.0721126543    -1.2782738248
| 11>  C        1.1317652076     3.5112045222     0.1359334780
| 12>  O       -0.1566941738     4.0063670133     0.3946096562
| 13>  C        1.2161656042     2.0019937634    -0.1704501423
| 14>  H       -1.8880069982     1.4563050175    -0.9396427006
| 15>  H       -1.8942424780     1.9815648043     0.7521017116
| 16>  H       -1.8268809606     4.0248366333    -0.8093898597
| 17>  H        1.9272726123     3.2021075748    -2.0040136761
| 18>  H        1.9177546828     4.0309588435     0.6655643084
| 19>  H        2.1680990331     1.5086161834    -0.0138984180
| 20> *
| 21>
| 22>                          ****END OF INPUT****

CARTESIAN COORDINATES (ANGSTROEM)
---------------------------------
  O      0.013034    0.037842    0.434907
  C     -0.007028    1.191557    0.076961
  C     -1.303700    1.969435   -0.169380
  C     -0.961232    3.392298   -0.609900
  O     -0.148934    3.331103   -1.780288
  C      1.136807    3.072113   -1.278274
  C      1.131765    3.511205    0.135933
  O     -0.156694    4.006367    0.394610
  C      1.216166    2.001994   -0.170450
  H     -1.888007    1.456305   -0.939643
  H     -1.894242    1.981565    0.752102
  H     -1.826881    4.024837   -0.809390
  H      1.927273    3.202108   -2.004014
  H      1.917755    4.030959    0.665564
  H      2.168099    1.508616   -0.013898

 Total Charge           Charge          ....    0
 Multiplicity           Mult            ....    1
 Number of Electrons    NEL             ....   66
 Basis Dimension        Dim             ....  315

ORBITAL ENERGIES
----------------

  NO   OCC          E(Eh)            E(eV)
   0   2.0000     -20.594823      -560.4136
   1   2.0000     -20.594801      -560.4130
   2   2.0000     -20.548251      -559.1463
   3   2.0000     -11.360069      -309.1232
   4   2.0000     -11.343014      -308.6591
   5   2.0000     -11.318141      -307.9823
   6   2.0000     -11.317349      -307.9607
   7   2.0000     -11.259275      -306.3804
   8   2.0000     -11.248642      -306.0911
   9   2.0000      -1.479695       -40.2645
  10   2.0000      -1.392844       -37.9012
  11   2.0000      -1.365284       -37.1513
  12   2.0000      -1.154866       -31.4255
  13   2.0000      -1.068779       -29.0829
  14   2.0000      -0.899892       -24.4873
  15   2.0000      -0.885036       -24.0831
  16   2.0000      -0.853084       -23.2136
  17   2.0000      -0.773886       -21.0585
  18   2.0000      -0.722989       -19.6735
  19   2.0000      -0.682663       -18.5762
  20   2.0000      -0.668777       -18.1983
  21   2.0000      -0.655774       -17.8445
  22   2.0000      -0.626045       -17.0355
  23   2.0000      -0.624860       -17.0033
  24   2.0000      -0.616189       -16.7674
  25   2.0000      -0.572961       -15.5911
  26   2.0000      -0.565483       -15.3876
  27   2.0000      -0.531956       -14.4753
  28   2.0000      -0.519679       -14.1412
  29   2.0000      -0.509655       -13.8684
  30   2.0000      -0.423921       -11.5355
  31   2.0000      -0.416524       -11.3342
  32   2.0000      -0.402948       -10.9648
  33   0.0000       0.128914         3.5079
  34   0.0000       0.140596         3.8258
  35   0.0000       0.152102         4.1389
  36   0.0000       0.179500         4.8844
  37   0.0000       0.182768         4.9734

MULLIKEN ATOMIC CHARGES
-----------------------
   0 O :   -0.269527
   1 C :    0.087796
   2 C :   -0.161618
   3 C :    0.221334
   4 O :   -0.305916
   5 C :    0.005970
   6 C :    0.005959
   7 O :   -0.305917
   8 C :   -0.151411
   9 H :    0.138264
  10 H :    0.138251
  11 H :    0.140679
  12 H :    0.155319
  13 H :    0.155310
  14 H :    0.145505
Sum of atomic charges:   -0.0000000

LOEWDIN ATOMIC CHARGES
----------------------
   0 O :    0.152806
   1 C :   -0.309206
   2 C :   -0.202959
   3 C :   -0.347497
   4 O :    0.216460
   5 C :   -0.246427
   6 C :   -0.246441
   7 O :    0.216457
   8 C :   -0.145529
   9 H :    0.159079
  10 H :    0.159072
  11 H :    0.141370
  12 H :    0.145975
  13 H :    0.145970
  14 H :    0.160871

  Mayer bond orders larger than 0.1
B(  0-O ,  1-C ) :   2.0253 B(  1-C ,  2-C ) :   0.9076 B(  1-C ,  8-C ) :   0.9338
B(  2-C ,  3-C ) :   0.9209 B(  2-C ,  8-C ) :  -0.1122 B(  2-C ,  9-H ) :   0.8860
B(  2-C , 10-H ) :   0.8860 B(  3-C ,  4-O ) :   0.9330 B(  3-C ,  7-O ) :   0.9330
B(  3-C , 11-H ) :   0.9198 B(  4-O ,  5-C ) :   0.9776 B(  5-C ,  6-C ) :   0.9202
B(  5-C ,  8-C ) :   0.7976 B(  5-C , 12-H ) :   0.9193 B(  6-C ,  7-O ) :   0.9776
B(  6-C ,  8-C ) :   0.7976 B(  6-C , 13-H ) :   0.9193 B(  8-C , 14-H ) :   0.9017

MP2 TOTAL ENERGY:     -457.035300968 Eh
FINAL SINGLE POINT ENERGY      -457.035300967551

DIPOLE MOMENT
-------------
                                X             Y             Z
Electronic contribution:      0.40019      -0.31677       0.10004
Nuclear contribution   :     -0.08835       1.08832      -0.33839
                        -----------------------------------------
Total Dipole Moment    :      0.31184       0.77155      -0.23835
                        -----------------------------------------
Magnitude (a.u.)       :      0.86565
Magnitude (Debye)      :      2.20030

                             ****ORCA TERMINATED NORMALLY****
TOTAL RUN TIME: 0 days 0 hours 15 minutes 29 seconds 948 msec
