                         Program Version 3.0.3 - RELEASE   -
|  1> ! RI-MP2 RIJK def2-TZVP def2-TZVP/C def2-TZVP/JK TIGHTSCF
|  2> % maxcore 2000
|  3> % mp2 density relaxed end
|  4> *xyz 0 1
|  5>  O       -0.2237846578     1.3774994115     0.0008173448
|  6>  C        0.0407786860     0.0042848461    -0.0786113322
|  7>  C        0.8867862095    -0.3259820406    -1.3264089155
|  8>  C        0.1689706738     0.0388961668    -2.6061277490
|  9>  C        0.4657902705    -0.6803426422    -3.8669016496
| 10>  N       -0.8311265502    -0.8732471443    -3.1886764303
| 11>  C        0.7384434352    -0.4731608975     1.1775486139
| 12>  O        1.0138510761     0.2808546363     2.0792099300
| 13>  H        0.1164563791     1.6610191704     0.8641769311
| 14>  H       -0.9052198746    -0.5651721051    -0.1471867502
| 15>  H        1.8294665436     0.2309258738    -1.2547823728
| 16>  H        1.1344855314    -1.3967364001    -1.3331065516
| 17>  H       -0.1228131837     1.0842104214    -2.6629960594
| 18>  H        0.4119237849    -0.1617801923    -4.8197446578
| 19>  H        1.1961538665    -1.4855539741    -3.8329818046
| 20>  H       -0.8211248935    -1.7606973616    -2.6893930780
| 21>  H        0.9862057032    -1.5538873284     1.2239760013
| 22> *
| 23>
| 24>                          ****END OF INPUT****

CARTESIAN COORDINATES (ANGSTROEM)
---------------------------------
  O     -0.223785    1.377499    0.000817
  C      0.040779    0.004285   -0.078611
  C      0.886786   -0.325982   -1.326409
  C      0.168971    0.038896   -2.606128
  C      0.465790   -0.680343   -3.866902
  N     -0.831127   -0.873247   -3.188676
  C      0.738443   -0.473161    1.177549
  O      1.013851    0.280855    2.079210
  H      0.116456    1.661019    0.864177
  H     -0.905220   -0.565172   -0.147187
  H      1.829467    0.230926   -1.254782
  H      1.134486   -1.396736   -1.333107
  H     -0.122813    1.084210   -2.662996
  H      0.411924   -0.161780   -4.819745
  H      1.196154   -1.485554   -3.832982
  H     -0.821125   -1.760697   -2.689393
  H      0.986206   -1.553887    1.223976

 Total Charge           Charge          ....    0
 Multiplicity           Mult            ....    1
 Number of Electrons    NEL             ....   62
 Basis Dimension        Dim             ....  302

ORBITAL ENERGIES
----------------

  NO   OCC          E(Eh)            E(eV)
   0   2.0000     -20.583564      -560.1073
   1   2.0000     -20.564931      -559.6002
   2   2.0000     -15.562519      -423.4777
   3   2.0000     -11.352631      -308.9208
   4   2.0000     -11.307331      -307.6881
   5   2.0000     -11.266031      -306.5643
   6   2.0000     -11.259566      -306.3884
   7   2.0000     -11.253145      -306.2136
   8   2.0000      -1.429486       -38.8983
   9   2.0000      -1.372655       -37.3519
  10   2.0000      -1.265680       -34.4409
  11   2.0000      -1.066059       -29.0089
  12   2.0000      -0.948392       -25.8071
  13   2.0000      -0.887449       -24.1487
  14   2.0000      -0.811853       -22.0917
  15   2.0000      -0.805932       -21.9305
  16   2.0000      -0.737360       -20.0646
  17   2.0000      -0.697643       -18.9838
  18   2.0000      -0.686520       -18.6812
  19   2.0000      -0.653812       -17.7911
  20   2.0000      -0.634278       -17.2596
  21   2.0000      -0.602154       -16.3854
  22   2.0000      -0.559550       -15.2261
  23   2.0000      -0.558757       -15.2046
  24   2.0000      -0.541803       -14.7432
  25   2.0000      -0.518943       -14.1212
  26   2.0000      -0.491489       -13.3741
  27   2.0000      -0.474867       -12.9218
  28   2.0000      -0.455649       -12.3988
  29   2.0000      -0.442123       -12.0308
  30   2.0000      -0.393048       -10.6954
  31   0.0000       0.111810         3.0425
  32   0.0000       0.125145         3.4054
  33   0.0000       0.155559         4.2330
  34   0.0000       0.165103         4.4927
  35   0.0000       0.169067         4.6006

MULLIKEN ATOMIC CHARGES
-----------------------
   0 O :   -0.478002
   1 C :    0.099785
   2 C :   -0.262967
   3 C :   -0.008274
   4 C :   -0.183632
   5 N :   -0.372461
   6 C :    0.114325
   7 O :   -0.290599
   8 H :    0.332862
   9 H :    0.100898
  10 H :    0.121209
  11 H :    0.122035
  12 H :    0.141257
  13 H :    0.127501
  14 H :    0.123912
  15 H :    0.211833
  16 H :    0.100316
Sum of atomic charges:    0.0000000

LOEWDIN ATOMIC CHARGES
----------------------
   0 O :    0.002181
   1 C :   -0.365132
   2 C :   -0.236580
   3 C :   -0.278161
   4 C :   -0.267091
   5 N :   -0.022490
   6 C :   -0.271259
   7 O :    0.129641
   8 H :    0.183521
   9 H :    0.154232
  10 H :    0.150576
  11 H :    0.144193
  12 H :    0.150251
  13 H :    0.125252
  14 H :    0.120161
  15 H :    0.160714
  16 H :    0.119990

  Mayer bond orders larger than 0.1
B(  0-O ,  1-C ) :   1.0786 B(  0-O ,  8-H ) :   0.8055 B(  1-C ,  2-C ) :   0.8595
B(  1-C ,  6-C ) :   0.8740 B(  1-C ,  9-H ) :   0.9243 B(  2-C ,  3-C ) :   0.9297
B(  2-C , 10-H ) :   0.9040 B(  2-C , 11-H ) :   0.9253 B(  3-C ,  4-C ) :   0.9279
B(  3-C ,  5-N ) :   0.9026 B(  3-C , 12-H ) :   0.9214 B(  4-C ,  5-N ) :   0.9332
B(  4-C , 13-H ) :   0.9235 B(  4-C , 14-H ) :   0.9190 B(  5-N , 15-H ) :   0.8738
B(  6-C ,  7-O ) :   1.9239 B(  6-C , 16-H ) :   0.9327

MP2 TOTAL ENERGY:     -400.326084986 Eh
FINAL SINGLE POINT ENERGY      -400.326084985584

DIPOLE MOMENT
-------------
                                X             Y             Z
Electronic contribution:     -0.53026       2.20203       5.79654
Nuclear contribution   :      1.20352      -3.17353      -5.88011
                        -----------------------------------------
Total Dipole Moment    :      0.67326      -0.97149      -0.08357
                        -----------------------------------------
Magnitude (a.u.)       :      1.18493
Magnitude (Debye)      :      3.01185

                             ****ORCA TERMINATED NORMALLY****
TOTAL RUN TIME: 0 days 0 hours 10 minutes 25 seconds 750 msec
