                         Program Version 3.0.3 - RELEASE   -
|  1> ! RI-MP2 RIJK def2-TZVP def2-TZVP/C def2-TZVP/JK TIGHTSCF
|  2> % maxcore 2000
|  3> % mp2 density relaxed end
|  4> *xyz 0 1
|  5>  C       -0.0225542777     1.3842916724    -0.0006947157
|  6>  O        0.0014572934    -0.0213874949    -0.0007956691
|  7>  C        0.6703370758    -0.5596580687     1.1189687560
|  8>  C        0.6392828693    -2.0787299022     1.0218558606
|  9>  C        1.3448095889    -2.7559701362     2.1998701354
| 10>  C        1.3137525117    -4.2750420962     2.1027589113
| 11>  O        1.9826454730    -4.8133123449     3.2225156164
| 12>  C        2.0065648832    -6.2189930805     3.2224692347
| 13>  H        0.9927634943     1.8126411888    -0.0210075477
| 14>  H       -0.5571342134     1.7041540134    -0.8986368558
| 15>  H       -0.5428644377     1.7863458405     0.8838368630
| 16>  H        1.7134741673    -0.1982345168     1.1535987309
| 17>  H        0.1860243389    -0.2245283218     2.0533622900
| 18>  H       -0.4075769023    -2.4015207607     0.9674730531
| 19>  H        1.1071983872    -2.3754551221     0.0752435156
| 20>  H        2.3916702811    -2.4331821485     2.2542510092
| 21>  H        0.8768960736    -2.4592422794     3.1464826701
| 22>  H        0.2706154456    -4.6364660147     2.0681442486
| 23>  H        1.7980519198    -4.6101716723     1.1683579907
| 24>  H        2.5268818716    -6.6211175379     2.3379732721
| 25>  H        2.5410895892    -6.5388561562     4.1204439824
| 26>  H        0.9912175972    -6.6472729509     3.2427599780
| 27> *
| 28>
| 29>                          ****END OF INPUT****

CARTESIAN COORDINATES (ANGSTROEM)
---------------------------------
  C     -0.022554    1.384292   -0.000695
  O      0.001457   -0.021387   -0.000796
  C      0.670337   -0.559658    1.118969
  C      0.639283   -2.078730    1.021856
  C      1.344810   -2.755970    2.199870
  C      1.313753   -4.275042    2.102759
  O      1.982645   -4.813312    3.222516
  C      2.006565   -6.218993    3.222469
  H      0.992763    1.812641   -0.021008
  H     -0.557134    1.704154   -0.898637
  H     -0.542864    1.786346    0.883837
  H      1.713474   -0.198235    1.153599
  H      0.186024   -0.224528    2.053362
  H     -0.407577   -2.401521    0.967473
  H      1.107198   -2.375455    0.075244
  H      2.391670   -2.433182    2.254251
  H      0.876896   -2.459242    3.146483
  H      0.270615   -4.636466    2.068144
  H      1.798052   -4.610172    1.168358
  H      2.526882   -6.621118    2.337973
  H      2.541090   -6.538856    4.120444
  H      0.991218   -6.647273    3.242760

 Total Charge           Charge          ....    0
 Multiplicity           Mult            ....    1
 Number of Electrons    NEL             ....   66
 Basis Dimension        Dim             ....  332

ORBITAL ENERGIES
----------------

  NO   OCC          E(Eh)            E(eV)
   0   2.0000     -20.552458      -559.2608
   1   2.0000     -20.552457      -559.2608
   2   2.0000     -11.272007      -306.7269
   3   2.0000     -11.272005      -306.7269
   4   2.0000     -11.268627      -306.6349
   5   2.0000     -11.268627      -306.6349
   6   2.0000     -11.219544      -305.2993
   7   2.0000     -11.218935      -305.2827
   8   2.0000      -1.374115       -37.3916
   9   2.0000      -1.373795       -37.3828
  10   2.0000      -1.073393       -29.2085
  11   2.0000      -0.993004       -27.0210
  12   2.0000      -0.929330       -25.2883
  13   2.0000      -0.886506       -24.1231
  14   2.0000      -0.833212       -22.6729
  15   2.0000      -0.801771       -21.8173
  16   2.0000      -0.680844       -18.5267
  17   2.0000      -0.663165       -18.0456
  18   2.0000      -0.654895       -17.8206
  19   2.0000      -0.651650       -17.7323
  20   2.0000      -0.621713       -16.9177
  21   2.0000      -0.617879       -16.8133
  22   2.0000      -0.608518       -16.5586
  23   2.0000      -0.560877       -15.2622
  24   2.0000      -0.532040       -14.4775
  25   2.0000      -0.513801       -13.9812
  26   2.0000      -0.502140       -13.6639
  27   2.0000      -0.487184       -13.2569
  28   2.0000      -0.477666       -12.9980
  29   2.0000      -0.472731       -12.8637
  30   2.0000      -0.461603       -12.5609
  31   2.0000      -0.422764       -11.5040
  32   2.0000      -0.419108       -11.4045
  33   0.0000       0.137948         3.7537
  34   0.0000       0.147510         4.0139
  35   0.0000       0.163151         4.4396
  36   0.0000       0.180538         4.9127
  37   0.0000       0.182947         4.9782

MULLIKEN ATOMIC CHARGES
-----------------------
   0 C :   -0.213503
   1 O :   -0.301845
   2 C :   -0.052371
   3 C :   -0.192695
   4 C :   -0.192695
   5 C :   -0.052371
   6 O :   -0.301845
   7 C :   -0.213503
   8 H :    0.109836
   9 H :    0.137880
  10 H :    0.109832
  11 H :    0.089132
  12 H :    0.089134
  13 H :    0.112300
  14 H :    0.112300
  15 H :    0.112301
  16 H :    0.112299
  17 H :    0.089131
  18 H :    0.089134
  19 H :    0.109833
  20 H :    0.137880
  21 H :    0.109835
Sum of atomic charges:    0.0000000

LOEWDIN ATOMIC CHARGES
----------------------
   0 C :   -0.364416
   1 O :    0.132723
   2 C :   -0.332026
   3 C :   -0.266910
   4 C :   -0.266910
   5 C :   -0.332026
   6 O :    0.132723
   7 C :   -0.364416
   8 H :    0.100518
   9 H :    0.112907
  10 H :    0.100519
  11 H :    0.118193
  12 H :    0.118192
  13 H :    0.140150
  14 H :    0.140149
  15 H :    0.140150
  16 H :    0.140149
  17 H :    0.118192
  18 H :    0.118193
  19 H :    0.100519
  20 H :    0.112907
  21 H :    0.100518

  Mayer bond orders larger than 0.1
B(  0-C ,  1-O ) :   0.9236 B(  0-C ,  8-H ) :   0.9373 B(  0-C ,  9-H ) :   0.9396
B(  0-C , 10-H ) :   0.9373 B(  1-O ,  2-C ) :   0.9635 B(  2-C ,  3-C ) :   0.9594
B(  2-C , 11-H ) :   0.9250 B(  2-C , 12-H ) :   0.9250 B(  3-C ,  4-C ) :   0.9220
B(  3-C , 13-H ) :   0.9216 B(  3-C , 14-H ) :   0.9216 B(  4-C ,  5-C ) :   0.9594
B(  4-C , 15-H ) :   0.9216 B(  4-C , 16-H ) :   0.9216 B(  5-C ,  6-O ) :   0.9635
B(  5-C , 17-H ) :   0.9250 B(  5-C , 18-H ) :   0.9250 B(  6-O ,  7-C ) :   0.9236
B(  7-C , 19-H ) :   0.9373 B(  7-C , 20-H ) :   0.9396 B(  7-C , 21-H ) :   0.9373

MP2 TOTAL ENERGY:     -386.680697214 Eh
FINAL SINGLE POINT ENERGY      -386.680697213712

DIPOLE MOMENT
-------------
                                X             Y             Z
Electronic contribution:      0.00015       0.00000      -0.00009
Nuclear contribution   :     -0.00019      -0.00000       0.00011
                        -----------------------------------------
Total Dipole Moment    :     -0.00004      -0.00000       0.00002
                        -----------------------------------------
Magnitude (a.u.)       :      0.00004
Magnitude (Debye)      :      0.00011

                             ****ORCA TERMINATED NORMALLY****
TOTAL RUN TIME: 0 days 0 hours 10 minutes 22 seconds 441 msec
