                         Program Version 3.0.3 - RELEASE   -
|  1> ! RI-MP2 RIJK def2-TZVP def2-TZVP/C def2-TZVP/JK TIGHTSCF
|  2> % maxcore 2000
|  3> % mp2 density relaxed end
|  4> *xyz 0 1
|  5>  C        0.0071908839     1.5765127018     0.0201144817
|  6>  C        0.0441286309     0.0549832291     0.0809856064
|  7>  C        0.7913678306    -0.6224859993    -1.1079036561
|  8>  O        1.5596473391    -1.7278918398    -0.5623544250
|  9>  C        1.6376664823    -1.4981535008     0.7668341137
| 10>  C        2.2381126750    -2.0298504762     1.8845626328
| 11>  C        1.7065062568    -1.2195820635     2.9266349082
| 12>  N        0.8599753410    -0.2822430759     2.4991526582
| 13>  N        0.8622992394    -0.4708906627     1.1573865506
| 14>  H        1.0169837129     1.9846985177    -0.0827948513
| 15>  H       -0.5970920412     1.9101428484    -0.8291074503
| 16>  H       -0.4342038339     1.9768737954     0.9359067003
| 17>  H       -0.9785327271    -0.3359626157     0.1711301656
| 18>  H        0.1207972698    -1.0229962640    -1.8690811381
| 19>  H        1.4892219444     0.0844884072    -1.5716898312
| 20>  H        2.9347436943    -2.8467181636     1.9525000383
| 21>  H        1.9256983618    -1.2904714981     3.9827031460
| 22> *
| 23>
| 24>                          ****END OF INPUT****

CARTESIAN COORDINATES (ANGSTROEM)
---------------------------------
  C      0.007191    1.576513    0.020114
  C      0.044129    0.054983    0.080986
  C      0.791368   -0.622486   -1.107904
  O      1.559647   -1.727892   -0.562354
  C      1.637666   -1.498154    0.766834
  C      2.238113   -2.029850    1.884563
  C      1.706506   -1.219582    2.926635
  N      0.859975   -0.282243    2.499153
  N      0.862299   -0.470891    1.157387
  H      1.016984    1.984699   -0.082795
  H     -0.597092    1.910143   -0.829107
  H     -0.434204    1.976874    0.935907
  H     -0.978533   -0.335963    0.171130
  H      0.120797   -1.022996   -1.869081
  H      1.489222    0.084488   -1.571690
  H      2.934744   -2.846718    1.952500
  H      1.925698   -1.290471    3.982703

 Total Charge           Charge          ....    0
 Multiplicity           Mult            ....    1
 Number of Electrons    NEL             ....   66
 Basis Dimension        Dim             ....  327

ORBITAL ENERGIES
----------------

  NO   OCC          E(Eh)            E(eV)
   0   2.0000     -20.607194      -560.7503
   1   2.0000     -15.623236      -425.1299
   2   2.0000     -15.575656      -423.8351
   3   2.0000     -11.329475      -308.2907
   4   2.0000     -11.311525      -307.8022
   5   2.0000     -11.297528      -307.4214
   6   2.0000     -11.255385      -306.2746
   7   2.0000     -11.235534      -305.7344
   8   2.0000     -11.212958      -305.1201
   9   2.0000      -1.454675       -39.5837
  10   2.0000      -1.354766       -36.8651
  11   2.0000      -1.146664       -31.2023
  12   2.0000      -1.060039       -28.8451
  13   2.0000      -1.015838       -27.6424
  14   2.0000      -0.955977       -26.0135
  15   2.0000      -0.853062       -23.2130
  16   2.0000      -0.813338       -22.1321
  17   2.0000      -0.773079       -21.0365
  18   2.0000      -0.725266       -19.7355
  19   2.0000      -0.670591       -18.2477
  20   2.0000      -0.643671       -17.5152
  21   2.0000      -0.623820       -16.9750
  22   2.0000      -0.616247       -16.7689
  23   2.0000      -0.604116       -16.4388
  24   2.0000      -0.584170       -15.8961
  25   2.0000      -0.556891       -15.1538
  26   2.0000      -0.549166       -14.9436
  27   2.0000      -0.537985       -14.6393
  28   2.0000      -0.504930       -13.7398
  29   2.0000      -0.487801       -13.2737
  30   2.0000      -0.449805       -12.2398
  31   2.0000      -0.352603        -9.5948
  32   2.0000      -0.323700        -8.8083
  33   0.0000       0.129352         3.5199
  34   0.0000       0.154382         4.2009
  35   0.0000       0.165662         4.5079
  36   0.0000       0.184227         5.0131
  37   0.0000       0.186228         5.0675

MULLIKEN ATOMIC CHARGES
-----------------------
   0 C :   -0.395280
   1 C :   -0.047096
   2 C :   -0.014213
   3 O :   -0.279227
   4 C :    0.164909
   5 C :   -0.243471
   6 C :   -0.077654
   7 N :   -0.298772
   8 N :    0.128188
   9 H :    0.133997
  10 H :    0.135062
  11 H :    0.163301
  12 H :    0.112398
  13 H :    0.133156
  14 H :    0.107723
  15 H :    0.144744
  16 H :    0.132236
Sum of atomic charges:    0.0000000

LOEWDIN ATOMIC CHARGES
----------------------
   0 C :   -0.284508
   1 C :   -0.260009
   2 C :   -0.214024
   3 O :    0.232480
   4 C :   -0.333428
   5 C :   -0.192964
   6 C :   -0.271953
   7 N :    0.028408
   8 N :    0.215313
   9 H :    0.128958
  10 H :    0.129437
  11 H :    0.135906
  12 H :    0.150553
  13 H :    0.130821
  14 H :    0.131021
  15 H :    0.141953
  16 H :    0.132036

  Mayer bond orders larger than 0.1
B(  0-C ,  1-C ) :   0.9252 B(  0-C ,  9-H ) :   0.9257 B(  0-C , 10-H ) :   0.9328
B(  0-C , 11-H ) :   0.9305 B(  1-C ,  2-C ) :   0.9318 B(  1-C ,  8-N ) :   0.8797
B(  1-C , 12-H ) :   0.9169 B(  2-C ,  3-O ) :   0.8670 B(  2-C , 13-H ) :   0.9248
B(  2-C , 14-H ) :   0.9123 B(  3-O ,  4-C ) :   1.0707 B(  4-C ,  5-C ) :   1.4217
B(  4-C ,  8-N ) :   1.1836 B(  5-C ,  6-C ) :   1.2745 B(  5-C , 15-H ) :   0.9268
B(  6-C ,  7-N ) :   1.5158 B(  6-C , 16-H ) :   0.9344 B(  7-N ,  8-N ) :   0.9761

MP2 TOTAL ENERGY:     -417.315819624 Eh
FINAL SINGLE POINT ENERGY      -417.315819624349

DIPOLE MOMENT
-------------
                                X             Y             Z
Electronic contribution:      2.46877      -5.08788       2.49690
Nuclear contribution   :     -2.82230       5.41495      -3.52152
                        -----------------------------------------
Total Dipole Moment    :     -0.35353       0.32708      -1.02461
                        -----------------------------------------
Magnitude (a.u.)       :      1.13216
Magnitude (Debye)      :      2.87773

                             ****ORCA TERMINATED NORMALLY****
TOTAL RUN TIME: 0 days 0 hours 17 minutes 30 seconds 683 msec
