                         Program Version 3.0.3 - RELEASE   -
|  1> ! RI-MP2 RIJK def2-TZVP def2-TZVP/C def2-TZVP/JK TIGHTSCF
|  2> % maxcore 2000
|  3> % mp2 density relaxed end
|  4> *xyz 0 1
|  5>  C       -0.1852130117     1.5702809676    -0.1695433549
|  6>  C       -0.0387614044     0.0777289879     0.0473149500
|  7>  N        1.1423454304    -0.5944978100    -0.6589846576
|  8>  C        2.0892128790    -0.2149325634     0.5240464148
|  9>  C        2.5812297908    -1.6589776459     0.6477458297
| 10>  C        1.0813158950    -1.7459628687     0.3721602414
| 11>  C        0.7343770299    -0.4791555679     1.2499570110
| 12>  C        0.4512832015    -0.4672838107     2.7139543850
| 13>  O        1.3072550636    -0.4517121477     3.5662408936
| 14>  H        0.7289809821     2.1142508377     0.0859338747
| 15>  H       -0.4195758637     1.7758666708    -1.2189256361
| 16>  H       -0.9993999848     1.9726382817     0.4425540199
| 17>  H       -0.9751363994    -0.4445033835    -0.1880183457
| 18>  H        2.6629735958     0.7110145259     0.5138722535
| 19>  H        3.2298937156    -2.0135708560    -0.1571004250
| 20>  H        2.9265941158    -1.9747454210     1.6328154989
| 21>  H        0.4321263952    -2.6067879209     0.2006220543
| 22>  H       -0.6298100307    -0.4992891657     2.9867663323
| 23> *
| 24>
| 25>                          ****END OF INPUT****

CARTESIAN COORDINATES (ANGSTROEM)
---------------------------------
  C     -0.185213    1.570281   -0.169543
  C     -0.038761    0.077729    0.047315
  N      1.142345   -0.594498   -0.658985
  C      2.089213   -0.214933    0.524046
  C      2.581230   -1.658978    0.647746
  C      1.081316   -1.745963    0.372160
  C      0.734377   -0.479156    1.249957
  C      0.451283   -0.467284    2.713954
  O      1.307255   -0.451712    3.566241
  H      0.728981    2.114251    0.085934
  H     -0.419576    1.775867   -1.218926
  H     -0.999400    1.972638    0.442554
  H     -0.975136   -0.444503   -0.188018
  H      2.662974    0.711015    0.513872
  H      3.229894   -2.013571   -0.157100
  H      2.926594   -1.974745    1.632815
  H      0.432126   -2.606788    0.200622
  H     -0.629810   -0.499289    2.986766

 Total Charge           Charge          ....    0
 Multiplicity           Mult            ....    1
 Number of Electrons    NEL             ....   66
 Basis Dimension        Dim             ....  333

ORBITAL ENERGIES
----------------

  NO   OCC          E(Eh)            E(eV)
   0   2.0000     -20.565531      -559.6166
   1   2.0000     -15.574630      -423.8072
   2   2.0000     -11.339246      -308.5566
   3   2.0000     -11.291652      -307.2615
   4   2.0000     -11.284412      -307.0645
   5   2.0000     -11.274168      -306.7857
   6   2.0000     -11.263945      -306.5075
   7   2.0000     -11.237588      -305.7903
   8   2.0000     -11.226447      -305.4872
   9   2.0000      -1.401995       -38.1502
  10   2.0000      -1.327792       -36.1311
  11   2.0000      -1.064567       -28.9683
  12   2.0000      -0.993301       -27.0291
  13   2.0000      -0.964885       -26.2559
  14   2.0000      -0.891784       -24.2667
  15   2.0000      -0.827174       -22.5086
  16   2.0000      -0.812133       -22.0993
  17   2.0000      -0.713843       -19.4246
  18   2.0000      -0.698150       -18.9976
  19   2.0000      -0.668234       -18.1836
  20   2.0000      -0.652829       -17.7644
  21   2.0000      -0.623505       -16.9664
  22   2.0000      -0.601026       -16.3548
  23   2.0000      -0.565577       -15.3901
  24   2.0000      -0.548906       -14.9365
  25   2.0000      -0.542706       -14.7678
  26   2.0000      -0.479497       -13.0478
  27   2.0000      -0.475472       -12.9383
  28   2.0000      -0.466398       -12.6913
  29   2.0000      -0.463329       -12.6078
  30   2.0000      -0.446217       -12.1422
  31   2.0000      -0.437081       -11.8936
  32   2.0000      -0.373321       -10.1586
  33   0.0000       0.105264         2.8644
  34   0.0000       0.136936         3.7262
  35   0.0000       0.159236         4.3330
  36   0.0000       0.166379         4.5274
  37   0.0000       0.174118         4.7380

MULLIKEN ATOMIC CHARGES
-----------------------
   0 C :   -0.412549
   1 C :    0.011251
   2 N :   -0.213816
   3 C :   -0.085863
   4 C :   -0.204754
   5 C :   -0.089332
   6 C :    0.039545
   7 C :    0.079285
   8 O :   -0.263815
   9 H :    0.133865
  10 H :    0.145722
  11 H :    0.133673
  12 H :    0.103917
  13 H :    0.143021
  14 H :    0.123036
  15 H :    0.137954
  16 H :    0.137620
  17 H :    0.081241
Sum of atomic charges:   -0.0000000

LOEWDIN ATOMIC CHARGES
----------------------
   0 C :   -0.292185
   1 C :   -0.239449
   2 N :    0.147329
   3 C :   -0.141611
   4 C :   -0.199088
   5 C :   -0.145930
   6 C :   -0.179216
   7 C :   -0.264089
   8 O :    0.138809
   9 H :    0.127848
  10 H :    0.132321
  11 H :    0.128589
  12 H :    0.141472
  13 H :    0.128956
  14 H :    0.135004
  15 H :    0.138462
  16 H :    0.128931
  17 H :    0.113846

  Mayer bond orders larger than 0.1
B(  0-C ,  1-C ) :   0.9171 B(  0-C ,  9-H ) :   0.9343 B(  0-C , 10-H ) :   0.9349
B(  0-C , 11-H ) :   0.9335 B(  1-C ,  2-N ) :   0.9121 B(  1-C ,  6-C ) :   0.8764
B(  1-C , 12-H ) :   0.9106 B(  2-N ,  3-C ) :   0.9212 B(  2-N ,  5-C ) :   0.9250
B(  3-C ,  4-C ) :   0.9497 B(  3-C ,  6-C ) :   0.8871 B(  3-C , 13-H ) :   0.8800
B(  4-C ,  5-C ) :   0.9609 B(  4-C , 14-H ) :   0.9122 B(  4-C , 15-H ) :   0.9114
B(  5-C ,  6-C ) :   0.8785 B(  5-C , 16-H ) :   0.8842 B(  6-C ,  7-C ) :   0.8176
B(  7-C ,  8-O ) :   2.0003 B(  7-C , 17-H ) :   0.9571

MP2 TOTAL ENERGY:     -401.165142323 Eh
FINAL SINGLE POINT ENERGY      -401.165142323382

DIPOLE MOMENT
-------------
                                X             Y             Z
Electronic contribution:      1.41842      -2.62820       3.73878
Nuclear contribution   :     -2.00847       2.62935      -3.94839
                        -----------------------------------------
Total Dipole Moment    :     -0.59005       0.00115      -0.20961
                        -----------------------------------------
Magnitude (a.u.)       :      0.62617
Magnitude (Debye)      :      1.59161

                             ****ORCA TERMINATED NORMALLY****
TOTAL RUN TIME: 0 days 0 hours 17 minutes 30 seconds 628 msec
