                         Program Version 3.0.3 - RELEASE   -
|  1> ! RI-MP2 RIJK def2-TZVP def2-TZVP/C def2-TZVP/JK TIGHTSCF
|  2> % maxcore 2000
|  3> % mp2 density relaxed end
|  4> *xyz 0 1
|  5>  N       -0.1815479715     1.0846954651    -0.5856954867
|  6>  C       -0.0955155457    -0.0909197860    -0.1564106346
|  7>  O        1.0026137777    -0.8113075715     0.2666878750
|  8>  C        0.1666014459    -1.9616179343     0.6086784381
|  9>  C       -1.0895952307    -1.2062270357     0.1195930566
| 10>  C       -2.2005788557    -0.9048054506     1.1281783322
| 11>  C       -3.2562860113     0.0215887710     0.5624583167
| 12>  C       -4.4178120603    -0.5419079154    -0.2193316189
| 13>  C       -4.6410037789     0.0457360962     1.1536633850
| 14>  H        0.7320025060     1.5413145242    -0.6088701739
| 15>  H        0.4650152957    -2.8452003021     0.0397066979
| 16>  H        0.2099265711    -2.1664054617     1.6821064006
| 17>  H       -1.5136296836    -1.6184071158    -0.8003700901
| 18>  H       -2.6656280271    -1.8503115425     1.4374546945
| 19>  H       -1.7566400581    -0.4639750504     2.0306641842
| 20>  H       -2.8611894084     0.9697659143     0.2111166646
| 21>  H       -4.7762543609     0.0082864207    -1.0820537176
| 22>  H       -4.4889298801    -1.6206469651    -0.3215620964
| 23>  H       -4.8585523036    -0.6403025680     1.9663789747
| 24>  H       -5.1522966506     0.9987667276     1.2312012082
| 25> *
| 26>
| 27>                          ****END OF INPUT****

CARTESIAN COORDINATES (ANGSTROEM)
---------------------------------
  N     -0.181548    1.084695   -0.585695
  C     -0.095516   -0.090920   -0.156411
  O      1.002614   -0.811308    0.266688
  C      0.166601   -1.961618    0.608678
  C     -1.089595   -1.206227    0.119593
  C     -2.200579   -0.904805    1.128178
  C     -3.256286    0.021589    0.562458
  C     -4.417812   -0.541908   -0.219332
  C     -4.641004    0.045736    1.153663
  H      0.732003    1.541315   -0.608870
  H      0.465015   -2.845200    0.039707
  H      0.209927   -2.166405    1.682106
  H     -1.513630   -1.618407   -0.800370
  H     -2.665628   -1.850312    1.437455
  H     -1.756640   -0.463975    2.030664
  H     -2.861189    0.969766    0.211117
  H     -4.776254    0.008286   -1.082054
  H     -4.488930   -1.620647   -0.321562
  H     -4.858552   -0.640303    1.966379
  H     -5.152297    0.998767    1.231201

 Total Charge           Charge          ....    0
 Multiplicity           Mult            ....    1
 Number of Electrons    NEL             ....   68
 Basis Dimension        Dim             ....  345

ORBITAL ENERGIES
----------------

  NO   OCC          E(Eh)            E(eV)
   0   2.0000     -20.590345      -560.2918
   1   2.0000     -15.534899      -422.7261
   2   2.0000     -11.336871      -308.4920
   3   2.0000     -11.300321      -307.4974
   4   2.0000     -11.254004      -306.2370
   5   2.0000     -11.240156      -305.8602
   6   2.0000     -11.229326      -305.5655
   7   2.0000     -11.224171      -305.4252
   8   2.0000     -11.223550      -305.4083
   9   2.0000      -1.432129       -38.9702
  10   2.0000      -1.194884       -32.5144
  11   2.0000      -1.147451       -31.2237
  12   2.0000      -1.068396       -29.0725
  13   2.0000      -0.947488       -25.7825
  14   2.0000      -0.890400       -24.2290
  15   2.0000      -0.822310       -22.3762
  16   2.0000      -0.785733       -21.3809
  17   2.0000      -0.732845       -19.9417
  18   2.0000      -0.701551       -19.0902
  19   2.0000      -0.688435       -18.7333
  20   2.0000      -0.663294       -18.0491
  21   2.0000      -0.654225       -17.8024
  22   2.0000      -0.621866       -16.9218
  23   2.0000      -0.574928       -15.6446
  24   2.0000      -0.538119       -14.6430
  25   2.0000      -0.529656       -14.4127
  26   2.0000      -0.529153       -14.3990
  27   2.0000      -0.512840       -13.9551
  28   2.0000      -0.497215       -13.5299
  29   2.0000      -0.478865       -13.0306
  30   2.0000      -0.434553       -11.8248
  31   2.0000      -0.413648       -11.2559
  32   2.0000      -0.409364       -11.1394
  33   2.0000      -0.398411       -10.8413
  34   0.0000       0.132691         3.6107
  35   0.0000       0.155005         4.2179
  36   0.0000       0.161693         4.3999
  37   0.0000       0.166331         4.5261
  38   0.0000       0.177451         4.8287

MULLIKEN ATOMIC CHARGES
-----------------------
   0 N :   -0.387142
   1 C :    0.120024
   2 O :   -0.266935
   3 C :   -0.011254
   4 C :   -0.050244
   5 C :   -0.272833
   6 C :   -0.092327
   7 C :   -0.282932
   8 C :   -0.253623
   9 H :    0.226630
  10 H :    0.115418
  11 H :    0.113913
  12 H :    0.129054
  13 H :    0.123803
  14 H :    0.128116
  15 H :    0.151572
  16 H :    0.132709
  17 H :    0.121375
  18 H :    0.123292
  19 H :    0.131382
Sum of atomic charges:   -0.0000000

LOEWDIN ATOMIC CHARGES
----------------------
   0 N :   -0.058730
   1 C :   -0.382170
   2 O :    0.207501
   3 C :   -0.212804
   4 C :   -0.195102
   5 C :   -0.223422
   6 C :   -0.227009
   7 C :   -0.232266
   8 C :   -0.230380
   9 H :    0.172481
  10 H :    0.121382
  11 H :    0.123700
  12 H :    0.162619
  13 H :    0.145694
  14 H :    0.147714
  15 H :    0.157063
  16 H :    0.131351
  17 H :    0.130043
  18 H :    0.131041
  19 H :    0.131293

  Mayer bond orders larger than 0.1
B(  0-N ,  1-C ) :   2.0113 B(  0-N ,  9-H ) :   0.8431 B(  1-C ,  2-O ) :   1.0704
B(  1-C ,  4-C ) :   0.9136 B(  2-O ,  3-C ) :   0.8949 B(  3-C ,  4-C ) :   0.9530
B(  3-C , 10-H ) :   0.9197 B(  3-C , 11-H ) :   0.9142 B(  4-C ,  5-C ) :   0.9149
B(  4-C , 12-H ) :   0.9101 B(  5-C ,  6-C ) :   0.9239 B(  5-C , 13-H ) :   0.9314
B(  5-C , 14-H ) :   0.9193 B(  6-C ,  7-C ) :   0.8883 B(  6-C ,  8-C ) :   0.8707
B(  6-C , 15-H ) :   0.9232 B(  7-C ,  8-C ) :   0.9065 B(  7-C , 16-H ) :   0.9295
B(  7-C , 17-H ) :   0.9276 B(  8-C , 18-H ) :   0.9278 B(  8-C , 19-H ) :   0.9319

MP2 TOTAL ENERGY:     -402.436267210 Eh
FINAL SINGLE POINT ENERGY      -402.436267210204

DIPOLE MOMENT
-------------
                                X             Y             Z
Electronic contribution:      8.29954       1.30573      -1.75275
Nuclear contribution   :     -8.48505      -2.15858       2.10031
                        -----------------------------------------
Total Dipole Moment    :     -0.18550      -0.85285       0.34756
                        -----------------------------------------
Magnitude (a.u.)       :      0.93945
Magnitude (Debye)      :      2.38789

                             ****ORCA TERMINATED NORMALLY****
TOTAL RUN TIME: 0 days 0 hours 16 minutes 39 seconds 122 msec
