                         Program Version 3.0.3 - RELEASE   -
|  1> ! RI-MP2 RIJK def2-TZVP def2-TZVP/C def2-TZVP/JK TIGHTSCF
|  2> % maxcore 2000
|  3> % mp2 density relaxed end
|  4> *xyz 0 1
|  5>  C       -0.0086799826     1.3841174199     0.0382957759
|  6>  N        0.0687318691    -0.0602614487     0.0950617599
|  7>  C        0.5239740026    -0.6571092487    -0.9115619189
|  8>  O        0.6225959017    -2.0049544901    -0.9251838355
|  9>  C        1.1555242379    -2.5788073570    -2.1133897512
| 10>  C        1.1701085445    -4.0888900355    -1.9211272317
| 11>  C        1.7351077636    -4.8046295226    -3.1624122567
| 12>  C        1.7607264151    -6.2567635812    -3.0048187103
| 13>  N        1.7765674671    -7.4040035525    -2.8698065639
| 14>  H        0.5775023751     1.8152416191     0.8576648682
| 15>  H        0.3513079916     1.8166649047    -0.9098020166
| 16>  H       -1.0464671411     1.7019696026     0.1893505722
| 17>  H        0.8695030266    -0.1651176596    -1.8351865795
| 18>  H        0.5359348974    -2.3049807830    -2.9799969266
| 19>  H        2.1727856475    -2.2020410014    -2.2953518750
| 20>  H        1.7724260280    -4.3344446635    -1.0417188048
| 21>  H        0.1526762557    -4.4365209670    -1.7200499000
| 22>  H        1.1365304668    -4.5648845311    -4.0494592723
| 23>  H        2.7559374336    -4.4626870043    -3.3712319234
| 24> *
| 25>
| 26>                          ****END OF INPUT****

CARTESIAN COORDINATES (ANGSTROEM)
---------------------------------
  C     -0.008680    1.384117    0.038296
  N      0.068732   -0.060261    0.095062
  C      0.523974   -0.657109   -0.911562
  O      0.622596   -2.004954   -0.925184
  C      1.155524   -2.578807   -2.113390
  C      1.170109   -4.088890   -1.921127
  C      1.735108   -4.804630   -3.162412
  C      1.760726   -6.256764   -3.004819
  N      1.776567   -7.404004   -2.869807
  H      0.577502    1.815242    0.857665
  H      0.351308    1.816665   -0.909802
  H     -1.046467    1.701970    0.189351
  H      0.869503   -0.165118   -1.835187
  H      0.535935   -2.304981   -2.979997
  H      2.172786   -2.202041   -2.295352
  H      1.772426   -4.334445   -1.041719
  H      0.152676   -4.436521   -1.720050
  H      1.136530   -4.564885   -4.049459
  H      2.755937   -4.462687   -3.371232

 Total Charge           Charge          ....    0
 Multiplicity           Mult            ....    1
 Number of Electrons    NEL             ....   68
 Basis Dimension        Dim             ....  339

ORBITAL ENERGIES
----------------

  NO   OCC          E(Eh)            E(eV)
   0   2.0000     -20.601299      -560.5898
   1   2.0000     -15.574209      -423.7958
   2   2.0000     -15.552072      -423.1934
   3   2.0000     -11.338258      -308.5297
   4   2.0000     -11.315652      -307.9146
   5   2.0000     -11.295841      -307.3755
   6   2.0000     -11.278749      -306.9104
   7   2.0000     -11.263300      -306.4900
   8   2.0000     -11.253839      -306.2325
   9   2.0000      -1.436881       -39.0995
  10   2.0000      -1.229213       -33.4486
  11   2.0000      -1.224125       -33.3101
  12   2.0000      -1.112105       -30.2619
  13   2.0000      -1.005809       -27.3694
  14   2.0000      -0.942001       -25.6332
  15   2.0000      -0.862705       -23.4754
  16   2.0000      -0.817536       -22.2463
  17   2.0000      -0.733010       -19.9462
  18   2.0000      -0.708180       -19.2706
  19   2.0000      -0.693098       -18.8602
  20   2.0000      -0.662080       -18.0161
  21   2.0000      -0.650202       -17.6929
  22   2.0000      -0.595749       -16.2111
  23   2.0000      -0.588548       -16.0152
  24   2.0000      -0.576934       -15.6992
  25   2.0000      -0.557280       -15.1644
  26   2.0000      -0.554842       -15.0980
  27   2.0000      -0.553835       -15.0706
  28   2.0000      -0.519742       -14.1429
  29   2.0000      -0.509792       -13.8721
  30   2.0000      -0.463546       -12.6137
  31   2.0000      -0.462803       -12.5935
  32   2.0000      -0.420676       -11.4472
  33   2.0000      -0.390591       -10.6285
  34   0.0000       0.108259         2.9459
  35   0.0000       0.139997         3.8095
  36   0.0000       0.141719         3.8564
  37   0.0000       0.156896         4.2694
  38   0.0000       0.160293         4.3618

MULLIKEN ATOMIC CHARGES
-----------------------
   0 C :   -0.247795
   1 N :   -0.184304
   2 C :    0.057988
   3 O :   -0.211280
   4 C :   -0.089890
   5 C :   -0.206820
   6 C :   -0.141487
   7 C :   -0.182659
   8 N :   -0.052475
   9 H :    0.138597
  10 H :    0.090595
  11 H :    0.138596
  12 H :    0.061274
  13 H :    0.113108
  14 H :    0.113224
  15 H :    0.144912
  16 H :    0.144703
  17 H :    0.156855
  18 H :    0.156858
Sum of atomic charges:   -0.0000000

LOEWDIN ATOMIC CHARGES
----------------------
   0 C :   -0.336902
   1 N :    0.065031
   2 C :   -0.366607
   3 O :    0.239544
   4 C :   -0.308498
   5 C :   -0.243195
   6 C :   -0.243848
   7 C :   -0.192643
   8 N :    0.060536
   9 H :    0.118413
  10 H :    0.100796
  11 H :    0.118417
  12 H :    0.108023
  13 H :    0.125330
  14 H :    0.125368
  15 H :    0.150708
  16 H :    0.150669
  17 H :    0.164424
  18 H :    0.164436

  Mayer bond orders larger than 0.1
B(  0-C ,  1-N ) :   0.8808 B(  0-C ,  9-H ) :   0.9316 B(  0-C , 10-H ) :   0.9265
B(  0-C , 11-H ) :   0.9316 B(  1-N ,  2-C ) :   1.8991 B(  2-C ,  3-O ) :   1.0490
B(  2-C , 12-H ) :   0.9253 B(  3-O ,  4-C ) :   0.9095 B(  4-C ,  5-C ) :   0.9522
B(  4-C , 13-H ) :   0.9192 B(  4-C , 14-H ) :   0.9191 B(  5-C ,  6-C ) :   0.9167
B(  5-C , 15-H ) :   0.9242 B(  5-C , 16-H ) :   0.9241 B(  6-C ,  7-C ) :   0.9443
B(  6-C , 17-H ) :   0.9027 B(  6-C , 18-H ) :   0.9028 B(  7-C ,  8-N ) :   2.8796

MP2 TOTAL ENERGY:     -418.500195375 Eh
FINAL SINGLE POINT ENERGY      -418.500195375360

DIPOLE MOMENT
-------------
                                X             Y             Z
Electronic contribution:      0.67068      -8.81901      -0.20705
Nuclear contribution   :     -0.31919      10.55624      -0.91329
                        -----------------------------------------
Total Dipole Moment    :      0.35149       1.73723      -1.12033
                        -----------------------------------------
Magnitude (a.u.)       :      2.09682
Magnitude (Debye)      :      5.32970

                             ****ORCA TERMINATED NORMALLY****
TOTAL RUN TIME: 0 days 0 hours 12 minutes 21 seconds 894 msec
