                         Program Version 3.0.3 - RELEASE   -
|  1> ! RI-MP2 RIJK def2-TZVP def2-TZVP/C def2-TZVP/JK TIGHTSCF
|  2> % maxcore 2000
|  3> % mp2 density relaxed end
|  4> *xyz 0 1
|  5>  C       -0.0204714240     1.5310248076     0.1301865673
|  6>  C        1.3015691618     0.8149847218    -0.0193728772
|  7>  C        0.0016519579     0.0268163255    -0.0103227043
|  8>  C        0.0344090002    -0.6462717498    -1.4079447203
|  9>  O        1.4369892691    -0.8925043349    -1.5912224472
| 10>  C        1.8689832219     0.4660842659    -1.4207191607
| 11>  C        1.0257549524     1.1905040927    -2.4855136885
| 12>  O        0.6620802934     0.3625992599    -3.5893040820
| 13>  C       -0.2288973361     0.4297614394    -2.4767887655
| 14>  H       -0.2436689274     1.9105474176     1.1230523873
| 15>  H       -0.4054634850     2.1568773939    -0.6634432751
| 16>  H        1.9832259371     0.7802592890     0.8217452791
| 17>  H       -0.2741496382    -0.5884352854     0.8374629308
| 18>  H       -0.5202021014    -1.5795015764    -1.4912403260
| 19>  H        2.9519956091     0.5257960199    -1.5154218424
| 20>  H        1.1014366848     2.2576242051    -2.6650571157
| 21>  H       -1.2118816456     0.8549709482    -2.6489730296
| 22> *
| 23>
| 24>                          ****END OF INPUT****

CARTESIAN COORDINATES (ANGSTROEM)
---------------------------------
  C     -0.020471    1.531025    0.130187
  C      1.301569    0.814985   -0.019373
  C      0.001652    0.026816   -0.010323
  C      0.034409   -0.646272   -1.407945
  O      1.436989   -0.892504   -1.591222
  C      1.868983    0.466084   -1.420719
  C      1.025755    1.190504   -2.485514
  O      0.662080    0.362599   -3.589304
  C     -0.228897    0.429761   -2.476789
  H     -0.243669    1.910547    1.123052
  H     -0.405463    2.156877   -0.663443
  H      1.983226    0.780259    0.821745
  H     -0.274150   -0.588435    0.837463
  H     -0.520202   -1.579502   -1.491240
  H      2.951996    0.525796   -1.515422
  H      1.101437    2.257624   -2.665057
  H     -1.211882    0.854971   -2.648973

 Total Charge           Charge          ....    0
 Multiplicity           Mult            ....    1
 Number of Electrons    NEL             ....   66
 Basis Dimension        Dim             ....  327

ORBITAL ENERGIES
----------------

  NO   OCC          E(Eh)            E(eV)
   0   2.0000     -20.569468      -559.7237
   1   2.0000     -20.554055      -559.3043
   2   2.0000     -11.295434      -307.3644
   3   2.0000     -11.295414      -307.3638
   4   2.0000     -11.287761      -307.1556
   5   2.0000     -11.286943      -307.1333
   6   2.0000     -11.246439      -306.0312
   7   2.0000     -11.243688      -305.9563
   8   2.0000     -11.243107      -305.9405
   9   2.0000      -1.437588       -39.1188
  10   2.0000      -1.369858       -37.2757
  11   2.0000      -1.159636       -31.5553
  12   2.0000      -1.007694       -27.4207
  13   2.0000      -0.984355       -26.7857
  14   2.0000      -0.874754       -23.8033
  15   2.0000      -0.830126       -22.5889
  16   2.0000      -0.783300       -21.3147
  17   2.0000      -0.768575       -20.9140
  18   2.0000      -0.740419       -20.1478
  19   2.0000      -0.704569       -19.1723
  20   2.0000      -0.655928       -17.8487
  21   2.0000      -0.615756       -16.7556
  22   2.0000      -0.598837       -16.2952
  23   2.0000      -0.579810       -15.7774
  24   2.0000      -0.545917       -14.8552
  25   2.0000      -0.541545       -14.7362
  26   2.0000      -0.513804       -13.9813
  27   2.0000      -0.488374       -13.2893
  28   2.0000      -0.481432       -13.1004
  29   2.0000      -0.439169       -11.9504
  30   2.0000      -0.437076       -11.8934
  31   2.0000      -0.408835       -11.1250
  32   2.0000      -0.401953       -10.9377
  33   0.0000       0.144754         3.9390
  34   0.0000       0.149106         4.0574
  35   0.0000       0.164225         4.4688
  36   0.0000       0.173992         4.7346
  37   0.0000       0.188059         5.1174

MULLIKEN ATOMIC CHARGES
-----------------------
   0 C :   -0.256490
   1 C :   -0.180823
   2 C :   -0.180821
   3 C :    0.110309
   4 O :   -0.288547
   5 C :    0.110308
   6 C :   -0.050742
   7 O :   -0.307320
   8 C :   -0.050745
   9 H :    0.130839
  10 H :    0.138162
  11 H :    0.136265
  12 H :    0.136265
  13 H :    0.143294
  14 H :    0.143295
  15 H :    0.133376
  16 H :    0.133375
Sum of atomic charges:   -0.0000000

LOEWDIN ATOMIC CHARGES
----------------------
   0 C :   -0.198803
   1 C :   -0.165895
   2 C :   -0.165893
   3 C :   -0.250192
   4 O :    0.208357
   5 C :   -0.250192
   6 C :   -0.247819
   7 O :    0.193350
   8 C :   -0.247817
   9 H :    0.137781
  10 H :    0.135905
  11 H :    0.143976
  12 H :    0.143976
  13 H :    0.144279
  14 H :    0.144280
  15 H :    0.137354
  16 H :    0.137354

  Mayer bond orders larger than 0.1
B(  0-C ,  1-C ) :   0.8898 B(  0-C ,  2-C ) :   0.8898 B(  0-C ,  9-H ) :   0.9204
B(  0-C , 10-H ) :   0.9106 B(  1-C ,  2-C ) :   0.8658 B(  1-C ,  5-C ) :   0.9221
B(  1-C , 11-H ) :   0.9169 B(  2-C ,  3-C ) :   0.9221 B(  2-C , 12-H ) :   0.9169
B(  3-C ,  4-O ) :   0.9601 B(  3-C ,  8-C ) :   0.8570 B(  3-C , 13-H ) :   0.8981
B(  4-O ,  5-C ) :   0.9601 B(  5-C ,  6-C ) :   0.8570 B(  5-C , 14-H ) :   0.8981
B(  6-C ,  7-O ) :   0.9558 B(  6-C ,  8-C ) :   0.9467 B(  6-C , 15-H ) :   0.9397
B(  7-O ,  8-C ) :   0.9558 B(  8-C , 16-H ) :   0.9397

MP2 TOTAL ENERGY:     -421.074113442 Eh
FINAL SINGLE POINT ENERGY      -421.074113442483

DIPOLE MOMENT
-------------
                                X             Y             Z
Electronic contribution:      1.50689      -2.53334      -4.18579
Nuclear contribution   :     -1.94579       3.26795       5.12192
                        -----------------------------------------
Total Dipole Moment    :     -0.43890       0.73461       0.93613
                        -----------------------------------------
Magnitude (a.u.)       :      1.26832
Magnitude (Debye)      :      3.22381

                             ****ORCA TERMINATED NORMALLY****
TOTAL RUN TIME: 0 days 0 hours 18 minutes 39 seconds 846 msec
