                         Program Version 3.0.3 - RELEASE   -
|  1> ! RI-MP2 RIJK def2-TZVP def2-TZVP/C def2-TZVP/JK TIGHTSCF
|  2> % maxcore 2000
|  3> % mp2 density relaxed end
|  4> *xyz 0 1
|  5>  C       -0.0429888439     1.5690541536    -0.0073954633
|  6>  C       -0.0061422873     0.0307797152     0.0143257388
|  7>  C        0.6604721400    -0.4803080927    -1.2508810751
|  8>  O        0.1137896580    -1.1545675062    -2.0863920226
|  9>  C        0.7473151425    -0.5337331309     1.2500747972
| 10>  O        2.0745106602    -0.0510483348     1.3302844864
| 11>  C        0.0008640664    -0.2397892219     2.5458195799
| 12>  C        0.6834592325    -0.2875740681     3.8417068599
| 13>  O        0.4034849265     0.9705611341     3.2018265048
| 14>  H        0.9675458657     1.9815092080    -0.0863081299
| 15>  H       -0.6206607411     1.9275553933    -0.8638533172
| 16>  H       -0.4990770999     1.9670868431     0.9028554407
| 17>  H       -1.0249340544    -0.3736987843     0.0173894304
| 18>  H        1.7254207872    -0.1778514268    -1.3578072704
| 19>  H        0.8159448249    -1.6240701291     1.1390163710
| 20>  H        2.0211414092     0.7838833593     1.8176146066
| 21>  H       -1.0766273683    -0.4009937310     2.5190324840
| 22>  H        0.1097038734    -0.4783162818     4.7458708487
| 23>  H        1.7356877883    -0.5583226990     3.8744097503
| 24> *
| 25>
| 26>                          ****END OF INPUT****

CARTESIAN COORDINATES (ANGSTROEM)
---------------------------------
  C     -0.042989    1.569054   -0.007395
  C     -0.006142    0.030780    0.014326
  C      0.660472   -0.480308   -1.250881
  O      0.113790   -1.154568   -2.086392
  C      0.747315   -0.533733    1.250075
  O      2.074511   -0.051048    1.330284
  C      0.000864   -0.239789    2.545820
  C      0.683459   -0.287574    3.841707
  O      0.403485    0.970561    3.201827
  H      0.967546    1.981509   -0.086308
  H     -0.620661    1.927555   -0.863853
  H     -0.499077    1.967087    0.902855
  H     -1.024934   -0.373699    0.017389
  H      1.725421   -0.177851   -1.357807
  H      0.815945   -1.624070    1.139016
  H      2.021141    0.783883    1.817615
  H     -1.076627   -0.400994    2.519032
  H      0.109704   -0.478316    4.745871
  H      1.735688   -0.558323    3.874410

 Total Charge           Charge          ....    0
 Multiplicity           Mult            ....    1
 Number of Electrons    NEL             ....   70
 Basis Dimension        Dim             ....  339

ORBITAL ENERGIES
----------------

  NO   OCC          E(Eh)            E(eV)
   0   2.0000     -20.592224      -560.3429
   1   2.0000     -20.571427      -559.7770
   2   2.0000     -20.556018      -559.3577
   3   2.0000     -11.327326      -308.2322
   4   2.0000     -11.308996      -307.7334
   5   2.0000     -11.308361      -307.7161
   6   2.0000     -11.301203      -307.5214
   7   2.0000     -11.251038      -306.1563
   8   2.0000     -11.233774      -305.6865
   9   2.0000      -1.437119       -39.1060
  10   2.0000      -1.394378       -37.9430
  11   2.0000      -1.377648       -37.4877
  12   2.0000      -1.093419       -29.7534
  13   2.0000      -0.993758       -27.0415
  14   2.0000      -0.929520       -25.2935
  15   2.0000      -0.900075       -24.4923
  16   2.0000      -0.825195       -22.4547
  17   2.0000      -0.786700       -21.4072
  18   2.0000      -0.740551       -20.1514
  19   2.0000      -0.702948       -19.1282
  20   2.0000      -0.681155       -18.5352
  21   2.0000      -0.640255       -17.4222
  22   2.0000      -0.631945       -17.1961
  23   2.0000      -0.626610       -17.0509
  24   2.0000      -0.600910       -16.3516
  25   2.0000      -0.573308       -15.6005
  26   2.0000      -0.552642       -15.0382
  27   2.0000      -0.546315       -14.8660
  28   2.0000      -0.523511       -14.2455
  29   2.0000      -0.515176       -14.0186
  30   2.0000      -0.507060       -13.7978
  31   2.0000      -0.492126       -13.3914
  32   2.0000      -0.469974       -12.7886
  33   2.0000      -0.444577       -12.0976
  34   2.0000      -0.408173       -11.1070
  35   0.0000       0.131896         3.5891
  36   0.0000       0.138566         3.7706
  37   0.0000       0.145212         3.9514
  38   0.0000       0.165632         4.5071
  39   0.0000       0.168511         4.5854

MULLIKEN ATOMIC CHARGES
-----------------------
   0 C :   -0.488657
   1 C :    0.069892
   2 C :    0.055612
   3 O :   -0.263100
   4 C :    0.052147
   5 O :   -0.487850
   6 C :   -0.021621
   7 C :   -0.074404
   8 O :   -0.354738
   9 H :    0.140787
  10 H :    0.150092
  11 H :    0.159785
  12 H :    0.094385
  13 H :    0.096030
  14 H :    0.125666
  15 H :    0.336144
  16 H :    0.137935
  17 H :    0.129319
  18 H :    0.142577
Sum of atomic charges:    0.0000000

LOEWDIN ATOMIC CHARGES
----------------------
   0 C :   -0.285787
   1 C :   -0.263476
   2 C :   -0.269158
   3 O :    0.132165
   4 C :   -0.316581
   5 O :    0.001068
   6 C :   -0.276898
   7 C :   -0.253792
   8 O :    0.129555
   9 H :    0.128044
  10 H :    0.130035
  11 H :    0.131951
  12 H :    0.159839
  13 H :    0.118991
  14 H :    0.156847
  15 H :    0.182055
  16 H :    0.144454
  17 H :    0.123275
  18 H :    0.127412

  Mayer bond orders larger than 0.1
B(  0-C ,  1-C ) :   0.8677 B(  0-C ,  9-H ) :   0.9325 B(  0-C , 10-H ) :   0.9328
B(  0-C , 11-H ) :   0.9277 B(  1-C ,  2-C ) :   0.8528 B(  1-C ,  4-C ) :   0.8857
B(  1-C , 12-H ) :   0.8948 B(  2-C ,  3-O ) :   1.9965 B(  2-C , 13-H ) :   0.9378
B(  4-C ,  5-O ) :   0.9349 B(  4-C ,  6-C ) :   0.9201 B(  4-C , 14-H ) :   0.9277
B(  5-O , 15-H ) :   0.8134 B(  6-C ,  7-C ) :   0.9771 B(  6-C ,  8-O ) :   0.8924
B(  6-C , 16-H ) :   0.9144 B(  7-C ,  8-O ) :   0.8701 B(  7-C , 17-H ) :   0.9250
B(  7-C , 18-H ) :   0.9075

MP2 TOTAL ENERGY:     -459.411274376 Eh
FINAL SINGLE POINT ENERGY      -459.411274376349

DIPOLE MOMENT
-------------
                                X             Y             Z
Electronic contribution:      0.93237      -2.66668      -1.47725
Nuclear contribution   :     -1.14826       2.85405       2.63471
                        -----------------------------------------
Total Dipole Moment    :     -0.21588       0.18737       1.15746
                        -----------------------------------------
Magnitude (a.u.)       :      1.19223
Magnitude (Debye)      :      3.03042

                             ****ORCA TERMINATED NORMALLY****
TOTAL RUN TIME: 0 days 0 hours 17 minutes 51 seconds 585 msec
