                         Program Version 3.0.3 - RELEASE   -
|  1> ! RI-MP2 RIJK def2-TZVP def2-TZVP/C def2-TZVP/JK TIGHTSCF
|  2> % maxcore 2000
|  3> % mp2 density relaxed end
|  4> *xyz 0 1
|  5>  O        0.0383177582     1.4163165032    -0.3630988398
|  6>  C        0.0408402652     0.0529676652    -0.0022855177
|  7>  C        0.4030231778    -0.9582613049    -1.1349368721
|  8>  C       -0.9779505005    -1.6520518797    -0.9544756811
|  9>  C       -1.3817804783    -0.5747390200     0.0983595683
| 10>  O       -1.5788587237    -1.0270939905     1.4221478109
| 11>  C       -0.2929820068    -1.2984272509     1.9730478717
| 12>  C        0.6407116656    -0.2255426155     1.3890646235
| 13>  H        0.9528765712     1.7038879329    -0.4573491835
| 14>  H        0.5131987760    -0.4523358952    -2.0965057987
| 15>  H        1.2841526163    -1.5816112720    -0.9583900144
| 16>  H       -1.6062156679    -1.6766186691    -1.8468224953
| 17>  H       -0.9363647980    -2.6592945465    -0.5342818422
| 18>  H       -2.2172248754     0.0701350722    -0.1784209899
| 19>  H       -0.3807118112    -1.2590741635     3.0616326367
| 20>  H        0.0466760521    -2.3095417699     1.6975150584
| 21>  H        1.6871360006    -0.5438355144     1.3631581320
| 22>  H        0.5649063888     0.6971999086     1.9717906134
| 23> *
| 24>
| 25>                          ****END OF INPUT****

CARTESIAN COORDINATES (ANGSTROEM)
---------------------------------
  O      0.038318    1.416317   -0.363099
  C      0.040840    0.052968   -0.002286
  C      0.403023   -0.958261   -1.134937
  C     -0.977951   -1.652052   -0.954476
  C     -1.381780   -0.574739    0.098360
  O     -1.578859   -1.027094    1.422148
  C     -0.292982   -1.298427    1.973048
  C      0.640712   -0.225543    1.389065
  H      0.952877    1.703888   -0.457349
  H      0.513199   -0.452336   -2.096506
  H      1.284153   -1.581611   -0.958390
  H     -1.606216   -1.676619   -1.846822
  H     -0.936365   -2.659295   -0.534282
  H     -2.217225    0.070135   -0.178421
  H     -0.380712   -1.259074    3.061633
  H      0.046676   -2.309542    1.697515
  H      1.687136   -0.543836    1.363158
  H      0.564906    0.697200    1.971791

 Total Charge           Charge          ....    0
 Multiplicity           Mult            ....    1
 Number of Electrons    NEL             ....   62
 Basis Dimension        Dim             ....  308

ORBITAL ENERGIES
----------------

  NO   OCC          E(Eh)            E(eV)
   0   2.0000     -20.560283      -559.4738
   1   2.0000     -20.551306      -559.2295
   2   2.0000     -11.284208      -307.0589
   3   2.0000     -11.275984      -306.8351
   4   2.0000     -11.270746      -306.6926
   5   2.0000     -11.226294      -305.4830
   6   2.0000     -11.224396      -305.4314
   7   2.0000     -11.221152      -305.3431
   8   2.0000      -1.384446       -37.6727
   9   2.0000      -1.362872       -37.0856
  10   2.0000      -1.110134       -30.2083
  11   2.0000      -1.028924       -27.9984
  12   2.0000      -0.919982       -25.0340
  13   2.0000      -0.875165       -23.8144
  14   2.0000      -0.814683       -22.1686
  15   2.0000      -0.745306       -20.2808
  16   2.0000      -0.711384       -19.3577
  17   2.0000      -0.665570       -18.1111
  18   2.0000      -0.651502       -17.7283
  19   2.0000      -0.618124       -16.8200
  20   2.0000      -0.602090       -16.3837
  21   2.0000      -0.578761       -15.7489
  22   2.0000      -0.576182       -15.6787
  23   2.0000      -0.545177       -14.8350
  24   2.0000      -0.504188       -13.7196
  25   2.0000      -0.500540       -13.6204
  26   2.0000      -0.490362       -13.3434
  27   2.0000      -0.478303       -13.0153
  28   2.0000      -0.424436       -11.5495
  29   2.0000      -0.423042       -11.5116
  30   2.0000      -0.397596       -10.8192
  31   0.0000       0.133328         3.6280
  32   0.0000       0.145002         3.9457
  33   0.0000       0.167323         4.5531
  34   0.0000       0.172783         4.7017
  35   0.0000       0.190656         5.1880

MULLIKEN ATOMIC CHARGES
-----------------------
   0 O :   -0.459202
   1 C :    0.266274
   2 C :   -0.267768
   3 C :   -0.263055
   4 C :    0.042307
   5 O :   -0.313132
   6 C :   -0.053944
   7 C :   -0.311142
   8 H :    0.317211
   9 H :    0.111607
  10 H :    0.111643
  11 H :    0.121297
  12 H :    0.124281
  13 H :    0.111612
  14 H :    0.123662
  15 H :    0.094936
  16 H :    0.119692
  17 H :    0.123721
Sum of atomic charges:   -0.0000000

LOEWDIN ATOMIC CHARGES
----------------------
   0 O :    0.008124
   1 C :   -0.340802
   2 C :   -0.211039
   3 C :   -0.221425
   4 C :   -0.248323
   5 O :    0.172994
   6 C :   -0.298967
   7 C :   -0.231597
   8 H :    0.177961
   9 H :    0.134697
  10 H :    0.127296
  11 H :    0.130585
  12 H :    0.133870
  13 H :    0.139941
  14 H :    0.127314
  15 H :    0.117887
  16 H :    0.136202
  17 H :    0.145281

  Mayer bond orders larger than 0.1
B(  0-O ,  1-C ) :   1.0408 B(  0-O ,  8-H ) :   0.8407 B(  1-C ,  2-C ) :   0.9340
B(  1-C ,  4-C ) :   0.8948 B(  1-C ,  7-C ) :   0.9330 B(  2-C ,  3-C ) :   0.9659
B(  2-C ,  9-H ) :   0.9049 B(  2-C , 10-H ) :   0.9133 B(  3-C ,  4-C ) :   0.9007
B(  3-C , 11-H ) :   0.9140 B(  3-C , 12-H ) :   0.9240 B(  4-C ,  5-O ) :   0.9863
B(  4-C , 13-H ) :   0.9175 B(  5-O ,  6-C ) :   0.9175 B(  6-C ,  7-C ) :   0.9547
B(  6-C , 14-H ) :   0.9266 B(  6-C , 15-H ) :   0.9283 B(  7-C , 16-H ) :   0.9152
B(  7-C , 17-H ) :   0.9202

MP2 TOTAL ENERGY:     -384.302277365 Eh
FINAL SINGLE POINT ENERGY      -384.302277365427

DIPOLE MOMENT
-------------
                                X             Y             Z
Electronic contribution:     -2.45329       2.55391       0.84493
Nuclear contribution   :      3.48407      -2.74668      -1.00768
                        -----------------------------------------
Total Dipole Moment    :      1.03079      -0.19277      -0.16275
                        -----------------------------------------
Magnitude (a.u.)       :      1.06121
Magnitude (Debye)      :      2.69738

                             ****ORCA TERMINATED NORMALLY****
TOTAL RUN TIME: 0 days 0 hours 12 minutes 33 seconds 481 msec
