                         Program Version 3.0.3 - RELEASE   -
|  1> ! RI-MP2 RIJK def2-TZVP def2-TZVP/C def2-TZVP/JK TIGHTSCF
|  2> % maxcore 2000
|  3> % mp2 density relaxed end
|  4> *xyz 0 1
|  5>  C       -0.0960067414     1.5648825679    -0.0171803175
|  6>  C        0.0535561246     0.0508255344    -0.0024303631
|  7>  C        0.6813188934    -0.6355559723    -1.2246148411
|  8>  N        2.0843779227    -0.1681286439    -1.2951109155
|  9>  C        1.7217491438    -1.2880569758    -0.3900847975
| 10>  C        1.1880231423    -0.6370644103     0.8941611524
| 11>  C        2.1334903737     0.2606119206     1.6512247082
| 12>  O        2.0473931304     0.4748966334     2.8364789295
| 13>  H        0.8228770434     2.0437361707    -0.3643117851
| 14>  H       -0.9091588870     1.8616445778    -0.6886461665
| 15>  H       -0.3308706563     1.9474160004     0.9812896276
| 16>  H       -0.8972280966    -0.4261544240     0.2507680835
| 17>  H        0.1748824491    -0.9912888327    -2.1135749347
| 18>  H        2.5022675906    -0.5760019051    -2.1302295787
| 19>  H        2.1927304412    -2.2580236279    -0.4888814775
| 20>  H        0.7399286160    -1.3434753299     1.5950509191
| 21>  H        2.9271193898     0.7298870467     1.0338298470
| 22> *
| 23>
| 24>                          ****END OF INPUT****

CARTESIAN COORDINATES (ANGSTROEM)
---------------------------------
  C     -0.096007    1.564883   -0.017180
  C      0.053556    0.050826   -0.002430
  C      0.681319   -0.635556   -1.224615
  N      2.084378   -0.168129   -1.295111
  C      1.721749   -1.288057   -0.390085
  C      1.188023   -0.637064    0.894161
  C      2.133490    0.260612    1.651225
  O      2.047393    0.474897    2.836479
  H      0.822877    2.043736   -0.364312
  H     -0.909159    1.861645   -0.688646
  H     -0.330871    1.947416    0.981290
  H     -0.897228   -0.426154    0.250768
  H      0.174882   -0.991289   -2.113575
  H      2.502268   -0.576002   -2.130230
  H      2.192730   -2.258024   -0.488881
  H      0.739929   -1.343475    1.595051
  H      2.927119    0.729887    1.033830

 Total Charge           Charge          ....    0
 Multiplicity           Mult            ....    1
 Number of Electrons    NEL             ....   60
 Basis Dimension        Dim             ....  302

ORBITAL ENERGIES
----------------

  NO   OCC          E(Eh)            E(eV)
   0   2.0000     -20.547185      -559.1173
   1   2.0000     -15.574176      -423.7949
   2   2.0000     -11.319336      -308.0148
   3   2.0000     -11.276498      -306.8491
   4   2.0000     -11.273246      -306.7606
   5   2.0000     -11.253582      -306.2255
   6   2.0000     -11.246659      -306.0371
   7   2.0000     -11.217502      -305.2437
   8   2.0000      -1.384359       -37.6703
   9   2.0000      -1.295265       -35.2460
  10   2.0000      -1.082373       -29.4529
  11   2.0000      -0.987991       -26.8846
  12   2.0000      -0.917945       -24.9785
  13   2.0000      -0.842983       -22.9387
  14   2.0000      -0.798976       -21.7412
  15   2.0000      -0.746095       -20.3023
  16   2.0000      -0.732573       -19.9343
  17   2.0000      -0.649029       -17.6610
  18   2.0000      -0.629923       -17.1411
  19   2.0000      -0.610692       -16.6178
  20   2.0000      -0.595216       -16.1966
  21   2.0000      -0.560130       -15.2419
  22   2.0000      -0.539833       -14.6896
  23   2.0000      -0.520231       -14.1562
  24   2.0000      -0.517370       -14.0783
  25   2.0000      -0.498418       -13.5626
  26   2.0000      -0.455622       -12.3981
  27   2.0000      -0.445203       -12.1146
  28   2.0000      -0.418364       -11.3843
  29   2.0000      -0.371811       -10.1175
  30   0.0000       0.123281         3.3546
  31   0.0000       0.131392         3.5753
  32   0.0000       0.156202         4.2505
  33   0.0000       0.160171         4.3585
  34   0.0000       0.175935         4.7874

MULLIKEN ATOMIC CHARGES
-----------------------
   0 C :   -0.439433
   1 C :   -0.037765
   2 C :   -0.068218
   3 N :   -0.413224
   4 C :   -0.114270
   5 C :    0.040165
   6 C :    0.013634
   7 O :   -0.271527
   8 H :    0.152286
   9 H :    0.131024
  10 H :    0.145237
  11 H :    0.111377
  12 H :    0.144823
  13 H :    0.218202
  14 H :    0.148013
  15 H :    0.124039
  16 H :    0.115638
Sum of atomic charges:   -0.0000000

LOEWDIN ATOMIC CHARGES
----------------------
   0 C :   -0.295028
   1 C :   -0.197992
   2 C :   -0.216955
   3 N :    0.001344
   4 C :   -0.213238
   5 C :   -0.181701
   6 C :   -0.273767
   7 O :    0.125729
   8 H :    0.130928
   9 H :    0.126076
  10 H :    0.129376
  11 H :    0.153926
  12 H :    0.130036
  13 H :    0.173279
  14 H :    0.130678
  15 H :    0.158364
  16 H :    0.118945

  Mayer bond orders larger than 0.1
B(  0-C ,  1-C ) :   0.8942 B(  0-C ,  8-H ) :   0.9379 B(  0-C ,  9-H ) :   0.9319
B(  0-C , 10-H ) :   0.9357 B(  1-C ,  2-C ) :   0.9102 B(  1-C ,  5-C ) :   0.9224
B(  1-C , 11-H ) :   0.9257 B(  2-C ,  3-N ) :   0.9208 B(  2-C ,  4-C ) :   0.8587
B(  2-C , 12-H ) :   0.9098 B(  3-N ,  4-C ) :   0.8841 B(  3-N , 13-H ) :   0.8670
B(  4-C ,  5-C ) :   0.8840 B(  4-C , 14-H ) :   0.9126 B(  5-C ,  6-C ) :   0.8242
B(  5-C , 15-H ) :   0.9160 B(  6-C ,  7-O ) :   1.9672 B(  6-C , 16-H ) :   0.9515

MP2 TOTAL ENERGY:     -363.200797817 Eh
FINAL SINGLE POINT ENERGY      -363.200797817011

DIPOLE MOMENT
-------------
                                X             Y             Z
Electronic contribution:      3.25504      -1.89765       3.20095
Nuclear contribution   :     -3.65169       1.08365      -4.53089
                        -----------------------------------------
Total Dipole Moment    :     -0.39666      -0.81400      -1.32994
                        -----------------------------------------
Magnitude (a.u.)       :      1.60893
Magnitude (Debye)      :      4.08958

                             ****ORCA TERMINATED NORMALLY****
TOTAL RUN TIME: 0 days 0 hours 13 minutes 52 seconds 996 msec
