                         Program Version 3.0.3 - RELEASE   -
|  1> ! RI-MP2 RIJK def2-TZVP def2-TZVP/C def2-TZVP/JK TIGHTSCF
|  2> % maxcore 2000
|  3> % mp2 density relaxed end
|  4> *xyz 0 1
|  5>  C        0.1790755194     1.5111112725    -0.4598889080
|  6>  C        0.1662012429     0.0170824538    -0.2226539476
|  7>  C        1.4554291480    -0.7366358024     0.0301090717
|  8>  C        0.4512269257    -0.5520956879     1.1351754083
|  9>  C        0.7145148451     0.1804657486     2.4592519841
| 10>  C        0.4034123289    -1.1621567575     3.1833745465
| 11>  O       -0.3149808660    -1.1576478962     4.3896904599
| 12>  C       -0.2668079792    -1.6855942199     1.8796803243
| 13>  H        0.9504589552     2.0011073360     0.1432407441
| 14>  H        0.3828092842     1.7448455629    -1.5107620976
| 15>  H       -0.7831276791     1.9668425114    -0.1988669476
| 16>  H       -0.5802942350    -0.5226206149    -0.8026036669
| 17>  H        1.5718829497    -1.7253710488    -0.4032451820
| 18>  H        2.3754687702    -0.1603210757     0.0779660596
| 19>  H        1.6967359781     0.6304890425     2.6245246979
| 20>  H       -0.0567465508     0.9307374765     2.6767849283
| 21>  H        1.3251671181    -1.7114554454     3.3931586561
| 22>  H       -1.1373063422    -0.6779785710     4.2432120638
| 23>  H       -1.3538349783    -1.5356593320     1.9105522920
| 24>  H       -0.0636543149    -2.7172519025     1.5802062431
| 25> *
| 26>
| 27>                          ****END OF INPUT****

CARTESIAN COORDINATES (ANGSTROEM)
---------------------------------
  C      0.179076    1.511111   -0.459889
  C      0.166201    0.017082   -0.222654
  C      1.455429   -0.736636    0.030109
  C      0.451227   -0.552096    1.135175
  C      0.714515    0.180466    2.459252
  C      0.403412   -1.162157    3.183375
  O     -0.314981   -1.157648    4.389690
  C     -0.266808   -1.685594    1.879680
  H      0.950459    2.001107    0.143241
  H      0.382809    1.744846   -1.510762
  H     -0.783128    1.966843   -0.198867
  H     -0.580294   -0.522621   -0.802604
  H      1.571883   -1.725371   -0.403245
  H      2.375469   -0.160321    0.077966
  H      1.696736    0.630489    2.624525
  H     -0.056747    0.930737    2.676785
  H      1.325167   -1.711455    3.393159
  H     -1.137306   -0.677979    4.243212
  H     -1.353835   -1.535659    1.910552
  H     -0.063654   -2.717252    1.580206

 Total Charge           Charge          ....    0
 Multiplicity           Mult            ....    1
 Number of Electrons    NEL             ....   62
 Basis Dimension        Dim             ....  320

ORBITAL ENERGIES
----------------

  NO   OCC          E(Eh)            E(eV)
   0   2.0000     -20.554428      -559.3144
   1   2.0000     -11.278387      -306.9005
   2   2.0000     -11.234603      -305.7091
   3   2.0000     -11.228821      -305.5517
   4   2.0000     -11.222611      -305.3828
   5   2.0000     -11.222014      -305.3665
   6   2.0000     -11.220785      -305.3331
   7   2.0000     -11.218318      -305.2660
   8   2.0000      -1.362402       -37.0728
   9   2.0000      -1.167754       -31.7762
  10   2.0000      -1.069684       -29.1076
  11   2.0000      -0.956782       -26.0354
  12   2.0000      -0.908396       -24.7187
  13   2.0000      -0.838303       -22.8114
  14   2.0000      -0.789781       -21.4910
  15   2.0000      -0.723334       -19.6829
  16   2.0000      -0.680025       -18.5044
  17   2.0000      -0.650384       -17.6978
  18   2.0000      -0.637122       -17.3370
  19   2.0000      -0.610261       -16.6060
  20   2.0000      -0.569763       -15.5040
  21   2.0000      -0.562697       -15.3118
  22   2.0000      -0.554114       -15.0782
  23   2.0000      -0.542068       -14.7504
  24   2.0000      -0.526752       -14.3336
  25   2.0000      -0.497336       -13.5332
  26   2.0000      -0.486663       -13.2428
  27   2.0000      -0.450982       -12.2718
  28   2.0000      -0.416110       -11.3229
  29   2.0000      -0.396953       -10.8016
  30   2.0000      -0.382037       -10.3958
  31   0.0000       0.131273         3.5721
  32   0.0000       0.153065         4.1651
  33   0.0000       0.156384         4.2554
  34   0.0000       0.162769         4.4292
  35   0.0000       0.190990         5.1971

MULLIKEN ATOMIC CHARGES
-----------------------
   0 C :   -0.424869
   1 C :   -0.032650
   2 C :   -0.334636
   3 C :   -0.016056
   4 C :   -0.202461
   5 C :    0.034486
   6 O :   -0.455151
   7 C :   -0.189556
   8 H :    0.129323
   9 H :    0.136852
  10 H :    0.129215
  11 H :    0.114813
  12 H :    0.127678
  13 H :    0.123270
  14 H :    0.116973
  15 H :    0.107682
  16 H :    0.103405
  17 H :    0.310430
  18 H :    0.104415
  19 H :    0.116838
Sum of atomic charges:    0.0000000

LOEWDIN ATOMIC CHARGES
----------------------
   0 C :   -0.293402
   1 C :   -0.221048
   2 C :   -0.190476
   3 C :   -0.216709
   4 C :   -0.189752
   5 C :   -0.322089
   6 O :   -0.017560
   7 C :   -0.188575
   8 H :    0.127266
   9 H :    0.125400
  10 H :    0.124263
  11 H :    0.148562
  12 H :    0.132662
  13 H :    0.134538
  14 H :    0.128543
  15 H :    0.136782
  16 H :    0.143857
  17 H :    0.173178
  18 H :    0.135728
  19 H :    0.128832

  Mayer bond orders larger than 0.1
B(  0-C ,  1-C ) :   0.8913 B(  0-C ,  8-H ) :   0.9360 B(  0-C ,  9-H ) :   0.9407
B(  0-C , 10-H ) :   0.9414 B(  1-C ,  2-C ) :   0.9353 B(  1-C ,  3-C ) :   0.8012
B(  1-C , 11-H ) :   0.9254 B(  2-C ,  3-C ) :   0.8561 B(  2-C , 12-H ) :   0.9223
B(  2-C , 13-H ) :   0.9219 B(  3-C ,  4-C ) :   0.9150 B(  3-C ,  7-C ) :   0.8937
B(  4-C ,  5-C ) :   0.9493 B(  4-C , 14-H ) :   0.9151 B(  4-C , 15-H ) :   0.9202
B(  5-C ,  6-O ) :   0.9801 B(  5-C ,  7-C ) :   0.9469 B(  5-C , 16-H ) :   0.9235
B(  6-O , 17-H ) :   0.8420 B(  7-C , 18-H ) :   0.9207 B(  7-C , 19-H ) :   0.9139

MP2 TOTAL ENERGY:     -348.373486574 Eh
FINAL SINGLE POINT ENERGY      -348.373486573883

DIPOLE MOMENT
-------------
                                X             Y             Z
Electronic contribution:     -0.59728      -2.99639       4.60680
Nuclear contribution   :      0.37783       3.28791      -5.16184
                        -----------------------------------------
Total Dipole Moment    :     -0.21945       0.29152      -0.55504
                        -----------------------------------------
Magnitude (a.u.)       :      0.66424
Magnitude (Debye)      :      1.68837

                             ****ORCA TERMINATED NORMALLY****
TOTAL RUN TIME: 0 days 0 hours 14 minutes 15 seconds 463 msec
