                         Program Version 3.0.3 - RELEASE   -
|  1> ! RI-MP2 RIJK def2-TZVP def2-TZVP/C def2-TZVP/JK TIGHTSCF
|  2> % maxcore 2000
|  3> % mp2 density relaxed end
|  4> *xyz 0 1
|  5>  C       -0.2632484120     1.5382789405     0.0433536434
|  6>  C        0.0533696390     0.0422572329    -0.0021725908
|  7>  C        0.7374055320    -0.4483095904    -1.2634243664
|  8>  C        1.8219917624    -1.1653430428    -0.9799009063
|  9>  C        2.0362820179    -1.1858286739     0.5026568922
| 10>  C        2.2952854340     0.1605952817     1.1144583848
| 11>  N        0.9414114747    -0.3867901546     1.1165118401
| 12>  C        2.4692120228    -2.3998665572     1.1502866641
| 13>  N        2.8484793283    -3.3740099758     1.6438670062
| 14>  H        0.6315368055     2.1490452206    -0.1068467045
| 15>  H       -0.9805019879     1.7935206262    -0.7422666240
| 16>  H       -0.7053234808     1.8014673807     1.0079718537
| 17>  H       -0.8920711787    -0.5014632804     0.1335988956
| 18>  H        0.3709980379    -0.2212624260    -2.2577745219
| 19>  H        2.4859755910    -1.6621294120    -1.6745498775
| 20>  H        2.7465726511     0.2254985023     2.1001479144
| 21>  H        2.5670002928     0.9482043882     0.4169986969
| 22> *
| 23>
| 24>                          ****END OF INPUT****

CARTESIAN COORDINATES (ANGSTROEM)
---------------------------------
  C     -0.263248    1.538279    0.043354
  C      0.053370    0.042257   -0.002173
  C      0.737406   -0.448310   -1.263424
  C      1.821992   -1.165343   -0.979901
  C      2.036282   -1.185829    0.502657
  C      2.295285    0.160595    1.114458
  N      0.941411   -0.386790    1.116512
  C      2.469212   -2.399867    1.150287
  N      2.848479   -3.374010    1.643867
  H      0.631537    2.149045   -0.106847
  H     -0.980502    1.793521   -0.742267
  H     -0.705323    1.801467    1.007972
  H     -0.892071   -0.501463    0.133599
  H      0.370998   -0.221262   -2.257775
  H      2.485976   -1.662129   -1.674550
  H      2.746573    0.225499    2.100148
  H      2.567000    0.948204    0.416999

 Total Charge           Charge          ....    0
 Multiplicity           Mult            ....    1
 Number of Electrons    NEL             ....   64
 Basis Dimension        Dim             ....  327

ORBITAL ENERGIES
----------------

  NO   OCC          E(Eh)            E(eV)
   0   2.0000     -15.592933      -424.3053
   1   2.0000     -15.571988      -423.7353
   2   2.0000     -11.318628      -307.9955
   3   2.0000     -11.288220      -307.1681
   4   2.0000     -11.285802      -307.1023
   5   2.0000     -11.274341      -306.7904
   6   2.0000     -11.259987      -306.3998
   7   2.0000     -11.254704      -306.2561
   8   2.0000     -11.237264      -305.7815
   9   2.0000      -1.322336       -35.9826
  10   2.0000      -1.215825       -33.0843
  11   2.0000      -1.097525       -29.8652
  12   2.0000      -1.057633       -28.7796
  13   2.0000      -0.951081       -25.8802
  14   2.0000      -0.904832       -24.6217
  15   2.0000      -0.830566       -22.6009
  16   2.0000      -0.783018       -21.3070
  17   2.0000      -0.736832       -20.0502
  18   2.0000      -0.672611       -18.3027
  19   2.0000      -0.650358       -17.6971
  20   2.0000      -0.608355       -16.5542
  21   2.0000      -0.593581       -16.1522
  22   2.0000      -0.572669       -15.5831
  23   2.0000      -0.556818       -15.1518
  24   2.0000      -0.549456       -14.9515
  25   2.0000      -0.528987       -14.3945
  26   2.0000      -0.514412       -13.9979
  27   2.0000      -0.506009       -13.7692
  28   2.0000      -0.461379       -12.5548
  29   2.0000      -0.441798       -12.0219
  30   2.0000      -0.428757       -11.6671
  31   2.0000      -0.364041        -9.9061
  32   0.0000       0.114599         3.1184
  33   0.0000       0.133634         3.6364
  34   0.0000       0.154010         4.1908
  35   0.0000       0.155472         4.2306
  36   0.0000       0.170205         4.6315

MULLIKEN ATOMIC CHARGES
-----------------------
   0 C :   -0.396847
   1 C :    0.072861
   2 C :   -0.214410
   3 C :   -0.185377
   4 C :    0.343915
   5 C :   -0.201286
   6 N :   -0.234983
   7 C :   -0.254811
   8 N :   -0.048289
   9 H :    0.121720
  10 H :    0.138513
  11 H :    0.152534
  12 H :    0.120062
  13 H :    0.140724
  14 H :    0.153685
  15 H :    0.147870
  16 H :    0.144118
Sum of atomic charges:   -0.0000000

LOEWDIN ATOMIC CHARGES
----------------------
   0 C :   -0.283667
   1 C :   -0.270885
   2 C :   -0.123243
   3 C :   -0.103191
   4 C :   -0.249837
   5 C :   -0.187662
   6 N :    0.176576
   7 C :   -0.140485
   8 N :    0.074880
   9 H :    0.123016
  10 H :    0.129616
  11 H :    0.131829
  12 H :    0.157588
  13 H :    0.144603
  14 H :    0.149861
  15 H :    0.136818
  16 H :    0.134184

  Mayer bond orders larger than 0.1
B(  0-C ,  1-C ) :   0.9137 B(  0-C ,  9-H ) :   0.9239 B(  0-C , 10-H ) :   0.9339
B(  0-C , 11-H ) :   0.9374 B(  1-C ,  2-C ) :   0.9554 B(  1-C ,  6-N ) :   0.8950
B(  1-C , 12-H ) :   0.9092 B(  2-C ,  3-C ) :   1.7769 B(  2-C , 13-H ) :   0.9126
B(  3-C ,  4-C ) :   0.9390 B(  3-C , 14-H ) :   0.9211 B(  4-C ,  5-C ) :   0.8548
B(  4-C ,  6-N ) :   0.8145 B(  4-C ,  7-C ) :   0.8906 B(  5-C ,  6-N ) :   0.8980
B(  5-C , 15-H ) :   0.9125 B(  5-C , 16-H ) :   0.9116 B(  7-C ,  8-N ) :   2.8728

MP2 TOTAL ENERGY:     -380.182387911 Eh
FINAL SINGLE POINT ENERGY      -380.182387911000

DIPOLE MOMENT
-------------
                                X             Y             Z
Electronic contribution:      4.28995      -8.23465       2.65797
Nuclear contribution   :     -4.72819       9.83977      -3.81073
                        -----------------------------------------
Total Dipole Moment    :     -0.43824       1.60512      -1.15276
                        -----------------------------------------
Magnitude (a.u.)       :      2.02419
Magnitude (Debye)      :      5.14507

                             ****ORCA TERMINATED NORMALLY****
TOTAL RUN TIME: 0 days 0 hours 17 minutes 10 seconds 356 msec
