                         Program Version 3.0.3 - RELEASE   -
|  1> ! RI-MP2 RIJK def2-TZVP def2-TZVP/C def2-TZVP/JK TIGHTSCF
|  2> % maxcore 2000
|  3> % mp2 density relaxed end
|  4> *xyz 0 1
|  5>  N        0.1204575208     1.2198198757     0.6858607359
|  6>  C        0.0187845971     0.1061670196     0.1243817871
|  7>  C       -1.1165973733    -0.8615825075    -0.1379625709
|  8>  C       -0.0204734339    -1.7181749228    -0.8075179332
|  9>  C       -0.1201955924    -1.9629670917    -2.3066421075
| 10>  C        1.1755250402    -2.4970508420    -2.8899753464
| 11>  O        1.2585076437    -3.5061999418    -3.5405603365
| 12>  O        0.9754447360    -0.6851271125    -0.4886953647
| 13>  H        1.0818234300     1.5639911687     0.6669446529
| 14>  H       -1.5769522728    -1.2823231375     0.7568750482
| 15>  H       -1.8934403689    -0.4840124663    -0.8056200117
| 16>  H        0.2276378159    -2.6382131875    -0.2700301948
| 17>  H       -0.9235392287    -2.6733728120    -2.5240813856
| 18>  H       -0.3495361971    -1.0090357469    -2.8013514114
| 19>  H        2.0688017532    -1.8740060753    -2.6689484113
| 20> *
| 21>
| 22>                          ****END OF INPUT****

CARTESIAN COORDINATES (ANGSTROEM)
---------------------------------
  N      0.120458    1.219820    0.685861
  C      0.018785    0.106167    0.124382
  C     -1.116597   -0.861583   -0.137963
  C     -0.020473   -1.718175   -0.807518
  C     -0.120196   -1.962967   -2.306642
  C      1.175525   -2.497051   -2.889975
  O      1.258508   -3.506200   -3.540560
  O      0.975445   -0.685127   -0.488695
  H      1.081823    1.563991    0.666945
  H     -1.576952   -1.282323    0.756875
  H     -1.893440   -0.484012   -0.805620
  H      0.227638   -2.638213   -0.270030
  H     -0.923539   -2.673373   -2.524081
  H     -0.349536   -1.009036   -2.801351
  H      2.068802   -1.874006   -2.668948

 Total Charge           Charge          ....    0
 Multiplicity           Mult            ....    1
 Number of Electrons    NEL             ....   60
 Basis Dimension        Dim             ....  290

ORBITAL ENERGIES
----------------

  NO   OCC          E(Eh)            E(eV)
   0   2.0000     -20.605576      -560.7062
   1   2.0000     -20.568810      -559.7058
   2   2.0000     -15.548641      -423.1000
   3   2.0000     -11.353482      -308.9439
   4   2.0000     -11.342999      -308.6587
   5   2.0000     -11.328958      -308.2766
   6   2.0000     -11.267244      -306.5973
   7   2.0000     -11.262694      -306.4735
   8   2.0000      -1.447997       -39.4020
   9   2.0000      -1.407134       -38.2901
  10   2.0000      -1.210112       -32.9288
  11   2.0000      -1.089907       -29.6579
  12   2.0000      -1.027744       -27.9663
  13   2.0000      -0.882212       -24.0062
  14   2.0000      -0.811547       -22.0833
  15   2.0000      -0.761192       -20.7131
  16   2.0000      -0.723187       -19.6789
  17   2.0000      -0.715385       -19.4666
  18   2.0000      -0.680423       -18.5153
  19   2.0000      -0.660034       -17.9604
  20   2.0000      -0.635337       -17.2884
  21   2.0000      -0.587987       -15.9999
  22   2.0000      -0.575670       -15.6648
  23   2.0000      -0.549774       -14.9601
  24   2.0000      -0.531952       -14.4752
  25   2.0000      -0.519047       -14.1240
  26   2.0000      -0.512324       -13.9410
  27   2.0000      -0.449331       -12.2269
  28   2.0000      -0.431203       -11.7336
  29   2.0000      -0.414687       -11.2842
  30   0.0000       0.114771         3.1231
  31   0.0000       0.130777         3.5586
  32   0.0000       0.146978         3.9995
  33   0.0000       0.161655         4.3988
  34   0.0000       0.163698         4.4544

MULLIKEN ATOMIC CHARGES
-----------------------
   0 N :   -0.358683
   1 C :    0.125704
   2 C :   -0.214304
   3 C :    0.075486
   4 C :   -0.192267
   5 C :    0.084209
   6 O :   -0.257412
   7 O :   -0.282764
   8 H :    0.232212
   9 H :    0.148281
  10 H :    0.143197
  11 H :    0.124438
  12 H :    0.131786
  13 H :    0.137941
  14 H :    0.102175
Sum of atomic charges:    0.0000000

LOEWDIN ATOMIC CHARGES
----------------------
   0 N :   -0.050338
   1 C :   -0.398566
   2 C :   -0.177934
   3 C :   -0.243151
   4 C :   -0.244864
   5 C :   -0.287850
   6 O :    0.137054
   7 O :    0.219645
   8 H :    0.175113
   9 H :    0.148018
  10 H :    0.148939
  11 H :    0.143944
  12 H :    0.154234
  13 H :    0.158540
  14 H :    0.117216

  Mayer bond orders larger than 0.1
B(  0-N ,  1-C ) :   2.0812 B(  0-N ,  8-H ) :   0.8439 B(  1-C ,  2-C ) :   0.9334
B(  1-C ,  7-O ) :   1.0489 B(  2-C ,  3-C ) :   0.9152 B(  2-C ,  9-H ) :   0.9128
B(  2-C , 10-H ) :   0.9116 B(  3-C ,  4-C ) :   0.9102 B(  3-C ,  7-O ) :   0.8659
B(  3-C , 11-H ) :   0.9157 B(  4-C ,  5-C ) :   0.8815 B(  4-C , 12-H ) :   0.9055
B(  4-C , 13-H ) :   0.9031 B(  5-C ,  6-O ) :   1.9895 B(  5-C , 14-H ) :   0.9347

MP2 TOTAL ENERGY:     -399.148529019 Eh
FINAL SINGLE POINT ENERGY      -399.148529018789

DIPOLE MOMENT
-------------
                                X             Y             Z
Electronic contribution:      2.83391      -0.39354      -0.49195
Nuclear contribution   :     -3.30724       0.33845       0.64119
                        -----------------------------------------
Total Dipole Moment    :     -0.47334      -0.05508       0.14924
                        -----------------------------------------
Magnitude (a.u.)       :      0.49936
Magnitude (Debye)      :      1.26926

                             ****ORCA TERMINATED NORMALLY****
TOTAL RUN TIME: 0 days 0 hours 9 minutes 57 seconds 800 msec
