                         Program Version 3.0.3 - RELEASE   -
|  1> ! RI-MP2 RIJK def2-TZVP def2-TZVP/C def2-TZVP/JK TIGHTSCF
|  2> % maxcore 2000
|  3> % mp2 density relaxed end
|  4> *xyz 0 1
|  5>  C        0.1525724487     1.5483667280    -0.1529026325
|  6>  C       -0.0019355828     0.0413625952     0.0528126886
|  7>  O        0.5659271653    -0.6599867260    -1.0562021242
|  8>  C        1.4352369638    -1.7041091669    -0.6200875055
|  9>  C        2.7628658453    -1.6273151303    -1.3672012398
| 10>  C        1.5379373718    -1.5010525886     0.8861074924
| 11>  C        0.7157737592    -0.5122142320     1.2512449811
| 12>  C        2.3726639805    -2.2940758855     1.7041703381
| 13>  C        3.0992272599    -2.9991911414     2.3579834461
| 14>  H        1.2105407553     1.8231759811    -0.1866640447
| 15>  H       -0.3154402847     1.8450003274    -1.0956742153
| 16>  H       -0.3307678922     2.1000005090     0.6601086824
| 17>  H       -1.0799696270    -0.1933699692     0.1153241851
| 18>  H        0.9660939783    -2.6810353440    -0.8267871810
| 19>  H        3.2591167328    -0.6734859816    -1.1663606288
| 20>  H        3.4231414621    -2.4418280265    -1.0547673723
| 21>  H        2.5901125187    -1.7111059609    -2.4436101438
| 22>  H        0.5598006120    -0.1513506712     2.2594702860
| 23>  H        3.7349928731    -3.6113236668     2.9482599380
| 24> *
| 25>
| 26>                          ****END OF INPUT****

CARTESIAN COORDINATES (ANGSTROEM)
---------------------------------
  C      0.152572    1.548367   -0.152903
  C     -0.001936    0.041363    0.052813
  O      0.565927   -0.659987   -1.056202
  C      1.435237   -1.704109   -0.620088
  C      2.762866   -1.627315   -1.367201
  C      1.537937   -1.501053    0.886107
  C      0.715774   -0.512214    1.251245
  C      2.372664   -2.294076    1.704170
  C      3.099227   -2.999191    2.357983
  H      1.210541    1.823176   -0.186664
  H     -0.315440    1.845000   -1.095674
  H     -0.330768    2.100001    0.660109
  H     -1.079970   -0.193370    0.115324
  H      0.966094   -2.681035   -0.826787
  H      3.259117   -0.673486   -1.166361
  H      3.423141   -2.441828   -1.054767
  H      2.590113   -1.711106   -2.443610
  H      0.559801   -0.151351    2.259470
  H      3.734993   -3.611324    2.948260

 Total Charge           Charge          ....    0
 Multiplicity           Mult            ....    1
 Number of Electrons    NEL             ....   66
 Basis Dimension        Dim             ....  339

ORBITAL ENERGIES
----------------

  NO   OCC          E(Eh)            E(eV)
   0   2.0000     -20.552125      -559.2518
   1   2.0000     -11.289906      -307.2140
   2   2.0000     -11.289806      -307.2112
   3   2.0000     -11.258288      -306.3536
   4   2.0000     -11.246234      -306.0256
   5   2.0000     -11.244605      -305.9813
   6   2.0000     -11.235653      -305.7377
   7   2.0000     -11.219272      -305.2919
   8   2.0000     -11.213723      -305.1409
   9   2.0000      -1.381605       -37.5954
  10   2.0000      -1.111386       -30.2423
  11   2.0000      -1.059073       -28.8188
  12   2.0000      -1.019144       -27.7323
  13   2.0000      -0.975527       -26.5454
  14   2.0000      -0.881205       -23.9788
  15   2.0000      -0.818850       -22.2820
  16   2.0000      -0.791875       -21.5480
  17   2.0000      -0.728868       -19.8335
  18   2.0000      -0.700612       -19.0646
  19   2.0000      -0.652401       -17.7527
  20   2.0000      -0.628568       -17.1042
  21   2.0000      -0.598812       -16.2945
  22   2.0000      -0.587580       -15.9889
  23   2.0000      -0.550842       -14.9892
  24   2.0000      -0.532606       -14.4929
  25   2.0000      -0.523526       -14.2459
  26   2.0000      -0.520846       -14.1729
  27   2.0000      -0.500021       -13.6063
  28   2.0000      -0.487786       -13.2733
  29   2.0000      -0.468084       -12.7372
  30   2.0000      -0.415714       -11.3121
  31   2.0000      -0.396019       -10.7762
  32   2.0000      -0.334347        -9.0980
  33   0.0000       0.103237         2.8092
  34   0.0000       0.144293         3.9264
  35   0.0000       0.154214         4.1964
  36   0.0000       0.164400         4.4736
  37   0.0000       0.170630         4.6431

MULLIKEN ATOMIC CHARGES
-----------------------
   0 C :   -0.393669
   1 C :    0.152814
   2 O :   -0.327850
   3 C :    0.099912
   4 C :   -0.393416
   5 C :   -0.159437
   6 C :   -0.233239
   7 C :    0.069363
   8 C :   -0.125557
   9 H :    0.128050
  10 H :    0.141738
  11 H :    0.120302
  12 H :    0.091521
  13 H :    0.091399
  14 H :    0.125706
  15 H :    0.132036
  16 H :    0.141072
  17 H :    0.144616
  18 H :    0.194638
Sum of atomic charges:    0.0000000

LOEWDIN ATOMIC CHARGES
----------------------
   0 C :   -0.288354
   1 C :   -0.315817
   2 O :    0.199716
   3 C :   -0.276164
   4 C :   -0.283442
   5 C :   -0.143338
   6 C :   -0.079280
   7 C :   -0.069347
   8 C :   -0.071101
   9 H :    0.124910
  10 H :    0.127877
  11 H :    0.124917
  12 H :    0.143422
  13 H :    0.145530
  14 H :    0.126388
  15 H :    0.129631
  16 H :    0.127678
  17 H :    0.148082
  18 H :    0.128691

  Mayer bond orders larger than 0.1
B(  0-C ,  1-C ) :   0.8962 B(  0-C ,  9-H ) :   0.9353 B(  0-C , 10-H ) :   0.9356
B(  0-C , 11-H ) :   0.9313 B(  1-C ,  2-O ) :   0.9298 B(  1-C ,  6-C ) :   0.9616
B(  1-C , 12-H ) :   0.9103 B(  2-O ,  3-C ) :   0.9574 B(  3-C ,  4-C ) :   0.8931
B(  3-C ,  5-C ) :   0.9780 B(  3-C , 13-H ) :   0.9043 B(  4-C , 14-H ) :   0.9366
B(  4-C , 15-H ) :   0.9277 B(  4-C , 16-H ) :   0.9345 B(  5-C ,  6-C ) :   1.6821
B(  5-C ,  7-C ) :   1.1344 B(  5-C ,  8-C ) :  -0.1607 B(  6-C , 17-H ) :   0.9124
B(  7-C ,  8-C ) :   2.5944 B(  8-C , 18-H ) :   0.8789

MP2 TOTAL ENERGY:     -385.183563742 Eh
FINAL SINGLE POINT ENERGY      -385.183563741839

DIPOLE MOMENT
-------------
                                X             Y             Z
Electronic contribution:     -0.17042      -4.24626       3.62352
Nuclear contribution   :      0.22147       4.25981      -3.19532
                        -----------------------------------------
Total Dipole Moment    :      0.05105       0.01355       0.42820
                        -----------------------------------------
Magnitude (a.u.)       :      0.43145
Magnitude (Debye)      :      1.09665

                             ****ORCA TERMINATED NORMALLY****
TOTAL RUN TIME: 0 days 0 hours 18 minutes 18 seconds 849 msec
