                         Program Version 3.0.3 - RELEASE   -
|  1> ! RI-MP2 RIJK def2-TZVP def2-TZVP/C def2-TZVP/JK TIGHTSCF
|  2> % maxcore 2000
|  3> % mp2 density relaxed end
|  4> *xyz 0 1
|  5>  C       -0.0168369923     1.5683787964     0.0101429724
|  6>  C       -0.0128627498     0.0692998405     0.0487366889
|  7>  C       -1.2479916940    -0.8313715601     0.0982654200
|  8>  O       -0.5501904575    -1.7996839804     0.9307846142
|  9>  C        0.5837936944    -0.9350820302     0.9882974250
| 10>  C        1.2125994545    -0.7647967013    -0.3816196665
| 11>  C        1.2028324671    -1.8349974338    -1.4065531235
| 12>  O        2.0471966577    -1.9433302936    -2.2652701871
| 13>  H        0.9651810760     1.9719694225     0.2736153955
| 14>  H       -0.2689487946     1.9398386688    -0.9895384854
| 15>  H       -0.7489473203     1.9760380426     0.7161077631
| 16>  H       -2.0721881779    -0.3753293289     0.6589694509
| 17>  H       -1.6293310956    -1.2652771480    -0.8315623806
| 18>  H        1.1300864574    -0.8626215639     1.9220452535
| 19>  H        2.1224977178    -0.1706020983    -0.3855318230
| 20>  H        0.3676447271    -2.5597809324    -1.3289580473
| 21> *
| 22>
| 23>                          ****END OF INPUT****

CARTESIAN COORDINATES (ANGSTROEM)
---------------------------------
  C     -0.016837    1.568379    0.010143
  C     -0.012863    0.069300    0.048737
  C     -1.247992   -0.831372    0.098265
  O     -0.550190   -1.799684    0.930785
  C      0.583794   -0.935082    0.988297
  C      1.212599   -0.764797   -0.381620
  C      1.202832   -1.834997   -1.406553
  O      2.047197   -1.943330   -2.265270
  H      0.965181    1.971969    0.273615
  H     -0.268949    1.939839   -0.989538
  H     -0.748947    1.976038    0.716108
  H     -2.072188   -0.375329    0.658969
  H     -1.629331   -1.265277   -0.831562
  H      1.130086   -0.862622    1.922045
  H      2.122498   -0.170602   -0.385532
  H      0.367645   -2.559781   -1.328958

 Total Charge           Charge          ....    0
 Multiplicity           Mult            ....    1
 Number of Electrons    NEL             ....   60
 Basis Dimension        Dim             ....  296

ORBITAL ENERGIES
----------------

  NO   OCC          E(Eh)            E(eV)
   0   2.0000     -20.574839      -559.8698
   1   2.0000     -20.549592      -559.1828
   2   2.0000     -11.328696      -308.2695
   3   2.0000     -11.311528      -307.8023
   4   2.0000     -11.303215      -307.5761
   5   2.0000     -11.273060      -306.7556
   6   2.0000     -11.254871      -306.2606
   7   2.0000     -11.244654      -305.9826
   8   2.0000      -1.414932       -38.5022
   9   2.0000      -1.386859       -37.7383
  10   2.0000      -1.150807       -31.3151
  11   2.0000      -1.010972       -27.5100
  12   2.0000      -0.948889       -25.8206
  13   2.0000      -0.910072       -24.7643
  14   2.0000      -0.785127       -21.3644
  15   2.0000      -0.763014       -20.7627
  16   2.0000      -0.700408       -19.0591
  17   2.0000      -0.683090       -18.5878
  18   2.0000      -0.656353       -17.8603
  19   2.0000      -0.629935       -17.1414
  20   2.0000      -0.591162       -16.0863
  21   2.0000      -0.587845       -15.9961
  22   2.0000      -0.578621       -15.7451
  23   2.0000      -0.568812       -15.4782
  24   2.0000      -0.544420       -14.8144
  25   2.0000      -0.502489       -13.6734
  26   2.0000      -0.488113       -13.2822
  27   2.0000      -0.449180       -12.2228
  28   2.0000      -0.407463       -11.0876
  29   2.0000      -0.386993       -10.5306
  30   0.0000       0.122708         3.3391
  31   0.0000       0.130407         3.5486
  32   0.0000       0.156767         4.2658
  33   0.0000       0.166972         4.5435
  34   0.0000       0.179927         4.8961

MULLIKEN ATOMIC CHARGES
-----------------------
   0 C :   -0.395663
   1 C :   -0.043661
   2 C :   -0.022764
   3 O :   -0.335631
   4 C :    0.086110
   5 C :   -0.133356
   6 C :    0.069601
   7 O :   -0.274605
   8 H :    0.138986
   9 H :    0.147096
  10 H :    0.136818
  11 H :    0.114350
  12 H :    0.122519
  13 H :    0.145728
  14 H :    0.135217
  15 H :    0.109254
Sum of atomic charges:   -0.0000000

LOEWDIN ATOMIC CHARGES
----------------------
   0 C :   -0.268342
   1 C :   -0.214449
   2 C :   -0.212618
   3 O :    0.149937
   4 C :   -0.205603
   5 C :   -0.165647
   6 C :   -0.281175
   7 O :    0.122459
   8 H :    0.134094
   9 H :    0.133652
  10 H :    0.131317
  11 H :    0.129968
  12 H :    0.121477
  13 H :    0.136560
  14 H :    0.166898
  15 H :    0.121471

  Mayer bond orders larger than 0.1
B(  0-C ,  1-C ) :   0.8992 B(  0-C ,  8-H ) :   0.9325 B(  0-C ,  9-H ) :   0.9343
B(  0-C , 10-H ) :   0.9329 B(  1-C ,  2-C ) :   0.9756 B(  1-C ,  4-C ) :   0.8881
B(  1-C ,  5-C ) :   0.7963 B(  2-C ,  3-O ) :   0.9051 B(  2-C , 11-H ) :   0.9076
B(  2-C , 12-H ) :   0.9204 B(  3-O ,  4-C ) :   0.9590 B(  4-C ,  5-C ) :   0.8062
B(  4-C , 13-H ) :   0.9092 B(  5-C ,  6-C ) :   0.9335 B(  5-C , 14-H ) :   0.9190
B(  6-C ,  7-O ) :   1.9628 B(  6-C , 15-H ) :   0.9400

MP2 TOTAL ENERGY:     -383.060625476 Eh
FINAL SINGLE POINT ENERGY      -383.060625475688

DIPOLE MOMENT
-------------
                                X             Y             Z
Electronic contribution:      2.41643      -5.64011      -1.26464
Nuclear contribution   :     -3.09350       6.74068       1.96438
                        -----------------------------------------
Total Dipole Moment    :     -0.67706       1.10057       0.69973
                        -----------------------------------------
Magnitude (a.u.)       :      1.46945
Magnitude (Debye)      :      3.73505

                             ****ORCA TERMINATED NORMALLY****
TOTAL RUN TIME: 0 days 0 hours 11 minutes 31 seconds 509 msec
