                         Program Version 3.0.3 - RELEASE   -
|  1> ! RI-MP2 RIJK def2-TZVP def2-TZVP/C def2-TZVP/JK TIGHTSCF
|  2> % maxcore 2000
|  3> % mp2 density relaxed end
|  4> *xyz 0 1
|  5>  C       -0.0966065955     1.5209591924    -0.4712815324
|  6>  N        0.0628883638     0.1201824090    -0.0928406674
|  7>  C        1.2836806673    -0.6433893016    -0.2609899523
|  8>  C        2.6253559377     0.0632218726    -0.3772843372
|  9>  N        2.6250119121     1.0353670516     0.7224147666
| 10>  C        1.7783150836     0.5297922762     1.8052026181
| 11>  C        1.2073179345     1.6339461331     2.5953509915
| 12>  N        0.7667039111     2.4834897382     3.2428051141
| 13>  C        0.7331351575    -0.3436815147     1.0992917388
| 14>  H        0.7896509699     2.1435597071    -0.3075782440
| 15>  H       -0.3695667241     1.5548824429    -1.5305658842
| 16>  H       -0.9295945080     1.9369535295     0.1023577747
| 17>  H        1.1838368929    -1.6132438274    -0.7412768221
| 18>  H        3.4211105812    -0.6958313604    -0.2998318904
| 19>  H        2.7573667634     0.5835508332    -1.3340067673
| 20>  H        3.5489395781     1.3012898285     1.0356197899
| 21>  H        2.3067949858    -0.1267388017     2.5192617302
| 22>  H        0.1984231786    -1.0554976483     1.7218308734
| 23> *
| 24>
| 25>                          ****END OF INPUT****

CARTESIAN COORDINATES (ANGSTROEM)
---------------------------------
  C     -0.096607    1.520959   -0.471282
  N      0.062888    0.120182   -0.092841
  C      1.283681   -0.643389   -0.260990
  C      2.625356    0.063222   -0.377284
  N      2.625012    1.035367    0.722415
  C      1.778315    0.529792    1.805203
  C      1.207318    1.633946    2.595351
  N      0.766704    2.483490    3.242805
  C      0.733135   -0.343682    1.099292
  H      0.789651    2.143560   -0.307578
  H     -0.369567    1.554882   -1.530566
  H     -0.929595    1.936954    0.102358
  H      1.183837   -1.613244   -0.741277
  H      3.421111   -0.695831   -0.299832
  H      2.757367    0.583551   -1.334007
  H      3.548940    1.301290    1.035620
  H      2.306795   -0.126739    2.519262
  H      0.198423   -1.055498    1.721831

 Total Charge           Charge          ....    0
 Multiplicity           Mult            ....    1
 Number of Electrons    NEL             ....   66
 Basis Dimension        Dim             ....  333

ORBITAL ENERGIES
----------------

  NO   OCC          E(Eh)            E(eV)
   0   2.0000     -15.573743      -423.7831
   1   2.0000     -15.569856      -423.6773
   2   2.0000     -15.569831      -423.6766
   3   2.0000     -11.320168      -308.0374
   4   2.0000     -11.281903      -306.9962
   5   2.0000     -11.277108      -306.8657
   6   2.0000     -11.275777      -306.8295
   7   2.0000     -11.270863      -306.6958
   8   2.0000     -11.243523      -305.9518
   9   2.0000      -1.314073       -35.7577
  10   2.0000      -1.230462       -33.4826
  11   2.0000      -1.208696       -32.8903
  12   2.0000      -1.035703       -28.1829
  13   2.0000      -1.014479       -27.6054
  14   2.0000      -0.917933       -24.9782
  15   2.0000      -0.825248       -22.4562
  16   2.0000      -0.789120       -21.4731
  17   2.0000      -0.750562       -20.4238
  18   2.0000      -0.704421       -19.1683
  19   2.0000      -0.645921       -17.5764
  20   2.0000      -0.634997       -17.2792
  21   2.0000      -0.604613       -16.4523
  22   2.0000      -0.597604       -16.2616
  23   2.0000      -0.578571       -15.7437
  24   2.0000      -0.560852       -15.2616
  25   2.0000      -0.555061       -15.1040
  26   2.0000      -0.544956       -14.8290
  27   2.0000      -0.477242       -12.9864
  28   2.0000      -0.472114       -12.8469
  29   2.0000      -0.453928       -12.3520
  30   2.0000      -0.435255       -11.8439
  31   2.0000      -0.408741       -11.1224
  32   2.0000      -0.377961       -10.2848
  33   0.0000       0.113949         3.1007
  34   0.0000       0.151330         4.1179
  35   0.0000       0.153555         4.1784
  36   0.0000       0.162822         4.4306
  37   0.0000       0.177343         4.8258

MULLIKEN ATOMIC CHARGES
-----------------------
   0 C :   -0.318174
   1 N :   -0.211850
   2 C :   -0.072429
   3 C :   -0.111325
   4 N :   -0.413024
   5 C :    0.119586
   6 C :   -0.188283
   7 N :   -0.052079
   8 C :   -0.068154
   9 H :    0.152498
  10 H :    0.139001
  11 H :    0.147368
  12 H :    0.136330
  13 H :    0.115005
  14 H :    0.130249
  15 H :    0.220637
  16 H :    0.130821
  17 H :    0.143825
Sum of atomic charges:   -0.0000000

LOEWDIN ATOMIC CHARGES
----------------------
   0 C :   -0.318446
   1 N :    0.131450
   2 C :   -0.231079
   3 C :   -0.274832
   4 N :    0.016541
   5 C :   -0.271211
   6 C :   -0.165598
   7 N :    0.064917
   8 C :   -0.203468
   9 H :    0.116693
  10 H :    0.119300
  11 H :    0.124535
  12 H :    0.141898
  13 H :    0.130032
  14 H :    0.135525
  15 H :    0.171889
  16 H :    0.166518
  17 H :    0.145336

  Mayer bond orders larger than 0.1
B(  0-C ,  1-N ) :   0.8627 B(  0-C ,  9-H ) :   0.9158 B(  0-C , 10-H ) :   0.9331
B(  0-C , 11-H ) :   0.9344 B(  1-N ,  2-C ) :   0.9329 B(  1-N ,  8-C ) :   0.9662
B(  2-C ,  3-C ) :   0.9482 B(  2-C ,  8-C ) :   0.8774 B(  2-C , 12-H ) :   0.9247
B(  3-C ,  4-N ) :   0.9108 B(  3-C , 13-H ) :   0.9180 B(  3-C , 14-H ) :   0.9213
B(  4-N ,  5-C ) :   0.9018 B(  4-N , 15-H ) :   0.8781 B(  5-C ,  6-C ) :   0.9099
B(  5-C ,  8-C ) :   0.8754 B(  5-C , 16-H ) :   0.9032 B(  6-C ,  7-N ) :   2.8756
B(  8-C , 17-H ) :   0.9220

MP2 TOTAL ENERGY:     -397.413789679 Eh
FINAL SINGLE POINT ENERGY      -397.413789679254

DIPOLE MOMENT
-------------
                                X             Y             Z
Electronic contribution:     -0.53432       1.12031       5.53882
Nuclear contribution   :      1.69665      -2.25837      -6.31386
                        -----------------------------------------
Total Dipole Moment    :      1.16232      -1.13806      -0.77504
                        -----------------------------------------
Magnitude (a.u.)       :      1.80191
Magnitude (Debye)      :      4.58008

                             ****ORCA TERMINATED NORMALLY****
TOTAL RUN TIME: 0 days 0 hours 19 minutes 10 seconds 859 msec
