                         Program Version 3.0.3 - RELEASE   -
|  1> ! RI-MP2 RIJK def2-TZVP def2-TZVP/C def2-TZVP/JK TIGHTSCF
|  2> % maxcore 2000
|  3> % mp2 density relaxed end
|  4> *xyz 0 1
|  5>  C        0.0086690141     1.4852311777     0.0996626298
|  6>  C        0.0306825310    -0.0077075191     0.0107378625
|  7>  C        0.1337570923    -0.7926968543    -1.0957433135
|  8>  O        0.1242960784    -2.1126878366    -0.7695704414
|  9>  C        0.0041339998    -2.1968860841     0.5879236018
| 10>  C       -0.0338603574    -3.5391534250     1.2444865853
| 11>  O       -0.8861968393    -3.5524523878     2.3771476275
| 12>  C       -0.0510693494    -0.9389783698     1.1029529373
| 13>  O       -0.1070772441    -0.6622388788     2.4470496232
| 14>  H        0.8111714470     1.8617179919     0.7447863860
| 15>  H        0.1345793299     1.9389144824    -0.8866388018
| 16>  H       -0.9388146193     1.8591806937     0.5091349272
| 17>  H        0.2195754207    -0.5677572189    -2.1463649785
| 18>  H       -0.4257431995    -4.2744780133     0.5337321348
| 19>  H        0.9842934468    -3.8686892650     1.5149377462
| 20>  H       -0.6658430116    -2.7782691986     2.9088043516
| 21>  H       -0.6191909395     0.1412969155     2.5840395120
| 22> *
| 23>
| 24>                          ****END OF INPUT****

CARTESIAN COORDINATES (ANGSTROEM)
---------------------------------
  C      0.008669    1.485231    0.099663
  C      0.030683   -0.007708    0.010738
  C      0.133757   -0.792697   -1.095743
  O      0.124296   -2.112688   -0.769570
  C      0.004134   -2.196886    0.587924
  C     -0.033860   -3.539153    1.244487
  O     -0.886197   -3.552452    2.377148
  C     -0.051069   -0.938978    1.102953
  O     -0.107077   -0.662239    2.447050
  H      0.811171    1.861718    0.744786
  H      0.134579    1.938914   -0.886639
  H     -0.938815    1.859181    0.509135
  H      0.219575   -0.567757   -2.146365
  H     -0.425743   -4.274478    0.533732
  H      0.984293   -3.868689    1.514938
  H     -0.665843   -2.778269    2.908804
  H     -0.619191    0.141297    2.584040

 Total Charge           Charge          ....    0
 Multiplicity           Mult            ....    1
 Number of Electrons    NEL             ....   68
 Basis Dimension        Dim             ....  327

ORBITAL ENERGIES
----------------

  NO   OCC          E(Eh)            E(eV)
   0   2.0000     -20.620574      -561.1143
   1   2.0000     -20.600034      -560.5554
   2   2.0000     -20.550042      -559.1951
   3   2.0000     -11.287314      -307.1434
   4   2.0000     -11.287176      -307.1397
   5   2.0000     -11.285459      -307.0930
   6   2.0000     -11.280491      -306.9578
   7   2.0000     -11.243825      -305.9600
   8   2.0000     -11.242627      -305.9274
   9   2.0000      -1.458911       -39.6990
  10   2.0000      -1.408541       -38.3284
  11   2.0000      -1.355861       -36.8948
  12   2.0000      -1.100371       -29.9426
  13   2.0000      -1.038373       -28.2556
  14   2.0000      -0.968545       -26.3554
  15   2.0000      -0.911781       -24.8108
  16   2.0000      -0.812462       -22.1082
  17   2.0000      -0.777532       -21.1577
  18   2.0000      -0.726628       -19.7726
  19   2.0000      -0.685619       -18.6567
  20   2.0000      -0.677426       -18.4337
  21   2.0000      -0.643295       -17.5049
  22   2.0000      -0.621841       -16.9211
  23   2.0000      -0.605681       -16.4814
  24   2.0000      -0.596730       -16.2379
  25   2.0000      -0.585765       -15.9395
  26   2.0000      -0.580538       -15.7972
  27   2.0000      -0.567102       -15.4316
  28   2.0000      -0.552346       -15.0301
  29   2.0000      -0.525662       -14.3040
  30   2.0000      -0.485617       -13.2143
  31   2.0000      -0.452143       -12.3034
  32   2.0000      -0.376229       -10.2377
  33   2.0000      -0.306814        -8.3488
  34   0.0000       0.111732         3.0404
  35   0.0000       0.145015         3.9461
  36   0.0000       0.160310         4.3622
  37   0.0000       0.169598         4.6150
  38   0.0000       0.182678         4.9709

MULLIKEN ATOMIC CHARGES
-----------------------
   0 C :   -0.464157
   1 C :    0.026940
   2 C :   -0.047227
   3 O :   -0.222007
   4 C :    0.103277
   5 C :   -0.027920
   6 O :   -0.478591
   7 C :    0.088775
   8 O :   -0.491579
   9 H :    0.158168
  10 H :    0.147113
  11 H :    0.142104
  12 H :    0.145255
  13 H :    0.128700
  14 H :    0.114377
  15 H :    0.331544
  16 H :    0.345227
Sum of atomic charges:    0.0000000

LOEWDIN ATOMIC CHARGES
----------------------
   0 C :   -0.275078
   1 C :   -0.203467
   2 C :   -0.223384
   3 O :    0.355776
   4 C :   -0.246782
   5 C :   -0.310695
   6 O :   -0.040662
   7 C :   -0.268782
   8 O :    0.044389
   9 H :    0.133642
  10 H :    0.136506
  11 H :    0.128973
  12 H :    0.134062
  13 H :    0.139985
  14 H :    0.126125
  15 H :    0.174907
  16 H :    0.194484

  Mayer bond orders larger than 0.1
B(  0-C ,  1-C ) :   0.8344 B(  0-C ,  9-H ) :   0.9410 B(  0-C , 10-H ) :   0.9457
B(  0-C , 11-H ) :   0.9339 B(  1-C ,  2-C ) :   1.5109 B(  1-C ,  7-C ) :   1.1844
B(  2-C ,  3-O ) :   1.0590 B(  2-C , 12-H ) :   0.9350 B(  3-O ,  4-C ) :   1.0284
B(  4-C ,  5-C ) :   0.8671 B(  4-C ,  7-C ) :   1.5290 B(  5-C ,  6-O ) :   0.9526
B(  5-C , 13-H ) :   0.9327 B(  5-C , 14-H ) :   0.9455 B(  6-O , 15-H ) :   0.8322
B(  7-C ,  8-O ) :   0.9901 B(  8-O , 16-H ) :   0.8269

MP2 TOTAL ENERGY:     -458.243750211 Eh
FINAL SINGLE POINT ENERGY      -458.243750210578

DIPOLE MOMENT
-------------
                                X             Y             Z
Electronic contribution:     -0.16506      -3.83214      -0.14468
Nuclear contribution   :      0.30166       5.11233      -0.07864
                        -----------------------------------------
Total Dipole Moment    :      0.13660       1.28019      -0.22331
                        -----------------------------------------
Magnitude (a.u.)       :      1.30668
Magnitude (Debye)      :      3.32131

                             ****ORCA TERMINATED NORMALLY****
TOTAL RUN TIME: 0 days 0 hours 14 minutes 21 seconds 149 msec
