                         Program Version 3.0.3 - RELEASE   -
|  1> ! RI-MP2 RIJK def2-TZVP def2-TZVP/C def2-TZVP/JK TIGHTSCF
|  2> % maxcore 2000
|  3> % mp2 density relaxed end
|  4> *xyz 0 1
|  5>  C       -0.3997381226     1.2372575446     0.0116755554
|  6>  N        0.1007900572    -0.1260126621     0.0967621652
|  7>  C        0.6506124253    -0.5703619980     1.2682077495
|  8>  O        0.6801047833     0.0489481738     2.3111495975
|  9>  C        0.2330488134    -0.8697882786    -1.1203825975
| 10>  C       -0.1322887612    -2.3313311049    -1.1601448730
| 11>  C       -1.0100646578    -1.3191430712    -1.8492536190
| 12>  H        0.2496468022     1.8570744754    -0.6197487554
| 13>  H       -1.4076180185     1.2498291989    -0.4148929577
| 14>  H       -0.4177565396     1.6502760817     1.0200348594
| 15>  H        1.0650507426    -1.5893185592     1.1611718658
| 16>  H        1.0666127275    -0.5616163159    -1.7515565133
| 17>  H        0.4861218188    -2.9873417845    -1.7616850748
| 18>  H       -0.5153631443    -2.7821455903    -0.2527820726
| 19>  H       -1.9640454602    -1.0966686716    -1.3848969371
| 20>  H       -1.0089250361    -1.2720529582    -2.9319678323
| 21> *
| 22>
| 23>                          ****END OF INPUT****

CARTESIAN COORDINATES (ANGSTROEM)
---------------------------------
  C     -0.399738    1.237258    0.011676
  N      0.100790   -0.126013    0.096762
  C      0.650612   -0.570362    1.268208
  O      0.680105    0.048948    2.311150
  C      0.233049   -0.869788   -1.120383
  C     -0.132289   -2.331331   -1.160145
  C     -1.010065   -1.319143   -1.849254
  H      0.249647    1.857074   -0.619749
  H     -1.407618    1.249829   -0.414893
  H     -0.417757    1.650276    1.020035
  H      1.065051   -1.589319    1.161172
  H      1.066613   -0.561616   -1.751557
  H      0.486122   -2.987342   -1.761685
  H     -0.515363   -2.782146   -0.252782
  H     -1.964045   -1.096669   -1.384897
  H     -1.008925   -1.272053   -2.931968

 Total Charge           Charge          ....    0
 Multiplicity           Mult            ....    1
 Number of Electrons    NEL             ....   54
 Basis Dimension        Dim             ....  271

ORBITAL ENERGIES
----------------

  NO   OCC          E(Eh)            E(eV)
   0   2.0000     -20.518914      -558.3480
   1   2.0000     -15.590726      -424.2452
   2   2.0000     -11.342634      -308.6487
   3   2.0000     -11.283254      -307.0330
   4   2.0000     -11.256316      -306.2999
   5   2.0000     -11.246815      -306.0414
   6   2.0000     -11.243288      -305.9454
   7   2.0000      -1.380047       -37.5530
   8   2.0000      -1.261444       -34.3256
   9   2.0000      -1.136960       -30.9383
  10   2.0000      -0.962254       -26.1843
  11   2.0000      -0.872021       -23.7289
  12   2.0000      -0.840644       -22.8751
  13   2.0000      -0.765852       -20.8399
  14   2.0000      -0.725112       -19.7313
  15   2.0000      -0.683472       -18.5982
  16   2.0000      -0.645578       -17.5671
  17   2.0000      -0.619578       -16.8596
  18   2.0000      -0.602245       -16.3879
  19   2.0000      -0.571101       -15.5404
  20   2.0000      -0.542253       -14.7555
  21   2.0000      -0.536812       -14.6074
  22   2.0000      -0.529028       -14.3956
  23   2.0000      -0.462436       -12.5835
  24   2.0000      -0.445918       -12.1340
  25   2.0000      -0.422980       -11.5099
  26   2.0000      -0.373845       -10.1729
  27   0.0000       0.135745         3.6938
  28   0.0000       0.146901         3.9974
  29   0.0000       0.152464         4.1487
  30   0.0000       0.170018         4.6264
  31   0.0000       0.185254         5.0410

MULLIKEN ATOMIC CHARGES
-----------------------
   0 C :   -0.320959
   1 N :   -0.080673
   2 C :    0.136215
   3 O :   -0.363067
   4 C :   -0.114378
   5 C :   -0.263749
   6 C :   -0.229667
   7 H :    0.131904
   8 H :    0.132660
   9 H :    0.180273
  10 H :    0.095550
  11 H :    0.123484
  12 H :    0.140539
  13 H :    0.153319
  14 H :    0.141244
  15 H :    0.137305
Sum of atomic charges:    0.0000000

LOEWDIN ATOMIC CHARGES
----------------------
   0 C :   -0.281483
   1 N :    0.157403
   2 C :   -0.408773
   3 O :    0.055396
   4 C :   -0.252359
   5 C :   -0.222947
   6 C :   -0.222960
   7 H :    0.117779
   8 H :    0.117825
   9 H :    0.134478
  10 H :    0.118493
  11 H :    0.142775
  12 H :    0.134778
  13 H :    0.138341
  14 H :    0.137856
  15 H :    0.133397

  Mayer bond orders larger than 0.1
B(  0-C ,  1-N ) :   0.8656 B(  0-C ,  7-H ) :   0.9338 B(  0-C ,  8-H ) :   0.9336
B(  0-C ,  9-H ) :   0.9188 B(  1-N ,  2-C ) :   1.1136 B(  1-N ,  4-C ) :   0.9424
B(  2-C ,  3-O ) :   1.8995 B(  2-C , 10-H ) :   0.9336 B(  4-C ,  5-C ) :   0.8911
B(  4-C ,  6-C ) :   0.8779 B(  4-C , 11-H ) :   0.9307 B(  5-C ,  6-C ) :   0.8994
B(  5-C , 12-H ) :   0.9297 B(  5-C , 13-H ) :   0.9276 B(  6-C , 14-H ) :   0.9258
B(  6-C , 15-H ) :   0.9294

MP2 TOTAL ENERGY:     -325.229430247 Eh
FINAL SINGLE POINT ENERGY      -325.229430247188

DIPOLE MOMENT
-------------
                                X             Y             Z
Electronic contribution:      2.16809       0.34516       4.72882
Nuclear contribution   :     -2.44823      -0.67842      -6.22599
                        -----------------------------------------
Total Dipole Moment    :     -0.28014      -0.33326      -1.49718
                        -----------------------------------------
Magnitude (a.u.)       :      1.55919
Magnitude (Debye)      :      3.96315

                             ****ORCA TERMINATED NORMALLY****
TOTAL RUN TIME: 0 days 0 hours 8 minutes 4 seconds 566 msec
