                         Program Version 3.0.3 - RELEASE   -
|  1> ! RI-MP2 RIJK def2-TZVP def2-TZVP/C def2-TZVP/JK TIGHTSCF
|  2> % maxcore 2000
|  3> % mp2 density relaxed end
|  4> *xyz 0 1
|  5>  C       -0.1404034287     1.6039984095     0.0099875089
|  6>  C        0.0182565918     0.0758347728     0.0011709584
|  7>  C       -1.3658810083    -0.5825129646    -0.0003618444
|  8>  O       -2.0295243940    -0.2489686389    -1.2114461123
|  9>  C        0.8555188346    -0.3996674567    -1.2351577963
| 10>  C        2.2312975067    -0.7915279954    -0.6768245890
| 11>  C        1.8917463648    -1.3827278528     0.6982377843
| 12>  O        2.9725657004    -1.4543099167     1.6133730911
| 13>  C        0.8287485128    -0.4178062132     1.2359374688
| 14>  H        0.8336852888     2.0980814345    -0.0702085364
| 15>  H       -0.7647759315     1.9306944826    -0.8257911757
| 16>  H       -0.6097443862     1.9450316919     0.9403057884
| 17>  H       -1.2518885264    -1.6750035617     0.0969916801
| 18>  H       -1.9388647941    -0.2317822903     0.8737831202
| 19>  H       -2.9010633107    -0.6541807397    -1.2013416813
| 20>  H        0.3728146897    -1.2653982007    -1.7004587836
| 21>  H        0.9152765588     0.3706543274    -2.0079108809
| 22>  H        2.7807742349    -1.4823564774    -1.3254282218
| 23>  H        2.8633213926     0.0916315559    -0.5209804365
| 24>  H        1.4467120243    -2.3826312078     0.5576501779
| 25>  H        3.6234182561    -2.0669224211     1.2571248647
| 26>  H        1.3534342355     0.4177722780     1.7117396173
| 27>  H        0.1963899781    -0.8765924756     2.0027712183
| 28> *
| 29>
| 30>                          ****END OF INPUT****

CARTESIAN COORDINATES (ANGSTROEM)
---------------------------------
  C     -0.140403    1.603998    0.009988
  C      0.018257    0.075835    0.001171
  C     -1.365881   -0.582513   -0.000362
  O     -2.029524   -0.248969   -1.211446
  C      0.855519   -0.399667   -1.235158
  C      2.231298   -0.791528   -0.676825
  C      1.891746   -1.382728    0.698238
  O      2.972566   -1.454310    1.613373
  C      0.828749   -0.417806    1.235937
  H      0.833685    2.098081   -0.070209
  H     -0.764776    1.930694   -0.825791
  H     -0.609744    1.945032    0.940306
  H     -1.251889   -1.675004    0.096992
  H     -1.938865   -0.231782    0.873783
  H     -2.901063   -0.654181   -1.201342
  H      0.372815   -1.265398   -1.700459
  H      0.915277    0.370654   -2.007911
  H      2.780774   -1.482356   -1.325428
  H      2.863321    0.091632   -0.520980
  H      1.446712   -2.382631    0.557650
  H      3.623418   -2.066922    1.257125
  H      1.353434    0.417772    1.711740
  H      0.196390   -0.876592    2.002771

 Total Charge           Charge          ....    0
 Multiplicity           Mult            ....    1
 Number of Electrons    NEL             ....   72
 Basis Dimension        Dim             ....  363

ORBITAL ENERGIES
----------------

  NO   OCC          E(Eh)            E(eV)
   0   2.0000     -20.554847      -559.3258
   1   2.0000     -20.551571      -559.2367
   2   2.0000     -11.272873      -306.7505
   3   2.0000     -11.272597      -306.7430
   4   2.0000     -11.230650      -305.6015
   5   2.0000     -11.214001      -305.1485
   6   2.0000     -11.212498      -305.1076
   7   2.0000     -11.211898      -305.0912
   8   2.0000     -11.204377      -304.8866
   9   2.0000      -1.360007       -37.0077
  10   2.0000      -1.357485       -36.9390
  11   2.0000      -1.125782       -30.6341
  12   2.0000      -1.014695       -27.6113
  13   2.0000      -0.959135       -26.0994
  14   2.0000      -0.918540       -24.9947
  15   2.0000      -0.865738       -23.5579
  16   2.0000      -0.786776       -21.4093
  17   2.0000      -0.732663       -19.9368
  18   2.0000      -0.705160       -19.1884
  19   2.0000      -0.684253       -18.6195
  20   2.0000      -0.651107       -17.7175
  21   2.0000      -0.629722       -17.1356
  22   2.0000      -0.602120       -16.3845
  23   2.0000      -0.589678       -16.0459
  24   2.0000      -0.580209       -15.7883
  25   2.0000      -0.549162       -14.9435
  26   2.0000      -0.534791       -14.5524
  27   2.0000      -0.522174       -14.2091
  28   2.0000      -0.511111       -13.9080
  29   2.0000      -0.494697       -13.4614
  30   2.0000      -0.475382       -12.9358
  31   2.0000      -0.457913       -12.4604
  32   2.0000      -0.444426       -12.0935
  33   2.0000      -0.441385       -12.0107
  34   2.0000      -0.432709       -11.7746
  35   2.0000      -0.421753       -11.4765
  36   0.0000       0.127306         3.4642
  37   0.0000       0.138430         3.7669
  38   0.0000       0.154226         4.1967
  39   0.0000       0.166862         4.5405
  40   0.0000       0.175326         4.7709

MULLIKEN ATOMIC CHARGES
-----------------------
   0 C :   -0.472078
   1 C :    0.196354
   2 C :   -0.132168
   3 O :   -0.473817
   4 C :   -0.294057
   5 C :   -0.214688
   6 C :    0.056505
   7 O :   -0.456675
   8 C :   -0.250957
   9 H :    0.132496
  10 H :    0.155048
  11 H :    0.124955
  12 H :    0.102386
  13 H :    0.104884
  14 H :    0.314775
  15 H :    0.125102
  16 H :    0.128057
  17 H :    0.116733
  18 H :    0.107494
  19 H :    0.067111
  20 H :    0.314247
  21 H :    0.122305
  22 H :    0.125991
Sum of atomic charges:   -0.0000000

LOEWDIN ATOMIC CHARGES
----------------------
   0 C :   -0.274820
   1 C :   -0.285334
   2 C :   -0.318683
   3 O :   -0.040611
   4 C :   -0.206161
   5 C :   -0.250213
   6 C :   -0.346155
   7 O :   -0.022811
   8 C :   -0.188095
   9 H :    0.124815
  10 H :    0.129379
  11 H :    0.123869
  12 H :    0.118657
  13 H :    0.119735
  14 H :    0.172173
  15 H :    0.142255
  16 H :    0.139192
  17 H :    0.129307
  18 H :    0.140478
  19 H :    0.131269
  20 H :    0.173713
  21 H :    0.149141
  22 H :    0.138897

  Mayer bond orders larger than 0.1
B(  0-C ,  1-C ) :   0.8885 B(  0-C ,  9-H ) :   0.9358 B(  0-C , 10-H ) :   0.9376
B(  0-C , 11-H ) :   0.9383 B(  1-C ,  2-C ) :   0.8979 B(  1-C ,  4-C ) :   0.8879
B(  1-C ,  8-C ) :   0.8727 B(  2-C ,  3-O ) :   1.0172 B(  2-C , 12-H ) :   0.9265
B(  2-C , 13-H ) :   0.9299 B(  3-O , 14-H ) :   0.8478 B(  4-C ,  5-C ) :   0.9213
B(  4-C , 15-H ) :   0.9300 B(  4-C , 16-H ) :   0.9291 B(  5-C ,  6-C ) :   0.9250
B(  5-C , 17-H ) :   0.9246 B(  5-C , 18-H ) :   0.9170 B(  6-C ,  7-O ) :   1.0525
B(  6-C ,  8-C ) :   0.9184 B(  6-C , 19-H ) :   0.9476 B(  7-O ,  8-C ) :  -0.1015
B(  7-O , 20-H ) :   0.8474 B(  8-C , 21-H ) :   0.9234 B(  8-C , 22-H ) :   0.9242

MP2 TOTAL ENERGY:     -424.746719000 Eh
FINAL SINGLE POINT ENERGY      -424.746719000395

DIPOLE MOMENT
-------------
                                X             Y             Z
Electronic contribution:      0.64702      -2.48930       0.67864
Nuclear contribution   :     -0.97105       1.86922      -0.86142
                        -----------------------------------------
Total Dipole Moment    :     -0.32403      -0.62008      -0.18278
                        -----------------------------------------
Magnitude (a.u.)       :      0.72312
Magnitude (Debye)      :      1.83802

                             ****ORCA TERMINATED NORMALLY****
TOTAL RUN TIME: 0 days 0 hours 20 minutes 20 seconds 186 msec
