                         Program Version 3.0.3 - RELEASE   -
|  1> ! RI-MP2 RIJK def2-TZVP def2-TZVP/C def2-TZVP/JK TIGHTSCF
|  2> % maxcore 2000
|  3> % mp2 density relaxed end
|  4> *xyz 0 1
|  5>  C        0.0742486636     1.4146246941    -0.0640410733
|  6>  N        0.0541331352    -0.0270845402    -0.0228631007
|  7>  N        0.1131774248    -0.7913576257    -1.1742922308
|  8>  C        0.0729436397    -2.0030182214    -0.7438724587
|  9>  C        0.1058495308    -3.2439451436    -1.5518653177
| 10>  O       -0.0086204440    -2.1055749749     0.6109215997
| 11>  C       -0.0219185405    -0.7955564280     1.1037454088
| 12>  O       -0.0870334721    -0.4982862508     2.2638608580
| 13>  H        0.9988602018     1.7749528719    -0.5241903679
| 14>  H       -0.7801837640     1.7967338355    -0.6300882213
| 15>  H        0.0171399192     1.7650241593     0.9675461545
| 16>  H        0.9672885784    -3.8612467108    -1.2776260529
| 17>  H       -0.7959532262    -3.8405598477    -1.3811856798
| 18>  H        0.1710054535    -2.9819470579    -2.6083708079
| 19> *
| 20>
| 21>                          ****END OF INPUT****

CARTESIAN COORDINATES (ANGSTROEM)
---------------------------------
  C      0.074249    1.414625   -0.064041
  N      0.054133   -0.027085   -0.022863
  N      0.113177   -0.791358   -1.174292
  C      0.072944   -2.003018   -0.743872
  C      0.105850   -3.243945   -1.551865
  O     -0.008620   -2.105575    0.610922
  C     -0.021919   -0.795556    1.103745
  O     -0.087033   -0.498286    2.263861
  H      0.998860    1.774953   -0.524190
  H     -0.780184    1.796734   -0.630088
  H      0.017140    1.765024    0.967546
  H      0.967289   -3.861247   -1.277626
  H     -0.795953   -3.840560   -1.381186
  H      0.171005   -2.981947   -2.608371

 Total Charge           Charge          ....    0
 Multiplicity           Mult            ....    1
 Number of Electrons    NEL             ....   60
 Basis Dimension        Dim             ....  284

ORBITAL ENERGIES
----------------

  NO   OCC          E(Eh)            E(eV)
   0   2.0000     -20.645655      -561.7968
   1   2.0000     -20.538567      -558.8828
   2   2.0000     -15.639627      -425.5759
   3   2.0000     -15.616093      -424.9355
   4   2.0000     -11.416227      -310.6513
   5   2.0000     -11.360858      -309.1447
   6   2.0000     -11.277598      -306.8790
   7   2.0000     -11.261506      -306.4411
   8   2.0000      -1.522919       -41.4407
   9   2.0000      -1.390723       -37.8435
  10   2.0000      -1.338748       -36.4292
  11   2.0000      -1.161313       -31.6009
  12   2.0000      -1.038206       -28.2510
  13   2.0000      -0.967097       -26.3160
  14   2.0000      -0.853875       -23.2351
  15   2.0000      -0.838044       -22.8043
  16   2.0000      -0.718271       -19.5452
  17   2.0000      -0.715921       -19.4812
  18   2.0000      -0.654443       -17.8083
  19   2.0000      -0.634575       -17.2677
  20   2.0000      -0.625837       -17.0299
  21   2.0000      -0.611316       -16.6348
  22   2.0000      -0.596696       -16.2369
  23   2.0000      -0.588359       -16.0101
  24   2.0000      -0.563114       -15.3231
  25   2.0000      -0.527241       -14.3470
  26   2.0000      -0.524471       -14.2716
  27   2.0000      -0.504735       -13.7346
  28   2.0000      -0.459251       -12.4969
  29   2.0000      -0.356329        -9.6962
  30   0.0000       0.131106         3.5676
  31   0.0000       0.149445         4.0666
  32   0.0000       0.150690         4.1005
  33   0.0000       0.192677         5.2430
  34   0.0000       0.198287         5.3957

MULLIKEN ATOMIC CHARGES
-----------------------
   0 C :   -0.306850
   1 N :    0.003890
   2 N :   -0.233782
   3 C :    0.243784
   4 C :   -0.413464
   5 O :   -0.216520
   6 C :    0.301260
   7 O :   -0.335294
   8 H :    0.150299
   9 H :    0.150310
  10 H :    0.177056
  11 H :    0.157427
  12 H :    0.157439
  13 H :    0.164445
Sum of atomic charges:    0.0000000

LOEWDIN ATOMIC CHARGES
----------------------
   0 C :   -0.276631
   1 N :    0.143836
   2 N :    0.078599
   3 C :   -0.385572
   4 C :   -0.262205
   5 O :    0.317480
   6 C :   -0.530155
   7 O :    0.097185
   8 H :    0.124445
   9 H :    0.124449
  10 H :    0.139559
  11 H :    0.141809
  12 H :    0.141808
  13 H :    0.145392

  Mayer bond orders larger than 0.1
B(  0-C ,  1-N ) :   0.8659 B(  0-C ,  8-H ) :   0.9313 B(  0-C ,  9-H ) :   0.9313
B(  0-C , 10-H ) :   0.9215 B(  1-N ,  2-N ) :   0.8640 B(  1-N ,  6-C ) :   1.1657
B(  2-N ,  3-C ) :   1.7331 B(  3-C ,  4-C ) :   0.8981 B(  3-C ,  5-O ) :   1.0575
B(  4-C , 11-H ) :   0.9224 B(  4-C , 12-H ) :   0.9224 B(  4-C , 13-H ) :   0.9430
B(  5-O ,  6-C ) :   0.9821 B(  6-C ,  7-O ) :   1.9918

MP2 TOTAL ENERGY:     -415.240447632 Eh
FINAL SINGLE POINT ENERGY      -415.240447632291

DIPOLE MOMENT
-------------
                                X             Y             Z
Electronic contribution:     -0.26305      -0.64175       4.29728
Nuclear contribution   :      0.33462       0.60989      -5.51018
                        -----------------------------------------
Total Dipole Moment    :      0.07157      -0.03186      -1.21291
                        -----------------------------------------
Magnitude (a.u.)       :      1.21543
Magnitude (Debye)      :      3.08939

                             ****ORCA TERMINATED NORMALLY****
TOTAL RUN TIME: 0 days 0 hours 10 minutes 14 seconds 394 msec
