                         Program Version 3.0.3 - RELEASE   -
|  1> ! RI-MP2 RIJK def2-TZVP def2-TZVP/C def2-TZVP/JK TIGHTSCF
|  2> % maxcore 2000
|  3> % mp2 density relaxed end
|  4> *xyz 0 1
|  5>  C        0.0581256278     1.5219056207    -0.1645693596
|  6>  C        0.0171177030    -0.0060894768    -0.0128827352
|  7>  C        0.8010802685    -0.4332616062     1.2142635923
|  8>  O        1.6610856842    -1.2752003158     1.2289467442
|  9>  C       -1.4215499748    -0.5282812824     0.1187129239
| 10>  C       -2.3306785377    -0.4140230309    -1.1489307405
| 11>  C       -2.6738681088    -1.9037510356    -0.9715282003
| 12>  O       -3.4941480321    -2.6239781032    -1.4584799346
| 13>  C       -1.6179886976    -2.0796722087     0.1298583353
| 14>  H        1.0808434027     1.8796198178    -0.3159405883
| 15>  H       -0.5414988995     1.8404853366    -1.0221726891
| 16>  H       -0.3451362428     2.0170772753     0.7261358756
| 17>  H        0.4923974075    -0.4870137232    -0.8761391084
| 18>  H        0.5010182812     0.0970740266     2.1506879865
| 19>  H       -1.9037264315    -0.0647581999     0.9856396102
| 20>  H       -3.1759554436     0.2778393966    -1.1169295187
| 21>  H       -1.7703314002    -0.2348668417    -2.0738096817
| 22>  H       -0.7386296269    -2.6315002452    -0.2204439215
| 23>  H       -1.9681498794    -2.5459467939     1.0541408200
| 24> *
| 25>
| 26>                          ****END OF INPUT****

CARTESIAN COORDINATES (ANGSTROEM)
---------------------------------
  C      0.058126    1.521906   -0.164569
  C      0.017118   -0.006089   -0.012883
  C      0.801080   -0.433262    1.214264
  O      1.661086   -1.275200    1.228947
  C     -1.421550   -0.528281    0.118713
  C     -2.330679   -0.414023   -1.148931
  C     -2.673868   -1.903751   -0.971528
  O     -3.494148   -2.623978   -1.458480
  C     -1.617989   -2.079672    0.129858
  H      1.080843    1.879620   -0.315941
  H     -0.541499    1.840485   -1.022173
  H     -0.345136    2.017077    0.726136
  H      0.492397   -0.487014   -0.876139
  H      0.501018    0.097074    2.150688
  H     -1.903726   -0.064758    0.985640
  H     -3.175955    0.277839   -1.116930
  H     -1.770331   -0.234867   -2.073810
  H     -0.738630   -2.631500   -0.220444
  H     -1.968150   -2.545947    1.054141

 Total Charge           Charge          ....    0
 Multiplicity           Mult            ....    1
 Number of Electrons    NEL             ....   68
 Basis Dimension        Dim             ....  339

ORBITAL ENERGIES
----------------

  NO   OCC          E(Eh)            E(eV)
   0   2.0000     -20.567478      -559.6695
   1   2.0000     -20.558265      -559.4188
   2   2.0000     -11.339921      -308.5749
   3   2.0000     -11.339474      -308.5628
   4   2.0000     -11.265935      -306.5617
   5   2.0000     -11.260070      -306.4021
   6   2.0000     -11.252301      -306.1907
   7   2.0000     -11.248017      -306.0741
   8   2.0000     -11.245298      -306.0001
   9   2.0000      -1.406101       -38.2620
  10   2.0000      -1.401602       -38.1395
  11   2.0000      -1.162112       -31.6227
  12   2.0000      -1.073837       -29.2206
  13   2.0000      -0.947102       -25.7720
  14   2.0000      -0.922240       -25.0954
  15   2.0000      -0.853444       -23.2234
  16   2.0000      -0.795297       -21.6411
  17   2.0000      -0.737651       -20.0725
  18   2.0000      -0.684867       -18.6362
  19   2.0000      -0.677895       -18.4465
  20   2.0000      -0.659760       -17.9530
  21   2.0000      -0.641380       -17.4528
  22   2.0000      -0.622728       -16.9453
  23   2.0000      -0.594292       -16.1715
  24   2.0000      -0.578528       -15.7426
  25   2.0000      -0.573431       -15.6038
  26   2.0000      -0.555318       -15.1110
  27   2.0000      -0.537425       -14.6241
  28   2.0000      -0.517071       -14.0702
  29   2.0000      -0.499997       -13.6056
  30   2.0000      -0.485818       -13.2198
  31   2.0000      -0.477835       -13.0026
  32   2.0000      -0.422375       -11.4934
  33   2.0000      -0.405701       -11.0397
  34   0.0000       0.116899         3.1810
  35   0.0000       0.118561         3.2262
  36   0.0000       0.125982         3.4281
  37   0.0000       0.141396         3.8476
  38   0.0000       0.156972         4.2714

MULLIKEN ATOMIC CHARGES
-----------------------
   0 C :   -0.409129
   1 C :   -0.028350
   2 C :    0.094814
   3 O :   -0.255767
   4 C :   -0.108979
   5 C :   -0.242834
   6 C :    0.144451
   7 O :   -0.244379
   8 C :   -0.234921
   9 H :    0.151139
  10 H :    0.143019
  11 H :    0.130886
  12 H :    0.092924
  13 H :    0.071533
  14 H :    0.113298
  15 H :    0.143820
  16 H :    0.139968
  17 H :    0.154943
  18 H :    0.143564
Sum of atomic charges:   -0.0000000

LOEWDIN ATOMIC CHARGES
----------------------
   0 C :   -0.281221
   1 C :   -0.270521
   2 C :   -0.271455
   3 O :    0.138722
   4 C :   -0.200015
   5 C :   -0.187437
   6 C :   -0.312704
   7 O :    0.166102
   8 C :   -0.184978
   9 H :    0.129295
  10 H :    0.129306
  11 H :    0.127231
  12 H :    0.160481
  13 H :    0.113470
  14 H :    0.153048
  15 H :    0.140966
  16 H :    0.151103
  17 H :    0.155873
  18 H :    0.142734

  Mayer bond orders larger than 0.1
B(  0-C ,  1-C ) :   0.9120 B(  0-C ,  9-H ) :   0.9375 B(  0-C , 10-H ) :   0.9336
B(  0-C , 11-H ) :   0.9243 B(  1-C ,  2-C ) :   0.8533 B(  1-C ,  4-C ) :   0.9248
B(  1-C , 12-H ) :   0.8942 B(  2-C ,  3-O ) :   2.0025 B(  2-C , 13-H ) :   0.9314
B(  4-C ,  5-C ) :   0.9172 B(  4-C ,  8-C ) :   0.9313 B(  4-C , 14-H ) :   0.9159
B(  5-C ,  6-C ) :   0.8829 B(  5-C ,  8-C ) :  -0.1156 B(  5-C , 15-H ) :   0.9002
B(  5-C , 16-H ) :   0.8988 B(  6-C ,  7-O ) :   2.0490 B(  6-C ,  8-C ) :   0.8845
B(  8-C , 17-H ) :   0.8964 B(  8-C , 18-H ) :   0.9025

MP2 TOTAL ENERGY:     -422.330234681 Eh
FINAL SINGLE POINT ENERGY      -422.330234680990

DIPOLE MOMENT
-------------
                                X             Y             Z
Electronic contribution:     -1.38198      -6.84087      -0.19178
Nuclear contribution   :      1.36091       8.16755       0.40712
                        -----------------------------------------
Total Dipole Moment    :     -0.02107       1.32668       0.21533
                        -----------------------------------------
Magnitude (a.u.)       :      1.34421
Magnitude (Debye)      :      3.41670

                             ****ORCA TERMINATED NORMALLY****
TOTAL RUN TIME: 0 days 0 hours 17 minutes 48 seconds 749 msec
