                         Program Version 3.0.3 - RELEASE   -
|  1> ! RI-MP2 RIJK def2-TZVP def2-TZVP/C def2-TZVP/JK TIGHTSCF
|  2> % maxcore 2000
|  3> % mp2 density relaxed end
|  4> *xyz 0 1
|  5>  C        0.1081372520     1.5305715820     0.0984032791
|  6>  C       -0.0440594569     0.0400818502    -0.0368551502
|  7>  C        0.4557255289    -0.7018612672    -1.3032244311
|  8>  C       -0.6635248541    -1.7603374705    -1.1181521754
|  9>  C       -0.3671389301    -2.7407738872     0.0466417354
| 10>  C       -0.6954391568    -1.6152885627     1.0521992737
| 11>  O        0.3850052539    -0.6639845451     1.1602794860
| 12>  C       -1.3741687522    -0.7914063471    -0.0839190646
| 13>  C       -2.7805027593    -0.2726041034    -0.1337948555
| 14>  H        1.1662778256     1.7902561370     0.2185660710
| 15>  H       -0.2696160171     2.0465058680    -0.7899539923
| 16>  H       -0.4306222313     1.8997920044     0.9762896869
| 17>  H        0.2800202215    -0.0983088194    -2.2003528128
| 18>  H        1.4957310774    -1.0409107896    -1.2935990391
| 19>  H       -1.1436578136    -2.1562051963    -2.0136105250
| 20>  H       -1.1248292230    -3.5305316256     0.0941148555
| 21>  H        0.6284301635    -3.1889521173     0.1111363771
| 22>  H       -1.1231531270    -1.8620250090     2.0273704385
| 23>  H       -2.9933213335     0.3845928258     0.7172548274
| 24>  H       -2.9632325273     0.2998948491    -1.0507459605
| 25>  H       -3.5078856105    -1.0924754561    -0.1098019741
| 26> *
| 27>
| 28>                          ****END OF INPUT****

CARTESIAN COORDINATES (ANGSTROEM)
---------------------------------
  C      0.108137    1.530572    0.098403
  C     -0.044059    0.040082   -0.036855
  C      0.455726   -0.701861   -1.303224
  C     -0.663525   -1.760337   -1.118152
  C     -0.367139   -2.740774    0.046642
  C     -0.695439   -1.615289    1.052199
  O      0.385005   -0.663985    1.160279
  C     -1.374169   -0.791406   -0.083919
  C     -2.780503   -0.272604   -0.133795
  H      1.166278    1.790256    0.218566
  H     -0.269616    2.046506   -0.789954
  H     -0.430622    1.899792    0.976290
  H      0.280020   -0.098309   -2.200353
  H      1.495731   -1.040911   -1.293599
  H     -1.143658   -2.156205   -2.013611
  H     -1.124829   -3.530532    0.094115
  H      0.628430   -3.188952    0.111136
  H     -1.123153   -1.862025    2.027370
  H     -2.993321    0.384593    0.717255
  H     -2.963233    0.299895   -1.050746
  H     -3.507886   -1.092475   -0.109802

 Total Charge           Charge          ....    0
 Multiplicity           Mult            ....    1
 Number of Electrons    NEL             ....   68
 Basis Dimension        Dim             ....  351

ORBITAL ENERGIES
----------------

  NO   OCC          E(Eh)            E(eV)
   0   2.0000     -20.538343      -558.8767
   1   2.0000     -11.279748      -306.9375
   2   2.0000     -11.273675      -306.7723
   3   2.0000     -11.233038      -305.6665
   4   2.0000     -11.228853      -305.5526
   5   2.0000     -11.224138      -305.4243
   6   2.0000     -11.219487      -305.2978
   7   2.0000     -11.218647      -305.2749
   8   2.0000     -11.214255      -305.1554
   9   2.0000      -1.377456       -37.4825
  10   2.0000      -1.136973       -30.9386
  11   2.0000      -1.036282       -28.1987
  12   2.0000      -0.994370       -27.0582
  13   2.0000      -0.948628       -25.8135
  14   2.0000      -0.871808       -23.7231
  15   2.0000      -0.821483       -22.3537
  16   2.0000      -0.788116       -21.4457
  17   2.0000      -0.677514       -18.4361
  18   2.0000      -0.648512       -17.6469
  19   2.0000      -0.646533       -17.5930
  20   2.0000      -0.631123       -17.1737
  21   2.0000      -0.580010       -15.7829
  22   2.0000      -0.568935       -15.4815
  23   2.0000      -0.562041       -15.2939
  24   2.0000      -0.558815       -15.2061
  25   2.0000      -0.552895       -15.0450
  26   2.0000      -0.543159       -14.7801
  27   2.0000      -0.530811       -14.4441
  28   2.0000      -0.508572       -13.8389
  29   2.0000      -0.448936       -12.2162
  30   2.0000      -0.440723       -11.9927
  31   2.0000      -0.404974       -11.0199
  32   2.0000      -0.385041       -10.4775
  33   2.0000      -0.381255       -10.3745
  34   0.0000       0.129211         3.5160
  35   0.0000       0.158630         4.3165
  36   0.0000       0.165854         4.5131
  37   0.0000       0.177453         4.8287
  38   0.0000       0.185298         5.0422

MULLIKEN ATOMIC CHARGES
-----------------------
   0 C :   -0.406243
   1 C :    0.106914
   2 C :   -0.247522
   3 C :   -0.073598
   4 C :   -0.246662
   5 C :    0.016186
   6 O :   -0.324704
   7 C :    0.105489
   8 C :   -0.401968
   9 H :    0.142712
  10 H :    0.124107
  11 H :    0.132429
  12 H :    0.112215
  13 H :    0.109477
  14 H :    0.112644
  15 H :    0.112138
  16 H :    0.111274
  17 H :    0.103038
  18 H :    0.140391
  19 H :    0.133798
  20 H :    0.137885
Sum of atomic charges:    0.0000000

LOEWDIN ATOMIC CHARGES
----------------------
   0 C :   -0.274599
   1 C :   -0.281175
   2 C :   -0.180106
   3 C :   -0.160413
   4 C :   -0.205718
   5 C :   -0.216242
   6 O :    0.177729
   7 C :   -0.158161
   8 C :   -0.279808
   9 H :    0.134820
  10 H :    0.129286
  11 H :    0.130004
  12 H :    0.140290
  13 H :    0.129934
  14 H :    0.129369
  15 H :    0.139928
  16 H :    0.128346
  17 H :    0.123777
  18 H :    0.131697
  19 H :    0.130348
  20 H :    0.130695

  Mayer bond orders larger than 0.1
B(  0-C ,  1-C ) :   0.8802 B(  0-C ,  9-H ) :   0.9366 B(  0-C , 10-H ) :   0.9330
B(  0-C , 11-H ) :   0.9394 B(  1-C ,  2-C ) :   0.9627 B(  1-C ,  6-O ) :   0.9590
B(  1-C ,  7-C ) :   0.8931 B(  2-C ,  3-C ) :   0.9486 B(  2-C , 12-H ) :   0.9118
B(  2-C , 13-H ) :   0.9035 B(  3-C ,  4-C ) :   0.9466 B(  3-C ,  7-C ) :   0.9337
B(  3-C , 14-H ) :   0.9250 B(  4-C ,  5-C ) :   0.9300 B(  4-C , 15-H ) :   0.9125
B(  4-C , 16-H ) :   0.9059 B(  5-C ,  6-O ) :   0.9530 B(  5-C ,  7-C ) :   0.9354
B(  5-C , 17-H ) :   0.9256 B(  7-C ,  8-C ) :   0.7920 B(  8-C , 18-H ) :   0.9524
B(  8-C , 19-H ) :   0.9420 B(  8-C , 20-H ) :   0.9389

MP2 TOTAL ENERGY:     -386.379667206 Eh
FINAL SINGLE POINT ENERGY      -386.379667206366

DIPOLE MOMENT
-------------
                                X             Y             Z
Electronic contribution:      2.56861      -2.28180       2.38322
Nuclear contribution   :     -3.16307       2.29184      -2.86101
                        -----------------------------------------
Total Dipole Moment    :     -0.59446       0.01005      -0.47779
                        -----------------------------------------
Magnitude (a.u.)       :      0.76273
Magnitude (Debye)      :      1.93871

                             ****ORCA TERMINATED NORMALLY****
TOTAL RUN TIME: 0 days 0 hours 20 minutes 34 seconds 755 msec
