                         Program Version 3.0.3 - RELEASE   -
|  1> ! RI-MP2 RIJK def2-TZVP def2-TZVP/C def2-TZVP/JK TIGHTSCF
|  2> % maxcore 2000
|  3> % mp2 density relaxed end
|  4> *xyz 0 1
|  5>  C        0.2995186771     1.2563213336     1.0468169275
|  6>  C        0.0904198455     0.1658910965    -0.0116396499
|  7>  C       -1.2436417647    -0.5591499725     0.1128818779
|  8>  O       -2.2751082117     0.1712481851    -0.5326677965
|  9>  C       -1.5495177953    -2.0128510347    -0.0750043044
| 10>  C       -0.6979294872    -2.9854913234     0.7622087017
| 11>  C        0.2533512355    -2.4107589506     1.7460468856
| 12>  N       -1.1824589558    -2.3982137327     2.0658580008
| 13>  C       -1.9060843703    -1.3539407783     1.2467348612
| 14>  H        1.2300484213     1.8036861804     0.8701887585
| 15>  H       -0.5157788788     1.9888084388     1.0306051105
| 16>  H        0.3397786632     0.8342855575     2.0563265495
| 17>  H        0.0794322583     0.6201891718    -1.0091715664
| 18>  H        0.9277792844    -0.5339175252    -0.0125856593
| 19>  H       -2.4530951516     0.9561049062    -0.0025784568
| 20>  H       -2.2107347135    -2.3501892051    -0.8623016141
| 21>  H       -0.7532306440    -4.0570749447     0.5962787382
| 22>  H        0.7882076681    -3.1376724175     2.3531211763
| 23>  H        0.7930889475    -1.4890144461     1.5932432600
| 24>  H       -2.8725844078    -1.0326154590     1.6149427898
| 25> *
| 26>
| 27>                          ****END OF INPUT****

CARTESIAN COORDINATES (ANGSTROEM)
---------------------------------
  C      0.299519    1.256321    1.046817
  C      0.090420    0.165891   -0.011640
  C     -1.243642   -0.559150    0.112882
  O     -2.275108    0.171248   -0.532668
  C     -1.549518   -2.012851   -0.075004
  C     -0.697929   -2.985491    0.762209
  C      0.253351   -2.410759    1.746047
  N     -1.182459   -2.398214    2.065858
  C     -1.906084   -1.353941    1.246735
  H      1.230048    1.803686    0.870189
  H     -0.515779    1.988808    1.030605
  H      0.339779    0.834286    2.056327
  H      0.079432    0.620189   -1.009172
  H      0.927779   -0.533918   -0.012586
  H     -2.453095    0.956105   -0.002578
  H     -2.210735   -2.350189   -0.862302
  H     -0.753231   -4.057075    0.596279
  H      0.788208   -3.137672    2.353121
  H      0.793089   -1.489014    1.593243
  H     -2.872584   -1.032615    1.614943

 Total Charge           Charge          ....    0
 Multiplicity           Mult            ....    1
 Number of Electrons    NEL             ....   68
 Basis Dimension        Dim             ....  345

ORBITAL ENERGIES
----------------

  NO   OCC          E(Eh)            E(eV)
   0   2.0000     -20.565712      -559.6215
   1   2.0000     -15.562659      -423.4815
   2   2.0000     -11.302494      -307.5565
   3   2.0000     -11.270583      -306.6882
   4   2.0000     -11.263174      -306.4866
   5   2.0000     -11.261887      -306.4515
   6   2.0000     -11.237910      -305.7991
   7   2.0000     -11.231439      -305.6230
   8   2.0000     -11.225946      -305.4735
   9   2.0000      -1.379658       -37.5424
  10   2.0000      -1.297116       -35.2963
  11   2.0000      -1.102517       -30.0010
  12   2.0000      -1.040375       -28.3101
  13   2.0000      -0.923224       -25.1222
  14   2.0000      -0.893411       -24.3110
  15   2.0000      -0.851232       -23.1632
  16   2.0000      -0.767269       -20.8785
  17   2.0000      -0.744743       -20.2655
  18   2.0000      -0.715024       -19.4568
  19   2.0000      -0.658062       -17.9068
  20   2.0000      -0.653627       -17.7861
  21   2.0000      -0.621955       -16.9243
  22   2.0000      -0.598701       -16.2915
  23   2.0000      -0.573438       -15.6041
  24   2.0000      -0.562262       -15.2999
  25   2.0000      -0.552300       -15.0288
  26   2.0000      -0.522883       -14.2284
  27   2.0000      -0.502875       -13.6839
  28   2.0000      -0.488813       -13.3013
  29   2.0000      -0.468660       -12.7529
  30   2.0000      -0.466820       -12.7028
  31   2.0000      -0.448761       -12.2114
  32   2.0000      -0.366505        -9.9731
  33   2.0000      -0.341861        -9.3025
  34   0.0000       0.127112         3.4589
  35   0.0000       0.155961         4.2439
  36   0.0000       0.164846         4.4857
  37   0.0000       0.171706         4.6724
  38   0.0000       0.185853         5.0573

MULLIKEN ATOMIC CHARGES
-----------------------
   0 C :   -0.403422
   1 C :   -0.246830
   2 C :    0.192541
   3 O :   -0.458329
   4 C :   -0.149321
   5 C :   -0.071819
   6 C :   -0.152499
   7 N :   -0.231295
   8 C :   -0.123246
   9 H :    0.141491
  10 H :    0.107613
  11 H :    0.140084
  12 H :    0.135496
  13 H :    0.122924
  14 H :    0.322138
  15 H :    0.147400
  16 H :    0.135518
  17 H :    0.127468
  18 H :    0.128287
  19 H :    0.135802
Sum of atomic charges:    0.0000000

LOEWDIN ATOMIC CHARGES
----------------------
   0 C :   -0.316525
   1 C :   -0.267989
   2 C :   -0.312099
   3 O :    0.031377
   4 C :   -0.144423
   5 C :   -0.189204
   6 C :   -0.245466
   7 N :    0.119474
   8 C :   -0.185908
   9 H :    0.123622
  10 H :    0.117372
  11 H :    0.123040
  12 H :    0.148311
  13 H :    0.138579
  14 H :    0.179898
  15 H :    0.146679
  16 H :    0.136667
  17 H :    0.135080
  18 H :    0.124547
  19 H :    0.136968

  Mayer bond orders larger than 0.1
B(  0-C ,  1-C ) :   0.9086 B(  0-C ,  9-H ) :   0.9387 B(  0-C , 10-H ) :   0.9348
B(  0-C , 11-H ) :   0.9383 B(  1-C ,  2-C ) :   0.8796 B(  1-C , 12-H ) :   0.9330
B(  1-C , 13-H ) :   0.9323 B(  2-C ,  3-O ) :   0.8852 B(  2-C ,  4-C ) :   0.8853
B(  2-C ,  8-C ) :   0.8719 B(  3-O , 14-H ) :   0.8402 B(  4-C ,  5-C ) :   0.9264
B(  4-C ,  8-C ) :   0.8756 B(  4-C , 15-H ) :   0.9098 B(  5-C ,  6-C ) :   0.9545
B(  5-C ,  7-N ) :   0.8620 B(  5-C , 16-H ) :   0.9033 B(  6-C ,  7-N ) :   0.8936
B(  6-C , 17-H ) :   0.9276 B(  6-C , 18-H ) :   0.9032 B(  7-N ,  8-C ) :   0.9266
B(  8-C , 19-H ) :   0.9259

MP2 TOTAL ENERGY:     -402.351464133 Eh
FINAL SINGLE POINT ENERGY      -402.351464133360

DIPOLE MOMENT
-------------
                                X             Y             Z
Electronic contribution:     -4.57665      -4.49624      -0.63735
Nuclear contribution   :      5.07904       4.90727       0.56086
                        -----------------------------------------
Total Dipole Moment    :      0.50239       0.41102      -0.07648
                        -----------------------------------------
Magnitude (a.u.)       :      0.65359
Magnitude (Debye)      :      1.66130

                             ****ORCA TERMINATED NORMALLY****
TOTAL RUN TIME: 0 days 0 hours 19 minutes 7 seconds 185 msec
