                         Program Version 3.0.3 - RELEASE   -
|  1> ! RI-MP2 RIJK def2-TZVP def2-TZVP/C def2-TZVP/JK TIGHTSCF
|  2> % maxcore 2000
|  3> % mp2 density relaxed end
|  4> *xyz 0 1
|  5>  C        0.0214329321     1.4282768171     0.0443396637
|  6>  N       -0.0192631917    -0.0270692708     0.0263302581
|  7>  C       -1.2266293192    -0.6611890801    -0.0224445088
|  8>  N       -2.3657734287    -0.0759699490     0.1008796364
|  9>  C       -3.3775508158    -1.1352691942     0.0493738738
| 10>  C       -2.5946589032    -2.4952277040     0.0724060358
| 11>  N       -1.2284105438    -2.0471507636    -0.2290750154
| 12>  C       -4.3409124414    -1.0360054943     1.1551079396
| 13>  N       -5.1023761349    -0.9875943380     2.0228261498
| 14>  H        1.0440819531     1.7495586913     0.2538801071
| 15>  H       -0.3126551762     1.8740360250    -0.9012318358
| 16>  H       -0.6366225234     1.7897501176     0.8358237823
| 17>  H        0.7176903166    -0.4838416390    -0.4888047239
| 18>  H       -3.9522562589    -1.0478429540    -0.8828469390
| 19>  H       -2.6602940859    -2.9727947362     1.0559917730
| 20>  H       -2.9647701619    -3.1951815092    -0.6801813012
| 21>  H       -0.4921647370    -2.5505304785     0.2488441545
| 22> *
| 23>
| 24>                          ****END OF INPUT****

CARTESIAN COORDINATES (ANGSTROEM)
---------------------------------
  C      0.021433    1.428277    0.044340
  N     -0.019263   -0.027069    0.026330
  C     -1.226629   -0.661189   -0.022445
  N     -2.365773   -0.075970    0.100880
  C     -3.377551   -1.135269    0.049374
  C     -2.594659   -2.495228    0.072406
  N     -1.228411   -2.047151   -0.229075
  C     -4.340912   -1.036005    1.155108
  N     -5.102376   -0.987594    2.022826
  H      1.044082    1.749559    0.253880
  H     -0.312655    1.874036   -0.901232
  H     -0.636623    1.789750    0.835824
  H      0.717690   -0.483842   -0.488805
  H     -3.952256   -1.047843   -0.882847
  H     -2.660294   -2.972795    1.055992
  H     -2.964770   -3.195182   -0.680181
  H     -0.492165   -2.550530    0.248844

 Total Charge           Charge          ....    0
 Multiplicity           Mult            ....    1
 Number of Electrons    NEL             ....   66
 Basis Dimension        Dim             ....  327

ORBITAL ENERGIES
----------------

  NO   OCC          E(Eh)            E(eV)
   0   2.0000     -15.594293      -424.3423
   1   2.0000     -15.592892      -424.3042
   2   2.0000     -15.561219      -423.4423
   3   2.0000     -15.536637      -422.7734
   4   2.0000     -11.354508      -308.9719
   5   2.0000     -11.308001      -307.7064
   6   2.0000     -11.289082      -307.1915
   7   2.0000     -11.264476      -306.5220
   8   2.0000     -11.262482      -306.4677
   9   2.0000      -1.342393       -36.5284
  10   2.0000      -1.234490       -33.5922
  11   2.0000      -1.208775       -32.8924
  12   2.0000      -1.170224       -31.8434
  13   2.0000      -1.036070       -28.1929
  14   2.0000      -0.946465       -25.7546
  15   2.0000      -0.888920       -24.1887
  16   2.0000      -0.792593       -21.5675
  17   2.0000      -0.767081       -20.8733
  18   2.0000      -0.706649       -19.2289
  19   2.0000      -0.666483       -18.1359
  20   2.0000      -0.646278       -17.5861
  21   2.0000      -0.624681       -16.9984
  22   2.0000      -0.610926       -16.6241
  23   2.0000      -0.578562       -15.7435
  24   2.0000      -0.566566       -15.4170
  25   2.0000      -0.554499       -15.0887
  26   2.0000      -0.545957       -14.8562
  27   2.0000      -0.527772       -14.3614
  28   2.0000      -0.464054       -12.6275
  29   2.0000      -0.451546       -12.2872
  30   2.0000      -0.432856       -11.7786
  31   2.0000      -0.414208       -11.2712
  32   2.0000      -0.364259        -9.9120
  33   0.0000       0.113130         3.0784
  34   0.0000       0.137004         3.7281
  35   0.0000       0.148287         4.0351
  36   0.0000       0.167700         4.5634
  37   0.0000       0.170834         4.6486

MULLIKEN ATOMIC CHARGES
-----------------------
   0 C :   -0.267065
   1 N :   -0.365598
   2 C :    0.305553
   3 N :   -0.369175
   4 C :    0.165238
   5 C :   -0.190369
   6 N :   -0.348172
   7 C :   -0.184407
   8 N :   -0.064255
   9 H :    0.137029
  10 H :    0.133902
  11 H :    0.163032
  12 H :    0.240515
  13 H :    0.131251
  14 H :    0.146576
  15 H :    0.130936
  16 H :    0.235007
Sum of atomic charges:   -0.0000000

LOEWDIN ATOMIC CHARGES
----------------------
   0 C :   -0.311522
   1 N :    0.059329
   2 C :   -0.430805
   3 N :    0.075281
   4 C :   -0.266789
   5 C :   -0.227425
   6 N :    0.051587
   7 C :   -0.166879
   8 N :    0.061003
   9 H :    0.116982
  10 H :    0.113132
  11 H :    0.129533
  12 H :    0.185653
  13 H :    0.166194
  14 H :    0.133793
  15 H :    0.130860
  16 H :    0.180071

  Mayer bond orders larger than 0.1
B(  0-C ,  1-N ) :   0.8861 B(  0-C ,  9-H ) :   0.9301 B(  0-C , 10-H ) :   0.9387
B(  0-C , 11-H ) :   0.9324 B(  1-N ,  2-C ) :   1.1250 B(  1-N , 12-H ) :   0.8715
B(  2-C ,  3-N ) :   1.7026 B(  2-C ,  6-N ) :   1.0605 B(  3-N ,  4-C ) :   0.9597
B(  4-C ,  5-C ) :   0.8842 B(  4-C ,  7-C ) :   0.9096 B(  4-C , 13-H ) :   0.9082
B(  5-C ,  6-N ) :   0.9471 B(  5-C , 14-H ) :   0.9358 B(  5-C , 15-H ) :   0.9164
B(  6-N , 16-H ) :   0.8663 B(  7-C ,  8-N ) :   2.8652

MP2 TOTAL ENERGY:     -413.508630699 Eh
FINAL SINGLE POINT ENERGY      -413.508630699420

DIPOLE MOMENT
-------------
                                X             Y             Z
Electronic contribution:     -5.63360      -1.95557       1.99246
Nuclear contribution   :      7.62375       1.24523      -3.05659
                        -----------------------------------------
Total Dipole Moment    :      1.99015      -0.71034      -1.06413
                        -----------------------------------------
Magnitude (a.u.)       :      2.36594
Magnitude (Debye)      :      6.01374

                             ****ORCA TERMINATED NORMALLY****
TOTAL RUN TIME: 0 days 0 hours 15 minutes 51 seconds 493 msec
