                         Program Version 3.0.3 - RELEASE   -
|  1> ! RI-MP2 RIJK def2-TZVP def2-TZVP/C def2-TZVP/JK TIGHTSCF
|  2> % maxcore 2000
|  3> % mp2 density relaxed end
|  4> *xyz 0 1
|  5>  C        0.2669633220     0.7706852910     0.6309872383
|  6>  O       -0.3698516358     0.4017994797    -0.5825054422
|  7>  C        0.4386403249    -0.3280593163    -1.4720884243
|  8>  C        0.5017430286    -1.8276085680    -1.1401694786
|  9>  C        1.0849353327    -2.8185155918    -2.1892844217
| 10>  C        1.7310461633    -2.2940912611    -3.4538444069
| 11>  O        2.0897629259    -3.2508588761    -1.2059473050
| 12>  C        1.6185297569    -2.3652813904    -0.2645425234
| 13>  N        2.0237854977    -2.1300004808     0.9001209770
| 14>  H        0.5928688178    -0.0981275465     1.2144985651
| 15>  H        1.1456035157     1.4056677345     0.4380176025
| 16>  H       -0.4646630492     1.3470641212     1.2023950123
| 17>  H       -0.0263576870    -0.2164376489    -2.4586654592
| 18>  H        1.4500788990     0.1023903858    -1.5277204674
| 19>  H       -0.4855941141    -2.1289540227    -0.7795735251
| 20>  H        0.4204063554    -3.6591121174    -2.4112180010
| 21>  H        2.4131747053    -1.4657875305    -3.2446717189
| 22>  H        2.3015637081    -3.0921382390    -3.9380205608
| 23>  H        0.9674046688    -1.9493747211    -4.1586303922
| 24>  H        2.8263559141    -2.7136306816     1.1416767714
| 25> *
| 26>
| 27>                          ****END OF INPUT****

CARTESIAN COORDINATES (ANGSTROEM)
---------------------------------
  C      0.266963    0.770685    0.630987
  O     -0.369852    0.401799   -0.582505
  C      0.438640   -0.328059   -1.472088
  C      0.501743   -1.827609   -1.140169
  C      1.084935   -2.818516   -2.189284
  C      1.731046   -2.294091   -3.453844
  O      2.089763   -3.250859   -1.205947
  C      1.618530   -2.365281   -0.264543
  N      2.023785   -2.130000    0.900121
  H      0.592869   -0.098128    1.214499
  H      1.145604    1.405668    0.438018
  H     -0.464663    1.347064    1.202395
  H     -0.026358   -0.216438   -2.458665
  H      1.450079    0.102390   -1.527720
  H     -0.485594   -2.128954   -0.779574
  H      0.420406   -3.659112   -2.411218
  H      2.413175   -1.465788   -3.244672
  H      2.301564   -3.092138   -3.938021
  H      0.967405   -1.949375   -4.158630
  H      2.826356   -2.713631    1.141677

 Total Charge           Charge          ....    0
 Multiplicity           Mult            ....    1
 Number of Electrons    NEL             ....   70
 Basis Dimension        Dim             ....  345

ORBITAL ENERGIES
----------------

  NO   OCC          E(Eh)            E(eV)
   0   2.0000     -20.591520      -560.3238
   1   2.0000     -20.556078      -559.3593
   2   2.0000     -15.537453      -422.7956
   3   2.0000     -11.340479      -308.5901
   4   2.0000     -11.310615      -307.7775
   5   2.0000     -11.290305      -307.2248
   6   2.0000     -11.259500      -306.3866
   7   2.0000     -11.254756      -306.2575
   8   2.0000     -11.237810      -305.7963
   9   2.0000      -1.435683       -39.0669
  10   2.0000      -1.374957       -37.4145
  11   2.0000      -1.197989       -32.5989
  12   2.0000      -1.078385       -29.3444
  13   2.0000      -1.011188       -27.5158
  14   2.0000      -0.948986       -25.8232
  15   2.0000      -0.868130       -23.6230
  16   2.0000      -0.839185       -22.8354
  17   2.0000      -0.738360       -20.0918
  18   2.0000      -0.710872       -19.3438
  19   2.0000      -0.696904       -18.9637
  20   2.0000      -0.664888       -18.0925
  21   2.0000      -0.648826       -17.6555
  22   2.0000      -0.642049       -17.4710
  23   2.0000      -0.610355       -16.6086
  24   2.0000      -0.588572       -16.0159
  25   2.0000      -0.568101       -15.4588
  26   2.0000      -0.539754       -14.6875
  27   2.0000      -0.532258       -14.4835
  28   2.0000      -0.520691       -14.1687
  29   2.0000      -0.511905       -13.9296
  30   2.0000      -0.485244       -13.2042
  31   2.0000      -0.470502       -12.8030
  32   2.0000      -0.436381       -11.8745
  33   2.0000      -0.424392       -11.5483
  34   2.0000      -0.400081       -10.8868
  35   0.0000       0.127556         3.4710
  36   0.0000       0.153357         4.1731
  37   0.0000       0.163231         4.4417
  38   0.0000       0.174422         4.7463
  39   0.0000       0.183928         5.0049

MULLIKEN ATOMIC CHARGES
-----------------------
   0 C :   -0.217503
   1 O :   -0.319901
   2 C :   -0.058256
   3 C :   -0.085853
   4 C :    0.097255
   5 C :   -0.406908
   6 O :   -0.267334
   7 C :    0.134181
   8 N :   -0.390454
   9 H :    0.152012
  10 H :    0.101956
  11 H :    0.133423
  12 H :    0.123313
  13 H :    0.111973
  14 H :    0.133183
  15 H :    0.108833
  16 H :    0.136040
  17 H :    0.150454
  18 H :    0.137684
  19 H :    0.225903
Sum of atomic charges:   -0.0000000

LOEWDIN ATOMIC CHARGES
----------------------
   0 C :   -0.349192
   1 O :    0.131539
   2 C :   -0.306100
   3 C :   -0.181540
   4 C :   -0.244009
   5 C :   -0.291792
   6 O :    0.230118
   7 C :   -0.386965
   8 N :   -0.061520
   9 H :    0.111116
  10 H :    0.101761
  11 H :    0.111352
  12 H :    0.135431
  13 H :    0.126281
  14 H :    0.167331
  15 H :    0.139667
  16 H :    0.129427
  17 H :    0.132977
  18 H :    0.132060
  19 H :    0.172058

  Mayer bond orders larger than 0.1
B(  0-C ,  1-O ) :   0.8926 B(  0-C ,  9-H ) :   0.9243 B(  0-C , 10-H ) :   0.9360
B(  0-C , 11-H ) :   0.9379 B(  1-O ,  2-C ) :   0.9635 B(  2-C ,  3-C ) :   0.8878
B(  2-C , 12-H ) :   0.9299 B(  2-C , 13-H ) :   0.9462 B(  3-C ,  4-C ) :   0.9042
B(  3-C ,  7-C ) :   0.8976 B(  3-C , 14-H ) :   0.9080 B(  4-C ,  5-C ) :   0.9093
B(  4-C ,  6-O ) :   0.8791 B(  4-C , 15-H ) :   0.9221 B(  5-C , 16-H ) :   0.9344
B(  5-C , 17-H ) :   0.9307 B(  5-C , 18-H ) :   0.9282 B(  6-O ,  7-C ) :   1.0761
B(  7-C ,  8-N ) :   1.9956 B(  8-N , 19-H ) :   0.8436

MP2 TOTAL ENERGY:     -439.548373551 Eh
FINAL SINGLE POINT ENERGY      -439.548373550924

DIPOLE MOMENT
-------------
                                X             Y             Z
Electronic contribution:      0.40762      -4.04045       2.72455
Nuclear contribution   :     -0.32330       3.83709      -3.59214
                        -----------------------------------------
Total Dipole Moment    :      0.08431      -0.20336      -0.86759
                        -----------------------------------------
Magnitude (a.u.)       :      0.89508
Magnitude (Debye)      :      2.27512

                             ****ORCA TERMINATED NORMALLY****
TOTAL RUN TIME: 0 days 0 hours 16 minutes 52 seconds 646 msec
