                         Program Version 3.0.3 - RELEASE   -
|  1> ! RI-MP2 RIJK def2-TZVP def2-TZVP/C def2-TZVP/JK TIGHTSCF
|  2> % maxcore 2000
|  3> % mp2 density relaxed end
|  4> *xyz 0 1
|  5>  N       -0.2198239803    -0.8676090185    -0.9638127398
|  6>  C       -0.0658173960     0.0202620614    -0.2421581327
|  7>  C        0.1201243089     1.1452191722     0.6847420562
|  8>  C        1.3481778879     1.8952890735     0.4367940466
|  9>  C        2.3542781093     2.5221678060     0.2328334951
| 10>  C        3.5756683210     3.2688492396    -0.0212142777
| 11>  C        4.5045619487     2.7524575625    -1.1558269271
| 12>  C        4.2677383245     4.1387927950    -1.7843347175
| 13>  O        3.3566119397     4.5159462202    -0.7268610792
| 14>  H       -0.7513210352     1.8074466154     0.6009297654
| 15>  H        0.1072743394     0.7517477738     1.7093075355
| 16>  H        4.0992281948     3.4504584330     0.9270693043
| 17>  H        5.5260492895     2.5271671838    -0.8489840413
| 18>  H        4.0950781439     1.9131171942    -1.7170264742
| 19>  H        5.1441950401     4.7968359077    -1.8168596233
| 20>  H        3.7783155138     4.1468173103    -2.7643977204
| 21> *
| 22>
| 23>                          ****END OF INPUT****

CARTESIAN COORDINATES (ANGSTROEM)
---------------------------------
  N     -0.219824   -0.867609   -0.963813
  C     -0.065817    0.020262   -0.242158
  C      0.120124    1.145219    0.684742
  C      1.348178    1.895289    0.436794
  C      2.354278    2.522168    0.232833
  C      3.575668    3.268849   -0.021214
  C      4.504562    2.752458   -1.155827
  C      4.267738    4.138793   -1.784335
  O      3.356612    4.515946   -0.726861
  H     -0.751321    1.807447    0.600930
  H      0.107274    0.751748    1.709308
  H      4.099228    3.450458    0.927069
  H      5.526049    2.527167   -0.848984
  H      4.095078    1.913117   -1.717026
  H      5.144195    4.796836   -1.816860
  H      3.778316    4.146817   -2.764398

 Total Charge           Charge          ....    0
 Multiplicity           Mult            ....    1
 Number of Electrons    NEL             ....   64
 Basis Dimension        Dim             ....  321

ORBITAL ENERGIES
----------------

  NO   OCC          E(Eh)            E(eV)
   0   2.0000     -20.563378      -559.5580
   1   2.0000     -15.578724      -423.9186
   2   2.0000     -11.321498      -308.0736
   3   2.0000     -11.319887      -308.0298
   4   2.0000     -11.290567      -307.2319
   5   2.0000     -11.284697      -307.0722
   6   2.0000     -11.255726      -306.2839
   7   2.0000     -11.248369      -306.0837
   8   2.0000     -11.248282      -306.0813
   9   2.0000      -1.392635       -37.8955
  10   2.0000      -1.228518       -33.4297
  11   2.0000      -1.110519       -30.2187
  12   2.0000      -1.049394       -28.5555
  13   2.0000      -1.013068       -27.5670
  14   2.0000      -0.947194       -25.7745
  15   2.0000      -0.809436       -22.0259
  16   2.0000      -0.742568       -20.2063
  17   2.0000      -0.715050       -19.4575
  18   2.0000      -0.692661       -18.8483
  19   2.0000      -0.679384       -18.4870
  20   2.0000      -0.656804       -17.8725
  21   2.0000      -0.620219       -16.8770
  22   2.0000      -0.602516       -16.3953
  23   2.0000      -0.565308       -15.3828
  24   2.0000      -0.555645       -15.1199
  25   2.0000      -0.509251       -13.8574
  26   2.0000      -0.480668       -13.0796
  27   2.0000      -0.475978       -12.9520
  28   2.0000      -0.472599       -12.8601
  29   2.0000      -0.439435       -11.9576
  30   2.0000      -0.403687       -10.9849
  31   2.0000      -0.397111       -10.8059
  32   0.0000       0.117497         3.1973
  33   0.0000       0.133507         3.6329
  34   0.0000       0.137530         3.7424
  35   0.0000       0.161954         4.4070
  36   0.0000       0.165319         4.4986

MULLIKEN ATOMIC CHARGES
-----------------------
   0 N :   -0.061493
   1 C :   -0.128805
   2 C :   -0.231528
   3 C :    0.057663
   4 C :   -0.021465
   5 C :    0.029986
   6 C :   -0.290534
   7 C :   -0.012221
   8 O :   -0.323039
   9 H :    0.191825
  10 H :    0.190349
  11 H :    0.114307
  12 H :    0.133173
  13 H :    0.144272
  14 H :    0.099995
  15 H :    0.107516
Sum of atomic charges:    0.0000000

LOEWDIN ATOMIC CHARGES
----------------------
   0 N :    0.066689
   1 C :   -0.172713
   2 C :   -0.225565
   3 C :   -0.049571
   4 C :   -0.035162
   5 C :   -0.269882
   6 C :   -0.208620
   7 C :   -0.267948
   8 O :    0.138522
   9 H :    0.183962
  10 H :    0.182001
  11 H :    0.152012
  12 H :    0.131883
  13 H :    0.138772
  14 H :    0.117002
  15 H :    0.118617

  Mayer bond orders larger than 0.1
B(  0-N ,  1-C ) :   2.8463 B(  1-C ,  2-C ) :   0.9334 B(  2-C ,  3-C ) :   0.9650
B(  2-C ,  9-H ) :   0.9162 B(  2-C , 10-H ) :   0.9219 B(  3-C ,  4-C ) :   2.5857
B(  3-C ,  5-C ) :  -0.1111 B(  4-C ,  5-C ) :   1.1048 B(  5-C ,  6-C ) :   0.9191
B(  5-C ,  8-O ) :   0.9836 B(  5-C , 11-H ) :   0.9071 B(  6-C ,  7-C ) :   0.9724
B(  6-C , 12-H ) :   0.9277 B(  6-C , 13-H ) :   0.9302 B(  7-C ,  8-O ) :   0.9371
B(  7-C , 14-H ) :   0.9195 B(  7-C , 15-H ) :   0.9159

MP2 TOTAL ENERGY:     -399.999428530 Eh
FINAL SINGLE POINT ENERGY      -399.999428529708

DIPOLE MOMENT
-------------
                                X             Y             Z
Electronic contribution:     -5.52284      -3.10157       1.57310
Nuclear contribution   :      6.20952       3.64275      -0.89565
                        -----------------------------------------
Total Dipole Moment    :      0.68668       0.54118       0.67745
                        -----------------------------------------
Magnitude (a.u.)       :      1.10605
Magnitude (Debye)      :      2.81135

                             ****ORCA TERMINATED NORMALLY****
TOTAL RUN TIME: 0 days 0 hours 12 minutes 45 seconds 233 msec
