                         Program Version 3.0.3 - RELEASE   -
|  1> ! RI-MP2 RIJK def2-TZVP def2-TZVP/C def2-TZVP/JK TIGHTSCF
|  2> % maxcore 2000
|  3> % mp2 density relaxed end
|  4> *xyz 0 1
|  5>  C       -0.2961923695     0.9899406030    -1.7355611448
|  6>  C       -0.0904161036    -0.1539929632    -0.7642046902
|  7>  C        1.2796650305    -0.6295238148    -0.3157625385
|  8>  C        2.5726847706    -0.0119920776    -0.8070951207
|  9>  C        0.3433286487     0.0341782180     0.6824004013
| 10>  C        0.6622451313     1.4217332325     1.2149411402
| 11>  C       -0.3036084301    -0.8896015488     1.7071003989
| 12>  C       -1.6878841318    -0.4438581668     2.1714819495
| 13>  O       -2.1971783160    -1.4554557808     3.0305898052
| 14>  H        0.4306030690     1.7951225312    -1.6070017739
| 15>  H       -0.2153653219     0.6406080240    -2.7713065189
| 16>  H       -1.2928236255     1.4299948204    -1.6153334056
| 17>  H       -0.8153251837    -0.9533795800    -0.9078762735
| 18>  H        1.3608603753    -1.7076735587    -0.1916649619
| 19>  H        2.4965363744     1.0637727383    -0.9797303946
| 20>  H        3.3834545982    -0.1715495505    -0.0870836433
| 21>  H        2.8805058387    -0.4696749501    -1.7541052932
| 22>  H        1.2206435050     2.0331601776     0.5042394021
| 23>  H       -0.2485858868     1.9752759355     1.4689553501
| 24>  H        1.2667533729     1.3510732843     2.1272733295
| 25>  H       -0.4092136265    -1.8949362529     1.2833203342
| 26>  H        0.3432947644    -0.9899905064     2.5886830161
| 27>  H       -1.6262746337     0.5214968261     2.6968274403
| 28>  H       -2.3409079120    -0.2980163684     1.2954993278
| 29>  H       -3.0572494179    -1.1704638216     3.3522321139
| 30> *
| 31>
| 32>                          ****END OF INPUT****

CARTESIAN COORDINATES (ANGSTROEM)
---------------------------------
  C     -0.296192    0.989941   -1.735561
  C     -0.090416   -0.153993   -0.764205
  C      1.279665   -0.629524   -0.315763
  C      2.572685   -0.011992   -0.807095
  C      0.343329    0.034178    0.682400
  C      0.662245    1.421733    1.214941
  C     -0.303608   -0.889602    1.707100
  C     -1.687884   -0.443858    2.171482
  O     -2.197178   -1.455456    3.030590
  H      0.430603    1.795123   -1.607002
  H     -0.215365    0.640608   -2.771307
  H     -1.292824    1.429995   -1.615333
  H     -0.815325   -0.953380   -0.907876
  H      1.360860   -1.707674   -0.191665
  H      2.496536    1.063773   -0.979730
  H      3.383455   -0.171550   -0.087084
  H      2.880506   -0.469675   -1.754105
  H      1.220644    2.033160    0.504239
  H     -0.248586    1.975276    1.468955
  H      1.266753    1.351073    2.127273
  H     -0.409214   -1.894936    1.283320
  H      0.343295   -0.989991    2.588683
  H     -1.626275    0.521497    2.696827
  H     -2.340908   -0.298016    1.295499
  H     -3.057249   -1.170464    3.352232

 Total Charge           Charge          ....    0
 Multiplicity           Mult            ....    1
 Number of Electrons    NEL             ....   72
 Basis Dimension        Dim             ....  375

ORBITAL ENERGIES
----------------

  NO   OCC          E(Eh)            E(eV)
   0   2.0000     -20.550761      -559.2146
   1   2.0000     -11.269274      -306.6525
   2   2.0000     -11.229478      -305.5696
   3   2.0000     -11.221951      -305.3648
   4   2.0000     -11.221218      -305.3449
   5   2.0000     -11.214651      -305.1662
   6   2.0000     -11.214209      -305.1541
   7   2.0000     -11.213617      -305.1380
   8   2.0000     -11.213544      -305.1360
   9   2.0000      -1.354191       -36.8494
  10   2.0000      -1.157630       -31.5007
  11   2.0000      -1.022617       -27.8268
  12   2.0000      -0.977282       -26.5932
  13   2.0000      -0.959587       -26.1117
  14   2.0000      -0.926599       -25.2140
  15   2.0000      -0.835533       -22.7360
  16   2.0000      -0.749573       -20.3969
  17   2.0000      -0.728227       -19.8161
  18   2.0000      -0.694904       -18.9093
  19   2.0000      -0.646375       -17.5888
  20   2.0000      -0.636124       -17.3098
  21   2.0000      -0.595342       -16.2001
  22   2.0000      -0.589863       -16.0510
  23   2.0000      -0.575668       -15.6647
  24   2.0000      -0.559998       -15.2383
  25   2.0000      -0.539837       -14.6897
  26   2.0000      -0.535139       -14.5619
  27   2.0000      -0.532332       -14.4855
  28   2.0000      -0.527454       -14.3527
  29   2.0000      -0.512045       -13.9334
  30   2.0000      -0.490851       -13.3567
  31   2.0000      -0.473362       -12.8808
  32   2.0000      -0.466557       -12.6957
  33   2.0000      -0.438582       -11.9344
  34   2.0000      -0.380549       -10.3553
  35   2.0000      -0.374148       -10.1811
  36   0.0000       0.128225         3.4892
  37   0.0000       0.143191         3.8964
  38   0.0000       0.162920         4.4333
  39   0.0000       0.165475         4.5028
  40   0.0000       0.172567         4.6958

MULLIKEN ATOMIC CHARGES
-----------------------
   0 C :   -0.406431
   1 C :   -0.133381
   2 C :   -0.101633
   3 C :   -0.408876
   4 C :    0.072775
   5 C :   -0.432484
   6 C :   -0.149733
   7 C :   -0.108475
   8 O :   -0.464737
   9 H :    0.117730
  10 H :    0.135441
  11 H :    0.131537
  12 H :    0.118814
  13 H :    0.113891
  14 H :    0.116124
  15 H :    0.135359
  16 H :    0.135117
  17 H :    0.123568
  18 H :    0.136195
  19 H :    0.136364
  20 H :    0.108059
  21 H :    0.114963
  22 H :    0.097885
  23 H :    0.098299
  24 H :    0.313627
Sum of atomic charges:   -0.0000000

LOEWDIN ATOMIC CHARGES
----------------------
   0 C :   -0.293714
   1 C :   -0.201747
   2 C :   -0.198662
   3 C :   -0.293502
   4 C :   -0.237005
   5 C :   -0.264201
   6 C :   -0.226958
   7 C :   -0.345265
   8 O :   -0.053387
   9 H :    0.121480
  10 H :    0.126429
  11 H :    0.125297
  12 H :    0.149808
  13 H :    0.149409
  14 H :    0.120261
  15 H :    0.126355
  16 H :    0.126833
  17 H :    0.123587
  18 H :    0.125548
  19 H :    0.130176
  20 H :    0.147184
  21 H :    0.142983
  22 H :    0.113190
  23 H :    0.115303
  24 H :    0.170598

  Mayer bond orders larger than 0.1
B(  0-C ,  1-C ) :   0.9003 B(  0-C ,  9-H ) :   0.9404 B(  0-C , 10-H ) :   0.9400
B(  0-C , 11-H ) :   0.9401 B(  1-C ,  2-C ) :   0.8943 B(  1-C ,  4-C ) :   0.8624
B(  1-C , 12-H ) :   0.9278 B(  2-C ,  3-C ) :   0.9023 B(  2-C ,  4-C ) :   0.8527
B(  2-C , 13-H ) :   0.9297 B(  3-C , 14-H ) :   0.9411 B(  3-C , 15-H ) :   0.9401
B(  3-C , 16-H ) :   0.9391 B(  4-C ,  5-C ) :   0.9133 B(  4-C ,  6-C ) :   0.8808
B(  5-C , 17-H ) :   0.9358 B(  5-C , 18-H ) :   0.9400 B(  5-C , 19-H ) :   0.9350
B(  6-C ,  7-C ) :   0.9227 B(  6-C , 20-H ) :   0.9155 B(  6-C , 21-H ) :   0.9284
B(  7-C ,  8-O ) :   1.0197 B(  7-C , 22-H ) :   0.9360 B(  7-C , 23-H ) :   0.9286
B(  8-O , 24-H ) :   0.8500

MP2 TOTAL ENERGY:     -388.808291142 Eh
FINAL SINGLE POINT ENERGY      -388.808291141525

DIPOLE MOMENT
-------------
                                X             Y             Z
Electronic contribution:     -3.62179      -4.31528       4.07263
Nuclear contribution   :      3.36575       4.84843      -4.23762
                        -----------------------------------------
Total Dipole Moment    :     -0.25603       0.53315      -0.16498
                        -----------------------------------------
Magnitude (a.u.)       :      0.61402
Magnitude (Debye)      :      1.56071

                             ****ORCA TERMINATED NORMALLY****
TOTAL RUN TIME: 0 days 0 hours 20 minutes 41 seconds 969 msec
