                         Program Version 3.0.3 - RELEASE   -
|  1> ! RI-MP2 RIJK def2-TZVP def2-TZVP/C def2-TZVP/JK TIGHTSCF
|  2> % maxcore 2000
|  3> % mp2 density relaxed end
|  4> *xyz 0 1
|  5>  C        0.1274050862     1.3560776488     0.2902454070
|  6>  C       -0.0207700477    -0.0995708867     0.0108742407
|  7>  N        0.2768003253    -0.7002316573    -1.0669708052
|  8>  C       -0.0618989257    -2.1141014859    -0.8715388089
|  9>  C       -0.5530975473    -2.2116013156     0.6002406878
| 10>  C        0.3490685489    -3.0482408440     1.5135404143
| 11>  C       -0.1003620391    -3.0297027077     2.9608647694
| 12>  O       -0.3468255284    -4.0167145205     3.6056758671
| 13>  O       -0.5402890500    -0.8319493656     1.0435123193
| 14>  H        0.7799241951     1.5134427915     1.1546840193
| 15>  H        0.5464638334     1.8554648533    -0.5823895163
| 16>  H       -0.8454940666     1.7945528912     0.5335440387
| 17>  H       -0.8334631219    -2.4159780364    -1.5878094547
| 18>  H        0.8156754001    -2.7441881239    -1.0549984766
| 19>  H       -1.5870843803    -2.5629443861     0.6707552835
| 20>  H        0.3751909230    -4.0863718942     1.1688876988
| 21>  H        1.3664566662    -2.6362505086     1.4601728344
| 22>  H       -0.1951539412    -2.0137959823     3.4008842914
| 23> *
| 24>
| 25>                          ****END OF INPUT****

CARTESIAN COORDINATES (ANGSTROEM)
---------------------------------
  C      0.127405    1.356078    0.290245
  C     -0.020770   -0.099571    0.010874
  N      0.276800   -0.700232   -1.066971
  C     -0.061899   -2.114101   -0.871539
  C     -0.553098   -2.211601    0.600241
  C      0.349069   -3.048241    1.513540
  C     -0.100362   -3.029703    2.960865
  O     -0.346826   -4.016715    3.605676
  O     -0.540289   -0.831949    1.043512
  H      0.779924    1.513443    1.154684
  H      0.546464    1.855465   -0.582390
  H     -0.845494    1.794553    0.533544
  H     -0.833463   -2.415978   -1.587809
  H      0.815675   -2.744188   -1.054998
  H     -1.587084   -2.562944    0.670755
  H      0.375191   -4.086372    1.168888
  H      1.366457   -2.636251    1.460173
  H     -0.195154   -2.013796    3.400884

 Total Charge           Charge          ....    0
 Multiplicity           Mult            ....    1
 Number of Electrons    NEL             ....   68
 Basis Dimension        Dim             ....  333

ORBITAL ENERGIES
----------------

  NO   OCC          E(Eh)            E(eV)
   0   2.0000     -20.602324      -560.6177
   1   2.0000     -20.561980      -559.5199
   2   2.0000     -15.550514      -423.1510
   3   2.0000     -11.342532      -308.6460
   4   2.0000     -11.335762      -308.4618
   5   2.0000     -11.313581      -307.8582
   6   2.0000     -11.269391      -306.6557
   7   2.0000     -11.252901      -306.2070
   8   2.0000     -11.244159      -305.9691
   9   2.0000      -1.445772       -39.3415
  10   2.0000      -1.400046       -38.0972
  11   2.0000      -1.220088       -33.2003
  12   2.0000      -1.096127       -29.8271
  13   2.0000      -1.023086       -27.8396
  14   2.0000      -0.950211       -25.8566
  15   2.0000      -0.856669       -23.3112
  16   2.0000      -0.811597       -22.0847
  17   2.0000      -0.761260       -20.7149
  18   2.0000      -0.713857       -19.4250
  19   2.0000      -0.691133       -18.8067
  20   2.0000      -0.654743       -17.8165
  21   2.0000      -0.639103       -17.3909
  22   2.0000      -0.631144       -17.1743
  23   2.0000      -0.594102       -16.1663
  24   2.0000      -0.586573       -15.9615
  25   2.0000      -0.573360       -15.6019
  26   2.0000      -0.559024       -15.2118
  27   2.0000      -0.542365       -14.7585
  28   2.0000      -0.531108       -14.4522
  29   2.0000      -0.523500       -14.2452
  30   2.0000      -0.498441       -13.5633
  31   2.0000      -0.446414       -12.1476
  32   2.0000      -0.420670       -11.4470
  33   2.0000      -0.386500       -10.5172
  34   0.0000       0.121716         3.3121
  35   0.0000       0.135619         3.6904
  36   0.0000       0.145992         3.9726
  37   0.0000       0.156580         4.2608
  38   0.0000       0.170682         4.6445

MULLIKEN ATOMIC CHARGES
-----------------------
   0 C :   -0.402403
   1 C :    0.206286
   2 N :   -0.262969
   3 C :   -0.124524
   4 C :    0.057702
   5 C :   -0.211711
   6 C :    0.085672
   7 O :   -0.261617
   8 O :   -0.290478
   9 H :    0.147323
  10 H :    0.162153
  11 H :    0.151340
  12 H :    0.123945
  13 H :    0.129949
  14 H :    0.123733
  15 H :    0.128761
  16 H :    0.141173
  17 H :    0.095665
Sum of atomic charges:    0.0000000

LOEWDIN ATOMIC CHARGES
----------------------
   0 C :   -0.260857
   1 C :   -0.396929
   2 N :    0.084337
   3 C :   -0.255431
   4 C :   -0.264444
   5 C :   -0.246497
   6 C :   -0.291117
   7 O :    0.132589
   8 O :    0.241784
   9 H :    0.138259
  10 H :    0.141284
  11 H :    0.139673
  12 H :    0.133096
  13 H :    0.135234
  14 H :    0.144724
  15 H :    0.152008
  16 H :    0.157333
  17 H :    0.114954

  Mayer bond orders larger than 0.1
B(  0-C ,  1-C ) :   0.8897 B(  0-C ,  9-H ) :   0.9239 B(  0-C , 10-H ) :   0.9466
B(  0-C , 11-H ) :   0.9242 B(  1-C ,  2-N ) :   1.8579 B(  1-C ,  8-O ) :   1.0538
B(  2-N ,  3-C ) :   0.9314 B(  3-C ,  4-C ) :   0.8961 B(  3-C , 12-H ) :   0.9234
B(  3-C , 13-H ) :   0.9297 B(  4-C ,  5-C ) :   0.9012 B(  4-C ,  8-O ) :   0.8326
B(  4-C , 14-H ) :   0.9230 B(  5-C ,  6-C ) :   0.8843 B(  5-C , 15-H ) :   0.9082
B(  5-C , 16-H ) :   0.9066 B(  6-C ,  7-O ) :   1.9914 B(  6-C , 17-H ) :   0.9369

MP2 TOTAL ENERGY:     -438.391823391 Eh
FINAL SINGLE POINT ENERGY      -438.391823391291

DIPOLE MOMENT
-------------
                                X             Y             Z
Electronic contribution:     -1.19104      -2.75976       2.65373
Nuclear contribution   :      1.25229       3.23977      -3.01111
                        -----------------------------------------
Total Dipole Moment    :      0.06125       0.48001      -0.35738
                        -----------------------------------------
Magnitude (a.u.)       :      0.60156
Magnitude (Debye)      :      1.52906

                             ****ORCA TERMINATED NORMALLY****
TOTAL RUN TIME: 0 days 0 hours 16 minutes 13 seconds 873 msec
