                         Program Version 3.0.3 - RELEASE   -
|  1> ! RI-MP2 RIJK def2-TZVP def2-TZVP/C def2-TZVP/JK TIGHTSCF
|  2> % maxcore 2000
|  3> % mp2 density relaxed end
|  4> *xyz 0 1
|  5>  C       -0.0231727105     1.4971868646    -0.0357425688
|  6>  C       -0.0243851979    -0.0132737546     0.0321392030
|  7>  O       -0.0417121492    -0.6306971591     1.0779137606
|  8>  C       -0.0029526287    -0.7395869120    -1.2581076827
|  9>  C        0.0003232678    -2.0885939587    -1.4407370212
| 10>  O        0.0223543553    -2.3353762209    -2.7739735546
| 11>  C        0.0317985739    -1.1022198656    -3.3474662002
| 12>  N        0.0175739310    -0.1229693052    -2.5100968245
| 13>  H        0.8634909590     1.8512739064    -0.5718317936
| 14>  H       -0.8876574999     1.8516688943    -0.6065459143
| 15>  H       -0.0428040324     1.9047148095     0.9751672348
| 16>  H       -0.0104975328    -2.9352256603    -0.7775200968
| 17>  H        0.0496236544    -1.0720312186    -4.4253685217
| 18> *
| 19>
| 20>                          ****END OF INPUT****

CARTESIAN COORDINATES (ANGSTROEM)
---------------------------------
  C     -0.023173    1.497187   -0.035743
  C     -0.024385   -0.013274    0.032139
  O     -0.041712   -0.630697    1.077914
  C     -0.002953   -0.739587   -1.258108
  C      0.000323   -2.088594   -1.440737
  O      0.022354   -2.335376   -2.773974
  C      0.031799   -1.102220   -3.347466
  N      0.017574   -0.122969   -2.510097
  H      0.863491    1.851274   -0.571832
  H     -0.887657    1.851669   -0.606546
  H     -0.042804    1.904715    0.975167
  H     -0.010498   -2.935226   -0.777520
  H      0.049624   -1.072031   -4.425369

 Total Charge           Charge          ....    0
 Multiplicity           Mult            ....    1
 Number of Electrons    NEL             ....   58
 Basis Dimension        Dim             ....  278

ORBITAL ENERGIES
----------------

  NO   OCC          E(Eh)            E(eV)
   0   2.0000     -20.662302      -562.2498
   1   2.0000     -20.546533      -559.0996
   2   2.0000     -15.588087      -424.1734
   3   2.0000     -11.352377      -308.9139
   4   2.0000     -11.341682      -308.6229
   5   2.0000     -11.322580      -308.1031
   6   2.0000     -11.277083      -306.8650
   7   2.0000     -11.232458      -305.6507
   8   2.0000      -1.510694       -41.1081
   9   2.0000      -1.390328       -37.8327
  10   2.0000      -1.256368       -34.1875
  11   2.0000      -1.066347       -29.0168
  12   2.0000      -1.011263       -27.5179
  13   2.0000      -0.889425       -24.2025
  14   2.0000      -0.841621       -22.9017
  15   2.0000      -0.795813       -21.6552
  16   2.0000      -0.721371       -19.6295
  17   2.0000      -0.681791       -18.5525
  18   2.0000      -0.654480       -17.8093
  19   2.0000      -0.642783       -17.4910
  20   2.0000      -0.627831       -17.0842
  21   2.0000      -0.600495       -16.3403
  22   2.0000      -0.590755       -16.0753
  23   2.0000      -0.552510       -15.0346
  24   2.0000      -0.511739       -13.9251
  25   2.0000      -0.485617       -13.2143
  26   2.0000      -0.470016       -12.7898
  27   2.0000      -0.427984       -11.6460
  28   2.0000      -0.359902        -9.7934
  29   0.0000       0.089464         2.4345
  30   0.0000       0.136192         3.7060
  31   0.0000       0.147383         4.0105
  32   0.0000       0.166812         4.5392
  33   0.0000       0.178280         4.8512

MULLIKEN ATOMIC CHARGES
-----------------------
   0 C :   -0.375178
   1 C :    0.172019
   2 O :   -0.298311
   3 C :    0.051539
   4 C :    0.006247
   5 O :   -0.187286
   6 C :    0.112985
   7 N :   -0.281701
   8 H :    0.148814
   9 H :    0.148943
  10 H :    0.151025
  11 H :    0.182972
  12 H :    0.167932
Sum of atomic charges:    0.0000000

LOEWDIN ATOMIC CHARGES
----------------------
   0 C :   -0.269280
   1 C :   -0.327169
   2 O :    0.147685
   3 C :   -0.235229
   4 C :   -0.180341
   5 O :    0.344475
   6 C :   -0.308933
   7 N :    0.129964
   8 H :    0.142011
   9 H :    0.141943
  10 H :    0.132943
  11 H :    0.146002
  12 H :    0.135929

  Mayer bond orders larger than 0.1
B(  0-C ,  1-C ) :   0.9654 B(  0-C ,  8-H ) :   0.9067 B(  0-C ,  9-H ) :   0.9069
B(  0-C , 10-H ) :   0.9358 B(  1-C ,  2-O ) :   1.9980 B(  1-C ,  3-C ) :   0.8904
B(  3-C ,  4-C ) :   1.5448 B(  3-C ,  7-N ) :   1.1520 B(  4-C ,  5-O ) :   1.0586
B(  4-C , 11-H ) :   0.8985 B(  5-O ,  6-C ) :   1.0632 B(  6-C ,  7-N ) :   1.6493
B(  6-C , 12-H ) :   0.9233

MP2 TOTAL ENERGY:     -397.991667675 Eh
FINAL SINGLE POINT ENERGY      -397.991667674570

DIPOLE MOMENT
-------------
                                X             Y             Z
Electronic contribution:      0.02824      -4.86111      -1.75323
Nuclear contribution   :     -0.01302       4.73013       0.86193
                        -----------------------------------------
Total Dipole Moment    :      0.01522      -0.13097      -0.89129
                        -----------------------------------------
Magnitude (a.u.)       :      0.90099
Magnitude (Debye)      :      2.29015

                             ****ORCA TERMINATED NORMALLY****
TOTAL RUN TIME: 0 days 0 hours 9 minutes 24 seconds 720 msec
