                         Program Version 3.0.3 - RELEASE   -
|  1> ! RI-MP2 RIJK def2-TZVP def2-TZVP/C def2-TZVP/JK TIGHTSCF
|  2> % maxcore 2000
|  3> % mp2 density relaxed end
|  4> *xyz 0 1
|  5>  C       -0.0530069811     1.5666831425    -0.0397411312
|  6>  C        0.0930184706     0.0621914754     0.0314949775
|  7>  O        1.1668453370    -0.4546306894    -0.8255526062
|  8>  C        1.6943641914    -1.1998093803     0.2812478140
|  9>  C        2.1957642799    -0.3146907464     1.3685352253
| 10>  C        0.7033886077    -0.6233845163     1.2735727792
| 11>  C        0.1694848017    -1.8069227397     2.0010572442
| 12>  C        0.7113679802    -2.9417425351     1.5323281380
| 13>  C        1.6717061619    -2.7155834069     0.3640044028
| 14>  H        0.8588525577     2.0745188554     0.2852538994
| 15>  H       -0.2712293867     1.8786269888    -1.0661279547
| 16>  H       -0.8797267368     1.8926346101     0.6006376731
| 17>  H       -0.8479267912    -0.4291843048    -0.2459785240
| 18>  H        2.7043066473    -0.7920673015     2.1984374964
| 19>  H        2.5618560069     0.6724637779     1.1058160532
| 20>  H       -0.5450395101    -1.7578925384     2.8160496656
| 21>  H        0.5252311627    -3.9315939926     1.9393000156
| 22>  H        1.2863844759    -3.1463871906    -0.5682284676
| 23>  H        2.6560477151    -3.1654347684     0.5393393195
| 24> *
| 25>
| 26>                          ****END OF INPUT****

CARTESIAN COORDINATES (ANGSTROEM)
---------------------------------
  C     -0.053007    1.566683   -0.039741
  C      0.093018    0.062191    0.031495
  O      1.166845   -0.454631   -0.825553
  C      1.694364   -1.199809    0.281248
  C      2.195764   -0.314691    1.368535
  C      0.703389   -0.623385    1.273573
  C      0.169485   -1.806923    2.001057
  C      0.711368   -2.941743    1.532328
  C      1.671706   -2.715583    0.364004
  H      0.858853    2.074519    0.285254
  H     -0.271229    1.878627   -1.066128
  H     -0.879727    1.892635    0.600638
  H     -0.847927   -0.429184   -0.245979
  H      2.704307   -0.792067    2.198437
  H      2.561856    0.672464    1.105816
  H     -0.545040   -1.757893    2.816050
  H      0.525231   -3.931594    1.939300
  H      1.286384   -3.146387   -0.568228
  H      2.656048   -3.165435    0.539339

 Total Charge           Charge          ....    0
 Multiplicity           Mult            ....    1
 Number of Electrons    NEL             ....   66
 Basis Dimension        Dim             ....  339

ORBITAL ENERGIES
----------------

  NO   OCC          E(Eh)            E(eV)
   0   2.0000     -20.550429      -559.2056
   1   2.0000     -11.291991      -307.2707
   2   2.0000     -11.280823      -306.9668
   3   2.0000     -11.242288      -305.9182
   4   2.0000     -11.239206      -305.8343
   5   2.0000     -11.238103      -305.8043
   6   2.0000     -11.235995      -305.7470
   7   2.0000     -11.228745      -305.5497
   8   2.0000     -11.216092      -305.2054
   9   2.0000      -1.386816       -37.7372
  10   2.0000      -1.165037       -31.7023
  11   2.0000      -1.045582       -28.4517
  12   2.0000      -1.019787       -27.7498
  13   2.0000      -0.958018       -26.0690
  14   2.0000      -0.873170       -23.7602
  15   2.0000      -0.808836       -22.0096
  16   2.0000      -0.758941       -20.6518
  17   2.0000      -0.699131       -19.0243
  18   2.0000      -0.690018       -18.7764
  19   2.0000      -0.646097       -17.5812
  20   2.0000      -0.625392       -17.0178
  21   2.0000      -0.598293       -16.2804
  22   2.0000      -0.574711       -15.6387
  23   2.0000      -0.566149       -15.4057
  24   2.0000      -0.549807       -14.9610
  25   2.0000      -0.537471       -14.6253
  26   2.0000      -0.527192       -14.3456
  27   2.0000      -0.502760       -13.6808
  28   2.0000      -0.485818       -13.2198
  29   2.0000      -0.470488       -12.8026
  30   2.0000      -0.412169       -11.2157
  31   2.0000      -0.358477        -9.7547
  32   2.0000      -0.340042        -9.2530
  33   0.0000       0.141922         3.8619
  34   0.0000       0.143867         3.9148
  35   0.0000       0.157092         4.2747
  36   0.0000       0.176577         4.8049
  37   0.0000       0.186504         5.0750

MULLIKEN ATOMIC CHARGES
-----------------------
   0 C :   -0.379281
   1 C :    0.057569
   2 O :   -0.331284
   3 C :    0.190014
   4 C :   -0.287114
   5 C :    0.150499
   6 C :   -0.336351
   7 C :   -0.132826
   8 C :   -0.221098
   9 H :    0.123012
  10 H :    0.141781
  11 H :    0.127346
  12 H :    0.098882
  13 H :    0.142625
  14 H :    0.139014
  15 H :    0.126643
  16 H :    0.125499
  17 H :    0.133591
  18 H :    0.131479
Sum of atomic charges:   -0.0000000

LOEWDIN ATOMIC CHARGES
----------------------
   0 C :   -0.291149
   1 C :   -0.243091
   2 O :    0.174508
   3 C :   -0.248302
   4 C :   -0.153206
   5 C :   -0.161136
   6 C :   -0.133158
   7 C :   -0.133261
   8 C :   -0.200787
   9 H :    0.124772
  10 H :    0.129330
  11 H :    0.129751
  12 H :    0.144772
  13 H :    0.148811
  14 H :    0.140106
  15 H :    0.139623
  16 H :    0.134898
  17 H :    0.152769
  18 H :    0.144747

  Mayer bond orders larger than 0.1
B(  0-C ,  1-C ) :   0.9267 B(  0-C ,  9-H ) :   0.9351 B(  0-C , 10-H ) :   0.9342
B(  0-C , 11-H ) :   0.9295 B(  1-C ,  2-O ) :   0.9035 B(  1-C ,  5-C ) :   0.8946
B(  1-C , 12-H ) :   0.9065 B(  2-O ,  3-C ) :   1.0121 B(  3-C ,  4-C ) :   0.9194
B(  3-C ,  5-C ) :   0.7703 B(  3-C ,  8-C ) :   0.9620 B(  4-C ,  5-C ) :   0.8605
B(  4-C , 13-H ) :   0.9115 B(  4-C , 14-H ) :   0.9076 B(  5-C ,  6-C ) :   0.9493
B(  6-C ,  7-C ) :   1.7527 B(  6-C , 15-H ) :   0.9308 B(  7-C ,  8-C ) :   0.9601
B(  7-C , 16-H ) :   0.9218 B(  8-C , 17-H ) :   0.8978 B(  8-C , 18-H ) :   0.9124

MP2 TOTAL ENERGY:     -385.162914397 Eh
FINAL SINGLE POINT ENERGY      -385.162914397233

DIPOLE MOMENT
-------------
                                X             Y             Z
Electronic contribution:      0.93389      -2.33892      -0.72305
Nuclear contribution   :     -1.13026       2.14866       1.25485
                        -----------------------------------------
Total Dipole Moment    :     -0.19637      -0.19026       0.53181
                        -----------------------------------------
Magnitude (a.u.)       :      0.59798
Magnitude (Debye)      :      1.51994

                             ****ORCA TERMINATED NORMALLY****
TOTAL RUN TIME: 0 days 0 hours 19 minutes 26 seconds 339 msec
