                         Program Version 3.0.3 - RELEASE   -
|  1> ! RI-MP2 RIJK def2-TZVP def2-TZVP/C def2-TZVP/JK TIGHTSCF
|  2> % maxcore 2000
|  3> % mp2 density relaxed end
|  4> *xyz 0 1
|  5>  C        0.1266064655     1.4446971736     0.2974841278
|  6>  C       -0.0912107029    -0.0374444909     0.5418659739
|  7>  O        1.1636090554    -0.6250195127     0.8732529948
|  8>  C        1.0918400637    -1.9857974915     1.1223499517
|  9>  C        2.0759637566    -2.6229740214     2.0142475797
| 10>  C        2.4641351140    -1.6605555082     3.1495699920
| 11>  C        0.9749495576    -1.6662742912     3.5732393275
| 12>  O        0.4006247648    -1.2589226432     4.5430584173
| 13>  C        0.5621753299    -2.5565181325     2.4389611421
| 14>  H        0.8356795573     1.6009999668    -0.5203606283
| 15>  H       -0.8192838271     1.9273716627     0.0348919495
| 16>  H        0.5240723398     1.9265450976     1.1950098316
| 17>  H       -0.8043342496    -0.2008100149     1.3629541935
| 18>  H       -0.5034185856    -0.5254636190    -0.3559341452
| 19>  H        0.7742660906    -2.5806668131     0.2626458091
| 20>  H        2.6316076451    -3.5093555457     1.7375824617
| 21>  H        3.0763411179    -2.1257754170     3.9270668008
| 22>  H        2.8988951616    -0.7046960174     2.8536786330
| 23>  H       -0.2112555145    -3.3149361420     2.4585598875
| 24> *
| 25>
| 26>                          ****END OF INPUT****

CARTESIAN COORDINATES (ANGSTROEM)
---------------------------------
  C      0.126606    1.444697    0.297484
  C     -0.091211   -0.037444    0.541866
  O      1.163609   -0.625020    0.873253
  C      1.091840   -1.985797    1.122350
  C      2.075964   -2.622974    2.014248
  C      2.464135   -1.660556    3.149570
  C      0.974950   -1.666274    3.573239
  O      0.400625   -1.258923    4.543058
  C      0.562175   -2.556518    2.438961
  H      0.835680    1.601000   -0.520361
  H     -0.819284    1.927372    0.034892
  H      0.524072    1.926545    1.195010
  H     -0.804334   -0.200810    1.362954
  H     -0.503419   -0.525464   -0.355934
  H      0.774266   -2.580667    0.262646
  H      2.631608   -3.509356    1.737582
  H      3.076341   -2.125775    3.927067
  H      2.898895   -0.704696    2.853679
  H     -0.211256   -3.314936    2.458560

 Total Charge           Charge          ....    0
 Multiplicity           Mult            ....    1
 Number of Electrons    NEL             ....   68
 Basis Dimension        Dim             ....  339

ORBITAL ENERGIES
----------------

  NO   OCC          E(Eh)            E(eV)
   0   2.0000     -20.572115      -559.7957
   1   2.0000     -20.543354      -559.0131
   2   2.0000     -11.332965      -308.3856
   3   2.0000     -11.310179      -307.7656
   4   2.0000     -11.283973      -307.0525
   5   2.0000     -11.262583      -306.4705
   6   2.0000     -11.250590      -306.1441
   7   2.0000     -11.243267      -305.9449
   8   2.0000     -11.220324      -305.3205
   9   2.0000      -1.401182       -38.1281
  10   2.0000      -1.387013       -37.7425
  11   2.0000      -1.199247       -32.6332
  12   2.0000      -1.028506       -27.9871
  13   2.0000      -0.980159       -26.6715
  14   2.0000      -0.893715       -24.3192
  15   2.0000      -0.847033       -23.0489
  16   2.0000      -0.796962       -21.6864
  17   2.0000      -0.733280       -19.9536
  18   2.0000      -0.708133       -19.2693
  19   2.0000      -0.680597       -18.5200
  20   2.0000      -0.661645       -18.0043
  21   2.0000      -0.636860       -17.3299
  22   2.0000      -0.610355       -16.6086
  23   2.0000      -0.593337       -16.1455
  24   2.0000      -0.579279       -15.7630
  25   2.0000      -0.544591       -14.8191
  26   2.0000      -0.538899       -14.6642
  27   2.0000      -0.518297       -14.1036
  28   2.0000      -0.514277       -13.9942
  29   2.0000      -0.497405       -13.5351
  30   2.0000      -0.461691       -12.5633
  31   2.0000      -0.432746       -11.7756
  32   2.0000      -0.411497       -11.1974
  33   2.0000      -0.389144       -10.5891
  34   0.0000       0.129942         3.5359
  35   0.0000       0.142900         3.8885
  36   0.0000       0.155434         4.2296
  37   0.0000       0.162445         4.4204
  38   0.0000       0.172017         4.6808

MULLIKEN ATOMIC CHARGES
-----------------------
   0 C :   -0.368749
   1 C :   -0.049759
   2 O :   -0.295114
   3 C :    0.017158
   4 C :   -0.123805
   5 C :   -0.185276
   6 C :    0.130496
   7 O :   -0.266698
   8 C :   -0.150263
   9 H :    0.130197
  10 H :    0.126073
  11 H :    0.137018
  12 H :    0.115185
  13 H :    0.096108
  14 H :    0.114858
  15 H :    0.150921
  16 H :    0.136680
  17 H :    0.137358
  18 H :    0.147611
Sum of atomic charges:   -0.0000000

LOEWDIN ATOMIC CHARGES
----------------------
   0 C :   -0.314914
   1 C :   -0.333229
   2 O :    0.200739
   3 C :   -0.288016
   4 C :   -0.137718
   5 C :   -0.181222
   6 C :   -0.311587
   7 O :    0.154408
   8 C :   -0.126040
   9 H :    0.124402
  10 H :    0.126355
  11 H :    0.126180
  12 H :    0.123943
  13 H :    0.118398
  14 H :    0.147072
  15 H :    0.140770
  16 H :    0.147847
  17 H :    0.141217
  18 H :    0.141394

  Mayer bond orders larger than 0.1
B(  0-C ,  1-C ) :   0.9551 B(  0-C ,  9-H ) :   0.9345 B(  0-C , 10-H ) :   0.9318
B(  0-C , 11-H ) :   0.9365 B(  1-C ,  2-O ) :   0.8779 B(  1-C , 12-H ) :   0.9247
B(  1-C , 13-H ) :   0.9214 B(  2-O ,  3-C ) :   1.0125 B(  3-C ,  4-C ) :   0.9231
B(  3-C ,  8-C ) :   0.8505 B(  3-C , 14-H ) :   0.9322 B(  4-C ,  5-C ) :   0.9420
B(  4-C ,  8-C ) :   0.8022 B(  4-C , 15-H ) :   0.9145 B(  5-C ,  6-C ) :   0.9405
B(  5-C ,  8-C ) :  -0.1171 B(  5-C , 16-H ) :   0.9046 B(  5-C , 17-H ) :   0.8917
B(  6-C ,  7-O ) :   2.0237 B(  6-C ,  8-C ) :   0.8935 B(  8-C , 18-H ) :   0.9076

MP2 TOTAL ENERGY:     -422.293975090 Eh
FINAL SINGLE POINT ENERGY      -422.293975090388

DIPOLE MOMENT
-------------
                                X             Y             Z
Electronic contribution:      1.17004      -4.41347       5.89722
Nuclear contribution   :     -1.04809       3.88290      -6.97559
                        -----------------------------------------
Total Dipole Moment    :      0.12196      -0.53057      -1.07837
                        -----------------------------------------
Magnitude (a.u.)       :      1.20800
Magnitude (Debye)      :      3.07049

                             ****ORCA TERMINATED NORMALLY****
TOTAL RUN TIME: 0 days 0 hours 18 minutes 11 seconds 780 msec
