                         Program Version 3.0.3 - RELEASE   -
|  1> ! RI-MP2 RIJK def2-TZVP def2-TZVP/C def2-TZVP/JK TIGHTSCF
|  2> % maxcore 2000
|  3> % mp2 density relaxed end
|  4> *xyz 0 1
|  5>  C        0.3055164630     1.4706647667     0.0561710811
|  6>  O       -0.2465462125     0.2369062278    -0.3488332429
|  7>  C        0.5981915477    -0.4977693939    -1.1937504456
|  8>  C        1.7268472670    -1.3095292771    -0.5180252696
|  9>  O        1.1438632721    -2.5532917887    -0.9484297642
| 10>  C        0.0308882624    -1.8824485618    -1.5965221382
| 11>  C       -1.3274660925    -2.3091432661    -1.0486865695
| 12>  C       -2.4571596340    -1.5674732912    -1.7761304441
| 13>  C       -1.4773259197    -3.8317311115    -1.1628482796
| 14>  H        1.2273950862     1.3374105398     0.6418238616
| 15>  H        0.5355246607     2.1129710471    -0.8081141402
| 16>  H       -0.4383124404     1.9688796528     0.6818349798
| 17>  H        0.9293350140     0.1241087726    -2.0372798145
| 18>  H        2.7380532453    -1.1676136311    -0.9187765556
| 19>  H        1.7500416900    -1.2170381097     0.5754323176
| 20>  H        0.0636366689    -2.0618603701    -2.6816655272
| 21>  H       -1.3556376902    -2.0316433199     0.0111498026
| 22>  H       -3.4327021816    -1.8731700891    -1.3844788878
| 23>  H       -2.3634931374    -0.4861423769    -1.6496459940
| 24>  H       -2.4494315623    -1.7928073292    -2.8497994798
| 25>  H       -0.6513630732    -4.3423288976    -0.6615789287
| 26>  H       -2.4171330480    -4.1630694865    -0.7094960881
| 27>  H       -1.4844272654    -4.1487740863    -2.2130632629
| 28> *
| 29>
| 30>                          ****END OF INPUT****

CARTESIAN COORDINATES (ANGSTROEM)
---------------------------------
  C      0.305516    1.470665    0.056171
  O     -0.246546    0.236906   -0.348833
  C      0.598192   -0.497769   -1.193750
  C      1.726847   -1.309529   -0.518025
  O      1.143863   -2.553292   -0.948430
  C      0.030888   -1.882449   -1.596522
  C     -1.327466   -2.309143   -1.048687
  C     -2.457160   -1.567473   -1.776130
  C     -1.477326   -3.831731   -1.162848
  H      1.227395    1.337411    0.641824
  H      0.535525    2.112971   -0.808114
  H     -0.438312    1.968880    0.681835
  H      0.929335    0.124109   -2.037280
  H      2.738053   -1.167614   -0.918777
  H      1.750042   -1.217038    0.575432
  H      0.063637   -2.061860   -2.681666
  H     -1.355638   -2.031643    0.011150
  H     -3.432702   -1.873170   -1.384479
  H     -2.363493   -0.486142   -1.649646
  H     -2.449432   -1.792807   -2.849799
  H     -0.651363   -4.342329   -0.661579
  H     -2.417133   -4.163069   -0.709496
  H     -1.484427   -4.148774   -2.213063

 Total Charge           Charge          ....    0
 Multiplicity           Mult            ....    1
 Number of Electrons    NEL             ....   72
 Basis Dimension        Dim             ....  363

ORBITAL ENERGIES
----------------

  NO   OCC          E(Eh)            E(eV)
   0   2.0000     -20.565876      -559.6259
   1   2.0000     -20.543887      -559.0276
   2   2.0000     -11.286493      -307.1211
   3   2.0000     -11.280301      -306.9526
   4   2.0000     -11.276491      -306.8489
   5   2.0000     -11.275516      -306.8224
   6   2.0000     -11.219049      -305.2859
   7   2.0000     -11.205747      -304.9239
   8   2.0000     -11.201636      -304.8120
   9   2.0000      -1.397817       -38.0365
  10   2.0000      -1.364937       -37.1418
  11   2.0000      -1.073350       -29.2073
  12   2.0000      -1.007018       -27.4024
  13   2.0000      -0.930380       -25.3169
  14   2.0000      -0.919448       -25.0195
  15   2.0000      -0.912110       -24.8198
  16   2.0000      -0.806139       -21.9361
  17   2.0000      -0.744661       -20.2633
  18   2.0000      -0.705485       -19.1972
  19   2.0000      -0.677576       -18.4378
  20   2.0000      -0.652802       -17.7636
  21   2.0000      -0.622678       -16.9439
  22   2.0000      -0.606956       -16.5161
  23   2.0000      -0.594880       -16.1875
  24   2.0000      -0.578730       -15.7480
  25   2.0000      -0.573779       -15.6133
  26   2.0000      -0.536290       -14.5932
  27   2.0000      -0.524699       -14.2778
  28   2.0000      -0.519550       -14.1377
  29   2.0000      -0.500841       -13.6286
  30   2.0000      -0.493345       -13.4246
  31   2.0000      -0.469771       -12.7831
  32   2.0000      -0.465786       -12.6747
  33   2.0000      -0.439853       -11.9690
  34   2.0000      -0.413590       -11.2544
  35   2.0000      -0.406927       -11.0731
  36   0.0000       0.135401         3.6845
  37   0.0000       0.152256         4.1431
  38   0.0000       0.163546         4.4503
  39   0.0000       0.171464         4.6658
  40   0.0000       0.187370         5.0986

MULLIKEN ATOMIC CHARGES
-----------------------
   0 C :   -0.235312
   1 O :   -0.296022
   2 C :    0.018639
   3 C :   -0.024309
   4 O :   -0.334624
   5 C :    0.086493
   6 C :    0.006322
   7 C :   -0.436245
   8 C :   -0.397926
   9 H :    0.116192
  10 H :    0.115917
  11 H :    0.144183
  12 H :    0.089949
  13 H :    0.097346
  14 H :    0.095218
  15 H :    0.084876
  16 H :    0.083244
  17 H :    0.130386
  18 H :    0.146301
  19 H :    0.115901
  20 H :    0.152369
  21 H :    0.128724
  22 H :    0.112380
Sum of atomic charges:   -0.0000000

LOEWDIN ATOMIC CHARGES
----------------------
   0 C :   -0.352162
   1 O :    0.164839
   2 C :   -0.297161
   3 C :   -0.262358
   4 O :    0.135485
   5 C :   -0.238148
   6 C :   -0.293386
   7 C :   -0.292091
   8 C :   -0.291824
   9 H :    0.103358
  10 H :    0.103330
  11 H :    0.115274
  12 H :    0.129591
  13 H :    0.116111
  14 H :    0.120873
  15 H :    0.139118
  16 H :    0.156082
  17 H :    0.124297
  18 H :    0.124947
  19 H :    0.121265
  20 H :    0.128273
  21 H :    0.122283
  22 H :    0.122004

  Mayer bond orders larger than 0.1
B(  0-C ,  1-O ) :   0.9101 B(  0-C ,  9-H ) :   0.9332 B(  0-C , 10-H ) :   0.9359
B(  0-C , 11-H ) :   0.9405 B(  1-O ,  2-C ) :   0.9671 B(  2-C ,  3-C ) :   0.9772
B(  2-C ,  5-C ) :   0.9390 B(  2-C , 12-H ) :   0.9271 B(  3-C ,  4-O ) :   0.9644
B(  3-C , 13-H ) :   0.9112 B(  3-C , 14-H ) :   0.8981 B(  4-O ,  5-C ) :   0.9318
B(  5-C ,  6-C ) :   0.9411 B(  5-C , 15-H ) :   0.9075 B(  6-C ,  7-C ) :   0.9080
B(  6-C ,  8-C ) :   0.9060 B(  6-C , 16-H ) :   0.9112 B(  7-C , 17-H ) :   0.9369
B(  7-C , 18-H ) :   0.9375 B(  7-C , 19-H ) :   0.9290 B(  8-C , 20-H ) :   0.9366
B(  8-C , 21-H ) :   0.9412 B(  8-C , 22-H ) :   0.9288

MP2 TOTAL ENERGY:     -424.693526243 Eh
FINAL SINGLE POINT ENERGY      -424.693526243204

DIPOLE MOMENT
-------------
                                X             Y             Z
Electronic contribution:      4.61275      -0.00818       0.78928
Nuclear contribution   :     -4.42523       0.93407      -0.83830
                        -----------------------------------------
Total Dipole Moment    :      0.18752       0.92589      -0.04902
                        -----------------------------------------
Magnitude (a.u.)       :      0.94596
Magnitude (Debye)      :      2.40443

                             ****ORCA TERMINATED NORMALLY****
TOTAL RUN TIME: 0 days 0 hours 18 minutes 37 seconds 84 msec
