                         Program Version 3.0.3 - RELEASE   -
|  1> ! RI-MP2 RIJK def2-TZVP def2-TZVP/C def2-TZVP/JK TIGHTSCF
|  2> % maxcore 2000
|  3> % mp2 density relaxed end
|  4> *xyz 0 1
|  5>  C        0.0427234668     1.4734407659     0.1111649149
|  6>  C        1.3624231475     0.7628244008    -0.0398366048
|  7>  C        1.7294437679     0.0999087192     1.2937365110
|  8>  C        0.4090024661    -0.7203623465     1.2242205786
|  9>  O        0.7193628226    -2.0886975552     1.0333580320
| 10>  C       -0.2423397729    -2.7748717244     0.2456082328
| 11>  C       -0.2770046776    -2.2308062476    -1.1847089393
| 12>  C       -0.6942607254    -0.7495660223    -1.1773770256
| 13>  C        0.0399962962    -0.0128365725    -0.0908132540
| 14>  H       -0.2385495440     1.9112454227     1.0679297197
| 15>  H       -0.2822471932     2.0510067449    -0.7498181145
| 16>  H        2.0502778551     1.0013769670    -0.8429365455
| 17>  H        2.5808908045    -0.5795447209     1.2362673042
| 18>  H        1.8540545150     0.7736778989     2.1475693281
| 19>  H       -0.3068471672    -0.6090994044     2.0548746295
| 20>  H        0.0553533646    -3.8273920585     0.2607648213
| 21>  H       -1.2437859127    -2.7031475152     0.7053914208
| 22>  H        0.7244999678    -2.3402297271    -1.6167228947
| 23>  H       -0.9672557731    -2.8246590594    -1.7943316420
| 24>  H       -0.5245285948    -0.2823648122    -2.1545981046
| 25>  H       -1.7757481530    -0.6864032731    -0.9862298579
| 26> *
| 27>
| 28>                          ****END OF INPUT****

CARTESIAN COORDINATES (ANGSTROEM)
---------------------------------
  C      0.042723    1.473441    0.111165
  C      1.362423    0.762824   -0.039837
  C      1.729444    0.099909    1.293737
  C      0.409002   -0.720362    1.224221
  O      0.719363   -2.088698    1.033358
  C     -0.242340   -2.774872    0.245608
  C     -0.277005   -2.230806   -1.184709
  C     -0.694261   -0.749566   -1.177377
  C      0.039996   -0.012837   -0.090813
  H     -0.238550    1.911245    1.067930
  H     -0.282247    2.051007   -0.749818
  H      2.050278    1.001377   -0.842937
  H      2.580891   -0.579545    1.236267
  H      1.854055    0.773678    2.147569
  H     -0.306847   -0.609099    2.054875
  H      0.055353   -3.827392    0.260765
  H     -1.243786   -2.703148    0.705391
  H      0.724500   -2.340230   -1.616723
  H     -0.967256   -2.824659   -1.794332
  H     -0.524529   -0.282365   -2.154598
  H     -1.775748   -0.686403   -0.986230

 Total Charge           Charge          ....    0
 Multiplicity           Mult            ....    1
 Number of Electrons    NEL             ....   68
 Basis Dimension        Dim             ....  351

ORBITAL ENERGIES
----------------

  NO   OCC          E(Eh)            E(eV)
   0   2.0000     -20.547176      -559.1171
   1   2.0000     -11.274486      -306.7944
   2   2.0000     -11.269969      -306.6715
   3   2.0000     -11.232080      -305.6404
   4   2.0000     -11.229783      -305.5779
   5   2.0000     -11.226186      -305.4800
   6   2.0000     -11.225111      -305.4508
   7   2.0000     -11.220304      -305.3200
   8   2.0000     -11.218166      -305.2618
   9   2.0000      -1.371190       -37.3120
  10   2.0000      -1.185465       -32.2581
  11   2.0000      -1.062446       -28.9106
  12   2.0000      -0.973442       -26.4887
  13   2.0000      -0.944385       -25.6980
  14   2.0000      -0.849049       -23.1038
  15   2.0000      -0.821166       -22.3451
  16   2.0000      -0.790685       -21.5156
  17   2.0000      -0.720163       -19.5966
  18   2.0000      -0.669510       -18.2183
  19   2.0000      -0.654143       -17.8001
  20   2.0000      -0.638015       -17.3613
  21   2.0000      -0.618102       -16.8194
  22   2.0000      -0.588976       -16.0268
  23   2.0000      -0.567089       -15.4313
  24   2.0000      -0.557478       -15.1697
  25   2.0000      -0.535626       -14.5751
  26   2.0000      -0.522387       -14.2149
  27   2.0000      -0.500344       -13.6150
  28   2.0000      -0.482641       -13.1333
  29   2.0000      -0.471608       -12.8331
  30   2.0000      -0.437746       -11.9117
  31   2.0000      -0.412549       -11.2260
  32   2.0000      -0.392486       -10.6801
  33   2.0000      -0.366328        -9.9683
  34   0.0000       0.139761         3.8031
  35   0.0000       0.159673         4.3449
  36   0.0000       0.162858         4.4316
  37   0.0000       0.171169         4.6577
  38   0.0000       0.189802         5.1648

MULLIKEN ATOMIC CHARGES
-----------------------
   0 C :   -0.267732
   1 C :   -0.150557
   2 C :   -0.224715
   3 C :    0.051204
   4 O :   -0.312177
   5 C :   -0.069227
   6 C :   -0.207632
   7 C :   -0.226007
   8 C :    0.045430
   9 H :    0.124131
  10 H :    0.126026
  11 H :    0.127499
  12 H :    0.124710
  13 H :    0.111607
  14 H :    0.076126
  15 H :    0.130747
  16 H :    0.087574
  17 H :    0.103825
  18 H :    0.116558
  19 H :    0.120384
  20 H :    0.112226
Sum of atomic charges:    0.0000000

LOEWDIN ATOMIC CHARGES
----------------------
   0 C :   -0.186804
   1 C :   -0.163503
   2 C :   -0.193476
   3 C :   -0.248647
   4 O :    0.178016
   5 C :   -0.313201
   6 C :   -0.264349
   7 C :   -0.230344
   8 C :   -0.192665
   9 H :    0.132246
  10 H :    0.140858
  11 H :    0.133250
  12 H :    0.141928
  13 H :    0.126886
  14 H :    0.125514
  15 H :    0.129102
  16 H :    0.120641
  17 H :    0.140007
  18 H :    0.137255
  19 H :    0.142798
  20 H :    0.144487

  Mayer bond orders larger than 0.1
B(  0-C ,  1-C ) :   0.8965 B(  0-C ,  8-C ) :   0.8632 B(  0-C ,  9-H ) :   0.9089
B(  0-C , 10-H ) :   0.9290 B(  1-C ,  2-C ) :   0.9331 B(  1-C ,  8-C ) :   0.8140
B(  1-C , 11-H ) :   0.9062 B(  2-C ,  3-C ) :   0.9203 B(  2-C , 12-H ) :   0.9229
B(  2-C , 13-H ) :   0.9122 B(  3-C ,  4-O ) :   1.0136 B(  3-C ,  8-C ) :   0.9163
B(  3-C , 14-H ) :   0.9637 B(  4-O ,  5-C ) :   0.9210 B(  5-C ,  6-C ) :   0.9403
B(  5-C , 15-H ) :   0.9308 B(  5-C , 16-H ) :   0.9290 B(  6-C ,  7-C ) :   0.9508
B(  6-C , 17-H ) :   0.9200 B(  6-C , 18-H ) :   0.9245 B(  7-C ,  8-C ) :   0.9286
B(  7-C , 19-H ) :   0.9264 B(  7-C , 20-H ) :   0.9258

MP2 TOTAL ENERGY:     -386.394831599 Eh
FINAL SINGLE POINT ENERGY      -386.394831598755

DIPOLE MOMENT
-------------
                                X             Y             Z
Electronic contribution:      1.60871      -0.50772       2.06358
Nuclear contribution   :     -1.98736       0.65868      -2.47082
                        -----------------------------------------
Total Dipole Moment    :     -0.37865       0.15096      -0.40725
                        -----------------------------------------
Magnitude (a.u.)       :      0.57621
Magnitude (Debye)      :      1.46461

                             ****ORCA TERMINATED NORMALLY****
TOTAL RUN TIME: 0 days 0 hours 19 minutes 32 seconds 468 msec
