                         Program Version 3.0.3 - RELEASE   -
|  1> ! RI-MP2 RIJK def2-TZVP def2-TZVP/C def2-TZVP/JK TIGHTSCF
|  2> % maxcore 2000
|  3> % mp2 density relaxed end
|  4> *xyz 0 1
|  5>  O       -0.1740330392     1.5768677485    -0.1549716161
|  6>  C        0.0841413642     0.2024776505     0.1220825270
|  7>  C       -1.2479138344    -0.5108247671     0.0105696948
|  8>  C       -1.9498617826    -0.8098210765    -1.3373462025
|  9>  C       -0.9430615978    -1.6488052156    -2.1481033914
| 10>  C       -0.5573348071    -2.6495275731    -1.0064163131
| 11>  O        0.8026106804    -2.6496769124    -0.6066502220
| 12>  C       -1.4502913682    -2.0430574538     0.0971068906
| 13>  O       -2.6965214775    -1.8691693285    -0.6431004340
| 14>  H        0.6605265944     2.0516455129    -0.1040168654
| 15>  H        0.8254597257    -0.2158520526    -0.5664382893
| 16>  H        0.4795471447     0.0660841358     1.1415842568
| 17>  H       -1.9726701662    -0.0317358069     0.6734329853
| 18>  H       -2.5759370437    -0.0836126798    -1.8536895711
| 19>  H       -1.4287766733    -2.1367098533    -2.9957454332
| 20>  H       -0.0804806989    -1.0813986076    -2.5084505664
| 21>  H       -0.8946052237    -3.6681353044    -1.2325602529
| 22>  H        1.3198547285    -3.0740678551    -1.2974506088
| 23>  H       -1.5475390851    -2.5868696213     1.0364230019
| 24> *
| 25>
| 26>                          ****END OF INPUT****

CARTESIAN COORDINATES (ANGSTROEM)
---------------------------------
  O     -0.174033    1.576868   -0.154972
  C      0.084141    0.202478    0.122083
  C     -1.247914   -0.510825    0.010570
  C     -1.949862   -0.809821   -1.337346
  C     -0.943062   -1.648805   -2.148103
  C     -0.557335   -2.649528   -1.006416
  O      0.802611   -2.649677   -0.606650
  C     -1.450291   -2.043057    0.097107
  O     -2.696521   -1.869169   -0.643100
  H      0.660527    2.051646   -0.104017
  H      0.825460   -0.215852   -0.566438
  H      0.479547    0.066084    1.141584
  H     -1.972670   -0.031736    0.673433
  H     -2.575937   -0.083613   -1.853690
  H     -1.428777   -2.136710   -2.995745
  H     -0.080481   -1.081399   -2.508451
  H     -0.894605   -3.668135   -1.232560
  H      1.319855   -3.074068   -1.297451
  H     -1.547539   -2.586870    1.036423

 Total Charge           Charge          ....    0
 Multiplicity           Mult            ....    1
 Number of Electrons    NEL             ....   70
 Basis Dimension        Dim             ....  339

ORBITAL ENERGIES
----------------

  NO   OCC          E(Eh)            E(eV)
   0   2.0000     -20.566597      -559.6456
   1   2.0000     -20.555836      -559.3527
   2   2.0000     -20.547589      -559.1283
   3   2.0000     -11.286916      -307.1326
   4   2.0000     -11.284901      -307.0778
   5   2.0000     -11.284682      -307.0718
   6   2.0000     -11.272707      -306.7460
   7   2.0000     -11.231094      -305.6136
   8   2.0000     -11.227118      -305.5054
   9   2.0000      -1.393572       -37.9210
  10   2.0000      -1.367355       -37.2076
  11   2.0000      -1.358106       -36.9559
  12   2.0000      -1.073184       -29.2028
  13   2.0000      -1.000657       -27.2293
  14   2.0000      -0.956357       -26.0238
  15   2.0000      -0.887312       -24.1450
  16   2.0000      -0.789736       -21.4898
  17   2.0000      -0.747876       -20.3508
  18   2.0000      -0.716399       -19.4942
  19   2.0000      -0.705293       -19.1920
  20   2.0000      -0.686538       -18.6816
  21   2.0000      -0.643603       -17.5133
  22   2.0000      -0.623902       -16.9772
  23   2.0000      -0.599743       -16.3198
  24   2.0000      -0.573311       -15.6006
  25   2.0000      -0.558563       -15.1993
  26   2.0000      -0.542563       -14.7639
  27   2.0000      -0.532110       -14.4794
  28   2.0000      -0.501396       -13.6437
  29   2.0000      -0.494896       -13.4668
  30   2.0000      -0.473746       -12.8913
  31   2.0000      -0.453286       -12.3345
  32   2.0000      -0.440904       -11.9976
  33   2.0000      -0.431411       -11.7393
  34   2.0000      -0.410648       -11.1743
  35   0.0000       0.127936         3.4813
  36   0.0000       0.139095         3.7850
  37   0.0000       0.163477         4.4484
  38   0.0000       0.173556         4.7227
  39   0.0000       0.183834         5.0024

MULLIKEN ATOMIC CHARGES
-----------------------
   0 O :   -0.468240
   1 C :   -0.090743
   2 C :   -0.051457
   3 C :    0.017094
   4 C :   -0.243846
   5 C :    0.036296
   6 O :   -0.479179
   7 C :    0.031682
   8 O :   -0.315902
   9 H :    0.315455
  10 H :    0.114234
  11 H :    0.099517
  12 H :    0.113588
  13 H :    0.131657
  14 H :    0.122859
  15 H :    0.117532
  16 H :    0.098695
  17 H :    0.320906
  18 H :    0.129851
Sum of atomic charges:   -0.0000000

LOEWDIN ATOMIC CHARGES
----------------------
   0 O :   -0.052257
   1 C :   -0.329876
   2 C :   -0.201271
   3 C :   -0.225370
   4 C :   -0.222182
   5 C :   -0.313038
   6 O :   -0.018581
   7 C :   -0.220017
   8 O :    0.158267
   9 H :    0.171497
  10 H :    0.118132
  11 H :    0.121427
  12 H :    0.164709
  13 H :    0.132779
  14 H :    0.136031
  15 H :    0.136502
  16 H :    0.133563
  17 H :    0.176147
  18 H :    0.133538

  Mayer bond orders larger than 0.1
B(  0-O ,  1-C ) :   1.0141 B(  0-O ,  9-H ) :   0.8490 B(  1-C ,  2-C ) :   0.9477
B(  1-C , 10-H ) :   0.9082 B(  1-C , 11-H ) :   0.9327 B(  2-C ,  3-C ) :   0.9463
B(  2-C ,  7-C ) :   0.9466 B(  2-C , 12-H ) :   0.9166 B(  3-C ,  4-C ) :   0.9405
B(  3-C ,  8-O ) :   0.9250 B(  3-C , 13-H ) :   0.9089 B(  4-C ,  5-C ) :   0.9410
B(  4-C , 14-H ) :   0.9132 B(  4-C , 15-H ) :   0.9123 B(  5-C ,  6-O ) :   1.0299
B(  5-C ,  7-C ) :   0.8981 B(  5-C , 16-H ) :   0.9388 B(  6-O , 17-H ) :   0.8436
B(  7-C ,  8-O ) :   0.9372 B(  7-C , 18-H ) :   0.9069

MP2 TOTAL ENERGY:     -459.404810079 Eh
FINAL SINGLE POINT ENERGY      -459.404810079323

DIPOLE MOMENT
-------------
                                X             Y             Z
Electronic contribution:     -2.03159      -0.69989       0.94250
Nuclear contribution   :      3.12984       0.54527      -1.35297
                        -----------------------------------------
Total Dipole Moment    :      1.09824      -0.15463      -0.41047
                        -----------------------------------------
Magnitude (a.u.)       :      1.18260
Magnitude (Debye)      :      3.00593

                             ****ORCA TERMINATED NORMALLY****
TOTAL RUN TIME: 0 days 0 hours 27 minutes 19 seconds 23 msec
