                         Program Version 3.0.3 - RELEASE   -
|  1> ! RI-MP2 RIJK def2-TZVP def2-TZVP/C def2-TZVP/JK TIGHTSCF
|  2> % maxcore 2000
|  3> % mp2 density relaxed end
|  4> *xyz 0 1
|  5>  C       -0.0651103199     1.4964564729    -0.3203312217
|  6>  C        0.1493080973     0.0151613415    -0.1014239116
|  7>  C        1.5145621993    -0.5772393529    -0.0932961409
|  8>  N        0.7226837428    -0.5230031626     1.1359527476
|  9>  C        1.1551798845     0.3859941385     2.1974928308
| 10>  C        1.6811618959    -0.4372071497     3.3957141709
| 11>  C        2.4265594030     0.4701683478     4.3726007671
| 12>  C        0.5284248026    -1.1745551839     4.0927312927
| 13>  O        2.6439718396    -1.3805317724     2.9214675654
| 14>  H        0.7925497429     2.0921585620     0.0015900108
| 15>  H       -0.2289949561     1.6950059620    -1.3847144356
| 16>  H       -0.9490836591     1.8529276278     0.2204591760
| 17>  H       -0.6617931250    -0.6035094739    -0.4848445733
| 18>  H        1.7001229046    -1.5663557544    -0.5051913339
| 19>  H        2.3555012668     0.1102265891    -0.1769220540
| 20>  H        1.9474513761     1.0732627232     1.8645661412
| 21>  H        0.2998759581     0.9922247792     2.5186955600
| 22>  H        1.7730641485     1.2645712290     4.7465871749
| 23>  H        2.7881613737    -0.1097934288     5.2264157532
| 24>  H        3.2906703144     0.9285589099     3.8828612998
| 25>  H       -0.0319945235    -1.7708258465     3.3666348142
| 26>  H        0.9261009898    -1.8399854151     4.8640740783
| 27>  H       -0.1677093101    -0.4724837588     4.5646465252
| 28>  H        2.1842551540    -1.9177451737     2.2650124230
| 29> *
| 30>
| 31>                          ****END OF INPUT****

CARTESIAN COORDINATES (ANGSTROEM)
---------------------------------
  C     -0.065110    1.496456   -0.320331
  C      0.149308    0.015161   -0.101424
  C      1.514562   -0.577239   -0.093296
  N      0.722684   -0.523003    1.135953
  C      1.155180    0.385994    2.197493
  C      1.681162   -0.437207    3.395714
  C      2.426559    0.470168    4.372601
  C      0.528425   -1.174555    4.092731
  O      2.643972   -1.380532    2.921468
  H      0.792550    2.092159    0.001590
  H     -0.228995    1.695006   -1.384714
  H     -0.949084    1.852928    0.220459
  H     -0.661793   -0.603509   -0.484845
  H      1.700123   -1.566356   -0.505191
  H      2.355501    0.110227   -0.176922
  H      1.947451    1.073263    1.864566
  H      0.299876    0.992225    2.518696
  H      1.773064    1.264571    4.746587
  H      2.788161   -0.109793    5.226416
  H      3.290670    0.928559    3.882861
  H     -0.031995   -1.770826    3.366635
  H      0.926101   -1.839985    4.864074
  H     -0.167709   -0.472484    4.564647
  H      2.184255   -1.917745    2.265012

 Total Charge           Charge          ....    0
 Multiplicity           Mult            ....    1
 Number of Electrons    NEL             ....   72
 Basis Dimension        Dim             ....  369

ORBITAL ENERGIES
----------------

  NO   OCC          E(Eh)            E(eV)
   0   2.0000     -20.538039      -558.8684
   1   2.0000     -15.558510      -423.3686
   2   2.0000     -11.276910      -306.8603
   3   2.0000     -11.263654      -306.4996
   4   2.0000     -11.253655      -306.2275
   5   2.0000     -11.248756      -306.0942
   6   2.0000     -11.227481      -305.5153
   7   2.0000     -11.207078      -304.9601
   8   2.0000     -11.203554      -304.8642
   9   2.0000      -1.350432       -36.7471
  10   2.0000      -1.271714       -34.6051
  11   2.0000      -1.062717       -28.9180
  12   2.0000      -1.001174       -27.2433
  13   2.0000      -0.958855       -26.0918
  14   2.0000      -0.931396       -25.3446
  15   2.0000      -0.838432       -22.8149
  16   2.0000      -0.794519       -21.6200
  17   2.0000      -0.752812       -20.4851
  18   2.0000      -0.692976       -18.8568
  19   2.0000      -0.650830       -17.7100
  20   2.0000      -0.642192       -17.4749
  21   2.0000      -0.629385       -17.1264
  22   2.0000      -0.587650       -15.9908
  23   2.0000      -0.585121       -15.9219
  24   2.0000      -0.576188       -15.6789
  25   2.0000      -0.548040       -14.9129
  26   2.0000      -0.530764       -14.4428
  27   2.0000      -0.526634       -14.3305
  28   2.0000      -0.516606       -14.0576
  29   2.0000      -0.511040       -13.9061
  30   2.0000      -0.500259       -13.6127
  31   2.0000      -0.477408       -12.9909
  32   2.0000      -0.453813       -12.3489
  33   2.0000      -0.439133       -11.9494
  34   2.0000      -0.426758       -11.6127
  35   2.0000      -0.367619       -10.0034
  36   0.0000       0.131697         3.5837
  37   0.0000       0.154101         4.1933
  38   0.0000       0.162655         4.4261
  39   0.0000       0.169736         4.6188
  40   0.0000       0.187486         5.1018

MULLIKEN ATOMIC CHARGES
-----------------------
   0 C :   -0.399760
   1 C :   -0.037804
   2 C :   -0.195676
   3 N :   -0.260493
   4 C :   -0.189344
   5 C :    0.271120
   6 C :   -0.390546
   7 C :   -0.426642
   8 O :   -0.479342
   9 H :    0.132873
  10 H :    0.142983
  11 H :    0.135208
  12 H :    0.117284
  13 H :    0.133033
  14 H :    0.122414
  15 H :    0.104328
  16 H :    0.118091
  17 H :    0.120083
  18 H :    0.138191
  19 H :    0.130651
  20 H :    0.139974
  21 H :    0.137020
  22 H :    0.114758
  23 H :    0.321596
Sum of atomic charges:    0.0000000

LOEWDIN ATOMIC CHARGES
----------------------
   0 C :   -0.300518
   1 C :   -0.281940
   2 C :   -0.252857
   3 N :    0.100106
   4 C :   -0.258468
   5 C :   -0.432017
   6 C :   -0.272143
   7 C :   -0.283466
   8 O :    0.004942
   9 H :    0.126432
  10 H :    0.130985
  11 H :    0.126334
  12 H :    0.140560
  13 H :    0.122424
  14 H :    0.125481
  15 H :    0.128845
  16 H :    0.138988
  17 H :    0.126436
  18 H :    0.129609
  19 H :    0.126778
  20 H :    0.126230
  21 H :    0.126358
  22 H :    0.124192
  23 H :    0.176707

  Mayer bond orders larger than 0.1
B(  0-C ,  1-C ) :   0.9114 B(  0-C ,  9-H ) :   0.9343 B(  0-C , 10-H ) :   0.9314
B(  0-C , 11-H ) :   0.9389 B(  1-C ,  2-C ) :   0.9415 B(  1-C ,  3-N ) :   0.9120
B(  1-C , 12-H ) :   0.9240 B(  2-C ,  3-N ) :   0.8518 B(  2-C , 13-H ) :   0.9265
B(  2-C , 14-H ) :   0.9169 B(  3-N ,  4-C ) :   0.8959 B(  4-C ,  5-C ) :   0.9227
B(  4-C , 15-H ) :   0.9190 B(  4-C , 16-H ) :   0.9201 B(  5-C ,  6-C ) :   0.8765
B(  5-C ,  7-C ) :   0.9441 B(  5-C ,  8-O ) :   0.9480 B(  6-C , 17-H ) :   0.9342
B(  6-C , 18-H ) :   0.9388 B(  6-C , 19-H ) :   0.9406 B(  7-C , 20-H ) :   0.9249
B(  7-C , 21-H ) :   0.9400 B(  7-C , 22-H ) :   0.9292 B(  8-O , 23-H ) :   0.8340

MP2 TOTAL ENERGY:     -404.841106321 Eh
FINAL SINGLE POINT ENERGY      -404.841106320892

DIPOLE MOMENT
-------------
                                X             Y             Z
Electronic contribution:      1.59042      -3.83539      -1.64642
Nuclear contribution   :     -2.09020       4.38209       1.12228
                        -----------------------------------------
Total Dipole Moment    :     -0.49978       0.54670      -0.52414
                        -----------------------------------------
Magnitude (a.u.)       :      0.90741
Magnitude (Debye)      :      2.30645

                             ****ORCA TERMINATED NORMALLY****
TOTAL RUN TIME: 0 days 0 hours 19 minutes 14 seconds 557 msec
