                         Program Version 3.0.3 - RELEASE   -
|  1> ! RI-MP2 RIJK def2-TZVP def2-TZVP/C def2-TZVP/JK TIGHTSCF
|  2> % maxcore 2000
|  3> % mp2 density relaxed end
|  4> *xyz 0 1
|  5>  C       -0.2565627852     1.4835051546     0.0049879865
|  6>  C        0.1201174438    -0.0042106197     0.0502238881
|  7>  C        0.8114245161    -0.4686212310    -1.2014751995
|  8>  C        0.0953648353    -0.9345180108    -2.4287202825
|  9>  C        1.0257452644    -1.9136255836    -1.7279563761
| 10>  C        2.4320473142    -1.5566325708    -2.0367257129
| 11>  C        2.2694140080    -0.1102790490    -1.5802883952
| 12>  N        3.4057869973    -2.2934810029    -2.3756510854
| 13>  O        4.5938715721    -1.5344523036    -2.4696812272
| 14>  H        0.6301648039     2.1121717488    -0.1287926910
| 15>  H       -0.9394973578     1.6915233616    -0.8250708759
| 16>  H       -0.7471918180     1.7927147360     0.9328502202
| 17>  H        0.7695440927    -0.1907160015     0.9157122707
| 18>  H       -0.7827436894    -0.6075682234     0.2067661998
| 19>  H       -0.9591076236    -1.1599053550    -2.2970124082
| 20>  H        0.3487005410    -0.5501882591    -3.4134891148
| 21>  H        0.6717352016    -2.8607347353    -1.3405470965
| 22>  H        2.4124355947     0.6771281743    -2.3263751531
| 23>  H        2.9098694500     0.1002210840    -0.7178833749
| 24>  H        5.2399428390    -2.2063764336    -2.7105775824
| 25> *
| 26>
| 27>                          ****END OF INPUT****

CARTESIAN COORDINATES (ANGSTROEM)
---------------------------------
  C     -0.256563    1.483505    0.004988
  C      0.120117   -0.004211    0.050224
  C      0.811425   -0.468621   -1.201475
  C      0.095365   -0.934518   -2.428720
  C      1.025745   -1.913626   -1.727956
  C      2.432047   -1.556633   -2.036726
  C      2.269414   -0.110279   -1.580288
  N      3.405787   -2.293481   -2.375651
  O      4.593872   -1.534452   -2.469681
  H      0.630165    2.112172   -0.128793
  H     -0.939497    1.691523   -0.825071
  H     -0.747192    1.792715    0.932850
  H      0.769544   -0.190716    0.915712
  H     -0.782744   -0.607568    0.206766
  H     -0.959108   -1.159905   -2.297012
  H      0.348701   -0.550188   -3.413489
  H      0.671735   -2.860735   -1.340547
  H      2.412436    0.677128   -2.326375
  H      2.909869    0.100221   -0.717883
  H      5.239943   -2.206376   -2.710578

 Total Charge           Charge          ....    0
 Multiplicity           Mult            ....    1
 Number of Electrons    NEL             ....   68
 Basis Dimension        Dim             ....  345

ORBITAL ENERGIES
----------------

  NO   OCC          E(Eh)            E(eV)
   0   2.0000     -20.580835      -560.0330
   1   2.0000     -15.601237      -424.5313
   2   2.0000     -11.275849      -306.8314
   3   2.0000     -11.254087      -306.2393
   4   2.0000     -11.244231      -305.9711
   5   2.0000     -11.241306      -305.8915
   6   2.0000     -11.240425      -305.8675
   7   2.0000     -11.234442      -305.7047
   8   2.0000     -11.221295      -305.3470
   9   2.0000      -1.404129       -38.2083
  10   2.0000      -1.219458       -33.1831
  11   2.0000      -1.125520       -30.6269
  12   2.0000      -1.037801       -28.2400
  13   2.0000      -0.973681       -26.4952
  14   2.0000      -0.884492       -24.0682
  15   2.0000      -0.856173       -23.2977
  16   2.0000      -0.753009       -20.4904
  17   2.0000      -0.719265       -19.5722
  18   2.0000      -0.687286       -18.7020
  19   2.0000      -0.669492       -18.2178
  20   2.0000      -0.635289       -17.2871
  21   2.0000      -0.622397       -16.9363
  22   2.0000      -0.606461       -16.5026
  23   2.0000      -0.576806       -15.6957
  24   2.0000      -0.559088       -15.2136
  25   2.0000      -0.545437       -14.8421
  26   2.0000      -0.527951       -14.3663
  27   2.0000      -0.517296       -14.0763
  28   2.0000      -0.504500       -13.7281
  29   2.0000      -0.479400       -13.0451
  30   2.0000      -0.445220       -12.1151
  31   2.0000      -0.419239       -11.4081
  32   2.0000      -0.401375       -10.9220
  33   2.0000      -0.353731        -9.6255
  34   0.0000       0.126341         3.4379
  35   0.0000       0.150014         4.0821
  36   0.0000       0.159818         4.3489
  37   0.0000       0.165425         4.5014
  38   0.0000       0.174309         4.7432

MULLIKEN ATOMIC CHARGES
-----------------------
   0 C :   -0.399355
   1 C :   -0.218194
   2 C :    0.060538
   3 C :   -0.261379
   4 C :   -0.096495
   5 C :   -0.054953
   6 C :   -0.201798
   7 N :   -0.089930
   8 O :   -0.365697
   9 H :    0.130348
  10 H :    0.129401
  11 H :    0.136584
  12 H :    0.115795
  13 H :    0.111385
  14 H :    0.131102
  15 H :    0.136746
  16 H :    0.139201
  17 H :    0.131909
  18 H :    0.130019
  19 H :    0.334776
Sum of atomic charges:   -0.0000000

LOEWDIN ATOMIC CHARGES
----------------------
   0 C :   -0.308149
   1 C :   -0.256198
   2 C :   -0.189683
   3 C :   -0.172909
   4 C :   -0.117504
   5 C :   -0.268192
   6 C :   -0.156723
   7 N :    0.018883
   8 O :   -0.083268
   9 H :    0.122730
  10 H :    0.122646
  11 H :    0.121480
  12 H :    0.142702
  13 H :    0.143673
  14 H :    0.143816
  15 H :    0.135680
  16 H :    0.143440
  17 H :    0.139452
  18 H :    0.150886
  19 H :    0.167236

  Mayer bond orders larger than 0.1
B(  0-C ,  1-C ) :   0.9245 B(  0-C ,  9-H ) :   0.9376 B(  0-C , 10-H ) :   0.9376
B(  0-C , 11-H ) :   0.9396 B(  1-C ,  2-C ) :   0.9203 B(  1-C , 12-H ) :   0.9309
B(  1-C , 13-H ) :   0.9297 B(  2-C ,  3-C ) :   0.8973 B(  2-C ,  4-C ) :   0.8011
B(  2-C ,  6-C ) :   0.9340 B(  3-C ,  4-C ) :   0.8490 B(  3-C , 14-H ) :   0.9251
B(  3-C , 15-H ) :   0.9106 B(  4-C ,  5-C ) :   0.9699 B(  4-C , 16-H ) :   0.9111
B(  5-C ,  6-C ) :   0.9846 B(  5-C ,  7-N ) :   1.8930 B(  6-C , 17-H ) :   0.9018
B(  6-C , 18-H ) :   0.9024 B(  7-N ,  8-O ) :   0.7906 B(  8-O , 19-H ) :   0.8450

MP2 TOTAL ENERGY:     -402.385296389 Eh
FINAL SINGLE POINT ENERGY      -402.385296389427

DIPOLE MOMENT
-------------
                                X             Y             Z
Electronic contribution:      7.74955      -6.81725      -4.50900
Nuclear contribution   :     -8.20500       7.09623       4.80767
                        -----------------------------------------
Total Dipole Moment    :     -0.45545       0.27898       0.29867
                        -----------------------------------------
Magnitude (a.u.)       :      0.61194
Magnitude (Debye)      :      1.55542

                             ****ORCA TERMINATED NORMALLY****
TOTAL RUN TIME: 0 days 0 hours 17 minutes 23 seconds 622 msec
