                         Program Version 3.0.3 - RELEASE   -
|  1> ! RI-MP2 RIJK def2-TZVP def2-TZVP/C def2-TZVP/JK TIGHTSCF
|  2> % maxcore 2000
|  3> % mp2 density relaxed end
|  4> *xyz 0 1
|  5>  C       -0.0847064251     1.4556913984     0.0406498040
|  6>  C        0.0474264012    -0.0372579643     0.0052628629
|  7>  C        0.9426980601    -0.8712418483    -0.9170464851
|  8>  C        0.0949531775    -2.0846380780    -0.4421692121
|  9>  O       -0.1475389192    -3.1875064544    -1.2463697039
| 10>  C        0.4748413895    -2.2393518187     1.0657780153
| 11>  C       -0.2475857696    -0.9066969526     1.2354036851
| 12>  O       -0.5991421523    -0.2823493758     2.4152221106
| 13>  C       -1.0563308277    -1.0882603881    -0.0337264082
| 14>  H        0.8564681287     1.9264851900     0.3481109045
| 15>  H       -0.3510388237     1.8538074400    -0.9446567174
| 16>  H       -0.8532744038     1.7605626491     0.7558637552
| 17>  H        0.7421735646    -0.6401368950    -1.9678997404
| 18>  H        2.0247970280    -0.8946779595    -0.7343800877
| 19>  H        0.6788924756    -3.6721987633    -1.3529615424
| 20>  H       -0.0900204006    -3.0615192270     1.5177604221
| 21>  H        1.5368064577    -2.3123695283     1.3299750173
| 22>  H       -1.2569958302    -0.8272775269     2.8607561298
| 23>  H       -2.1096817605    -1.0318510872    -0.2660763197
| 24> *
| 25>
| 26>                          ****END OF INPUT****

CARTESIAN COORDINATES (ANGSTROEM)
---------------------------------
  C     -0.084706    1.455691    0.040650
  C      0.047426   -0.037258    0.005263
  C      0.942698   -0.871242   -0.917046
  C      0.094953   -2.084638   -0.442169
  O     -0.147539   -3.187506   -1.246370
  C      0.474841   -2.239352    1.065778
  C     -0.247586   -0.906697    1.235404
  O     -0.599142   -0.282349    2.415222
  C     -1.056331   -1.088260   -0.033726
  H      0.856468    1.926485    0.348111
  H     -0.351039    1.853807   -0.944657
  H     -0.853274    1.760563    0.755864
  H      0.742174   -0.640137   -1.967900
  H      2.024797   -0.894678   -0.734380
  H      0.678892   -3.672199   -1.352962
  H     -0.090020   -3.061519    1.517760
  H      1.536806   -2.312370    1.329975
  H     -1.256996   -0.827278    2.860756
  H     -2.109682   -1.031851   -0.266076

 Total Charge           Charge          ....    0
 Multiplicity           Mult            ....    1
 Number of Electrons    NEL             ....   68
 Basis Dimension        Dim             ....  339

ORBITAL ENERGIES
----------------

  NO   OCC          E(Eh)            E(eV)
   0   2.0000     -20.570574      -559.7538
   1   2.0000     -20.565953      -559.6280
   2   2.0000     -11.296706      -307.3990
   3   2.0000     -11.289101      -307.1921
   4   2.0000     -11.238658      -305.8194
   5   2.0000     -11.225248      -305.4545
   6   2.0000     -11.223883      -305.4174
   7   2.0000     -11.222251      -305.3730
   8   2.0000     -11.214066      -305.1503
   9   2.0000      -1.384356       -37.6702
  10   2.0000      -1.375977       -37.4422
  11   2.0000      -1.220444       -33.2100
  12   2.0000      -1.009260       -27.4634
  13   2.0000      -0.959821       -26.1181
  14   2.0000      -0.926766       -25.2186
  15   2.0000      -0.846694       -23.0397
  16   2.0000      -0.761509       -20.7217
  17   2.0000      -0.727579       -19.7984
  18   2.0000      -0.697638       -18.9837
  19   2.0000      -0.666491       -18.1361
  20   2.0000      -0.639880       -17.4120
  21   2.0000      -0.614270       -16.7151
  22   2.0000      -0.607726       -16.5371
  23   2.0000      -0.597363       -16.2551
  24   2.0000      -0.559443       -15.2232
  25   2.0000      -0.556399       -15.1404
  26   2.0000      -0.539524       -14.6812
  27   2.0000      -0.524839       -14.2816
  28   2.0000      -0.516127       -14.0445
  29   2.0000      -0.477198       -12.9852
  30   2.0000      -0.441188       -12.0053
  31   2.0000      -0.406813       -11.0699
  32   2.0000      -0.378536       -10.3005
  33   2.0000      -0.356642        -9.7047
  34   0.0000       0.130325         3.5463
  35   0.0000       0.141658         3.8547
  36   0.0000       0.158870         4.3231
  37   0.0000       0.182146         4.9565
  38   0.0000       0.192308         5.2330

MULLIKEN ATOMIC CHARGES
-----------------------
   0 C :   -0.424248
   1 C :   -0.005540
   2 C :   -0.166774
   3 C :    0.190326
   4 O :   -0.455573
   5 C :   -0.166524
   6 C :    0.081825
   7 O :   -0.454872
   8 C :   -0.247783
   9 H :    0.132903
  10 H :    0.132722
  11 H :    0.149383
  12 H :    0.107268
  13 H :    0.105469
  14 H :    0.322045
  15 H :    0.098617
  16 H :    0.109738
  17 H :    0.330017
  18 H :    0.161001
Sum of atomic charges:   -0.0000000

LOEWDIN ATOMIC CHARGES
----------------------
   0 C :   -0.269785
   1 C :   -0.190970
   2 C :   -0.163151
   3 C :   -0.310681
   4 O :    0.024297
   5 C :   -0.172518
   6 C :   -0.305767
   7 O :    0.039021
   8 C :   -0.083969
   9 H :    0.130668
  10 H :    0.127418
  11 H :    0.135672
  12 H :    0.142386
  13 H :    0.124196
  14 H :    0.184379
  15 H :    0.139415
  16 H :    0.124928
  17 H :    0.186059
  18 H :    0.138401

  Mayer bond orders larger than 0.1
B(  0-C ,  1-C ) :   0.8860 B(  0-C ,  9-H ) :   0.9382 B(  0-C , 10-H ) :   0.9424
B(  0-C , 11-H ) :   0.9336 B(  1-C ,  2-C ) :   0.9295 B(  1-C ,  6-C ) :   0.8379
B(  1-C ,  8-C ) :   0.8427 B(  2-C ,  3-C ) :   0.9544 B(  2-C , 12-H ) :   0.9123
B(  2-C , 13-H ) :   0.9034 B(  3-C ,  4-O ) :   0.9963 B(  3-C ,  5-C ) :   0.9397
B(  3-C ,  8-C ) :   0.8854 B(  4-O , 14-H ) :   0.8345 B(  5-C ,  6-C ) :   0.9697
B(  5-C , 15-H ) :   0.9021 B(  5-C , 16-H ) :   0.9031 B(  6-C ,  7-O ) :   1.0787
B(  6-C ,  8-C ) :   0.8257 B(  7-O , 17-H ) :   0.8336 B(  8-C , 18-H ) :   0.8870

MP2 TOTAL ENERGY:     -422.275146524 Eh
FINAL SINGLE POINT ENERGY      -422.275146523845

DIPOLE MOMENT
-------------
                                X             Y             Z
Electronic contribution:     -1.55027      -3.63272       0.98802
Nuclear contribution   :      1.74337       3.30800      -0.89816
                        -----------------------------------------
Total Dipole Moment    :      0.19310      -0.32473       0.08986
                        -----------------------------------------
Magnitude (a.u.)       :      0.38834
Magnitude (Debye)      :      0.98709

                             ****ORCA TERMINATED NORMALLY****
TOTAL RUN TIME: 0 days 0 hours 17 minutes 33 seconds 723 msec
