                         Program Version 3.0.3 - RELEASE   -
|  1> ! RI-MP2 RIJK def2-TZVP def2-TZVP/C def2-TZVP/JK TIGHTSCF
|  2> % maxcore 2000
|  3> % mp2 density relaxed end
|  4> *xyz 0 1
|  5>  C       -0.1152059763     1.5823533983     0.0793175360
|  6>  C        0.0111906895     0.0532535007     0.0134137386
|  7>  C        0.7971841572    -0.4510181639    -1.1851115064
|  8>  C        1.8103534934    -1.2607724867    -0.8596173006
|  9>  C        2.7913331227    -1.9260602954    -1.7711298099
| 10>  C        1.8833055292    -1.3907571275     0.6323225701
| 11>  N        2.1859936121    -0.0858220099     1.2935128160
| 12>  C        0.7865986790    -0.5575403347     1.1844735447
| 13>  H        0.8746466095     2.0351336838     0.1758799422
| 14>  H       -0.5934444052     1.9770435072    -0.8231244973
| 15>  H       -0.7210872698     1.8891118400     0.9386590461
| 16>  H       -1.0018804009    -0.3765625199    -0.0010680514
| 17>  H        0.5624659930    -0.1324781988    -2.1963327548
| 18>  H        2.5672513768    -1.7220162875    -2.8216476296
| 19>  H        3.8135980021    -1.5833906761    -1.5665211334
| 20>  H        2.7921211074    -3.0147266914    -1.6307326316
| 21>  H        2.2328780223    -2.3050784508     1.1022503021
| 22>  H        2.5045965015    -0.2713400998     2.2436803709
| 23>  H        0.2610929963    -0.8259368776     2.0950648285
| 24> *
| 25>
| 26>                          ****END OF INPUT****

CARTESIAN COORDINATES (ANGSTROEM)
---------------------------------
  C     -0.115206    1.582353    0.079318
  C      0.011191    0.053254    0.013414
  C      0.797184   -0.451018   -1.185112
  C      1.810353   -1.260772   -0.859617
  C      2.791333   -1.926060   -1.771130
  C      1.883306   -1.390757    0.632323
  N      2.185994   -0.085822    1.293513
  C      0.786599   -0.557540    1.184474
  H      0.874647    2.035134    0.175880
  H     -0.593444    1.977044   -0.823124
  H     -0.721087    1.889112    0.938659
  H     -1.001880   -0.376563   -0.001068
  H      0.562466   -0.132478   -2.196333
  H      2.567251   -1.722016   -2.821648
  H      3.813598   -1.583391   -1.566521
  H      2.792121   -3.014727   -1.630733
  H      2.232878   -2.305078    1.102250
  H      2.504597   -0.271340    2.243680
  H      0.261093   -0.825937    2.095065

 Total Charge           Charge          ....    0
 Multiplicity           Mult            ....    1
 Number of Electrons    NEL             ....   60
 Basis Dimension        Dim             ....  314

ORBITAL ENERGIES
----------------

  NO   OCC          E(Eh)            E(eV)
   0   2.0000     -15.554476      -423.2588
   1   2.0000     -11.254887      -306.2610
   2   2.0000     -11.252505      -306.1962
   3   2.0000     -11.228813      -305.5515
   4   2.0000     -11.226939      -305.5005
   5   2.0000     -11.220520      -305.3259
   6   2.0000     -11.212625      -305.1110
   7   2.0000     -11.205799      -304.9253
   8   2.0000      -1.264424       -34.4067
   9   2.0000      -1.091496       -29.7011
  10   2.0000      -1.027029       -27.9469
  11   2.0000      -0.938280       -25.5319
  12   2.0000      -0.882228       -24.0066
  13   2.0000      -0.864819       -23.5329
  14   2.0000      -0.758638       -20.6436
  15   2.0000      -0.718555       -19.5529
  16   2.0000      -0.701420       -19.0866
  17   2.0000      -0.606809       -16.5121
  18   2.0000      -0.598473       -16.2853
  19   2.0000      -0.578100       -15.7309
  20   2.0000      -0.565422       -15.3859
  21   2.0000      -0.553550       -15.0629
  22   2.0000      -0.516519       -14.0552
  23   2.0000      -0.509870       -13.8743
  24   2.0000      -0.492682       -13.4066
  25   2.0000      -0.481833       -13.1113
  26   2.0000      -0.462643       -12.5892
  27   2.0000      -0.456173       -12.4131
  28   2.0000      -0.375481       -10.2174
  29   2.0000      -0.328127        -8.9288
  30   0.0000       0.137004         3.7281
  31   0.0000       0.144979         3.9451
  32   0.0000       0.154193         4.1958
  33   0.0000       0.171679         4.6716
  34   0.0000       0.179962         4.8970

MULLIKEN ATOMIC CHARGES
-----------------------
   0 C :   -0.431869
   1 C :    0.096434
   2 C :   -0.283278
   3 C :    0.084407
   4 C :   -0.439870
   5 C :   -0.061447
   6 N :   -0.397155
   7 C :   -0.068237
   8 H :    0.152891
   9 H :    0.125147
  10 H :    0.122324
  11 H :    0.090045
  12 H :    0.117972
  13 H :    0.138008
  14 H :    0.145089
  15 H :    0.136285
  16 H :    0.128995
  17 H :    0.211387
  18 H :    0.132872
Sum of atomic charges:    0.0000000

LOEWDIN ATOMIC CHARGES
----------------------
   0 C :   -0.288373
   1 C :   -0.238051
   2 C :   -0.105556
   3 C :   -0.172911
   4 C :   -0.272763
   5 C :   -0.204930
   6 N :    0.002794
   7 C :   -0.215778
   8 H :    0.129846
   9 H :    0.121291
  10 H :    0.121366
  11 H :    0.155386
  12 H :    0.138204
  13 H :    0.130424
  14 H :    0.133542
  15 H :    0.129995
  16 H :    0.135815
  17 H :    0.166115
  18 H :    0.133585

  Mayer bond orders larger than 0.1
B(  0-C ,  1-C ) :   0.8688 B(  0-C ,  8-H ) :   0.9339 B(  0-C ,  9-H ) :   0.9391
B(  0-C , 10-H ) :   0.9370 B(  1-C ,  2-C ) :   0.9277 B(  1-C ,  7-C ) :   0.9265
B(  1-C , 11-H ) :   0.9175 B(  2-C ,  3-C ) :   1.7606 B(  2-C , 12-H ) :   0.9163
B(  3-C ,  4-C ) :   0.8790 B(  3-C ,  5-C ) :   0.9175 B(  4-C , 13-H ) :   0.9532
B(  4-C , 14-H ) :   0.9298 B(  4-C , 15-H ) :   0.9333 B(  5-C ,  6-N ) :   0.9252
B(  5-C ,  7-C ) :   0.9376 B(  5-C , 16-H ) :   0.9153 B(  6-N ,  7-C ) :   0.9489
B(  6-N , 17-H ) :   0.8670 B(  7-C , 18-H ) :   0.9214

MP2 TOTAL ENERGY:     -327.322760135 Eh
FINAL SINGLE POINT ENERGY      -327.322760134977

DIPOLE MOMENT
-------------
                                X             Y             Z
Electronic contribution:      0.55153      -1.46486       1.91973
Nuclear contribution   :     -0.72862       0.95132      -1.63443
                        -----------------------------------------
Total Dipole Moment    :     -0.17709      -0.51354       0.28530
                        -----------------------------------------
Magnitude (a.u.)       :      0.61358
Magnitude (Debye)      :      1.55961

                             ****ORCA TERMINATED NORMALLY****
TOTAL RUN TIME: 0 days 0 hours 14 minutes 17 seconds 938 msec
