                         Program Version 3.0.3 - RELEASE   -
|  1> ! RI-MP2 RIJK def2-TZVP def2-TZVP/C def2-TZVP/JK TIGHTSCF
|  2> % maxcore 2000
|  3> % mp2 density relaxed end
|  4> *xyz 0 1
|  5>  C       -0.0540831676     1.5434251299     0.3982292647
|  6>  C       -0.0415154563     0.0582613525    -0.0251226590
|  7>  C        0.8539371004    -0.6885076331     0.9496539767
|  8>  O        1.9366652653    -1.1373542626     0.6711046241
|  9>  C       -1.4568771393    -0.5248281046    -0.0748937138
| 10>  C       -2.3878838681     0.0715985299    -1.1091108641
| 11>  C       -1.7146737520    -1.8921086649     0.4050349219
| 12>  O       -2.0552818089    -0.7581565432     1.2105952689
| 13>  H        0.9651956772     1.9352619762     0.4572419905
| 14>  H       -0.6044700511     2.1539947779    -0.3216744819
| 15>  H       -0.5281948547     1.6603031537     1.3776439976
| 16>  H        0.4161918014    -0.0392530025    -1.0157880898
| 17>  H        0.4443444341    -0.7600233766     1.9810095491
| 18>  H       -1.9754537164    -0.0493314120    -2.1164112915
| 19>  H       -3.3612531767    -0.4231395900    -1.0696025596
| 20>  H       -2.5468873456     1.1394345216    -0.9339907041
| 21>  H       -2.5606391171    -2.4500275712     0.0060054517
| 22>  H       -0.9000759548    -2.5092152911     0.7827838588
| 23> *
| 24>
| 25>                          ****END OF INPUT****

CARTESIAN COORDINATES (ANGSTROEM)
---------------------------------
  C     -0.054083    1.543425    0.398229
  C     -0.041515    0.058261   -0.025123
  C      0.853937   -0.688508    0.949654
  O      1.936665   -1.137354    0.671105
  C     -1.456877   -0.524828   -0.074894
  C     -2.387884    0.071599   -1.109111
  C     -1.714674   -1.892109    0.405035
  O     -2.055282   -0.758157    1.210595
  H      0.965196    1.935262    0.457242
  H     -0.604470    2.153995   -0.321674
  H     -0.528195    1.660303    1.377644
  H      0.416192   -0.039253   -1.015788
  H      0.444344   -0.760023    1.981010
  H     -1.975454   -0.049331   -2.116411
  H     -3.361253   -0.423140   -1.069603
  H     -2.546887    1.139435   -0.933991
  H     -2.560639   -2.450028    0.006005
  H     -0.900076   -2.509215    0.782784

 Total Charge           Charge          ....    0
 Multiplicity           Mult            ....    1
 Number of Electrons    NEL             ....   62
 Basis Dimension        Dim             ....  308

ORBITAL ENERGIES
----------------

  NO   OCC          E(Eh)            E(eV)
   0   2.0000     -20.577542      -559.9434
   1   2.0000     -20.558215      -559.4175
   2   2.0000     -11.330434      -308.3168
   3   2.0000     -11.309676      -307.7519
   4   2.0000     -11.292410      -307.2821
   5   2.0000     -11.254852      -306.2601
   6   2.0000     -11.236462      -305.7597
   7   2.0000     -11.236128      -305.7506
   8   2.0000      -1.423128       -38.7253
   9   2.0000      -1.396437       -37.9990
  10   2.0000      -1.094293       -29.7772
  11   2.0000      -1.008271       -27.4364
  12   2.0000      -0.933323       -25.3970
  13   2.0000      -0.899558       -24.4782
  14   2.0000      -0.826254       -22.4835
  15   2.0000      -0.770958       -20.9788
  16   2.0000      -0.709094       -19.2954
  17   2.0000      -0.671385       -18.2693
  18   2.0000      -0.651531       -17.7291
  19   2.0000      -0.627904       -17.0861
  20   2.0000      -0.598169       -16.2770
  21   2.0000      -0.581036       -15.8108
  22   2.0000      -0.572451       -15.5772
  23   2.0000      -0.563586       -15.3360
  24   2.0000      -0.538168       -14.6443
  25   2.0000      -0.531407       -14.4603
  26   2.0000      -0.509663       -13.8686
  27   2.0000      -0.507475       -13.8091
  28   2.0000      -0.460594       -12.5334
  29   2.0000      -0.438052       -11.9200
  30   2.0000      -0.411132       -11.1875
  31   0.0000       0.126476         3.4416
  32   0.0000       0.140147         3.8136
  33   0.0000       0.162091         4.4107
  34   0.0000       0.167405         4.5553
  35   0.0000       0.178583         4.8595

MULLIKEN ATOMIC CHARGES
-----------------------
   0 C :   -0.471933
   1 C :    0.089145
   2 C :    0.030916
   3 O :   -0.261702
   4 C :    0.133883
   5 C :   -0.435038
   6 C :   -0.070861
   7 O :   -0.345019
   8 H :    0.152497
   9 H :    0.141698
  10 H :    0.153297
  11 H :    0.098845
  12 H :    0.110246
  13 H :    0.138940
  14 H :    0.143996
  15 H :    0.144196
  16 H :    0.119415
  17 H :    0.127480
Sum of atomic charges:    0.0000000

LOEWDIN ATOMIC CHARGES
----------------------
   0 C :   -0.275282
   1 C :   -0.239357
   2 C :   -0.272809
   3 O :    0.133817
   4 C :   -0.327197
   5 C :   -0.261998
   6 C :   -0.240754
   7 O :    0.162177
   8 H :    0.130469
   9 H :    0.126665
  10 H :    0.132820
  11 H :    0.164501
  12 H :    0.121793
  13 H :    0.133259
  14 H :    0.134028
  15 H :    0.129938
  16 H :    0.122721
  17 H :    0.125210

  Mayer bond orders larger than 0.1
B(  0-C ,  1-C ) :   0.8715 B(  0-C ,  8-H ) :   0.9367 B(  0-C ,  9-H ) :   0.9324
B(  0-C , 10-H ) :   0.9281 B(  1-C ,  2-C ) :   0.8552 B(  1-C ,  4-C ) :   0.8953
B(  1-C , 11-H ) :   0.8983 B(  2-C ,  3-O ) :   1.9953 B(  2-C , 12-H ) :   0.9304
B(  4-C ,  5-C ) :   0.8874 B(  4-C ,  6-C ) :   0.9845 B(  4-C ,  7-O ) :   0.8632
B(  5-C , 13-H ) :   0.9342 B(  5-C , 14-H ) :   0.9349 B(  5-C , 15-H ) :   0.9400
B(  6-C ,  7-O ) :   0.8815 B(  6-C , 16-H ) :   0.9155 B(  6-C , 17-H ) :   0.8992

MP2 TOTAL ENERGY:     -384.294590139 Eh
FINAL SINGLE POINT ENERGY      -384.294590139202

DIPOLE MOMENT
-------------
                                X             Y             Z
Electronic contribution:      3.47454      -4.17622       3.13089
Nuclear contribution   :     -4.19815       4.45335      -3.72211
                        -----------------------------------------
Total Dipole Moment    :     -0.72360       0.27714      -0.59122
                        -----------------------------------------
Magnitude (a.u.)       :      0.97465
Magnitude (Debye)      :      2.47737

                             ****ORCA TERMINATED NORMALLY****
TOTAL RUN TIME: 0 days 0 hours 12 minutes 50 seconds 790 msec
