                         Program Version 3.0.3 - RELEASE   -
|  1> ! RI-MP2 RIJK def2-TZVP def2-TZVP/C def2-TZVP/JK TIGHTSCF
|  2> % maxcore 2000
|  3> % mp2 density relaxed end
|  4> *xyz 0 1
|  5>  C       -0.0183238210     1.4857567070    -0.1025131435
|  6>  C       -0.0327282394    -0.0249492336     0.0658832940
|  7>  C       -1.2246641935    -0.6538944835    -0.6393134199
|  8>  N        1.2901206433    -0.6741887066    -0.0420885449
|  9>  C        0.6061551075    -0.6558787389     1.2712608854
| 10>  C        1.2887342030     0.1751297961     2.3464008323
| 11>  C        0.0734158915    -1.9630864986     1.8250923402
| 12>  O        1.1897666643    -2.7438739747     2.2449684308
| 13>  H        0.8788539264     1.9381785945     0.3184432348
| 14>  H       -0.0504126469     1.7420217666    -1.1675097830
| 15>  H       -0.8942946295     1.9395474226     0.3752361640
| 16>  H       -1.2324413952    -0.3426894724    -1.6904621032
| 17>  H       -1.2103428504    -1.7453530848    -0.6244627503
| 18>  H       -2.1702280419    -0.3213940385    -0.1955544127
| 19>  H        1.2007574164    -1.5962598278    -0.4651265289
| 20>  H        1.8880635113     0.9765197805     1.9155590398
| 21>  H        0.5537020085     0.6137031724     3.0316485243
| 22>  H        1.9545220638    -0.4684168691     2.9274530838
| 23>  H       -0.5961786402    -1.7477159432     2.6736759008
| 24>  H       -0.5117787138    -2.5095442873     1.0756536415
| 25>  H        0.8550125258    -3.5180216807     2.7067540047
| 26> *
| 27>
| 28>                          ****END OF INPUT****

CARTESIAN COORDINATES (ANGSTROEM)
---------------------------------
  C     -0.018324    1.485757   -0.102513
  C     -0.032728   -0.024949    0.065883
  C     -1.224664   -0.653894   -0.639313
  N      1.290121   -0.674189   -0.042089
  C      0.606155   -0.655879    1.271261
  C      1.288734    0.175130    2.346401
  C      0.073416   -1.963086    1.825092
  O      1.189767   -2.743874    2.244968
  H      0.878854    1.938179    0.318443
  H     -0.050413    1.742022   -1.167510
  H     -0.894295    1.939547    0.375236
  H     -1.232441   -0.342689   -1.690462
  H     -1.210343   -1.745353   -0.624463
  H     -2.170228   -0.321394   -0.195554
  H      1.200757   -1.596260   -0.465127
  H      1.888064    0.976520    1.915559
  H      0.553702    0.613703    3.031649
  H      1.954522   -0.468417    2.927453
  H     -0.596179   -1.747716    2.673676
  H     -0.511779   -2.509544    1.075654
  H      0.855013   -3.518022    2.706754

 Total Charge           Charge          ....    0
 Multiplicity           Mult            ....    1
 Number of Electrons    NEL             ....   64
 Basis Dimension        Dim             ....  326

ORBITAL ENERGIES
----------------

  NO   OCC          E(Eh)            E(eV)
   0   2.0000     -20.558654      -559.4294
   1   2.0000     -15.542191      -422.9245
   2   2.0000     -11.281157      -306.9759
   3   2.0000     -11.262996      -306.4817
   4   2.0000     -11.257687      -306.3372
   5   2.0000     -11.223713      -305.4128
   6   2.0000     -11.210974      -305.0661
   7   2.0000     -11.204515      -304.8904
   8   2.0000      -1.363243       -37.0957
   9   2.0000      -1.255964       -34.1765
  10   2.0000      -1.018983       -27.7279
  11   2.0000      -0.999704       -27.2033
  12   2.0000      -0.949090       -25.8260
  13   2.0000      -0.914534       -24.8857
  14   2.0000      -0.811064       -22.0702
  15   2.0000      -0.725397       -19.7391
  16   2.0000      -0.691816       -18.8253
  17   2.0000      -0.658599       -17.9214
  18   2.0000      -0.648662       -17.6510
  19   2.0000      -0.598250       -16.2792
  20   2.0000      -0.592078       -16.1113
  21   2.0000      -0.564467       -15.3599
  22   2.0000      -0.553311       -15.0564
  23   2.0000      -0.544056       -14.8045
  24   2.0000      -0.534709       -14.5502
  25   2.0000      -0.529572       -14.4104
  26   2.0000      -0.518695       -14.1144
  27   2.0000      -0.472094       -12.8463
  28   2.0000      -0.450485       -12.2583
  29   2.0000      -0.441360       -12.0100
  30   2.0000      -0.433792       -11.8041
  31   2.0000      -0.368018       -10.0143
  32   0.0000       0.124107         3.3771
  33   0.0000       0.145673         3.9640
  34   0.0000       0.170890         4.6502
  35   0.0000       0.183539         4.9944
  36   0.0000       0.185816         5.0563

MULLIKEN ATOMIC CHARGES
-----------------------
   0 C :   -0.382778
   1 C :    0.081498
   2 C :   -0.372134
   3 N :   -0.391777
   4 C :    0.134111
   5 C :   -0.432913
   6 C :   -0.081231
   7 O :   -0.459141
   8 H :    0.135607
   9 H :    0.127112
  10 H :    0.120695
  11 H :    0.138011
  12 H :    0.118994
  13 H :    0.133127
  14 H :    0.211315
  15 H :    0.135928
  16 H :    0.118263
  17 H :    0.156030
  18 H :    0.103325
  19 H :    0.091621
  20 H :    0.314337
Sum of atomic charges:   -0.0000000

LOEWDIN ATOMIC CHARGES
----------------------
   0 C :   -0.264942
   1 C :   -0.310997
   2 C :   -0.277962
   3 N :    0.046692
   4 C :   -0.293589
   5 C :   -0.267680
   6 C :   -0.313896
   7 O :   -0.044935
   8 H :    0.128003
   9 H :    0.127664
  10 H :    0.126397
  11 H :    0.130257
  12 H :    0.119144
  13 H :    0.129747
  14 H :    0.166771
  15 H :    0.127180
  16 H :    0.124902
  17 H :    0.134260
  18 H :    0.124237
  19 H :    0.117119
  20 H :    0.171628

  Mayer bond orders larger than 0.1
B(  0-C ,  1-C ) :   0.8920 B(  0-C ,  8-H ) :   0.9394 B(  0-C ,  9-H ) :   0.9345
B(  0-C , 10-H ) :   0.9351 B(  1-C ,  2-C ) :   0.9147 B(  1-C ,  3-N ) :   0.9074
B(  1-C ,  4-C ) :   0.9202 B(  2-C , 11-H ) :   0.9360 B(  2-C , 12-H ) :   0.9316
B(  2-C , 13-H ) :   0.9277 B(  3-N ,  4-C ) :   0.9450 B(  3-N , 14-H ) :   0.8688
B(  4-C ,  5-C ) :   0.8660 B(  4-C ,  6-C ) :   0.9338 B(  5-C , 15-H ) :   0.9440
B(  5-C , 16-H ) :   0.9351 B(  5-C , 17-H ) :   0.9348 B(  6-C ,  7-O ) :   1.0528
B(  6-C , 18-H ) :   0.9199 B(  6-C , 19-H ) :   0.9116 B(  7-O , 20-H ) :   0.8469

MP2 TOTAL ENERGY:     -365.627894728 Eh
FINAL SINGLE POINT ENERGY      -365.627894727540

DIPOLE MOMENT
-------------
                                X             Y             Z
Electronic contribution:      3.12395      -3.96220       0.98527
Nuclear contribution   :     -4.24044       3.51006      -0.74190
                        -----------------------------------------
Total Dipole Moment    :     -1.11649      -0.45214       0.24337
                        -----------------------------------------
Magnitude (a.u.)       :      1.22890
Magnitude (Debye)      :      3.12363

                             ****ORCA TERMINATED NORMALLY****
TOTAL RUN TIME: 0 days 0 hours 14 minutes 6 seconds 825 msec
