                         Program Version 3.0.3 - RELEASE   -
|  1> ! RI-MP2 RIJK def2-TZVP def2-TZVP/C def2-TZVP/JK TIGHTSCF
|  2> % maxcore 2000
|  3> % mp2 density relaxed end
|  4> *xyz 0 1
|  5>  O        0.0132630617     1.4995517877     0.0331251633
|  6>  C        0.0428504969     0.1009015798    -0.0032614468
|  7>  C       -0.3358350963    -0.6877700493     1.2243521368
|  8>  C       -1.2495574276    -0.6750254370    -0.0093312376
|  9>  C       -1.2999098490    -2.1576457556    -0.4399522747
| 10>  C        0.0594340523    -2.6211213738    -1.0184210360
| 11>  C        0.9917999206    -2.6341036427     0.2404068879
| 12>  C        0.0467334863    -2.1764241822     1.3782268472
| 13>  C       -1.2773368363    -2.8575112018     0.9439868001
| 14>  H       -0.7263937640     1.7772307841     0.5832708129
| 15>  H        0.8751649817    -0.2078662025    -0.6228999667
| 16>  H       -0.5853204912    -0.1262991857     2.1206323263
| 17>  H       -2.1740550733    -0.1041541624    -0.0244153659
| 18>  H       -2.1506872274    -2.3849452919    -1.0844526306
| 19>  H       -0.0389716541    -3.6245626097    -1.4429218442
| 20>  H        0.4219407215    -1.9690018747    -1.8169012024
| 21>  H        1.3592713309    -3.6440256749     0.4448571368
| 22>  H        1.8676573788    -1.9891100969     0.1350526018
| 23>  H        0.4128965574    -2.4206974277     2.3767874008
| 24>  H       -2.1266619552    -2.5822342217     1.5758874461
| 25>  H       -1.2099299336    -3.9499694011     0.8827779847
| 26> *
| 27>
| 28>                          ****END OF INPUT****

CARTESIAN COORDINATES (ANGSTROEM)
---------------------------------
  O      0.013263    1.499552    0.033125
  C      0.042850    0.100902   -0.003261
  C     -0.335835   -0.687770    1.224352
  C     -1.249557   -0.675025   -0.009331
  C     -1.299910   -2.157646   -0.439952
  C      0.059434   -2.621121   -1.018421
  C      0.991800   -2.634104    0.240407
  C      0.046733   -2.176424    1.378227
  C     -1.277337   -2.857511    0.943987
  H     -0.726394    1.777231    0.583271
  H      0.875165   -0.207866   -0.622900
  H     -0.585320   -0.126299    2.120632
  H     -2.174055   -0.104154   -0.024415
  H     -2.150687   -2.384945   -1.084453
  H     -0.038972   -3.624563   -1.442922
  H      0.421941   -1.969002   -1.816901
  H      1.359271   -3.644026    0.444857
  H      1.867657   -1.989110    0.135053
  H      0.412897   -2.420697    2.376787
  H     -2.126662   -2.582234    1.575887
  H     -1.209930   -3.949969    0.882778

 Total Charge           Charge          ....    0
 Multiplicity           Mult            ....    1
 Number of Electrons    NEL             ....   68
 Basis Dimension        Dim             ....  351

ORBITAL ENERGIES
----------------

  NO   OCC          E(Eh)            E(eV)
   0   2.0000     -20.560492      -559.4794
   1   2.0000     -11.282783      -307.0201
   2   2.0000     -11.230919      -305.6089
   3   2.0000     -11.230915      -305.6087
   4   2.0000     -11.223961      -305.4195
   5   2.0000     -11.223355      -305.4030
   6   2.0000     -11.219207      -305.2901
   7   2.0000     -11.218680      -305.2758
   8   2.0000     -11.217194      -305.2354
   9   2.0000      -1.369766       -37.2732
  10   2.0000      -1.186599       -32.2890
  11   2.0000      -1.066482       -29.0204
  12   2.0000      -0.975665       -26.5492
  13   2.0000      -0.963259       -26.2116
  14   2.0000      -0.834046       -22.6955
  15   2.0000      -0.816999       -22.2317
  16   2.0000      -0.774038       -21.0627
  17   2.0000      -0.725209       -19.7340
  18   2.0000      -0.700508       -19.0618
  19   2.0000      -0.670826       -18.2541
  20   2.0000      -0.653486       -17.7822
  21   2.0000      -0.587632       -15.9903
  22   2.0000      -0.579364       -15.7653
  23   2.0000      -0.556004       -15.1296
  24   2.0000      -0.555660       -15.1203
  25   2.0000      -0.547611       -14.9013
  26   2.0000      -0.494047       -13.4437
  27   2.0000      -0.493376       -13.4254
  28   2.0000      -0.479087       -13.0366
  29   2.0000      -0.461023       -12.5451
  30   2.0000      -0.457173       -12.4403
  31   2.0000      -0.435068       -11.8388
  32   2.0000      -0.380330       -10.3493
  33   2.0000      -0.379018       -10.3136
  34   0.0000       0.132969         3.6183
  35   0.0000       0.147455         4.0124
  36   0.0000       0.163195         4.4408
  37   0.0000       0.164626         4.4797
  38   0.0000       0.180505         4.9118

MULLIKEN ATOMIC CHARGES
-----------------------
   0 O :   -0.437975
   1 C :    0.047989
   2 C :   -0.241221
   3 C :   -0.241232
   4 C :    0.077758
   5 C :   -0.318780
   6 C :   -0.318777
   7 C :    0.077755
   8 C :   -0.304033
   9 H :    0.313242
  10 H :    0.129159
  11 H :    0.115109
  12 H :    0.115106
  13 H :    0.125957
  14 H :    0.121615
  15 H :    0.131592
  16 H :    0.121615
  17 H :    0.131592
  18 H :    0.125959
  19 H :    0.114162
  20 H :    0.113407
Sum of atomic charges:   -0.0000000

LOEWDIN ATOMIC CHARGES
----------------------
   0 O :    0.001724
   1 C :   -0.290980
   2 C :   -0.167641
   3 C :   -0.167650
   4 C :   -0.210671
   5 C :   -0.227032
   6 C :   -0.227031
   7 C :   -0.210671
   8 C :   -0.200625
   9 H :    0.177477
  10 H :    0.143216
  11 H :    0.141361
  12 H :    0.141358
  13 H :    0.144776
  14 H :    0.134766
  15 H :    0.133489
  16 H :    0.134765
  17 H :    0.133489
  18 H :    0.144776
  19 H :    0.136829
  20 H :    0.134276

  Mayer bond orders larger than 0.1
B(  0-O ,  1-C ) :   1.0106 B(  0-O ,  9-H ) :   0.8403 B(  1-C ,  2-C ) :   0.9009
B(  1-C ,  3-C ) :   0.9010 B(  1-C , 10-H ) :   0.9335 B(  2-C ,  3-C ) :   0.8523
B(  2-C ,  7-C ) :   0.8358 B(  2-C , 11-H ) :   0.9228 B(  3-C ,  4-C ) :   0.8358
B(  3-C , 12-H ) :   0.9227 B(  4-C ,  5-C ) :   0.8941 B(  4-C ,  8-C ) :   0.9021
B(  4-C , 13-H ) :   0.9138 B(  5-C ,  6-C ) :   0.9595 B(  5-C , 14-H ) :   0.9265
B(  5-C , 15-H ) :   0.9407 B(  6-C ,  7-C ) :   0.8941 B(  6-C , 16-H ) :   0.9265
B(  6-C , 17-H ) :   0.9407 B(  7-C ,  8-C ) :   0.9021 B(  7-C , 18-H ) :   0.9138
B(  8-C , 19-H ) :   0.9209 B(  8-C , 20-H ) :   0.9194

MP2 TOTAL ENERGY:     -386.414193490 Eh
FINAL SINGLE POINT ENERGY      -386.414193489508

DIPOLE MOMENT
-------------
                                X             Y             Z
Electronic contribution:     -0.26846       4.74339       0.24800
Nuclear contribution   :     -0.17459      -5.18003       0.07532
                        -----------------------------------------
Total Dipole Moment    :     -0.44305      -0.43664       0.32332
                        -----------------------------------------
Magnitude (a.u.)       :      0.70106
Magnitude (Debye)      :      1.78194

                             ****ORCA TERMINATED NORMALLY****
TOTAL RUN TIME: 0 days 0 hours 20 minutes 58 seconds 172 msec
