                         Program Version 3.0.3 - RELEASE   -
|  1> ! RI-MP2 RIJK def2-TZVP def2-TZVP/C def2-TZVP/JK TIGHTSCF
|  2> % maxcore 2000
|  3> % mp2 density relaxed end
|  4> *xyz 0 1
|  5>  C       -0.3367946096     0.9002372903    -1.0866853753
|  6>  C        0.0679421001     0.0515955871     0.1212079249
|  7>  N        1.2511792528    -0.8063963342    -0.0864404398
|  8>  C        1.1078484700    -1.8699210320    -0.9846690630
|  9>  C        1.5016910089    -2.0475297157    -2.3006562455
| 10>  O        2.1205035541    -1.0774839372    -3.0415176250
| 11>  C        1.1098681574    -3.3588602819    -2.6378147983
| 12>  N        0.5060642392    -3.9649387039    -1.6140102850
| 13>  N        0.5243344998    -3.0510583762    -0.6291279409
| 14>  H        0.4675681597     1.5879213966    -1.3694532804
| 15>  H       -0.5579163381     0.2683562392    -1.9517369679
| 16>  H       -1.2267881200     1.4968286950    -0.8596554631
| 17>  H        0.2832200115     0.6940105704     0.9822681999
| 18>  H       -0.7611842268    -0.5999565126     0.4174937181
| 19>  H        2.0487121771    -0.2423279787    -0.3591577823
| 20>  H        2.4709018397    -1.4773286031    -3.8424927130
| 21>  H        1.2329211585    -3.8785856716    -3.5778381455
| 22>  H        0.1607913558    -3.2865848416     0.2786877421
| 23> *
| 24>
| 25>                          ****END OF INPUT****

CARTESIAN COORDINATES (ANGSTROEM)
---------------------------------
  C     -0.336795    0.900237   -1.086685
  C      0.067942    0.051596    0.121208
  N      1.251179   -0.806396   -0.086440
  C      1.107848   -1.869921   -0.984669
  C      1.501691   -2.047530   -2.300656
  O      2.120504   -1.077484   -3.041518
  C      1.109868   -3.358860   -2.637815
  N      0.506064   -3.964939   -1.614010
  N      0.524334   -3.051058   -0.629128
  H      0.467568    1.587921   -1.369453
  H     -0.557916    0.268356   -1.951737
  H     -1.226788    1.496829   -0.859655
  H      0.283220    0.694011    0.982268
  H     -0.761184   -0.599957    0.417494
  H      2.048712   -0.242328   -0.359158
  H      2.470902   -1.477329   -3.842493
  H      1.232921   -3.878586   -3.577838
  H      0.160791   -3.286585    0.278688

 Total Charge           Charge          ....    0
 Multiplicity           Mult            ....    1
 Number of Electrons    NEL             ....   68
 Basis Dimension        Dim             ....  333

ORBITAL ENERGIES
----------------

  NO   OCC          E(Eh)            E(eV)
   0   2.0000     -20.586581      -560.1893
   1   2.0000     -15.626555      -425.2202
   2   2.0000     -15.581216      -423.9864
   3   2.0000     -15.567865      -423.6231
   4   2.0000     -11.294082      -307.3276
   5   2.0000     -11.273618      -306.7707
   6   2.0000     -11.263601      -306.4982
   7   2.0000     -11.249421      -306.1123
   8   2.0000     -11.217462      -305.2426
   9   2.0000      -1.401921       -38.1482
  10   2.0000      -1.365284       -37.1513
  11   2.0000      -1.229953       -33.4687
  12   2.0000      -1.083061       -29.4716
  13   2.0000      -1.037763       -28.2390
  14   2.0000      -0.990109       -26.9422
  15   2.0000      -0.854800       -23.2603
  16   2.0000      -0.822245       -22.3744
  17   2.0000      -0.806182       -21.9373
  18   2.0000      -0.745494       -20.2859
  19   2.0000      -0.680064       -18.5055
  20   2.0000      -0.656907       -17.8754
  21   2.0000      -0.637851       -17.3568
  22   2.0000      -0.604057       -16.4372
  23   2.0000      -0.597995       -16.2723
  24   2.0000      -0.593180       -16.1413
  25   2.0000      -0.577110       -15.7040
  26   2.0000      -0.561884       -15.2897
  27   2.0000      -0.548872       -14.9356
  28   2.0000      -0.519126       -14.1261
  29   2.0000      -0.495692       -13.4885
  30   2.0000      -0.457126       -12.4390
  31   2.0000      -0.415431       -11.3044
  32   2.0000      -0.351302        -9.5594
  33   2.0000      -0.304623        -8.2892
  34   0.0000       0.128007         3.4833
  35   0.0000       0.138801         3.7770
  36   0.0000       0.154135         4.1942
  37   0.0000       0.160145         4.3578
  38   0.0000       0.178644         4.8612

MULLIKEN ATOMIC CHARGES
-----------------------
   0 C :   -0.386556
   1 C :   -0.111648
   2 N :   -0.333073
   3 C :    0.026301
   4 C :    0.170758
   5 O :   -0.454114
   6 C :   -0.153599
   7 N :   -0.232488
   8 N :   -0.104107
   9 H :    0.118643
  10 H :    0.144969
  11 H :    0.126552
  12 H :    0.128159
  13 H :    0.109707
  14 H :    0.227046
  15 H :    0.339613
  16 H :    0.129644
  17 H :    0.254194
Sum of atomic charges:   -0.0000000

LOEWDIN ATOMIC CHARGES
----------------------
   0 C :   -0.324795
   1 C :   -0.320341
   2 N :    0.035580
   3 C :   -0.315489
   4 C :   -0.318987
   5 O :    0.046059
   6 C :   -0.288427
   7 N :    0.012108
   8 N :    0.143374
   9 H :    0.120415
  10 H :    0.126743
  11 H :    0.122908
  12 H :    0.130077
  13 H :    0.129835
  14 H :    0.186959
  15 H :    0.193779
  16 H :    0.131109
  17 H :    0.189094

  Mayer bond orders larger than 0.1
B(  0-C ,  1-C ) :   0.9195 B(  0-C ,  9-H ) :   0.9337 B(  0-C , 10-H ) :   0.9320
B(  0-C , 11-H ) :   0.9287 B(  1-C ,  2-N ) :   0.8989 B(  1-C , 12-H ) :   0.9383
B(  1-C , 13-H ) :   0.9425 B(  2-N ,  3-C ) :   1.1340 B(  2-N , 14-H ) :   0.8814
B(  3-C ,  4-C ) :   1.3820 B(  3-C ,  7-N ) :   0.1338 B(  3-C ,  8-N ) :   1.1636
B(  4-C ,  5-O ) :   1.1020 B(  4-C ,  6-C ) :   1.2489 B(  5-O , 15-H ) :   0.8332
B(  6-C ,  7-N ) :   1.4987 B(  6-C , 16-H ) :   0.9386 B(  7-N ,  8-N ) :   1.0615
B(  8-N , 17-H ) :   0.8675

MP2 TOTAL ENERGY:     -434.551448026 Eh
FINAL SINGLE POINT ENERGY      -434.551448025597

DIPOLE MOMENT
-------------
                                X             Y             Z
Electronic contribution:      3.62676      -7.97186      -1.93356
Nuclear contribution   :     -3.52306       8.72035       1.92015
                        -----------------------------------------
Total Dipole Moment    :      0.10370       0.74850      -0.01341
                        -----------------------------------------
Magnitude (a.u.)       :      0.75576
Magnitude (Debye)      :      1.92100

                             ****ORCA TERMINATED NORMALLY****
TOTAL RUN TIME: 0 days 0 hours 19 minutes 19 seconds 508 msec
