                         Program Version 3.0.3 - RELEASE   -
|  1> ! RI-MP2 RIJK def2-TZVP def2-TZVP/C def2-TZVP/JK TIGHTSCF
|  2> % maxcore 2000
|  3> % mp2 density relaxed end
|  4> *xyz 0 1
|  5>  C       -0.0017809365     1.5181517281     0.0665943758
|  6>  C        0.0012358162     0.0202655057    -0.0327079368
|  7>  C       -0.0328435580    -0.6760851999    -1.1760988213
|  8>  C       -0.0222308170    -2.1783206235    -1.0417863768
|  9>  C       -1.1990498185    -2.5876053470    -0.1066975685
| 10>  C       -0.7016300724    -2.1209785441     1.2497165466
| 11>  C        0.8033274421    -2.1147007981     1.2010386803
| 12>  C        1.2159259493    -2.5775298059    -0.1848109540
| 13>  C        0.0450129553    -0.7843612238     1.2169141916
| 14>  H        0.8933566789     1.8855970128     0.5847810749
| 15>  H       -0.0358595170     1.9837694629    -0.9222644954
| 16>  H       -0.8644052470     1.8782711529     0.6419158542
| 17>  H       -0.0663616460    -0.2000679378    -2.1508219143
| 18>  H       -0.0513712398    -2.6842926022    -2.0079422238
| 19>  H       -2.1442545320    -2.1275542822    -0.4111627291
| 20>  H       -1.3304178995    -3.6761942273    -0.1031167138
| 21>  H       -1.2493366132    -2.3776879065     2.1488725017
| 22>  H        1.4101144631    -2.3665965727     2.0628517024
| 23>  H        1.3563207795    -3.6649848049    -0.1900206463
| 24>  H        2.1356127204    -2.1096983220    -0.5495961341
| 25>  H        0.0730336221    -0.2376586844     2.1537308967
| 26> *
| 27>
| 28>                          ****END OF INPUT****

CARTESIAN COORDINATES (ANGSTROEM)
---------------------------------
  C     -0.001781    1.518152    0.066594
  C      0.001236    0.020266   -0.032708
  C     -0.032844   -0.676085   -1.176099
  C     -0.022231   -2.178321   -1.041786
  C     -1.199050   -2.587605   -0.106698
  C     -0.701630   -2.120979    1.249717
  C      0.803327   -2.114701    1.201039
  C      1.215926   -2.577530   -0.184811
  C      0.045013   -0.784361    1.216914
  H      0.893357    1.885597    0.584781
  H     -0.035860    1.983769   -0.922264
  H     -0.864405    1.878271    0.641916
  H     -0.066362   -0.200068   -2.150822
  H     -0.051371   -2.684293   -2.007942
  H     -2.144255   -2.127554   -0.411163
  H     -1.330418   -3.676194   -0.103117
  H     -1.249337   -2.377688    2.148873
  H      1.410114   -2.366597    2.062852
  H      1.356321   -3.664985   -0.190021
  H      2.135613   -2.109698   -0.549596
  H      0.073034   -0.237659    2.153731

 Total Charge           Charge          ....    0
 Multiplicity           Mult            ....    1
 Number of Electrons    NEL             ....   66
 Basis Dimension        Dim             ....  351

ORBITAL ENERGIES
----------------

  NO   OCC          E(Eh)            E(eV)
   0   2.0000     -11.225389      -305.4584
   1   2.0000     -11.224529      -305.4350
   2   2.0000     -11.224361      -305.4304
   3   2.0000     -11.223347      -305.4028
   4   2.0000     -11.223236      -305.3998
   5   2.0000     -11.216499      -305.2165
   6   2.0000     -11.216253      -305.2098
   7   2.0000     -11.216221      -305.2089
   8   2.0000     -11.202463      -304.8345
   9   2.0000      -1.192992       -32.4630
  10   2.0000      -1.056283       -28.7429
  11   2.0000      -1.031974       -28.0814
  12   2.0000      -0.955748       -26.0072
  13   2.0000      -0.927115       -25.2281
  14   2.0000      -0.816719       -22.2241
  15   2.0000      -0.799182       -21.7468
  16   2.0000      -0.746075       -20.3017
  17   2.0000      -0.702774       -19.1235
  18   2.0000      -0.652620       -17.7587
  19   2.0000      -0.622561       -16.9407
  20   2.0000      -0.591029       -16.0827
  21   2.0000      -0.582542       -15.8518
  22   2.0000      -0.566556       -15.4168
  23   2.0000      -0.552717       -15.0402
  24   2.0000      -0.545585       -14.8461
  25   2.0000      -0.519955       -14.1487
  26   2.0000      -0.499063       -13.5802
  27   2.0000      -0.468805       -12.7568
  28   2.0000      -0.467203       -12.7132
  29   2.0000      -0.445356       -12.1188
  30   2.0000      -0.411628       -11.2010
  31   2.0000      -0.386040       -10.5047
  32   2.0000      -0.313630        -8.5343
  33   0.0000       0.137886         3.7521
  34   0.0000       0.155606         4.2343
  35   0.0000       0.162739         4.4284
  36   0.0000       0.170369         4.6360
  37   0.0000       0.180130         4.9016

MULLIKEN ATOMIC CHARGES
-----------------------
   0 C :   -0.468468
   1 C :    0.116888
   2 C :   -0.353571
   3 C :    0.140408
   4 C :   -0.264284
   5 C :   -0.110905
   6 C :   -0.110905
   7 C :   -0.264285
   8 C :   -0.161321
   9 H :    0.138543
  10 H :    0.134878
  11 H :    0.138541
  12 H :    0.109128
  13 H :    0.118365
  14 H :    0.113329
  15 H :    0.115952
  16 H :    0.126723
  17 H :    0.126722
  18 H :    0.115952
  19 H :    0.113329
  20 H :    0.124979
Sum of atomic charges:    0.0000000

LOEWDIN ATOMIC CHARGES
----------------------
   0 C :   -0.271973
   1 C :   -0.173608
   2 C :   -0.132433
   3 C :   -0.213634
   4 C :   -0.200870
   5 C :   -0.170798
   6 C :   -0.170798
   7 C :   -0.200870
   8 C :   -0.136334
   9 H :    0.129491
  10 H :    0.128715
  11 H :    0.129489
  12 H :    0.137945
  13 H :    0.146348
  14 H :    0.139163
  15 H :    0.141126
  16 H :    0.143011
  17 H :    0.143010
  18 H :    0.141126
  19 H :    0.139163
  20 H :    0.152731

  Mayer bond orders larger than 0.1
B(  0-C ,  1-C ) :   0.8665 B(  0-C ,  9-H ) :   0.9361 B(  0-C , 10-H ) :   0.9519
B(  0-C , 11-H ) :   0.9361 B(  1-C ,  2-C ) :   1.7487 B(  1-C ,  8-C ) :   0.9692
B(  2-C ,  3-C ) :   0.9221 B(  2-C , 12-H ) :   0.9359 B(  3-C ,  4-C ) :   0.8757
B(  3-C ,  7-C ) :   0.8757 B(  3-C , 13-H ) :   0.9306 B(  4-C ,  5-C ) :   0.9907
B(  4-C , 14-H ) :   0.9214 B(  4-C , 15-H ) :   0.9207 B(  5-C ,  6-C ) :   0.8629
B(  5-C ,  8-C ) :   0.8310 B(  5-C , 16-H ) :   0.9309 B(  6-C ,  7-C ) :   0.9907
B(  6-C ,  8-C ) :   0.8310 B(  6-C , 17-H ) :   0.9309 B(  7-C , 18-H ) :   0.9207
B(  7-C , 19-H ) :   0.9214 B(  8-C , 20-H ) :   0.9343

MP2 TOTAL ENERGY:     -349.335198388 Eh
FINAL SINGLE POINT ENERGY      -349.335198388171

DIPOLE MOMENT
-------------
                                X             Y             Z
Electronic contribution:      0.01972      -1.47311       0.42082
Nuclear contribution   :     -0.01479       1.38190      -0.28040
                        -----------------------------------------
Total Dipole Moment    :      0.00493      -0.09120       0.14041
                        -----------------------------------------
Magnitude (a.u.)       :      0.16751
Magnitude (Debye)      :      0.42577

                             ****ORCA TERMINATED NORMALLY****
TOTAL RUN TIME: 0 days 0 hours 22 minutes 59 seconds 116 msec
