                         Program Version 3.0.3 - RELEASE   -
|  1> ! RI-MP2 RIJK def2-TZVP def2-TZVP/C def2-TZVP/JK TIGHTSCF
|  2> % maxcore 2000
|  3> % mp2 density relaxed end
|  4> *xyz 0 1
|  5>  C       -0.8175402706     1.2267163138    -0.0174908506
|  6>  C        0.1583566190     0.0609532807    -0.0221135780
|  7>  C        1.1049070356    -0.0706303638    -1.2087109142
|  8>  C        2.3645321855    -0.7933216442    -0.6347597209
|  9>  O        3.1842406177    -1.3452127408    -1.3432280085
| 10>  C        2.3203983441    -0.6577371076     0.7860856427
| 11>  N        1.1294198109     0.1517785072     1.1574500917
| 12>  H        1.3512774443     1.1412923028     1.3196644919
| 13>  H        0.6962042026    -0.1842299476     2.0205025320
| 14>  C        3.1124939985    -1.1523343124     1.8556854399
| 15>  O        4.1299068703    -1.8181531455     1.7971418481
| 16>  H       -0.2963985505     2.1817664849    -0.1478906102
| 17>  H       -1.5156979897     1.1178630214    -0.8513568083
| 18>  H       -1.4056241320     1.2697068421     0.9061049962
| 19>  H       -0.3651791406    -0.8859089834     0.1367856986
| 20>  H        0.6716435890    -0.6472465409    -2.0271649998
| 21>  H        1.3917767290     0.9123235722    -1.6037834208
| 22>  H        2.6845348667    -0.8705808690     2.8657194603
| 23> *
| 24>
| 25>                          ****END OF INPUT****

CARTESIAN COORDINATES (ANGSTROEM)
---------------------------------
  C     -0.817540    1.226716   -0.017491
  C      0.158357    0.060953   -0.022114
  C      1.104907   -0.070630   -1.208711
  C      2.364532   -0.793322   -0.634760
  O      3.184241   -1.345213   -1.343228
  C      2.320398   -0.657737    0.786086
  N      1.129420    0.151779    1.157450
  H      1.351277    1.141292    1.319664
  H      0.696204   -0.184230    2.020503
  C      3.112494   -1.152334    1.855685
  O      4.129907   -1.818153    1.797142
  H     -0.296399    2.181766   -0.147891
  H     -1.515698    1.117863   -0.851357
  H     -1.405624    1.269707    0.906105
  H     -0.365179   -0.885909    0.136786
  H      0.671644   -0.647247   -2.027165
  H      1.391777    0.912324   -1.603783
  H      2.684535   -0.870581    2.865719

 Total Charge           Charge          ....    0
 Multiplicity           Mult            ....    1
 Number of Electrons    NEL             ....   68
 Basis Dimension        Dim             ....  333

ORBITAL ENERGIES
----------------

  NO   OCC          E(Eh)            E(eV)
   0   2.0000     -20.497132      -557.7553
   1   2.0000     -20.497021      -557.7523
   2   2.0000     -15.714247      -427.6064
   3   2.0000     -11.334013      -308.4142
   4   2.0000     -11.312708      -307.8344
   5   2.0000     -11.305817      -307.6469
   6   2.0000     -11.277592      -306.8789
   7   2.0000     -11.254623      -306.2539
   8   2.0000     -11.231080      -305.6132
   9   2.0000      -1.358482       -36.9662
  10   2.0000      -1.336451       -36.3667
  11   2.0000      -1.333454       -36.2851
  12   2.0000      -1.105766       -30.0894
  13   2.0000      -1.042083       -28.3565
  14   2.0000      -0.974526       -26.5182
  15   2.0000      -0.870096       -23.6765
  16   2.0000      -0.850291       -23.1376
  17   2.0000      -0.790960       -21.5231
  18   2.0000      -0.730145       -19.8682
  19   2.0000      -0.699277       -19.0283
  20   2.0000      -0.677811       -18.4442
  21   2.0000      -0.641883       -17.4665
  22   2.0000      -0.616743       -16.7824
  23   2.0000      -0.606203       -16.4956
  24   2.0000      -0.596576       -16.2336
  25   2.0000      -0.577684       -15.7196
  26   2.0000      -0.568920       -15.4811
  27   2.0000      -0.557738       -15.1768
  28   2.0000      -0.546610       -14.8740
  29   2.0000      -0.514455       -13.9990
  30   2.0000      -0.477970       -13.0062
  31   2.0000      -0.406680       -11.0663
  32   2.0000      -0.370330       -10.0772
  33   2.0000      -0.308952        -8.4070
  34   0.0000       0.073913         2.0113
  35   0.0000       0.109284         2.9738
  36   0.0000       0.123621         3.3639
  37   0.0000       0.138278         3.7627
  38   0.0000       0.149034         4.0554

MULLIKEN ATOMIC CHARGES
-----------------------
   0 C :   -0.389202
   1 C :   -0.080170
   2 C :   -0.214580
   3 C :    0.148139
   4 O :   -0.320163
   5 C :   -0.049844
   6 N :   -0.159207
   7 H :    0.274764
   8 H :    0.287259
   9 C :   -0.038746
  10 O :   -0.306904
  11 H :    0.142753
  12 H :    0.163084
  13 H :    0.145056
  14 H :    0.140015
  15 H :    0.141335
  16 H :    0.122650
  17 H :   -0.006237
Sum of atomic charges:    0.0000000

LOEWDIN ATOMIC CHARGES
----------------------
   0 C :   -0.295253
   1 C :   -0.253779
   2 C :   -0.199556
   3 C :   -0.378340
   4 O :    0.103988
   5 C :   -0.283412
   6 N :    0.247598
   7 H :    0.207560
   8 H :    0.206959
   9 C :   -0.386586
  10 O :    0.080488
  11 H :    0.129677
  12 H :    0.142339
  13 H :    0.127120
  14 H :    0.160103
  15 H :    0.150590
  16 H :    0.148135
  17 H :    0.092370

  Mayer bond orders larger than 0.1
B(  0-C ,  1-C ) :   0.9316 B(  0-C , 11-H ) :   0.9152 B(  0-C , 12-H ) :   0.9335
B(  0-C , 13-H ) :   0.9356 B(  1-C ,  2-C ) :   0.9556 B(  1-C ,  6-N ) :   0.8170
B(  1-C , 14-H ) :   0.9215 B(  2-C ,  3-C ) :   0.9226 B(  2-C ,  5-C ) :  -0.1120
B(  2-C , 15-H ) :   0.9161 B(  2-C , 16-H ) :   0.8977 B(  3-C ,  4-O ) :   2.0431
B(  3-C ,  5-C ) :   1.0491 B(  5-C ,  6-N ) :   0.8275 B(  5-C ,  9-C ) :   0.9809
B(  5-C , 10-O ) :  -0.1225 B(  5-C , 17-H ) :  -0.1673 B(  6-N ,  7-H ) :   0.8364
B(  6-N ,  8-H ) :   0.8495 B(  9-C , 10-O ) :   2.0370 B(  9-C , 17-H ) :   1.0176

MP2 TOTAL ENERGY:     -438.353587778 Eh
FINAL SINGLE POINT ENERGY      -438.353587778086

DIPOLE MOMENT
-------------
                                X             Y             Z
Electronic contribution:      8.85906      -5.45590       0.66403
Nuclear contribution   :    -12.54862       7.81203       0.12064
                        -----------------------------------------
Total Dipole Moment    :     -3.68956       2.35613       0.78467
                        -----------------------------------------
Magnitude (a.u.)       :      4.44746
Magnitude (Debye)      :     11.30456

                             ****ORCA TERMINATED NORMALLY****
TOTAL RUN TIME: 0 days 0 hours 16 minutes 55 seconds 94 msec
