                         Program Version 3.0.3 - RELEASE   -
|  1> ! RI-MP2 RIJK def2-TZVP def2-TZVP/C def2-TZVP/JK TIGHTSCF
|  2> % maxcore 2000
|  3> % mp2 density relaxed end
|  4> *xyz 0 1
|  5>  C       -0.1583133565    -1.2504359454    -0.1783442713
|  6>  C       -0.0303923896    -0.0608384586    -0.0703506262
|  7>  C        0.0800233393     1.3805462294     0.0798541951
|  8>  C       -0.4856184329     1.9413747766     1.4291744253
|  9>  N        0.6614677574     2.5857328057     2.0818259094
| 10>  C        1.6423039197     2.4318965893     1.2981883754
| 11>  O        1.4830962568     1.7818848079     0.1186905849
| 12>  H       -0.2636532529    -2.3026493389    -0.2795075148
| 13>  H       -0.3644560671     1.8809073328    -0.7860167087
| 14>  H       -1.2834268534     2.6707371133     1.2612062382
| 15>  H       -0.8842284019     1.1445232284     2.0624095909
| 16>  H        2.6523478910     2.7844723396     1.4752089418
| 17> *
| 18>
| 19>                          ****END OF INPUT****

CARTESIAN COORDINATES (ANGSTROEM)
---------------------------------
  C     -0.158313   -1.250436   -0.178344
  C     -0.030392   -0.060838   -0.070351
  C      0.080023    1.380546    0.079854
  C     -0.485618    1.941375    1.429174
  N      0.661468    2.585733    2.081826
  C      1.642304    2.431897    1.298188
  O      1.483096    1.781885    0.118691
  H     -0.263653   -2.302649   -0.279508
  H     -0.364456    1.880907   -0.786017
  H     -1.283427    2.670737    1.261206
  H     -0.884228    1.144523    2.062410
  H      2.652348    2.784472    1.475209

 Total Charge           Charge          ....    0
 Multiplicity           Mult            ....    1
 Number of Electrons    NEL             ....   50
 Basis Dimension        Dim             ....  247

ORBITAL ENERGIES
----------------

  NO   OCC          E(Eh)            E(eV)
   0   2.0000     -20.606007      -560.7180
   1   2.0000     -15.556584      -423.3162
   2   2.0000     -11.338039      -308.5237
   3   2.0000     -11.330672      -308.3233
   4   2.0000     -11.274017      -306.7816
   5   2.0000     -11.246989      -306.0461
   6   2.0000     -11.241497      -305.8967
   7   2.0000      -1.446567       -39.3631
   8   2.0000      -1.221827       -33.2476
   9   2.0000      -1.086655       -29.5694
  10   2.0000      -1.007237       -27.4083
  11   2.0000      -0.887117       -24.1397
  12   2.0000      -0.820525       -22.3276
  13   2.0000      -0.746823       -20.3221
  14   2.0000      -0.719754       -19.5855
  15   2.0000      -0.701788       -19.0966
  16   2.0000      -0.639024       -17.3887
  17   2.0000      -0.584548       -15.9064
  18   2.0000      -0.577722       -15.7206
  19   2.0000      -0.561585       -15.2815
  20   2.0000      -0.537138       -14.6163
  21   2.0000      -0.459463       -12.5026
  22   2.0000      -0.410780       -11.1779
  23   2.0000      -0.398369       -10.8402
  24   2.0000      -0.392810       -10.6889
  25   0.0000       0.133213         3.6249
  26   0.0000       0.151804         4.1308
  27   0.0000       0.156125         4.2484
  28   0.0000       0.164459         4.4752
  29   0.0000       0.176164         4.7937

MULLIKEN ATOMIC CHARGES
-----------------------
   0 C :   -0.111952
   1 C :   -0.070208
   2 C :   -0.018940
   3 C :   -0.127419
   4 N :   -0.264816
   5 C :    0.106395
   6 O :   -0.262413
   7 H :    0.198677
   8 H :    0.132401
   9 H :    0.125660
  10 H :    0.141264
  11 H :    0.151351
Sum of atomic charges:    0.0000000

LOEWDIN ATOMIC CHARGES
----------------------
   0 C :   -0.072124
   1 C :   -0.090277
   2 C :   -0.248872
   3 C :   -0.238730
   4 N :    0.063633
   5 C :   -0.347776
   6 O :    0.235290
   7 H :    0.130186
   8 H :    0.158673
   9 H :    0.133906
  10 H :    0.139802
  11 H :    0.136289

  Mayer bond orders larger than 0.1
B(  0-C ,  1-C ) :   2.6002 B(  0-C ,  7-H ) :   0.8930 B(  1-C ,  2-C ) :   1.0959
B(  2-C ,  3-C ) :   0.9191 B(  2-C ,  6-O ) :   0.8761 B(  2-C ,  8-H ) :   0.9241
B(  3-C ,  4-N ) :   0.9334 B(  3-C ,  9-H ) :   0.9208 B(  3-C , 10-H ) :   0.9268
B(  4-N ,  5-C ) :   1.8223 B(  5-C ,  6-O ) :   1.0647 B(  5-C , 11-H ) :   0.9186

MP2 TOTAL ENERGY:     -322.788176893 Eh
FINAL SINGLE POINT ENERGY      -322.788176893471

DIPOLE MOMENT
-------------
                                X             Y             Z
Electronic contribution:      2.02396       0.03884      -0.68389
Nuclear contribution   :     -2.35982      -0.32169       0.26832
                        -----------------------------------------
Total Dipole Moment    :     -0.33586      -0.28285      -0.41557
                        -----------------------------------------
Magnitude (a.u.)       :      0.60457
Magnitude (Debye)      :      1.53669

                             ****ORCA TERMINATED NORMALLY****
TOTAL RUN TIME: 0 days 0 hours 11 minutes 33 seconds 550 msec
