                         Program Version 3.0.3 - RELEASE   -
|  1> ! RI-MP2 RIJK def2-TZVP def2-TZVP/C def2-TZVP/JK TIGHTSCF
|  2> % maxcore 2000
|  3> % mp2 density relaxed end
|  4> *xyz 0 1
|  5>  C       -0.1571857215     1.1717743725     0.1140087625
|  6>  N       -0.2497104536    -0.2496462643    -0.1854289201
|  7>  C        0.5724656823    -0.7383821567    -1.0058154100
|  8>  N        1.6486194303    -0.2873122667    -1.7638093990
|  9>  C        1.9024773339    -1.5880802349    -2.4030271495
| 10>  C        0.7579686665    -2.1673610895    -1.5286710364
| 11>  O        1.2156095390    -3.1414744582    -0.6011498849
| 12>  C        0.3574029470    -3.4828181039     0.3936072573
| 13>  O        0.6461221789    -4.2994904898     1.2147382880
| 14>  H        0.8662028347     1.5696707721     0.0398316339
| 15>  H       -0.7971291162     1.7532193201    -0.5632746805
| 16>  H       -0.5177831267     1.3504984797     1.1307277919
| 17>  H        1.8087677399     0.6303126378    -2.1478319207
| 18>  H        1.7101750152    -1.6205878398    -3.4800491333
| 19>  H        2.8861308876    -2.0101325071    -2.1825593661
| 20>  H       -0.0980483476    -2.5455170215    -2.0950467784
| 21>  H       -0.5947230096    -2.9278622400     0.3542900855
| 22> *
| 23>
| 24>                          ****END OF INPUT****

CARTESIAN COORDINATES (ANGSTROEM)
---------------------------------
  C     -0.157186    1.171774    0.114009
  N     -0.249710   -0.249646   -0.185429
  C      0.572466   -0.738382   -1.005815
  N      1.648619   -0.287312   -1.763809
  C      1.902477   -1.588080   -2.403027
  C      0.757969   -2.167361   -1.528671
  O      1.215610   -3.141474   -0.601150
  C      0.357403   -3.482818    0.393607
  O      0.646122   -4.299490    1.214738
  H      0.866203    1.569671    0.039832
  H     -0.797129    1.753219   -0.563275
  H     -0.517783    1.350498    1.130728
  H      1.808768    0.630313   -2.147832
  H      1.710175   -1.620588   -3.480049
  H      2.886131   -2.010133   -2.182559
  H     -0.098048   -2.545517   -2.095047
  H     -0.594723   -2.927862    0.354290

 Total Charge           Charge          ....    0
 Multiplicity           Mult            ....    1
 Number of Electrons    NEL             ....   68
 Basis Dimension        Dim             ....  327

ORBITAL ENERGIES
----------------

  NO   OCC          E(Eh)            E(eV)
   0   2.0000     -20.613013      -560.9086
   1   2.0000     -20.548174      -559.1442
   2   2.0000     -15.595386      -424.3720
   3   2.0000     -15.547758      -423.0760
   4   2.0000     -11.378615      -309.6279
   5   2.0000     -11.326963      -308.2223
   6   2.0000     -11.324808      -308.1637
   7   2.0000     -11.293246      -307.3048
   8   2.0000     -11.253480      -306.2228
   9   2.0000      -1.464522       -39.8517
  10   2.0000      -1.375031       -37.4165
  11   2.0000      -1.307094       -35.5678
  12   2.0000      -1.205114       -32.7928
  13   2.0000      -1.020324       -27.7644
  14   2.0000      -0.959457       -26.1082
  15   2.0000      -0.885873       -24.1058
  16   2.0000      -0.855661       -23.2837
  17   2.0000      -0.806321       -21.9411
  18   2.0000      -0.738858       -20.1054
  19   2.0000      -0.681768       -18.5518
  20   2.0000      -0.680851       -18.5269
  21   2.0000      -0.661775       -18.0078
  22   2.0000      -0.631251       -17.1772
  23   2.0000      -0.617454       -16.8018
  24   2.0000      -0.593893       -16.1607
  25   2.0000      -0.580058       -15.7842
  26   2.0000      -0.574283       -15.6270
  27   2.0000      -0.545988       -14.8571
  28   2.0000      -0.512825       -13.9547
  29   2.0000      -0.492906       -13.4127
  30   2.0000      -0.466987       -12.7074
  31   2.0000      -0.454666       -12.3721
  32   2.0000      -0.412913       -11.2359
  33   2.0000      -0.367135        -9.9902
  34   0.0000       0.115913         3.1541
  35   0.0000       0.132982         3.6186
  36   0.0000       0.153727         4.1831
  37   0.0000       0.158258         4.3064
  38   0.0000       0.172518         4.6944

MULLIKEN ATOMIC CHARGES
-----------------------
   0 C :   -0.302768
   1 N :   -0.275025
   2 C :    0.107682
   3 N :   -0.372817
   4 C :   -0.095819
   5 C :    0.102209
   6 O :   -0.223454
   7 C :    0.184865
   8 O :   -0.268969
   9 H :    0.110325
  10 H :    0.138882
  11 H :    0.149157
  12 H :    0.245734
  13 H :    0.124999
  14 H :    0.135054
  15 H :    0.126493
  16 H :    0.113451
Sum of atomic charges:    0.0000000

LOEWDIN ATOMIC CHARGES
----------------------
   0 C :   -0.334284
   1 N :    0.056347
   2 C :   -0.342894
   3 N :    0.095665
   4 C :   -0.214453
   5 C :   -0.238384
   6 O :    0.253579
   7 C :   -0.429076
   8 O :    0.123984
   9 H :    0.105943
  10 H :    0.117087
  11 H :    0.119317
  12 H :    0.170728
  13 H :    0.124892
  14 H :    0.131913
  15 H :    0.144361
  16 H :    0.115273

  Mayer bond orders larger than 0.1
B(  0-C ,  1-N ) :   0.8732 B(  0-C ,  9-H ) :   0.9299 B(  0-C , 10-H ) :   0.9299
B(  0-C , 11-H ) :   0.9433 B(  1-N ,  2-C ) :   1.8979 B(  2-C ,  3-N ) :   1.1116
B(  2-C ,  5-C ) :   0.8615 B(  3-N ,  4-C ) :   0.9303 B(  3-N , 12-H ) :   0.8629
B(  4-C ,  5-C ) :   0.9199 B(  4-C , 13-H ) :   0.9265 B(  4-C , 14-H ) :   0.9188
B(  5-C ,  6-O ) :   0.8812 B(  5-C , 15-H ) :   0.9299 B(  6-O ,  7-C ) :   1.0260
B(  7-C ,  8-O ) :   2.0261 B(  7-C , 16-H ) :   0.9166

MP2 TOTAL ENERGY:     -454.399119255 Eh
FINAL SINGLE POINT ENERGY      -454.399119254647

DIPOLE MOMENT
-------------
                                X             Y             Z
Electronic contribution:      0.77380      -7.32158       1.94255
Nuclear contribution   :     -0.67567       8.81469      -3.69833
                        -----------------------------------------
Total Dipole Moment    :      0.09813       1.49311      -1.75578
                        -----------------------------------------
Magnitude (a.u.)       :      2.30690
Magnitude (Debye)      :      5.86367

                             ****ORCA TERMINATED NORMALLY****
TOTAL RUN TIME: 0 days 0 hours 14 minutes 38 seconds 955 msec
