                         Program Version 3.0.3 - RELEASE   -
|  1> ! RI-MP2 RIJK def2-TZVP def2-TZVP/C def2-TZVP/JK TIGHTSCF
|  2> % maxcore 2000
|  3> % mp2 density relaxed end
|  4> *xyz 0 1
|  5>  C        0.0306205160     1.2780684531     0.2849664033
|  6>  O       -0.1341295694    -0.0050960136    -0.3014303692
|  7>  C       -1.3905516865    -0.5252294235    -0.1551071193
|  8>  C       -1.7602864539    -1.9873057496    -0.0957368082
|  9>  C       -1.9545401185    -1.1363634513     1.1377722710
| 10>  N       -3.4345687765    -0.9843876293     0.9853784565
| 11>  C       -3.6089802636     0.3934368120     0.3856142700
| 12>  C       -2.7375978254    -0.0754521719    -0.7950440917
| 13>  C       -3.1955159265    -1.5325946774    -0.4401290703
| 14>  H        1.0772535077     1.5571965022     0.1475130302
| 15>  H       -0.6045710485     2.0296126733    -0.2034042576
| 16>  H       -0.2054199286     1.2607778232     1.3575853217
| 17>  H       -1.1970369820    -2.8947314390    -0.2608357502
| 18>  H       -1.4421007938    -1.1564086337     2.0909025962
| 19>  H       -4.6605223288     0.5374948782     0.1202586587
| 20>  H       -3.2639416054     1.2221560018     1.0123819883
| 21>  H       -2.7339653697     0.3572454677    -1.7950454040
| 22>  H       -3.9866433568    -2.0963681022    -0.9304405754
| 23> *
| 24>
| 25>                          ****END OF INPUT****

CARTESIAN COORDINATES (ANGSTROEM)
---------------------------------
  C      0.030621    1.278068    0.284966
  O     -0.134130   -0.005096   -0.301430
  C     -1.390552   -0.525229   -0.155107
  C     -1.760286   -1.987306   -0.095737
  C     -1.954540   -1.136363    1.137772
  N     -3.434569   -0.984388    0.985378
  C     -3.608980    0.393437    0.385614
  C     -2.737598   -0.075452   -0.795044
  C     -3.195516   -1.532595   -0.440129
  H      1.077254    1.557197    0.147513
  H     -0.604571    2.029613   -0.203404
  H     -0.205420    1.260778    1.357585
  H     -1.197037   -2.894731   -0.260836
  H     -1.442101   -1.156409    2.090903
  H     -4.660522    0.537495    0.120259
  H     -3.263942    1.222156    1.012382
  H     -2.733965    0.357245   -1.795045
  H     -3.986643   -2.096368   -0.930441

 Total Charge           Charge          ....    0
 Multiplicity           Mult            ....    1
 Number of Electrons    NEL             ....   66
 Basis Dimension        Dim             ....  333

ORBITAL ENERGIES
----------------

  NO   OCC          E(Eh)            E(eV)
   0   2.0000     -20.573335      -559.8289
   1   2.0000     -15.554282      -423.2535
   2   2.0000     -11.291918      -307.2687
   3   2.0000     -11.279361      -306.9270
   4   2.0000     -11.269738      -306.6652
   5   2.0000     -11.256590      -306.3074
   6   2.0000     -11.250748      -306.1484
   7   2.0000     -11.239558      -305.8439
   8   2.0000     -11.236235      -305.7535
   9   2.0000      -1.398487       -38.0548
  10   2.0000      -1.308656       -35.6103
  11   2.0000      -1.085688       -29.5431
  12   2.0000      -0.994621       -27.0650
  13   2.0000      -0.947332       -25.7782
  14   2.0000      -0.907301       -24.6889
  15   2.0000      -0.825401       -22.4603
  16   2.0000      -0.749817       -20.4036
  17   2.0000      -0.726454       -19.7678
  18   2.0000      -0.709107       -19.2958
  19   2.0000      -0.660631       -17.9767
  20   2.0000      -0.637575       -17.3493
  21   2.0000      -0.620920       -16.8961
  22   2.0000      -0.614937       -16.7333
  23   2.0000      -0.590815       -16.0769
  24   2.0000      -0.567478       -15.4419
  25   2.0000      -0.533665       -14.5218
  26   2.0000      -0.492754       -13.4085
  27   2.0000      -0.479802       -13.0561
  28   2.0000      -0.456769       -12.4293
  29   2.0000      -0.440101       -11.9758
  30   2.0000      -0.415832       -11.3154
  31   2.0000      -0.378341       -10.2952
  32   2.0000      -0.340417        -9.2632
  33   0.0000       0.138589         3.7712
  34   0.0000       0.165009         4.4901
  35   0.0000       0.167441         4.5563
  36   0.0000       0.175125         4.7654
  37   0.0000       0.191699         5.2164

MULLIKEN ATOMIC CHARGES
-----------------------
   0 C :   -0.220995
   1 O :   -0.302521
   2 C :    0.141532
   3 C :   -0.218445
   4 C :   -0.092803
   5 N :   -0.190663
   6 C :   -0.164956
   7 C :   -0.095394
   8 C :   -0.043609
   9 H :    0.145070
  10 H :    0.122821
  11 H :    0.119281
  12 H :    0.156525
  13 H :    0.138676
  14 H :    0.120598
  15 H :    0.112844
  16 H :    0.130177
  17 H :    0.141862
Sum of atomic charges:    0.0000000

LOEWDIN ATOMIC CHARGES
----------------------
   0 C :   -0.330530
   1 O :    0.203151
   2 C :   -0.289713
   3 C :   -0.116329
   4 C :   -0.179913
   5 N :    0.117245
   6 C :   -0.239884
   7 C :   -0.158612
   8 C :   -0.120172
   9 H :    0.114716
  10 H :    0.105655
  11 H :    0.104816
  12 H :    0.137228
  13 H :    0.135931
  14 H :    0.131056
  15 H :    0.119765
  16 H :    0.136091
  17 H :    0.129498

  Mayer bond orders larger than 0.1
B(  0-C ,  1-O ) :   0.8791 B(  0-C ,  9-H ) :   0.9387 B(  0-C , 10-H ) :   0.9350
B(  0-C , 11-H ) :   0.9335 B(  1-O ,  2-C ) :   1.0228 B(  2-C ,  3-C ) :   0.8537
B(  2-C ,  4-C ) :   0.8672 B(  2-C ,  7-C ) :   0.8924 B(  3-C ,  4-C ) :   0.8345
B(  3-C ,  8-C ) :   0.9420 B(  3-C , 12-H ) :   0.8976 B(  4-C ,  5-N ) :   0.9126
B(  4-C , 13-H ) :   0.9238 B(  5-N ,  6-C ) :   0.9286 B(  5-N ,  8-C ) :   0.9555
B(  6-C ,  7-C ) :   0.9533 B(  6-C , 14-H ) :   0.9231 B(  6-C , 15-H ) :   0.9231
B(  7-C ,  8-C ) :   0.9287 B(  7-C , 16-H ) :   0.9099 B(  8-C , 17-H ) :   0.8888

MP2 TOTAL ENERGY:     -401.137508543 Eh
FINAL SINGLE POINT ENERGY      -401.137508542553

DIPOLE MOMENT
-------------
                                X             Y             Z
Electronic contribution:     -0.52822      -4.07137      -0.71965
Nuclear contribution   :      0.71243       4.61723       0.45493
                        -----------------------------------------
Total Dipole Moment    :      0.18421       0.54586      -0.26472
                        -----------------------------------------
Magnitude (a.u.)       :      0.63401
Magnitude (Debye)      :      1.61153

                             ****ORCA TERMINATED NORMALLY****
TOTAL RUN TIME: 0 days 0 hours 18 minutes 54 seconds 346 msec
