                         Program Version 3.0.3 - RELEASE   -
|  1> ! RI-MP2 RIJK def2-TZVP def2-TZVP/C def2-TZVP/JK TIGHTSCF
|  2> % maxcore 2000
|  3> % mp2 density relaxed end
|  4> *xyz 0 1
|  5>  C        0.0091438892     1.5301870432    -0.0428835482
|  6>  C       -0.0035694241     0.0334608759     0.0190555823
|  7>  C        0.4680616954    -1.0342062122    -0.9600139466
|  8>  C        1.2411983494    -1.7607160392     0.1388192944
|  9>  C        0.4857937351    -0.8832231677     1.1887219101
| 10>  C       -0.7696844383    -1.5994233687     1.7008061631
| 11>  C       -1.6185933529    -1.8477269043     0.4212096804
| 12>  O       -2.9900210044    -1.4937195978     0.5759706893
| 13>  C       -1.0061185243    -0.8987289856    -0.5996027113
| 14>  H        1.0125554653     1.9359356697     0.1325069654
| 15>  H       -0.3239988108     1.8836499408    -1.0245133971
| 16>  H       -0.6613093716     1.9666110952     0.7073683913
| 17>  H        0.7886637361    -0.9147431750    -1.9895088985
| 18>  H        1.1349949154    -2.8490452830     0.2257164618
| 19>  H        2.3060214688    -1.5155609519     0.0994853458
| 20>  H        1.1016794668    -0.4328086141     1.9679435836
| 21>  H       -0.5387101411    -2.5185720962     2.2507195190
| 22>  H       -1.3470847845    -0.9393580995     2.3585635676
| 23>  H       -1.5450079509    -2.8944217168     0.0895178293
| 24>  H       -3.3801604014    -2.1008354940     1.2124900079
| 25>  H       -1.6534281571    -0.5336666886    -1.3893747095
| 26> *
| 27>
| 28>                          ****END OF INPUT****

CARTESIAN COORDINATES (ANGSTROEM)
---------------------------------
  C      0.009144    1.530187   -0.042884
  C     -0.003569    0.033461    0.019056
  C      0.468062   -1.034206   -0.960014
  C      1.241198   -1.760716    0.138819
  C      0.485794   -0.883223    1.188722
  C     -0.769684   -1.599423    1.700806
  C     -1.618593   -1.847727    0.421210
  O     -2.990021   -1.493720    0.575971
  C     -1.006119   -0.898729   -0.599603
  H      1.012555    1.935936    0.132507
  H     -0.323999    1.883650   -1.024513
  H     -0.661309    1.966611    0.707368
  H      0.788664   -0.914743   -1.989509
  H      1.134995   -2.849045    0.225716
  H      2.306021   -1.515561    0.099485
  H      1.101679   -0.432809    1.967944
  H     -0.538710   -2.518572    2.250720
  H     -1.347085   -0.939358    2.358564
  H     -1.545008   -2.894422    0.089518
  H     -3.380160   -2.100835    1.212490
  H     -1.653428   -0.533667   -1.389375

 Total Charge           Charge          ....    0
 Multiplicity           Mult            ....    1
 Number of Electrons    NEL             ....   68
 Basis Dimension        Dim             ....  351

ORBITAL ENERGIES
----------------

  NO   OCC          E(Eh)            E(eV)
   0   2.0000     -20.549184      -559.1717
   1   2.0000     -11.274466      -306.7938
   2   2.0000     -11.228140      -305.5332
   3   2.0000     -11.227562      -305.5175
   4   2.0000     -11.225033      -305.4487
   5   2.0000     -11.220709      -305.3310
   6   2.0000     -11.219551      -305.2995
   7   2.0000     -11.216065      -305.2046
   8   2.0000     -11.215963      -305.2019
   9   2.0000      -1.354652       -36.8620
  10   2.0000      -1.205683       -32.8083
  11   2.0000      -1.018688       -27.7199
  12   2.0000      -0.987367       -26.8676
  13   2.0000      -0.970546       -26.4099
  14   2.0000      -0.865986       -23.5647
  15   2.0000      -0.816217       -22.2104
  16   2.0000      -0.744406       -20.2563
  17   2.0000      -0.708798       -19.2874
  18   2.0000      -0.690144       -18.7798
  19   2.0000      -0.660161       -17.9639
  20   2.0000      -0.615148       -16.7390
  21   2.0000      -0.593347       -16.1458
  22   2.0000      -0.578998       -15.7553
  23   2.0000      -0.561863       -15.2891
  24   2.0000      -0.553106       -15.0508
  25   2.0000      -0.544171       -14.8076
  26   2.0000      -0.534182       -14.5358
  27   2.0000      -0.512594       -13.9484
  28   2.0000      -0.480338       -13.0706
  29   2.0000      -0.441150       -12.0043
  30   2.0000      -0.436587       -11.8801
  31   2.0000      -0.423887       -11.5345
  32   2.0000      -0.387300       -10.5390
  33   2.0000      -0.361393        -9.8340
  34   0.0000       0.137181         3.7329
  35   0.0000       0.144201         3.9239
  36   0.0000       0.162639         4.4256
  37   0.0000       0.173852         4.7308
  38   0.0000       0.184159         5.0112

MULLIKEN ATOMIC CHARGES
-----------------------
   0 C :   -0.412278
   1 C :    0.038825
   2 C :   -0.135987
   3 C :   -0.257453
   4 C :   -0.010363
   5 C :   -0.273202
   6 C :    0.049829
   7 O :   -0.460148
   8 C :   -0.145916
   9 H :    0.130052
  10 H :    0.132180
  11 H :    0.137239
  12 H :    0.124149
  13 H :    0.101723
  14 H :    0.116585
  15 H :    0.117332
  16 H :    0.113993
  17 H :    0.110439
  18 H :    0.083844
  19 H :    0.312299
  20 H :    0.126857
Sum of atomic charges:    0.0000000

LOEWDIN ATOMIC CHARGES
----------------------
   0 C :   -0.276232
   1 C :   -0.176428
   2 C :   -0.147674
   3 C :   -0.195553
   4 C :   -0.163935
   5 C :   -0.220220
   6 C :   -0.305842
   7 O :   -0.026997
   8 C :   -0.141957
   9 H :    0.126009
  10 H :    0.131418
  11 H :    0.130067
  12 H :    0.134701
  13 H :    0.123183
  14 H :    0.137046
  15 H :    0.140567
  16 H :    0.131740
  17 H :    0.142412
  18 H :    0.130535
  19 H :    0.171595
  20 H :    0.155566

  Mayer bond orders larger than 0.1
B(  0-C ,  1-C ) :   0.8398 B(  0-C ,  9-H ) :   0.9437 B(  0-C , 10-H ) :   0.9414
B(  0-C , 11-H ) :   0.9430 B(  1-C ,  2-C ) :   0.8250 B(  1-C ,  4-C ) :   0.8696
B(  1-C ,  8-C ) :   0.8966 B(  2-C ,  3-C ) :   0.9649 B(  2-C ,  8-C ) :   0.8326
B(  2-C , 12-H ) :   0.9250 B(  3-C ,  4-C ) :   0.9431 B(  3-C , 13-H ) :   0.9205
B(  3-C , 14-H ) :   0.9268 B(  4-C ,  5-C ) :   0.8958 B(  4-C , 15-H ) :   0.9198
B(  5-C ,  6-C ) :   0.9498 B(  5-C , 16-H ) :   0.9197 B(  5-C , 17-H ) :   0.9143
B(  6-C ,  7-O ) :   1.0617 B(  6-C ,  8-C ) :   0.9049 B(  6-C , 18-H ) :   0.9673
B(  7-O , 19-H ) :   0.8473 B(  8-C , 20-H ) :   0.9352

MP2 TOTAL ENERGY:     -386.403719498 Eh
FINAL SINGLE POINT ENERGY      -386.403719498048

DIPOLE MOMENT
-------------
                                X             Y             Z
Electronic contribution:     -2.65776      -1.91563      -0.74771
Nuclear contribution   :      2.97029       1.64490       1.06670
                        -----------------------------------------
Total Dipole Moment    :      0.31253      -0.27072       0.31899
                        -----------------------------------------
Magnitude (a.u.)       :      0.52223
Magnitude (Debye)      :      1.32740

                             ****ORCA TERMINATED NORMALLY****
TOTAL RUN TIME: 0 days 0 hours 19 minutes 31 seconds 464 msec
