                         Program Version 3.0.3 - RELEASE   -
|  1> ! RI-MP2 RIJK def2-TZVP def2-TZVP/C def2-TZVP/JK TIGHTSCF
|  2> % maxcore 2000
|  3> % mp2 density relaxed end
|  4> *xyz 0 1
|  5>  C        0.1127371754     1.5151182339    -0.1054722211
|  6>  C       -0.0369664474     0.0335696208     0.0749621348
|  7>  C        1.0254488850    -0.9764530464    -0.3037419285
|  8>  C        0.5525329998    -0.9079641388     1.1290568126
|  9>  C        1.4142003238    -0.6712422810     2.3326367451
| 10>  N       -0.7468644349    -1.5782205176     1.2298937557
| 11>  C       -1.3849091118    -0.6936016638     0.2402587414
| 12>  C       -1.0559042289    -2.8697014981     1.5094880662
| 13>  O       -2.1016422452    -3.4096604523     1.2118533727
| 14>  H        1.1466086928     1.8330100846     0.0635599729
| 15>  H       -0.1591869711     1.8186421385    -1.1233998764
| 16>  H       -0.5272703772     2.0703623826     0.5891388966
| 17>  H        0.7854956560    -1.8403031787    -0.9189465752
| 18>  H        2.0082348686    -0.5513941078    -0.4868342542
| 19>  H        2.2085972000     0.0426006885     2.0949005018
| 20>  H        0.8256148971    -0.2703522844     3.1638948418
| 21>  H        1.8964171121    -1.5949667521     2.6716755970
| 22>  H       -2.1670693848    -0.0715244523     0.6876689147
| 23>  H       -1.7907228383    -1.2159827897    -0.6319280863
| 24>  H       -0.2517400707    -3.3731491960     2.0850564985
| 25> *
| 26>
| 27>                          ****END OF INPUT****

CARTESIAN COORDINATES (ANGSTROEM)
---------------------------------
  C      0.112737    1.515118   -0.105472
  C     -0.036966    0.033570    0.074962
  C      1.025449   -0.976453   -0.303742
  C      0.552533   -0.907964    1.129057
  C      1.414200   -0.671242    2.332637
  N     -0.746864   -1.578221    1.229894
  C     -1.384909   -0.693602    0.240259
  C     -1.055904   -2.869701    1.509488
  O     -2.101642   -3.409660    1.211853
  H      1.146609    1.833010    0.063560
  H     -0.159187    1.818642   -1.123400
  H     -0.527270    2.070362    0.589139
  H      0.785496   -1.840303   -0.918947
  H      2.008235   -0.551394   -0.486834
  H      2.208597    0.042601    2.094901
  H      0.825615   -0.270352    3.163895
  H      1.896417   -1.594967    2.671676
  H     -2.167069   -0.071524    0.687669
  H     -1.790723   -1.215983   -0.631928
  H     -0.251740   -3.373149    2.085056

 Total Charge           Charge          ....    0
 Multiplicity           Mult            ....    1
 Number of Electrons    NEL             ....   68
 Basis Dimension        Dim             ....  345

ORBITAL ENERGIES
----------------

  NO   OCC          E(Eh)            E(eV)
   0   2.0000     -20.517195      -558.3012
   1   2.0000     -15.581542      -423.9953
   2   2.0000     -11.340010      -308.5774
   3   2.0000     -11.288121      -307.1654
   4   2.0000     -11.270886      -306.6964
   5   2.0000     -11.255151      -306.2682
   6   2.0000     -11.240095      -305.8585
   7   2.0000     -11.237900      -305.7988
   8   2.0000     -11.234755      -305.7132
   9   2.0000      -1.377038       -37.4711
  10   2.0000      -1.291724       -35.1496
  11   2.0000      -1.120526       -30.4911
  12   2.0000      -1.020787       -27.7770
  13   2.0000      -0.973079       -26.4788
  14   2.0000      -0.951728       -25.8978
  15   2.0000      -0.844526       -22.9807
  16   2.0000      -0.778831       -21.1931
  17   2.0000      -0.720370       -19.6023
  18   2.0000      -0.688603       -18.7378
  19   2.0000      -0.663405       -18.0522
  20   2.0000      -0.649224       -17.6663
  21   2.0000      -0.615426       -16.7466
  22   2.0000      -0.595793       -16.2124
  23   2.0000      -0.586339       -15.9551
  24   2.0000      -0.574370       -15.6294
  25   2.0000      -0.567994       -15.4559
  26   2.0000      -0.550619       -14.9831
  27   2.0000      -0.536653       -14.6031
  28   2.0000      -0.516572       -14.0566
  29   2.0000      -0.498287       -13.5591
  30   2.0000      -0.452568       -12.3150
  31   2.0000      -0.430156       -11.7051
  32   2.0000      -0.392619       -10.6837
  33   2.0000      -0.357168        -9.7190
  34   0.0000       0.120508         3.2792
  35   0.0000       0.152809         4.1581
  36   0.0000       0.157120         4.2755
  37   0.0000       0.171545         4.6680
  38   0.0000       0.175564         4.7773

MULLIKEN ATOMIC CHARGES
-----------------------
   0 C :   -0.412565
   1 C :    0.011839
   2 C :   -0.250859
   3 C :    0.043826
   4 C :   -0.394808
   5 N :   -0.084583
   6 C :   -0.129329
   7 C :    0.129242
   8 O :   -0.354965
   9 H :    0.130406
  10 H :    0.145441
  11 H :    0.136452
  12 H :    0.141988
  13 H :    0.132082
  14 H :    0.132724
  15 H :    0.142892
  16 H :    0.143909
  17 H :    0.124907
  18 H :    0.133588
  19 H :    0.077813
Sum of atomic charges:   -0.0000000

LOEWDIN ATOMIC CHARGES
----------------------
   0 C :   -0.272426
   1 C :   -0.211310
   2 C :   -0.165650
   3 C :   -0.229875
   4 C :   -0.268219
   5 N :    0.215714
   6 C :   -0.166097
   7 C :   -0.418832
   8 O :    0.059857
   9 H :    0.131408
  10 H :    0.132655
  11 H :    0.130409
  12 H :    0.137200
  13 H :    0.143861
  14 H :    0.134919
  15 H :    0.132995
  16 H :    0.131540
  17 H :    0.136175
  18 H :    0.133869
  19 H :    0.111807

  Mayer bond orders larger than 0.1
B(  0-C ,  1-C ) :   0.8998 B(  0-C ,  9-H ) :   0.9331 B(  0-C , 10-H ) :   0.9391
B(  0-C , 11-H ) :   0.9369 B(  1-C ,  2-C ) :   0.8674 B(  1-C ,  3-C ) :   0.8372
B(  1-C ,  6-C ) :   0.9271 B(  2-C ,  3-C ) :   0.8808 B(  2-C , 12-H ) :   0.9078
B(  2-C , 13-H ) :   0.9267 B(  3-C ,  4-C ) :   0.9102 B(  3-C ,  5-N ) :   0.9339
B(  4-C , 14-H ) :   0.9274 B(  4-C , 15-H ) :   0.9364 B(  4-C , 16-H ) :   0.9316
B(  5-N ,  6-C ) :   0.8937 B(  5-N ,  7-C ) :   1.1225 B(  6-C , 17-H ) :   0.9139
B(  6-C , 18-H ) :   0.9180 B(  7-C ,  8-O ) :   1.9128 B(  7-C , 19-H ) :   0.9313

MP2 TOTAL ENERGY:     -402.449563052 Eh
FINAL SINGLE POINT ENERGY      -402.449563052330

DIPOLE MOMENT
-------------
                                X             Y             Z
Electronic contribution:     -5.11996      -6.82963       0.71076
Nuclear contribution   :      6.38264       8.11258      -0.83352
                        -----------------------------------------
Total Dipole Moment    :      1.26268       1.28295      -0.12275
                        -----------------------------------------
Magnitude (a.u.)       :      1.80427
Magnitude (Debye)      :      4.58609

                             ****ORCA TERMINATED NORMALLY****
TOTAL RUN TIME: 0 days 0 hours 18 minutes 38 seconds 903 msec
