                         Program Version 3.0.3 - RELEASE   -
|  1> ! RI-MP2 RIJK def2-TZVP def2-TZVP/C def2-TZVP/JK TIGHTSCF
|  2> % maxcore 2000
|  3> % mp2 density relaxed end
|  4> *xyz 0 1
|  5>  O       -0.0482164750     0.4765570307     1.2501195697
|  6>  C       -0.1093645289     1.2575555396     0.3405613103
|  7>  O       -1.3143521944     1.7187072995    -0.0691328400
|  8>  C       -1.5664253396     2.1044512598    -1.4197356578
|  9>  O       -0.9719959835     3.2945665922    -1.8036426891
| 10>  C        0.3080508265     3.1594544217    -2.3833018039
| 11>  C        1.3751944136     2.6571615814    -1.4415758134
| 12>  O        1.4077144840     3.2019459093    -0.1366005248
| 13>  C        1.1727306527     1.7894232711    -0.2624624020
| 14>  H       -1.2802747085     1.2800806500    -2.0900391562
| 15>  H       -2.6462388722     2.2547409072    -1.4444015176
| 16>  H        0.2741408416     2.4980129136    -3.2643150402
| 17>  H        0.5863582650     4.1600954205    -2.7287746452
| 18>  H        2.3531320064     2.5685227967    -1.9239441498
| 19>  H        2.0079082423     1.1709684966     0.0612914400
| 20> *
| 21>
| 22>                          ****END OF INPUT****

CARTESIAN COORDINATES (ANGSTROEM)
---------------------------------
  O     -0.048216    0.476557    1.250120
  C     -0.109365    1.257556    0.340561
  O     -1.314352    1.718707   -0.069133
  C     -1.566425    2.104451   -1.419736
  O     -0.971996    3.294567   -1.803643
  C      0.308051    3.159454   -2.383302
  C      1.375194    2.657162   -1.441576
  O      1.407714    3.201946   -0.136601
  C      1.172731    1.789423   -0.262462
  H     -1.280275    1.280081   -2.090039
  H     -2.646239    2.254741   -1.444402
  H      0.274141    2.498013   -3.264315
  H      0.586358    4.160095   -2.728775
  H      2.353132    2.568523   -1.923944
  H      2.007908    1.170968    0.061291

 Total Charge           Charge          ....    0
 Multiplicity           Mult            ....    1
 Number of Electrons    NEL             ....   68
 Basis Dimension        Dim             ....  315

ORBITAL ENERGIES
----------------

  NO   OCC          E(Eh)            E(eV)
   0   2.0000     -20.609997      -560.8265
   1   2.0000     -20.603281      -560.6438
   2   2.0000     -20.597255      -560.4798
   3   2.0000     -20.557636      -559.4017
   4   2.0000     -11.397265      -310.1353
   5   2.0000     -11.366696      -309.3035
   6   2.0000     -11.326233      -308.2025
   7   2.0000     -11.324350      -308.1512
   8   2.0000     -11.316930      -307.9493
   9   2.0000      -1.483350       -40.3640
  10   2.0000      -1.445212       -39.3262
  11   2.0000      -1.424278       -38.7566
  12   2.0000      -1.368202       -37.2307
  13   2.0000      -1.048298       -28.5256
  14   2.0000      -0.983036       -26.7498
  15   2.0000      -0.966078       -26.2883
  16   2.0000      -0.854343       -23.2479
  17   2.0000      -0.804321       -21.8867
  18   2.0000      -0.758244       -20.6329
  19   2.0000      -0.742560       -20.2061
  20   2.0000      -0.703886       -19.1537
  21   2.0000      -0.698632       -19.0108
  22   2.0000      -0.659644       -17.9498
  23   2.0000      -0.623647       -16.9703
  24   2.0000      -0.617433       -16.8012
  25   2.0000      -0.610198       -16.6043
  26   2.0000      -0.590346       -16.0641
  27   2.0000      -0.548423       -14.9234
  28   2.0000      -0.521728       -14.1970
  29   2.0000      -0.505694       -13.7606
  30   2.0000      -0.485439       -13.2095
  31   2.0000      -0.475358       -12.9352
  32   2.0000      -0.461082       -12.5467
  33   2.0000      -0.448013       -12.1911
  34   0.0000       0.114046         3.1034
  35   0.0000       0.133949         3.6449
  36   0.0000       0.158371         4.3095
  37   0.0000       0.171144         4.6571
  38   0.0000       0.181721         4.9449

MULLIKEN ATOMIC CHARGES
-----------------------
   0 O :   -0.262084
   1 C :    0.264154
   2 O :   -0.214027
   3 C :    0.043414
   4 O :   -0.280701
   5 C :   -0.053640
   6 C :    0.032551
   7 O :   -0.301925
   8 C :   -0.033105
   9 H :    0.112964
  10 H :    0.151001
  11 H :    0.119747
  12 H :    0.143634
  13 H :    0.129786
  14 H :    0.148232
Sum of atomic charges:    0.0000000

LOEWDIN ATOMIC CHARGES
----------------------
   0 O :    0.163255
   1 C :   -0.461496
   2 O :    0.257221
   3 C :   -0.365960
   4 O :    0.192131
   5 C :   -0.306466
   6 C :   -0.281887
   7 O :    0.199628
   8 C :   -0.223865
   9 H :    0.116373
  10 H :    0.131794
  11 H :    0.132307
  12 H :    0.145272
  13 H :    0.147484
  14 H :    0.154207

  Mayer bond orders larger than 0.1
B(  0-O ,  1-C ) :   2.0033 B(  1-C ,  2-O ) :   1.1158 B(  1-C ,  8-C ) :   0.9302
B(  2-O ,  3-C ) :   0.8880 B(  3-C ,  4-O ) :   0.9914 B(  3-C ,  9-H ) :   0.9291
B(  3-C , 10-H ) :   0.9331 B(  4-O ,  5-C ) :   0.9225 B(  5-C ,  6-C ) :   0.9098
B(  5-C , 11-H ) :   0.9442 B(  5-C , 12-H ) :   0.9163 B(  6-C ,  7-O ) :   0.9069
B(  6-C ,  8-C ) :   0.9225 B(  6-C , 13-H ) :   0.9050 B(  7-O ,  8-C ) :   0.8428
B(  8-C , 14-H ) :   0.9145

MP2 TOTAL ENERGY:     -494.127446737 Eh
FINAL SINGLE POINT ENERGY      -494.127446737272

DIPOLE MOMENT
-------------
                                X             Y             Z
Electronic contribution:     -0.74564      -0.77884       5.04777
Nuclear contribution   :      1.17275       0.74574      -6.95095
                        -----------------------------------------
Total Dipole Moment    :      0.42711      -0.03309      -1.90318
                        -----------------------------------------
Magnitude (a.u.)       :      1.95080
Magnitude (Debye)      :      4.95854

                             ****ORCA TERMINATED NORMALLY****
TOTAL RUN TIME: 0 days 0 hours 14 minutes 4 seconds 211 msec
