                         Program Version 3.0.3 - RELEASE   -
|  1> ! RI-MP2 RIJK def2-TZVP def2-TZVP/C def2-TZVP/JK TIGHTSCF
|  2> % maxcore 2000
|  3> % mp2 density relaxed end
|  4> *xyz 0 1
|  5>  O        0.3240635591     1.3346636945     0.1244212538
|  6>  C        0.0591695596    -0.0272764459     0.0457815776
|  7>  C       -1.4452635979    -0.5499047998     0.0237183629
|  8>  N       -1.0584793428    -1.3782142892    -1.1433065723
|  9>  C        0.1554432897    -0.7279836330    -1.3108648128
| 10>  N        0.7076344957    -0.7170365621    -2.4565876186
| 11>  C       -0.2379957391    -1.5224976166    -3.2729330375
| 12>  C       -1.5183004149    -1.7402765728    -2.4114980954
| 13>  N       -2.6944341238    -2.1203920060    -2.6861768724
| 14>  H        0.0800798824     1.7453129162    -0.7128159121
| 15>  H        0.6379506113    -0.5183495131     0.8319460056
| 16>  H       -1.7921414184    -1.1191814709     0.8871932567
| 17>  H       -2.1583634046     0.2415053357    -0.2264166513
| 18>  H       -0.4686961370    -1.0067503269    -4.2104444458
| 19>  H        0.2097918785    -2.4897046646    -3.5319987946
| 20>  H       -2.7870584478    -2.3114104257    -3.6836034739
| 21> *
| 22>
| 23>                          ****END OF INPUT****

CARTESIAN COORDINATES (ANGSTROEM)
---------------------------------
  O      0.324064    1.334664    0.124421
  C      0.059170   -0.027276    0.045782
  C     -1.445264   -0.549905    0.023718
  N     -1.058479   -1.378214   -1.143307
  C      0.155443   -0.727984   -1.310865
  N      0.707634   -0.717037   -2.456588
  C     -0.237996   -1.522498   -3.272933
  C     -1.518300   -1.740277   -2.411498
  N     -2.694434   -2.120392   -2.686177
  H      0.080080    1.745313   -0.712816
  H      0.637951   -0.518350    0.831946
  H     -1.792141   -1.119181    0.887193
  H     -2.158363    0.241505   -0.226417
  H     -0.468696   -1.006750   -4.210444
  H      0.209792   -2.489705   -3.531999
  H     -2.787058   -2.311410   -3.683603

 Total Charge           Charge          ....    0
 Multiplicity           Mult            ....    1
 Number of Electrons    NEL             ....   66
 Basis Dimension        Dim             ....  321

ORBITAL ENERGIES
----------------

  NO   OCC          E(Eh)            E(eV)
   0   2.0000     -20.590486      -560.2956
   1   2.0000     -15.597612      -424.4326
   2   2.0000     -15.561696      -423.4553
   3   2.0000     -15.543815      -422.9687
   4   2.0000     -11.332630      -308.3766
   5   2.0000     -11.329775      -308.2988
   6   2.0000     -11.323617      -308.1313
   7   2.0000     -11.298060      -307.4358
   8   2.0000     -11.281333      -306.9807
   9   2.0000      -1.406785       -38.2806
  10   2.0000      -1.356908       -36.9233
  11   2.0000      -1.215292       -33.0698
  12   2.0000      -1.197951       -32.5979
  13   2.0000      -1.040070       -28.3017
  14   2.0000      -0.954051       -25.9611
  15   2.0000      -0.902578       -24.5604
  16   2.0000      -0.831459       -22.6251
  17   2.0000      -0.745841       -20.2954
  18   2.0000      -0.716587       -19.4993
  19   2.0000      -0.697551       -18.9813
  20   2.0000      -0.650184       -17.6924
  21   2.0000      -0.645235       -17.5577
  22   2.0000      -0.637134       -17.3373
  23   2.0000      -0.599036       -16.3006
  24   2.0000      -0.585096       -15.9213
  25   2.0000      -0.574748       -15.6397
  26   2.0000      -0.530780       -14.4433
  27   2.0000      -0.521136       -14.1808
  28   2.0000      -0.477033       -12.9807
  29   2.0000      -0.462457       -12.5841
  30   2.0000      -0.445823       -12.1315
  31   2.0000      -0.409779       -11.1506
  32   2.0000      -0.356866        -9.7108
  33   0.0000       0.120409         3.2765
  34   0.0000       0.130518         3.5516
  35   0.0000       0.138892         3.7794
  36   0.0000       0.156426         4.2566
  37   0.0000       0.164996         4.4898

MULLIKEN ATOMIC CHARGES
-----------------------
   0 O :   -0.442910
   1 C :    0.131206
   2 C :   -0.141678
   3 N :   -0.081581
   4 C :   -0.026417
   5 N :   -0.244023
   6 C :   -0.099949
   7 C :    0.021538
   8 N :   -0.350501
   9 H :    0.327769
  10 H :    0.138463
  11 H :    0.133847
  12 H :    0.127795
  13 H :    0.140083
  14 H :    0.143383
  15 H :    0.222974
Sum of atomic charges:    0.0000000

LOEWDIN ATOMIC CHARGES
----------------------
   0 O :    0.014501
   1 C :   -0.282742
   2 C :   -0.177348
   3 N :    0.240670
   4 C :   -0.303079
   5 N :    0.083627
   6 C :   -0.231624
   7 C :   -0.338849
   8 N :   -0.060005
   9 H :    0.186619
  10 H :    0.151967
  11 H :    0.127782
  12 H :    0.132589
  13 H :    0.140780
  14 H :    0.146320
  15 H :    0.168792

  Mayer bond orders larger than 0.1
B(  0-O ,  1-C ) :   1.0248 B(  0-O ,  9-H ) :   0.8322 B(  1-C ,  2-C ) :   0.9096
B(  1-C ,  4-C ) :   0.8874 B(  1-C , 10-H ) :   0.9201 B(  2-C ,  3-N ) :   0.8878
B(  2-C , 11-H ) :   0.9151 B(  2-C , 12-H ) :   0.9097 B(  3-N ,  4-C ) :   1.0507
B(  3-N ,  7-C ) :   1.0161 B(  4-C ,  5-N ) :   1.9165 B(  5-N ,  6-C ) :   0.9199
B(  6-C ,  7-C ) :   0.9185 B(  6-C , 13-H ) :   0.9117 B(  6-C , 14-H ) :   0.9003
B(  7-C ,  8-N ) :   1.9997 B(  8-N , 15-H ) :   0.8548

MP2 TOTAL ENERGY:     -433.324342370 Eh
FINAL SINGLE POINT ENERGY      -433.324342369824

DIPOLE MOMENT
-------------
                                X             Y             Z
Electronic contribution:      1.45212       0.00561       0.35158
Nuclear contribution   :     -1.70073       0.04658      -0.53007
                        -----------------------------------------
Total Dipole Moment    :     -0.24860       0.05218      -0.17850
                        -----------------------------------------
Magnitude (a.u.)       :      0.31046
Magnitude (Debye)      :      0.78914

                             ****ORCA TERMINATED NORMALLY****
TOTAL RUN TIME: 0 days 0 hours 15 minutes 38 seconds 232 msec
