                         Program Version 3.0.3 - RELEASE   -
|  1> ! RI-MP2 RIJK def2-TZVP def2-TZVP/C def2-TZVP/JK TIGHTSCF
|  2> % maxcore 2000
|  3> % mp2 density relaxed end
|  4> *xyz 0 1
|  5>  N       -0.0361286764     1.4063213442    -0.2131679969
|  6>  C       -0.0415065320     0.0038277689    -0.1814905446
|  7>  C       -1.1657761941    -0.7163470445     0.0946182573
|  8>  N       -2.3706376766    -0.1641179391     0.4047357445
|  9>  C       -1.0755037341    -2.1730777061     0.0920251766
| 10>  N       -2.1077979241    -2.8771167623     0.3474800756
| 11>  O        0.1364118819    -2.7007457647    -0.2112095482
| 12>  N        1.3039866201    -1.8495336712    -0.5480187086
| 13>  N        1.1367829498    -0.6309506410    -0.4958617445
| 14>  H       -0.3504350097     1.8183967424     0.6596059294
| 15>  H        0.8849271797     1.7589553994    -0.4437116076
| 16>  H       -2.5606358890     0.7556353652     0.0347259840
| 17>  H       -3.1343896891    -0.8278193729     0.4092078052
| 18>  H       -1.9009544265    -3.8733491884     0.2892294278
| 19> *
| 20>
| 21>                          ****END OF INPUT****

CARTESIAN COORDINATES (ANGSTROEM)
---------------------------------
  N     -0.036129    1.406321   -0.213168
  C     -0.041507    0.003828   -0.181491
  C     -1.165776   -0.716347    0.094618
  N     -2.370638   -0.164118    0.404736
  C     -1.075504   -2.173078    0.092025
  N     -2.107798   -2.877117    0.347480
  O      0.136412   -2.700746   -0.211210
  N      1.303987   -1.849534   -0.548019
  N      1.136783   -0.630951   -0.495862
  H     -0.350435    1.818397    0.659606
  H      0.884927    1.758955   -0.443712
  H     -2.560636    0.755635    0.034726
  H     -3.134390   -0.827819    0.409208
  H     -1.900954   -3.873349    0.289229

 Total Charge           Charge          ....    0
 Multiplicity           Mult            ....    1
 Number of Electrons    NEL             ....   66
 Basis Dimension        Dim             ....  309

ORBITAL ENERGIES
----------------

  NO   OCC          E(Eh)            E(eV)
   0   2.0000     -20.635365      -561.5168
   1   2.0000     -15.717848      -427.7044
   2   2.0000     -15.660930      -426.1556
   3   2.0000     -15.589262      -424.2054
   4   2.0000     -15.587315      -424.1524
   5   2.0000     -15.544556      -422.9889
   6   2.0000     -11.361106      -309.1514
   7   2.0000     -11.321003      -308.0602
   8   2.0000     -11.315105      -307.8997
   9   2.0000      -1.488315       -40.4991
  10   2.0000      -1.358871       -36.9768
  11   2.0000      -1.280149       -34.8346
  12   2.0000      -1.222265       -33.2595
  13   2.0000      -1.190675       -32.3999
  14   2.0000      -1.064294       -28.9609
  15   2.0000      -0.949969       -25.8500
  16   2.0000      -0.882359       -24.0102
  17   2.0000      -0.808668       -22.0050
  18   2.0000      -0.736693       -20.0464
  19   2.0000      -0.712829       -19.3971
  20   2.0000      -0.689538       -18.7633
  21   2.0000      -0.686845       -18.6900
  22   2.0000      -0.666240       -18.1293
  23   2.0000      -0.631982       -17.1971
  24   2.0000      -0.613767       -16.7014
  25   2.0000      -0.571046       -15.5389
  26   2.0000      -0.553703       -15.0670
  27   2.0000      -0.540190       -14.6993
  28   2.0000      -0.484281       -13.1779
  29   2.0000      -0.476838       -12.9754
  30   2.0000      -0.433589       -11.7986
  31   2.0000      -0.419142       -11.4054
  32   2.0000      -0.312595        -8.5061
  33   0.0000       0.058490         1.5916
  34   0.0000       0.118923         3.2360
  35   0.0000       0.154524         4.2048
  36   0.0000       0.158544         4.3142
  37   0.0000       0.169150         4.6028

MULLIKEN ATOMIC CHARGES
-----------------------
   0 N :   -0.563250
   1 C :    0.176593
   2 C :    0.140546
   3 N :   -0.513706
   4 C :    0.177368
   5 N :   -0.469017
   6 O :   -0.161069
   7 N :   -0.017234
   8 N :   -0.082034
   9 H :    0.265015
  10 H :    0.263147
  11 H :    0.266659
  12 H :    0.291018
  13 H :    0.225963
Sum of atomic charges:   -0.0000000

LOEWDIN ATOMIC CHARGES
----------------------
   0 N :   -0.086002
   1 C :   -0.337441
   2 C :   -0.222752
   3 N :   -0.000798
   4 C :   -0.414644
   5 N :   -0.085757
   6 O :    0.189111
   7 N :    0.015248
   8 N :    0.061722
   9 H :    0.173542
  10 H :    0.175354
  11 H :    0.176579
  12 H :    0.188282
  13 H :    0.167558

  Mayer bond orders larger than 0.1
B(  0-N ,  1-C ) :   1.0218 B(  0-N ,  9-H ) :   0.8625 B(  0-N , 10-H ) :   0.8695
B(  1-C ,  2-C ) :   1.4110 B(  1-C ,  8-N ) :   1.1682 B(  2-C ,  3-N ) :   1.1400
B(  2-C ,  4-C ) :   1.0127 B(  3-N , 11-H ) :   0.8586 B(  3-N , 12-H ) :   0.8435
B(  4-C ,  5-N ) :   1.8783 B(  4-C ,  6-O ) :   1.1527 B(  5-N , 13-H ) :   0.8571
B(  6-O ,  7-N ) :   0.7369 B(  7-N ,  8-N ) :   1.5227

MP2 TOTAL ENERGY:     -465.394109484 Eh
FINAL SINGLE POINT ENERGY      -465.394109483790

DIPOLE MOMENT
-------------
                                X             Y             Z
Electronic contribution:      3.84830      -3.32711      -1.00430
Nuclear contribution   :     -4.34785       4.65201       1.23570
                        -----------------------------------------
Total Dipole Moment    :     -0.49955       1.32489       0.23140
                        -----------------------------------------
Magnitude (a.u.)       :      1.43473
Magnitude (Debye)      :      3.64678

                             ****ORCA TERMINATED NORMALLY****
TOTAL RUN TIME: 0 days 0 hours 15 minutes 46 seconds 676 msec
