                         Program Version 3.0.3 - RELEASE   -
|  1> ! RI-MP2 RIJK def2-TZVP def2-TZVP/C def2-TZVP/JK TIGHTSCF
|  2> % maxcore 2000
|  3> % mp2 density relaxed end
|  4> *xyz 0 1
|  5>  C       -0.0206837966     1.5035377458     0.2025034105
|  6>  C       -0.0261637640    -0.0043416403     0.0184821289
|  7>  O       -1.3160947484    -0.4814335562    -0.3449558975
|  8>  C        1.1044837214    -0.6705533243    -0.8742700592
|  9>  C        1.1721391106    -1.8445975273     0.1725242733
| 10>  O        2.3773489098    -2.2737556352     0.7765900968
| 11>  C        2.3486358381    -1.8565388728     2.1547508897
| 12>  C        1.2530741325    -0.8026827762     2.2382299285
| 13>  C        0.5389663897    -0.8828971463     1.1228985596
| 14>  H        0.9607815954     1.8603225357     0.5252259323
| 15>  H       -0.2684791911     2.0045883745    -0.7414953309
| 16>  H       -0.7671529641     1.7964810346     0.9468881824
| 17>  H       -1.5552950801    -0.0618473637    -1.1789855044
| 18>  H        0.8049208125    -0.9267239880    -1.8944723853
| 19>  H        2.0274567408    -0.0874466169    -0.8738392753
| 20>  H        0.5715534030    -2.7027564098    -0.1510037706
| 21>  H        2.1764710687    -2.7273304266     2.8078651684
| 22>  H        3.3287134587    -1.4376489355     2.4196911218
| 23>  H        1.2130135931    -0.0531259115     3.0184183710
| 24> *
| 25>
| 26>                          ****END OF INPUT****

CARTESIAN COORDINATES (ANGSTROEM)
---------------------------------
  C     -0.020684    1.503538    0.202503
  C     -0.026164   -0.004342    0.018482
  O     -1.316095   -0.481434   -0.344956
  C      1.104484   -0.670553   -0.874270
  C      1.172139   -1.844598    0.172524
  O      2.377349   -2.273756    0.776590
  C      2.348636   -1.856539    2.154751
  C      1.253074   -0.802683    2.238230
  C      0.538966   -0.882897    1.122899
  H      0.960782    1.860323    0.525226
  H     -0.268479    2.004588   -0.741495
  H     -0.767153    1.796481    0.946888
  H     -1.555295   -0.061847   -1.178986
  H      0.804921   -0.926724   -1.894472
  H      2.027457   -0.087447   -0.873839
  H      0.571553   -2.702756   -0.151004
  H      2.176471   -2.727330    2.807865
  H      3.328713   -1.437649    2.419691
  H      1.213014   -0.053126    3.018418

 Total Charge           Charge          ....    0
 Multiplicity           Mult            ....    1
 Number of Electrons    NEL             ....   68
 Basis Dimension        Dim             ....  339

ORBITAL ENERGIES
----------------

  NO   OCC          E(Eh)            E(eV)
   0   2.0000     -20.564315      -559.5835
   1   2.0000     -20.550531      -559.2084
   2   2.0000     -11.308080      -307.7085
   3   2.0000     -11.280862      -306.9679
   4   2.0000     -11.274961      -306.8073
   5   2.0000     -11.233374      -305.6756
   6   2.0000     -11.233040      -305.6666
   7   2.0000     -11.230683      -305.6024
   8   2.0000     -11.226326      -305.4838
   9   2.0000      -1.378767       -37.5182
  10   2.0000      -1.369674       -37.2707
  11   2.0000      -1.134832       -30.8804
  12   2.0000      -1.034871       -28.1603
  13   2.0000      -0.993881       -27.0449
  14   2.0000      -0.907037       -24.6817
  15   2.0000      -0.843376       -22.9494
  16   2.0000      -0.801345       -21.8057
  17   2.0000      -0.733521       -19.9601
  18   2.0000      -0.674753       -18.3610
  19   2.0000      -0.665966       -18.1218
  20   2.0000      -0.659191       -17.9375
  21   2.0000      -0.628418       -17.1001
  22   2.0000      -0.610523       -16.6132
  23   2.0000      -0.575598       -15.6628
  24   2.0000      -0.574780       -15.6405
  25   2.0000      -0.561243       -15.2722
  26   2.0000      -0.523929       -14.2568
  27   2.0000      -0.514517       -14.0007
  28   2.0000      -0.506791       -13.7905
  29   2.0000      -0.484388       -13.1809
  30   2.0000      -0.452886       -12.3237
  31   2.0000      -0.444648       -12.0995
  32   2.0000      -0.407604       -11.0915
  33   2.0000      -0.343782        -9.3548
  34   0.0000       0.121058         3.2942
  35   0.0000       0.137597         3.7442
  36   0.0000       0.157375         4.2824
  37   0.0000       0.166638         4.5345
  38   0.0000       0.181494         4.9387

MULLIKEN ATOMIC CHARGES
-----------------------
   0 C :   -0.432787
   1 C :    0.235385
   2 O :   -0.447302
   3 C :   -0.274205
   4 C :    0.139960
   5 O :   -0.331994
   6 C :    0.013253
   7 C :   -0.250508
   8 C :   -0.057420
   9 H :    0.132630
  10 H :    0.123360
  11 H :    0.147331
  12 H :    0.314873
  13 H :    0.119737
  14 H :    0.113862
  15 H :    0.096079
  16 H :    0.105714
  17 H :    0.112867
  18 H :    0.139164
Sum of atomic charges:    0.0000000

LOEWDIN ATOMIC CHARGES
----------------------
   0 C :   -0.276742
   1 C :   -0.338308
   2 O :    0.014790
   3 C :   -0.165702
   4 C :   -0.243205
   5 O :    0.160912
   6 C :   -0.266022
   7 C :   -0.130497
   8 C :   -0.118488
   9 H :    0.130306
  10 H :    0.125218
  11 H :    0.131845
  12 H :    0.176755
  13 H :    0.126220
  14 H :    0.140695
  15 H :    0.142767
  16 H :    0.123583
  17 H :    0.126126
  18 H :    0.139748

  Mayer bond orders larger than 0.1
B(  0-C ,  1-C ) :   0.9038 B(  0-C ,  9-H ) :   0.9365 B(  0-C , 10-H ) :   0.9219
B(  0-C , 11-H ) :   0.9407 B(  1-C ,  2-O ) :   1.0287 B(  1-C ,  3-C ) :   0.9075
B(  1-C ,  8-C ) :   0.8999 B(  2-O , 12-H ) :   0.8404 B(  3-C ,  4-C ) :   0.8779
B(  3-C , 13-H ) :   0.9023 B(  3-C , 14-H ) :   0.8914 B(  4-C ,  5-O ) :   0.9825
B(  4-C ,  8-C ) :   0.9736 B(  4-C , 15-H ) :   0.9136 B(  5-O ,  6-C ) :   0.9287
B(  6-C ,  7-C ) :   0.9582 B(  6-C , 16-H ) :   0.9092 B(  6-C , 17-H ) :   0.9235
B(  7-C ,  8-C ) :   1.7825 B(  7-C , 18-H ) :   0.9144

MP2 TOTAL ENERGY:     -422.283968360 Eh
FINAL SINGLE POINT ENERGY      -422.283968360027

DIPOLE MOMENT
-------------
                                X             Y             Z
Electronic contribution:     -0.38200      -4.43207       0.65305
Nuclear contribution   :      0.36927       5.31643      -0.81059
                        -----------------------------------------
Total Dipole Moment    :     -0.01274       0.88436      -0.15754
                        -----------------------------------------
Magnitude (a.u.)       :      0.89838
Magnitude (Debye)      :      2.28349

                             ****ORCA TERMINATED NORMALLY****
TOTAL RUN TIME: 0 days 0 hours 18 minutes 48 seconds 780 msec
