                         Program Version 3.0.3 - RELEASE   -
|  1> ! RI-MP2 RIJK def2-TZVP def2-TZVP/C def2-TZVP/JK TIGHTSCF
|  2> % maxcore 2000
|  3> % mp2 density relaxed end
|  4> *xyz 0 1
|  5>  C        0.4399495719     1.1065286233    -0.3266801672
|  6>  O        0.4730998212    -0.2870908311    -0.0766707273
|  7>  C        0.4876669138    -0.6095557230     1.2931238995
|  8>  C        0.4773797575    -2.1452689251     1.4233298559
|  9>  C        1.9309718080    -2.4940626906     1.6887816211
| 10>  C        2.9671838881    -1.9031557953     0.7418738804
| 11>  C        2.6113698099    -1.1977683418     2.0265603513
| 12>  C        3.5938627833    -0.9724470654     3.1388957904
| 13>  O        1.6601237976    -0.1481310355     1.9403249350
| 14>  H        1.3298204624     1.6081687027     0.0700337072
| 15>  H        0.4002428977     1.2360419938    -1.4104063377
| 16>  H       -0.4528909224     1.5692347415     0.1215656590
| 17>  H       -0.3557027905    -0.1069040380     1.7890837485
| 18>  H       -0.1439421308    -2.4463716450     2.2725012141
| 19>  H        0.0610994154    -2.5902409500     0.5167659048
| 20>  H        2.1609334345    -3.4107423051     2.2196672554
| 21>  H        3.9318244771    -2.3990523733     0.6996076557
| 22>  H        2.6230628116    -1.4764788449    -0.1925814894
| 23>  H        4.2900938150    -1.8126094431     3.2095379907
| 24>  H        4.1771575293    -0.0622336128     2.9638883815
| 25>  H        3.0774232796    -0.8651327614     4.0983167907
| 26> *
| 27>
| 28>                          ****END OF INPUT****

CARTESIAN COORDINATES (ANGSTROEM)
---------------------------------
  C      0.439950    1.106529   -0.326680
  O      0.473100   -0.287091   -0.076671
  C      0.487667   -0.609556    1.293124
  C      0.477380   -2.145269    1.423330
  C      1.930972   -2.494063    1.688782
  C      2.967184   -1.903156    0.741874
  C      2.611370   -1.197768    2.026560
  C      3.593863   -0.972447    3.138896
  O      1.660124   -0.148131    1.940325
  H      1.329820    1.608169    0.070034
  H      0.400243    1.236042   -1.410406
  H     -0.452891    1.569235    0.121566
  H     -0.355703   -0.106904    1.789084
  H     -0.143942   -2.446372    2.272501
  H      0.061099   -2.590241    0.516766
  H      2.160933   -3.410742    2.219667
  H      3.931824   -2.399052    0.699608
  H      2.623063   -1.476479   -0.192581
  H      4.290094   -1.812609    3.209538
  H      4.177158   -0.062234    2.963888
  H      3.077423   -0.865133    4.098317

 Total Charge           Charge          ....    0
 Multiplicity           Mult            ....    1
 Number of Electrons    NEL             ....   70
 Basis Dimension        Dim             ....  351

ORBITAL ENERGIES
----------------

  NO   OCC          E(Eh)            E(eV)
   0   2.0000     -20.556477      -559.3702
   1   2.0000     -20.555622      -559.3469
   2   2.0000     -11.328585      -308.2665
   3   2.0000     -11.282649      -307.0165
   4   2.0000     -11.265563      -306.5515
   5   2.0000     -11.227496      -305.5157
   6   2.0000     -11.225998      -305.4749
   7   2.0000     -11.217748      -305.2504
   8   2.0000     -11.217307      -305.2384
   9   2.0000      -1.417088       -38.5609
  10   2.0000      -1.348525       -36.6952
  11   2.0000      -1.134885       -30.8818
  12   2.0000      -1.033745       -28.1296
  13   2.0000      -0.958528       -26.0829
  14   2.0000      -0.922765       -25.1097
  15   2.0000      -0.848580       -23.0910
  16   2.0000      -0.787573       -21.4310
  17   2.0000      -0.756205       -20.5774
  18   2.0000      -0.703178       -19.1344
  19   2.0000      -0.677960       -18.4482
  20   2.0000      -0.640546       -17.4301
  21   2.0000      -0.623177       -16.9575
  22   2.0000      -0.610066       -16.6007
  23   2.0000      -0.580422       -15.7941
  24   2.0000      -0.573645       -15.6097
  25   2.0000      -0.548120       -14.9151
  26   2.0000      -0.543773       -14.7968
  27   2.0000      -0.534139       -14.5347
  28   2.0000      -0.528418       -14.3790
  29   2.0000      -0.503727       -13.7071
  30   2.0000      -0.480243       -13.0681
  31   2.0000      -0.459340       -12.4993
  32   2.0000      -0.435469       -11.8497
  33   2.0000      -0.401943       -10.9374
  34   2.0000      -0.373113       -10.1529
  35   0.0000       0.141290         3.8447
  36   0.0000       0.160531         4.3683
  37   0.0000       0.165805         4.5118
  38   0.0000       0.183748         5.0000
  39   0.0000       0.192661         5.2426

MULLIKEN ATOMIC CHARGES
-----------------------
   0 C :   -0.232648
   1 O :   -0.314830
   2 C :    0.207803
   3 C :   -0.201843
   4 C :   -0.134270
   5 C :   -0.303599
   6 C :    0.219584
   7 C :   -0.435146
   8 O :   -0.316421
   9 H :    0.137870
  10 H :    0.137082
  11 H :    0.109220
  12 H :    0.084755
  13 H :    0.122170
  14 H :    0.121390
  15 H :    0.125524
  16 H :    0.124638
  17 H :    0.151055
  18 H :    0.125855
  19 H :    0.139789
  20 H :    0.132021
Sum of atomic charges:    0.0000000

LOEWDIN ATOMIC CHARGES
----------------------
   0 C :   -0.354182
   1 O :    0.151077
   2 C :   -0.386550
   3 C :   -0.211741
   4 C :   -0.190943
   5 C :   -0.187580
   6 C :   -0.327352
   7 C :   -0.266703
   8 O :    0.224074
   9 H :    0.106727
  10 H :    0.112248
  11 H :    0.102697
  12 H :    0.127190
  13 H :    0.143856
  14 H :    0.146736
  15 H :    0.144095
  16 H :    0.134753
  17 H :    0.140548
  18 H :    0.131229
  19 H :    0.130843
  20 H :    0.128977

  Mayer bond orders larger than 0.1
B(  0-C ,  1-O ) :   0.8933 B(  0-C ,  9-H ) :   0.9357 B(  0-C , 10-H ) :   0.9385
B(  0-C , 11-H ) :   0.9344 B(  1-O ,  2-C ) :   0.9945 B(  2-C ,  3-C ) :   0.9431
B(  2-C ,  8-O ) :   0.9660 B(  2-C , 12-H ) :   0.9210 B(  3-C ,  4-C ) :   0.9647
B(  3-C , 13-H ) :   0.9229 B(  3-C , 14-H ) :   0.9172 B(  4-C ,  5-C ) :   0.8615
B(  4-C ,  6-C ) :   0.8608 B(  4-C , 15-H ) :   0.9222 B(  5-C ,  6-C ) :   0.8894
B(  5-C , 16-H ) :   0.9209 B(  5-C , 17-H ) :   0.9015 B(  6-C ,  7-C ) :   0.9069
B(  6-C ,  8-O ) :   0.9399 B(  7-C , 18-H ) :   0.9369 B(  7-C , 19-H ) :   0.9426
B(  7-C , 20-H ) :   0.9370

MP2 TOTAL ENERGY:     -423.514849189 Eh
FINAL SINGLE POINT ENERGY      -423.514849189285

DIPOLE MOMENT
-------------
                                X             Y             Z
Electronic contribution:     -1.74415      -0.30670      -0.54178
Nuclear contribution   :      1.71644       0.16074       0.73338
                        -----------------------------------------
Total Dipole Moment    :     -0.02771      -0.14596       0.19160
                        -----------------------------------------
Magnitude (a.u.)       :      0.24245
Magnitude (Debye)      :      0.61625

                             ****ORCA TERMINATED NORMALLY****
TOTAL RUN TIME: 0 days 0 hours 29 minutes 27 seconds 658 msec
