                         Program Version 3.0.3 - RELEASE   -
|  1> ! RI-MP2 RIJK def2-TZVP def2-TZVP/C def2-TZVP/JK TIGHTSCF
|  2> % maxcore 2000
|  3> % mp2 density relaxed end
|  4> *xyz 0 1
|  5>  C       -0.1059787176     1.5183559421     0.0753512785
|  6>  C        0.0054813401     0.0035187681    -0.0139021241
|  7>  C       -1.2915492870    -0.7575135246    -0.1553447826
|  8>  C       -1.3770230052    -1.7874457990     0.6876130795
|  9>  C       -0.1647406768    -1.9162099154     1.5811005418
| 10>  C        0.7756710223    -0.8332691620     1.0486173141
| 11>  O        1.6768092443    -1.3341015214     0.0008778335
| 12>  C        1.0888401212    -0.5511053877    -0.9625182590
| 13>  O        1.4118028533    -0.4290073442    -2.0994722403
| 14>  H        0.8690292705     1.9804576275     0.2572947854
| 15>  H       -0.4960818420     1.9232465700    -0.8635268847
| 16>  H       -0.7859185453     1.8120934593     0.8808446950
| 17>  H       -2.0363844786    -0.4794430599    -0.8919011488
| 18>  H       -2.2129472356    -2.4759262773     0.7408342688
| 19>  H       -0.4141610405    -1.7557986516     2.6375320824
| 20>  H        0.3128060799    -2.9010763430     1.5146621651
| 21>  H        1.3550998769    -0.2972354109     1.8011893654
| 22> *
| 23>
| 24>                          ****END OF INPUT****

CARTESIAN COORDINATES (ANGSTROEM)
---------------------------------
  C     -0.105979    1.518356    0.075351
  C      0.005481    0.003519   -0.013902
  C     -1.291549   -0.757514   -0.155345
  C     -1.377023   -1.787446    0.687613
  C     -0.164741   -1.916210    1.581101
  C      0.775671   -0.833269    1.048617
  O      1.676809   -1.334102    0.000878
  C      1.088840   -0.551105   -0.962518
  O      1.411803   -0.429007   -2.099472
  H      0.869029    1.980458    0.257295
  H     -0.496082    1.923247   -0.863527
  H     -0.785919    1.812093    0.880845
  H     -2.036384   -0.479443   -0.891901
  H     -2.212947   -2.475926    0.740834
  H     -0.414161   -1.755799    2.637532
  H      0.312806   -2.901076    1.514662
  H      1.355100   -0.297235    1.801189

 Total Charge           Charge          ....    0
 Multiplicity           Mult            ....    1
 Number of Electrons    NEL             ....   66
 Basis Dimension        Dim             ....  327

ORBITAL ENERGIES
----------------

  NO   OCC          E(Eh)            E(eV)
   0   2.0000     -20.597275      -560.4803
   1   2.0000     -20.549236      -559.1731
   2   2.0000     -11.377674      -309.6023
   3   2.0000     -11.309511      -307.7474
   4   2.0000     -11.272042      -306.7278
   5   2.0000     -11.252277      -306.1900
   6   2.0000     -11.249736      -306.1209
   7   2.0000     -11.248721      -306.0933
   8   2.0000     -11.241614      -305.8999
   9   2.0000      -1.459816       -39.7236
  10   2.0000      -1.376468       -37.4556
  11   2.0000      -1.157098       -31.4862
  12   2.0000      -1.049799       -28.5665
  13   2.0000      -0.985803       -26.8251
  14   2.0000      -0.927275       -25.2324
  15   2.0000      -0.853026       -23.2120
  16   2.0000      -0.784301       -21.3419
  17   2.0000      -0.717797       -19.5323
  18   2.0000      -0.712781       -19.3958
  19   2.0000      -0.683252       -18.5922
  20   2.0000      -0.666088       -18.1252
  21   2.0000      -0.622658       -16.9434
  22   2.0000      -0.594738       -16.1836
  23   2.0000      -0.588369       -16.0103
  24   2.0000      -0.578165       -15.7327
  25   2.0000      -0.556937       -15.1550
  26   2.0000      -0.544114       -14.8061
  27   2.0000      -0.530736       -14.4421
  28   2.0000      -0.511866       -13.9286
  29   2.0000      -0.472781       -12.8650
  30   2.0000      -0.457506       -12.4494
  31   2.0000      -0.442109       -12.0304
  32   2.0000      -0.370311       -10.0767
  33   0.0000       0.119769         3.2591
  34   0.0000       0.137987         3.7548
  35   0.0000       0.152701         4.1552
  36   0.0000       0.170072         4.6279
  37   0.0000       0.176784         4.8105

MULLIKEN ATOMIC CHARGES
-----------------------
   0 C :   -0.417222
   1 C :    0.114819
   2 C :   -0.196837
   3 C :   -0.201088
   4 C :   -0.157083
   5 C :    0.025981
   6 O :   -0.243638
   7 C :    0.229210
   8 O :   -0.261674
   9 H :    0.143720
  10 H :    0.150595
  11 H :    0.141829
  12 H :    0.143275
  13 H :    0.136138
  14 H :    0.125069
  15 H :    0.142558
  16 H :    0.124348
Sum of atomic charges:    0.0000000

LOEWDIN ATOMIC CHARGES
----------------------
   0 C :   -0.255230
   1 C :   -0.221035
   2 C :   -0.108956
   3 C :   -0.138596
   4 C :   -0.220949
   5 C :   -0.177667
   6 O :    0.251596
   7 C :   -0.415273
   8 O :    0.158304
   9 H :    0.132508
  10 H :    0.137459
  11 H :    0.131204
  12 H :    0.146890
  13 H :    0.140217
  14 H :    0.146244
  15 H :    0.153764
  16 H :    0.139521

  Mayer bond orders larger than 0.1
B(  0-C ,  1-C ) :   0.8950 B(  0-C ,  9-H ) :   0.9312 B(  0-C , 10-H ) :   0.9305
B(  0-C , 11-H ) :   0.9341 B(  1-C ,  2-C ) :   0.9018 B(  1-C ,  5-C ) :   0.9062
B(  1-C ,  7-C ) :   0.8774 B(  2-C ,  3-C ) :   1.7876 B(  2-C , 12-H ) :   0.9201
B(  3-C ,  4-C ) :   0.9545 B(  3-C , 13-H ) :   0.9241 B(  4-C ,  5-C ) :   0.9307
B(  4-C , 14-H ) :   0.9045 B(  4-C , 15-H ) :   0.9047 B(  5-C ,  6-O ) :   0.8977
B(  5-C , 16-H ) :   0.9219 B(  6-O ,  7-C ) :   1.0883 B(  7-C ,  8-O ) :   2.0642

MP2 TOTAL ENERGY:     -421.159955200 Eh
FINAL SINGLE POINT ENERGY      -421.159955200273

DIPOLE MOMENT
-------------
                                X             Y             Z
Electronic contribution:      4.18967      -2.63628      -4.35162
Nuclear contribution   :     -5.16341       2.91439       5.68804
                        -----------------------------------------
Total Dipole Moment    :     -0.97374       0.27811       1.33642
                        -----------------------------------------
Magnitude (a.u.)       :      1.67676
Magnitude (Debye)      :      4.26199

                             ****ORCA TERMINATED NORMALLY****
TOTAL RUN TIME: 0 days 0 hours 18 minutes 22 seconds 636 msec
