                         Program Version 3.0.3 - RELEASE   -
|  1> ! RI-MP2 RIJK def2-TZVP def2-TZVP/C def2-TZVP/JK TIGHTSCF
|  2> % maxcore 2000
|  3> % mp2 density relaxed end
|  4> *xyz 0 1
|  5>  C       -0.1809648077     1.5630380919     0.3821757307
|  6>  C       -0.0817357450     0.0616150762     0.6447884235
|  7>  N       -1.3226562332    -0.5963156159     0.2490463192
|  8>  C       -1.4295716061    -1.0578841415    -1.1308084661
|  9>  C       -1.3586225755    -2.0394582210    -0.0111365202
| 10>  C       -0.1709417491    -2.9667190487     0.1503895900
| 11>  C        0.0145699984    -3.4373941821     1.5899769723
| 12>  O        1.0864609070    -4.3535568312     1.6245302964
| 13>  C        1.3461463170    -4.8439326525     2.9169369431
| 14>  H        0.7246446234     2.0761219542     0.7201939789
| 15>  H       -0.3053757970     1.7644286175    -0.6869361004
| 16>  H       -1.0414974951     1.9871384577     0.9069698853
| 17>  H        0.8047789327    -0.3409633242     0.1275248689
| 18>  H        0.0645783077    -0.1171366109     1.7170510919
| 19>  H       -2.3675336114    -0.8524750548    -1.6406996333
| 20>  H       -0.5443878423    -0.9745642079    -1.7626671146
| 21>  H       -2.2983340033    -2.4871449242     0.3151225597
| 22>  H       -0.3254553970    -3.8502464180    -0.4810017926
| 23>  H        0.7558147152    -2.4994647424    -0.1949057018
| 24>  H        0.2187096222    -2.5815558692     2.2558831248
| 25>  H       -0.9119172935    -3.9132069747     1.9578063309
| 26>  H        2.1898134715    -5.5346457722     2.8431512150
| 27>  H        1.6099072773    -4.0348575685     3.6170294633
| 28>  H        0.4802179538    -5.3842047675     3.3323500252
| 29> *
| 30>
| 31>                          ****END OF INPUT****

CARTESIAN COORDINATES (ANGSTROEM)
---------------------------------
  C     -0.180965    1.563038    0.382176
  C     -0.081736    0.061615    0.644788
  N     -1.322656   -0.596316    0.249046
  C     -1.429572   -1.057884   -1.130808
  C     -1.358623   -2.039458   -0.011137
  C     -0.170942   -2.966719    0.150390
  C      0.014570   -3.437394    1.589977
  O      1.086461   -4.353557    1.624530
  C      1.346146   -4.843933    2.916937
  H      0.724645    2.076122    0.720194
  H     -0.305376    1.764429   -0.686936
  H     -1.041497    1.987138    0.906970
  H      0.804779   -0.340963    0.127525
  H      0.064578   -0.117137    1.717051
  H     -2.367534   -0.852475   -1.640700
  H     -0.544388   -0.974564   -1.762667
  H     -2.298334   -2.487145    0.315123
  H     -0.325455   -3.850246   -0.481002
  H      0.755815   -2.499465   -0.194906
  H      0.218710   -2.581556    2.255883
  H     -0.911917   -3.913207    1.957806
  H      2.189813   -5.534646    2.843151
  H      1.609907   -4.034858    3.617029
  H      0.480218   -5.384205    3.332350

 Total Charge           Charge          ....    0
 Multiplicity           Mult            ....    1
 Number of Electrons    NEL             ....   72
 Basis Dimension        Dim             ....  369

ORBITAL ENERGIES
----------------

  NO   OCC          E(Eh)            E(eV)
   0   2.0000     -20.555202      -559.3355
   1   2.0000     -15.551764      -423.1850
   2   2.0000     -11.274727      -306.8009
   3   2.0000     -11.270685      -306.6909
   4   2.0000     -11.256704      -306.3105
   5   2.0000     -11.248746      -306.0939
   6   2.0000     -11.247643      -306.0639
   7   2.0000     -11.224807      -305.4425
   8   2.0000     -11.209768      -305.0333
   9   2.0000      -1.376681       -37.4614
  10   2.0000      -1.267770       -34.4978
  11   2.0000      -1.052537       -28.6410
  12   2.0000      -1.023987       -27.8641
  13   2.0000      -0.930164       -25.3110
  14   2.0000      -0.895636       -24.3715
  15   2.0000      -0.847073       -23.0500
  16   2.0000      -0.813595       -22.1391
  17   2.0000      -0.764978       -20.8161
  18   2.0000      -0.683521       -18.5995
  19   2.0000      -0.662696       -18.0329
  20   2.0000      -0.660120       -17.9628
  21   2.0000      -0.636693       -17.3253
  22   2.0000      -0.615219       -16.7410
  23   2.0000      -0.606767       -16.5110
  24   2.0000      -0.580758       -15.8032
  25   2.0000      -0.553650       -15.0656
  26   2.0000      -0.526592       -14.3293
  27   2.0000      -0.521492       -14.1905
  28   2.0000      -0.507063       -13.7979
  29   2.0000      -0.502444       -13.6722
  30   2.0000      -0.495865       -13.4932
  31   2.0000      -0.480625       -13.0785
  32   2.0000      -0.444178       -12.0867
  33   2.0000      -0.434715       -11.8292
  34   2.0000      -0.423232       -11.5167
  35   2.0000      -0.363037        -9.8787
  36   0.0000       0.139362         3.7922
  37   0.0000       0.148619         4.0441
  38   0.0000       0.163579         4.4512
  39   0.0000       0.172358         4.6901
  40   0.0000       0.177252         4.8233

MULLIKEN ATOMIC CHARGES
-----------------------
   0 C :   -0.377659
   1 C :   -0.114557
   2 N :   -0.219406
   3 C :   -0.189528
   4 C :   -0.072238
   5 C :   -0.168715
   6 C :   -0.067495
   7 O :   -0.301799
   8 C :   -0.213505
   9 H :    0.125759
  10 H :    0.123025
  11 H :    0.131332
  12 H :    0.090496
  13 H :    0.108089
  14 H :    0.127132
  15 H :    0.116102
  16 H :    0.114016
  17 H :    0.127003
  18 H :    0.115156
  19 H :    0.096226
  20 H :    0.090999
  21 H :    0.138659
  22 H :    0.110062
  23 H :    0.110847
Sum of atomic charges:   -0.0000000

LOEWDIN ATOMIC CHARGES
----------------------
   0 C :   -0.315753
   1 C :   -0.323812
   2 N :    0.107645
   3 C :   -0.248009
   4 C :   -0.256826
   5 C :   -0.254816
   6 C :   -0.327344
   7 O :    0.133914
   8 C :   -0.363044
   9 H :    0.121111
  10 H :    0.120820
  11 H :    0.123771
  12 H :    0.119377
  13 H :    0.129040
  14 H :    0.122829
  15 H :    0.125056
  16 H :    0.143429
  17 H :    0.148829
  18 H :    0.141442
  19 H :    0.118357
  20 H :    0.119118
  21 H :    0.113174
  22 H :    0.100755
  23 H :    0.100936

  Mayer bond orders larger than 0.1
B(  0-C ,  1-C ) :   0.9346 B(  0-C ,  9-H ) :   0.9391 B(  0-C , 10-H ) :   0.9364
B(  0-C , 11-H ) :   0.9377 B(  1-C ,  2-N ) :   0.8840 B(  1-C , 12-H ) :   0.9225
B(  1-C , 13-H ) :   0.9266 B(  2-N ,  3-C ) :   0.8953 B(  2-N ,  4-C ) :   0.9117
B(  3-C ,  4-C ) :   0.9343 B(  3-C , 14-H ) :   0.9199 B(  3-C , 15-H ) :   0.9180
B(  4-C ,  5-C ) :   0.9052 B(  4-C , 16-H ) :   0.9185 B(  5-C ,  6-C ) :   0.9337
B(  5-C , 17-H ) :   0.9187 B(  5-C , 18-H ) :   0.9325 B(  6-C ,  7-O ) :   0.9565
B(  6-C , 19-H ) :   0.9271 B(  6-C , 20-H ) :   0.9226 B(  7-O ,  8-C ) :   0.9203
B(  8-C , 21-H ) :   0.9395 B(  8-C , 22-H ) :   0.9367 B(  8-C , 23-H ) :   0.9372

MP2 TOTAL ENERGY:     -404.810806190 Eh
FINAL SINGLE POINT ENERGY      -404.810806189515

DIPOLE MOMENT
-------------
                                X             Y             Z
Electronic contribution:     -1.61722      -3.07145      -1.47692
Nuclear contribution   :      1.78833       2.95729       1.64819
                        -----------------------------------------
Total Dipole Moment    :      0.17111      -0.11417       0.17127
                        -----------------------------------------
Magnitude (a.u.)       :      0.26767
Magnitude (Debye)      :      0.68036

                             ****ORCA TERMINATED NORMALLY****
TOTAL RUN TIME: 0 days 0 hours 17 minutes 14 seconds 445 msec
