                         Program Version 3.0.3 - RELEASE   -
|  1> ! RI-MP2 RIJK def2-TZVP def2-TZVP/C def2-TZVP/JK TIGHTSCF
|  2> % maxcore 2000
|  3> % mp2 density relaxed end
|  4> *xyz 0 1
|  5>  C       -0.0356502929     1.5784527708    -0.0945645157
|  6>  C        0.0624589299     0.0541552046     0.0257484158
|  7>  C        0.6868888546    -0.4527639103     1.3398653486
|  8>  C       -0.1767438458    -0.1236145782     2.5655586047
|  9>  C        0.9457101809    -1.9607190826     1.2579203570
| 10>  C        2.0392317216    -2.5117743792     0.2727505764
| 11>  C        2.7024249624    -3.2447688752     1.4453725891
| 12>  C        3.1164177797    -2.2604476952     2.5004796691
| 13>  C        1.6697163045    -2.6695731845     2.4166522330
| 14>  H        0.9496228836     2.0468060060     0.0114359978
| 15>  H       -0.4367578994     1.8695581710    -1.0706636461
| 16>  H       -0.6903595479     2.0094168593     0.6691798534
| 17>  H       -0.9379308100    -0.3878284179    -0.0850049630
| 18>  H        0.6548521668    -0.3278893184    -0.8152943826
| 19>  H        1.6558383201     0.0533526815     1.4628892939
| 20>  H       -1.1674016420    -0.5877411814     2.4816343931
| 21>  H        0.2893110507    -0.4958794301     3.4831559513
| 22>  H       -0.3237942438     0.9536664339     2.6848334481
| 23>  H       -0.0057542527    -2.4681611133     1.0576145404
| 24>  H        1.6249619101    -3.1767431848    -0.4880219230
| 25>  H        2.6652486387    -1.7629398900    -0.2263630572
| 26>  H        3.1107668945    -4.2472383426     1.4072219858
| 27>  H        3.6595752746    -2.6792982380     3.3418596414
| 28>  H        3.4376250970    -1.2586047646     2.2249524448
| 29>  H        1.1788777951    -3.1601110811     3.2490842937
| 30> *
| 31>
| 32>                          ****END OF INPUT****

CARTESIAN COORDINATES (ANGSTROEM)
---------------------------------
  C     -0.035650    1.578453   -0.094565
  C      0.062459    0.054155    0.025748
  C      0.686889   -0.452764    1.339865
  C     -0.176744   -0.123615    2.565559
  C      0.945710   -1.960719    1.257920
  C      2.039232   -2.511774    0.272751
  C      2.702425   -3.244769    1.445373
  C      3.116418   -2.260448    2.500480
  C      1.669716   -2.669573    2.416652
  H      0.949623    2.046806    0.011436
  H     -0.436758    1.869558   -1.070664
  H     -0.690360    2.009417    0.669180
  H     -0.937931   -0.387828   -0.085005
  H      0.654852   -0.327889   -0.815294
  H      1.655838    0.053353    1.462889
  H     -1.167402   -0.587741    2.481634
  H      0.289311   -0.495879    3.483156
  H     -0.323794    0.953666    2.684833
  H     -0.005754   -2.468161    1.057615
  H      1.624962   -3.176743   -0.488022
  H      2.665249   -1.762940   -0.226363
  H      3.110767   -4.247238    1.407222
  H      3.659575   -2.679298    3.341860
  H      3.437625   -1.258605    2.224952
  H      1.178878   -3.160111    3.249084

 Total Charge           Charge          ....    0
 Multiplicity           Mult            ....    1
 Number of Electrons    NEL             ....   70
 Basis Dimension        Dim             ....  375

ORBITAL ENERGIES
----------------

  NO   OCC          E(Eh)            E(eV)
   0   2.0000     -11.225511      -305.4617
   1   2.0000     -11.224188      -305.4257
   2   2.0000     -11.223446      -305.4055
   3   2.0000     -11.221089      -305.3414
   4   2.0000     -11.218746      -305.2776
   5   2.0000     -11.217538      -305.2447
   6   2.0000     -11.213709      -305.1405
   7   2.0000     -11.208953      -305.0111
   8   2.0000     -11.206011      -304.9311
   9   2.0000      -1.183379       -32.2014
  10   2.0000      -1.078520       -29.3480
  11   2.0000      -0.989451       -26.9243
  12   2.0000      -0.962169       -26.1820
  13   2.0000      -0.888361       -24.1735
  14   2.0000      -0.859298       -23.3827
  15   2.0000      -0.797505       -21.7012
  16   2.0000      -0.761920       -20.7329
  17   2.0000      -0.716313       -19.4919
  18   2.0000      -0.685681       -18.6583
  19   2.0000      -0.622627       -16.9425
  20   2.0000      -0.609796       -16.5934
  21   2.0000      -0.602479       -16.3943
  22   2.0000      -0.569240       -15.4898
  23   2.0000      -0.557922       -15.1818
  24   2.0000      -0.532226       -14.4826
  25   2.0000      -0.527553       -14.3555
  26   2.0000      -0.521968       -14.2035
  27   2.0000      -0.502699       -13.6791
  28   2.0000      -0.490172       -13.3383
  29   2.0000      -0.469710       -12.7815
  30   2.0000      -0.455658       -12.3991
  31   2.0000      -0.438845       -11.9416
  32   2.0000      -0.429416       -11.6850
  33   2.0000      -0.400479       -10.8976
  34   2.0000      -0.367763       -10.0073
  35   0.0000       0.138767         3.7760
  36   0.0000       0.150996         4.1088
  37   0.0000       0.157547         4.2871
  38   0.0000       0.167614         4.5610
  39   0.0000       0.180896         4.9224

MULLIKEN ATOMIC CHARGES
-----------------------
   0 C :   -0.406446
   1 C :   -0.186528
   2 C :   -0.062361
   3 C :   -0.435144
   4 C :   -0.048262
   5 C :   -0.248855
   6 C :   -0.103849
   7 C :   -0.276239
   8 C :   -0.130025
   9 H :    0.122162
  10 H :    0.133964
  11 H :    0.126887
  12 H :    0.103634
  13 H :    0.113664
  14 H :    0.066250
  15 H :    0.120116
  16 H :    0.140817
  17 H :    0.133995
  18 H :    0.093708
  19 H :    0.122068
  20 H :    0.109835
  21 H :    0.126097
  22 H :    0.127524
  23 H :    0.128837
  24 H :    0.128150
Sum of atomic charges:    0.0000000

LOEWDIN ATOMIC CHARGES
----------------------
   0 C :   -0.320064
   1 C :   -0.270337
   2 C :   -0.270168
   3 C :   -0.288836
   4 C :   -0.190624
   5 C :   -0.197138
   6 C :   -0.186196
   7 C :   -0.212532
   8 C :   -0.169805
   9 H :    0.120493
  10 H :    0.120632
  11 H :    0.118623
  12 H :    0.136439
  13 H :    0.139062
  14 H :    0.150859
  15 H :    0.123655
  16 H :    0.126296
  17 H :    0.121078
  18 H :    0.154577
  19 H :    0.132823
  20 H :    0.128887
  21 H :    0.132203
  22 H :    0.138571
  23 H :    0.128544
  24 H :    0.132959

  Mayer bond orders larger than 0.1
B(  0-C ,  1-C ) :   0.9157 B(  0-C ,  9-H ) :   0.9384 B(  0-C , 10-H ) :   0.9429
B(  0-C , 11-H ) :   0.9427 B(  1-C ,  2-C ) :   0.9177 B(  1-C , 12-H ) :   0.9252
B(  1-C , 13-H ) :   0.9371 B(  2-C ,  3-C ) :   0.9109 B(  2-C ,  4-C ) :   0.9169
B(  2-C , 14-H ) :   0.9163 B(  3-C , 15-H ) :   0.9316 B(  3-C , 16-H ) :   0.9406
B(  3-C , 17-H ) :   0.9425 B(  4-C ,  5-C ) :   0.9586 B(  4-C ,  8-C ) :   0.9235
B(  4-C , 18-H ) :   0.9186 B(  5-C ,  6-C ) :   0.9441 B(  5-C , 19-H ) :   0.9295
B(  5-C , 20-H ) :   0.9162 B(  6-C ,  7-C ) :   0.8884 B(  6-C ,  8-C ) :   0.8431
B(  6-C , 21-H ) :   0.9301 B(  7-C ,  8-C ) :   0.8779 B(  7-C , 22-H ) :   0.9312
B(  7-C , 23-H ) :   0.9239 B(  8-C , 24-H ) :   0.9271

MP2 TOTAL ENERGY:     -351.684771274 Eh
FINAL SINGLE POINT ENERGY      -351.684771273714

DIPOLE MOMENT
-------------
                                X             Y             Z
Electronic contribution:      3.16288      -5.78836       1.18308
Nuclear contribution   :     -3.19159       5.70376      -1.19553
                        -----------------------------------------
Total Dipole Moment    :     -0.02871      -0.08461      -0.01245
                        -----------------------------------------
Magnitude (a.u.)       :      0.09021
Magnitude (Debye)      :      0.22929

                             ****ORCA TERMINATED NORMALLY****
TOTAL RUN TIME: 0 days 0 hours 21 minutes 15 seconds 853 msec
