                         Program Version 3.0.3 - RELEASE   -
|  1> ! RI-MP2 RIJK def2-TZVP def2-TZVP/C def2-TZVP/JK TIGHTSCF
|  2> % maxcore 2000
|  3> % mp2 density relaxed end
|  4> *xyz 0 1
|  5>  C        1.3542599830     0.7043888964    -0.6939616682
|  6>  C        0.0842689140     0.4402818159     0.1399139186
|  7>  C       -0.9816536512    -0.3094222194    -0.6841301784
|  8>  C        0.4038858624    -0.2770911025     1.3747600719
|  9>  C        0.6638810833    -0.8869748235     2.3829780451
| 10>  C        0.9855803780    -1.5558506506     3.6149326715
| 11>  C        0.8455563404    -3.0466547050     3.7300440500
| 12>  N        2.1629776705    -2.4379190857     3.7472950346
| 13>  C        3.0011772978    -2.6435570256     2.5736608310
| 14>  H        1.8097117974    -0.2390581917    -1.0107963050
| 15>  H        1.1061080585     1.2829055817    -1.5895984397
| 16>  H        2.0961346647     1.2611466122    -0.1157595911
| 17>  H       -0.3368818223     1.4153667222     0.4231863972
| 18>  H       -0.6062521364    -1.2878031311    -1.0001061218
| 19>  H       -1.8909041897    -0.4689078552    -0.0987901662
| 20>  H       -1.2418508444     0.2637295951    -1.5799164285
| 21>  H        0.8053860162    -0.9632393302     4.5095525121
| 22>  H        0.5061762680    -3.4877628408     4.6638328555
| 23>  H        0.5331681266    -3.5719062845     2.8287837492
| 24>  H        2.4420938065    -2.6773703111     1.6269500218
| 25>  H        3.7342345867    -1.8337884877     2.5090449087
| 26>  H        3.5412729299    -3.5874326789     2.6969530018
| 27> *
| 28>
| 29>                          ****END OF INPUT****

CARTESIAN COORDINATES (ANGSTROEM)
---------------------------------
  C      1.354260    0.704389   -0.693962
  C      0.084269    0.440282    0.139914
  C     -0.981654   -0.309422   -0.684130
  C      0.403886   -0.277091    1.374760
  C      0.663881   -0.886975    2.382978
  C      0.985580   -1.555851    3.614933
  C      0.845556   -3.046655    3.730044
  N      2.162978   -2.437919    3.747295
  C      3.001177   -2.643557    2.573661
  H      1.809712   -0.239058   -1.010796
  H      1.106108    1.282906   -1.589598
  H      2.096135    1.261147   -0.115760
  H     -0.336882    1.415367    0.423186
  H     -0.606252   -1.287803   -1.000106
  H     -1.890904   -0.468908   -0.098790
  H     -1.241851    0.263730   -1.579916
  H      0.805386   -0.963239    4.509553
  H      0.506176   -3.487763    4.663833
  H      0.533168   -3.571906    2.828784
  H      2.442094   -2.677370    1.626950
  H      3.734235   -1.833788    2.509045
  H      3.541273   -3.587433    2.696953

 Total Charge           Charge          ....    0
 Multiplicity           Mult            ....    1
 Number of Electrons    NEL             ....   68
 Basis Dimension        Dim             ....  357

ORBITAL ENERGIES
----------------

  NO   OCC          E(Eh)            E(eV)
   0   2.0000     -15.563719      -423.5103
   1   2.0000     -11.276865      -306.8591
   2   2.0000     -11.258005      -306.3459
   3   2.0000     -11.256317      -306.3000
   4   2.0000     -11.242230      -305.9166
   5   2.0000     -11.222812      -305.3882
   6   2.0000     -11.222587      -305.3821
   7   2.0000     -11.222251      -305.3730
   8   2.0000     -11.218665      -305.2754
   9   2.0000      -1.276077       -34.7238
  10   2.0000      -1.098693       -29.8970
  11   2.0000      -1.021943       -27.8085
  12   2.0000      -0.984439       -26.7879
  13   2.0000      -0.936869       -25.4935
  14   2.0000      -0.878318       -23.9002
  15   2.0000      -0.831355       -22.6223
  16   2.0000      -0.816403       -22.2154
  17   2.0000      -0.699317       -19.0294
  18   2.0000      -0.666489       -18.1361
  19   2.0000      -0.650056       -17.6889
  20   2.0000      -0.615295       -16.7430
  21   2.0000      -0.593338       -16.1455
  22   2.0000      -0.573279       -15.5997
  23   2.0000      -0.562189       -15.2979
  24   2.0000      -0.551878       -15.0174
  25   2.0000      -0.543439       -14.7877
  26   2.0000      -0.520647       -14.1675
  27   2.0000      -0.498814       -13.5734
  28   2.0000      -0.497138       -13.5278
  29   2.0000      -0.482489       -13.1292
  30   2.0000      -0.464173       -12.6308
  31   2.0000      -0.406755       -11.0684
  32   2.0000      -0.369516       -10.0550
  33   2.0000      -0.340023        -9.2525
  34   0.0000       0.126134         3.4323
  35   0.0000       0.155369         4.2278
  36   0.0000       0.167634         4.5615
  37   0.0000       0.170789         4.6474
  38   0.0000       0.179595         4.8870

MULLIKEN ATOMIC CHARGES
-----------------------
   0 C :   -0.376299
   1 C :   -0.142977
   2 C :   -0.374258
   3 C :   -0.002024
   4 C :    0.050741
   5 C :   -0.222591
   6 C :   -0.127627
   7 N :   -0.191970
   8 C :   -0.293115
   9 H :    0.125063
  10 H :    0.131429
  11 H :    0.138481
  12 H :    0.114008
  13 H :    0.124553
  14 H :    0.137957
  15 H :    0.131256
  16 H :    0.135795
  17 H :    0.128516
  18 H :    0.119976
  19 H :    0.117596
  20 H :    0.135901
  21 H :    0.139590
Sum of atomic charges:    0.0000000

LOEWDIN ATOMIC CHARGES
----------------------
   0 C :   -0.277000
   1 C :   -0.294905
   2 C :   -0.277007
   3 C :   -0.046407
   4 C :   -0.069615
   5 C :   -0.245202
   6 C :   -0.232189
   7 N :    0.094494
   8 C :   -0.326397
   9 H :    0.125300
  10 H :    0.123045
  11 H :    0.126473
  12 H :    0.167039
  13 H :    0.125405
  14 H :    0.126338
  15 H :    0.122901
  16 H :    0.156581
  17 H :    0.124927
  18 H :    0.127508
  19 H :    0.110157
  20 H :    0.119843
  21 H :    0.118711

  Mayer bond orders larger than 0.1
B(  0-C ,  1-C ) :   0.9289 B(  0-C ,  9-H ) :   0.9293 B(  0-C , 10-H ) :   0.9389
B(  0-C , 11-H ) :   0.9368 B(  1-C ,  2-C ) :   0.9338 B(  1-C ,  3-C ) :   1.0586
B(  1-C ,  4-C ) :  -0.1136 B(  1-C , 12-H ) :   0.9357 B(  2-C , 13-H ) :   0.9291
B(  2-C , 14-H ) :   0.9368 B(  2-C , 15-H ) :   0.9393 B(  3-C ,  4-C ) :   2.5327
B(  4-C ,  5-C ) :   1.0656 B(  5-C ,  6-C ) :   0.9210 B(  5-C ,  7-N ) :   0.9529
B(  5-C , 16-H ) :   0.9267 B(  6-C ,  7-N ) :   0.8870 B(  6-C , 17-H ) :   0.9230
B(  6-C , 18-H ) :   0.9162 B(  7-N ,  8-C ) :   0.8880 B(  8-C , 19-H ) :   0.9278
B(  8-C , 20-H ) :   0.9388 B(  8-C , 21-H ) :   0.9363

MP2 TOTAL ENERGY:     -366.485538336 Eh
FINAL SINGLE POINT ENERGY      -366.485538336017

DIPOLE MOMENT
-------------
                                X             Y             Z
Electronic contribution:     -0.18527      -0.70598       7.77450
Nuclear contribution   :     -0.07294       0.73157      -8.35197
                        -----------------------------------------
Total Dipole Moment    :     -0.25821       0.02559      -0.57747
                        -----------------------------------------
Magnitude (a.u.)       :      0.63308
Magnitude (Debye)      :      1.60917

                             ****ORCA TERMINATED NORMALLY****
TOTAL RUN TIME: 0 days 0 hours 19 minutes 30 seconds 822 msec
