                         Program Version 3.0.3 - RELEASE   -
|  1> ! RI-MP2 RIJK def2-TZVP def2-TZVP/C def2-TZVP/JK TIGHTSCF
|  2> % maxcore 2000
|  3> % mp2 density relaxed end
|  4> *xyz 0 1
|  5>  C        0.0245218377     1.4900138790    -0.0365712621
|  6>  N       -0.0297208163     0.0372892627     0.0388338132
|  7>  C       -1.3890280378    -0.5278402490     0.0978944494
|  8>  C       -1.2193124116    -1.8033081733     0.9076337032
|  9>  C        0.1911496592    -2.0096970636     1.2240882865
| 10>  C        0.6921945333    -0.5564498468     1.1673132885
| 11>  C       -0.1113529330    -0.3896533908     2.4790414076
| 12>  O       -0.1843134066     0.4060478650     3.3632995266
| 13>  N       -0.7948273386    -1.6720689725     2.3581968606
| 14>  H        1.0679038464     1.8129332954    -0.1045783180
| 15>  H       -0.4896537575     1.8223072912    -0.9436091477
| 16>  H       -0.4378557221     1.9941926478     0.8285791593
| 17>  H       -2.1107563202     0.1487536905     0.5837211508
| 18>  H       -1.7634543319    -0.7482678754    -0.9089650108
| 19>  H       -1.9047166527    -2.6302177515     0.7635387669
| 20>  H        0.7610411891    -2.9273676658     1.2343689537
| 21>  H        1.7549829627    -0.3153146030     1.1632720622
| 22> *
| 23>
| 24>                          ****END OF INPUT****

CARTESIAN COORDINATES (ANGSTROEM)
---------------------------------
  C      0.024522    1.490014   -0.036571
  N     -0.029721    0.037289    0.038834
  C     -1.389028   -0.527840    0.097894
  C     -1.219312   -1.803308    0.907634
  C      0.191150   -2.009697    1.224088
  C      0.692195   -0.556450    1.167313
  C     -0.111353   -0.389653    2.479041
  O     -0.184313    0.406048    3.363300
  N     -0.794827   -1.672069    2.358197
  H      1.067904    1.812933   -0.104578
  H     -0.489654    1.822307   -0.943609
  H     -0.437856    1.994193    0.828579
  H     -2.110756    0.148754    0.583721
  H     -1.763454   -0.748268   -0.908965
  H     -1.904717   -2.630218    0.763539
  H      0.761041   -2.927368    1.234369
  H      1.754983   -0.315315    1.163272

 Total Charge           Charge          ....    0
 Multiplicity           Mult            ....    1
 Number of Electrons    NEL             ....   66
 Basis Dimension        Dim             ....  327

ORBITAL ENERGIES
----------------

  NO   OCC          E(Eh)            E(eV)
   0   2.0000     -20.554707      -559.3220
   1   2.0000     -15.587693      -424.1627
   2   2.0000     -15.574459      -423.8026
   3   2.0000     -11.357315      -309.0482
   4   2.0000     -11.296119      -307.3830
   5   2.0000     -11.292336      -307.2801
   6   2.0000     -11.289094      -307.1919
   7   2.0000     -11.276551      -306.8506
   8   2.0000     -11.257404      -306.3295
   9   2.0000      -1.412782       -38.4438
  10   2.0000      -1.332233       -36.2519
  11   2.0000      -1.229344       -33.4522
  12   2.0000      -1.032354       -28.0918
  13   2.0000      -0.992837       -27.0165
  14   2.0000      -0.928069       -25.2540
  15   2.0000      -0.852269       -23.1914
  16   2.0000      -0.812957       -22.1217
  17   2.0000      -0.735535       -20.0149
  18   2.0000      -0.705220       -19.1900
  19   2.0000      -0.686058       -18.6686
  20   2.0000      -0.652422       -17.7533
  21   2.0000      -0.633361       -17.2346
  22   2.0000      -0.604370       -16.4457
  23   2.0000      -0.594123       -16.1669
  24   2.0000      -0.566225       -15.4078
  25   2.0000      -0.556602       -15.1459
  26   2.0000      -0.544090       -14.8055
  27   2.0000      -0.513178       -13.9643
  28   2.0000      -0.503740       -13.7075
  29   2.0000      -0.449949       -12.2437
  30   2.0000      -0.443453       -12.0670
  31   2.0000      -0.424484       -11.5508
  32   2.0000      -0.358446        -9.7538
  33   0.0000       0.132646         3.6095
  34   0.0000       0.148255         4.0342
  35   0.0000       0.159613         4.3433
  36   0.0000       0.160724         4.3735
  37   0.0000       0.186351         5.0709

MULLIKEN ATOMIC CHARGES
-----------------------
   0 C :   -0.337009
   1 N :   -0.139716
   2 C :   -0.169855
   3 C :   -0.090459
   4 C :   -0.064065
   5 C :   -0.061785
   6 C :    0.139698
   7 O :   -0.234319
   8 N :   -0.179684
   9 H :    0.137616
  10 H :    0.141774
  11 H :    0.133823
  12 H :    0.124634
  13 H :    0.134444
  14 H :    0.149508
  15 H :    0.165598
  16 H :    0.149796
Sum of atomic charges:   -0.0000000

LOEWDIN ATOMIC CHARGES
----------------------
   0 C :   -0.321374
   1 N :    0.095263
   2 C :   -0.245331
   3 C :   -0.202593
   4 C :   -0.140921
   5 C :   -0.211266
   6 C :   -0.374462
   7 O :    0.170357
   8 N :    0.162397
   9 H :    0.121590
  10 H :    0.121051
  11 H :    0.110840
  12 H :    0.135158
  13 H :    0.139019
  14 H :    0.151266
  15 H :    0.139756
  16 H :    0.149252

  Mayer bond orders larger than 0.1
B(  0-C ,  1-N ) :   0.8959 B(  0-C ,  9-H ) :   0.9373 B(  0-C , 10-H ) :   0.9342
B(  0-C , 11-H ) :   0.9236 B(  1-N ,  2-C ) :   0.9609 B(  1-N ,  5-C ) :   0.9575
B(  2-C ,  3-C ) :   0.9315 B(  2-C , 12-H ) :   0.9198 B(  2-C , 13-H ) :   0.9099
B(  3-C ,  4-C ) :   0.9500 B(  3-C ,  8-N ) :   0.8761 B(  3-C , 14-H ) :   0.9252
B(  4-C ,  5-C ) :   0.8724 B(  4-C ,  8-N ) :   0.8190 B(  4-C , 15-H ) :   0.8958
B(  5-C ,  6-C ) :   0.9011 B(  5-C , 16-H ) :   0.9004 B(  6-C ,  7-O ) :   2.0603
B(  6-C ,  8-N ) :   0.9958

MP2 TOTAL ENERGY:     -417.269803036 Eh
FINAL SINGLE POINT ENERGY      -417.269803036079

DIPOLE MOMENT
-------------
                                X             Y             Z
Electronic contribution:      0.69740      -3.29899       5.81939
Nuclear contribution   :     -0.54604       3.01938      -7.19863
                        -----------------------------------------
Total Dipole Moment    :      0.15136      -0.27961      -1.37923
                        -----------------------------------------
Magnitude (a.u.)       :      1.41541
Magnitude (Debye)      :      3.59767

                             ****ORCA TERMINATED NORMALLY****
TOTAL RUN TIME: 0 days 0 hours 18 minutes 48 seconds 438 msec
