                         Program Version 3.0.3 - RELEASE   -
|  1> ! RI-MP2 RIJK def2-TZVP def2-TZVP/C def2-TZVP/JK TIGHTSCF
|  2> % maxcore 2000
|  3> % mp2 density relaxed end
|  4> *xyz 0 1
|  5>  N        0.0931878289     1.3795706663     0.0209421651
|  6>  C        0.0812213560     0.1128358264     0.0769886310
|  7>  C        1.1952942791    -0.9769827942    -0.0205193137
|  8>  N        0.5997257072    -2.2782733759     0.3866213120
|  9>  C       -0.6315098323    -1.9816762855     0.5067662933
| 10>  C       -2.0012716772    -2.3925766330     1.0320825015
| 11>  C       -2.3572704550    -0.8602816175     0.9033958022
| 12>  N       -1.0394627467    -0.6878519487     0.2534286252
| 13>  H        1.0446780253     1.7227283461    -0.1075961264
| 14>  H        1.5752171866    -1.0337317601    -1.0476776966
| 15>  H        2.0414236757    -0.7299624164     0.6288958781
| 16>  H       -2.5724746135    -3.0451734897     0.3696680141
| 17>  H       -2.0065371361    -2.8015959834     2.0429205854
| 18>  H       -3.2033289346    -0.6080983449     0.2615739487
| 19>  H       -2.4420273434    -0.3341555494     1.8579889003
| 20> *
| 21>
| 22>                          ****END OF INPUT****

CARTESIAN COORDINATES (ANGSTROEM)
---------------------------------
  N      0.093188    1.379571    0.020942
  C      0.081221    0.112836    0.076989
  C      1.195294   -0.976983   -0.020519
  N      0.599726   -2.278273    0.386621
  C     -0.631510   -1.981676    0.506766
  C     -2.001272   -2.392577    1.032083
  C     -2.357270   -0.860282    0.903396
  N     -1.039463   -0.687852    0.253429
  H      1.044678    1.722728   -0.107596
  H      1.575217   -1.033732   -1.047678
  H      2.041424   -0.729962    0.628896
  H     -2.572475   -3.045173    0.369668
  H     -2.006537   -2.801596    2.042921
  H     -3.203329   -0.608098    0.261574
  H     -2.442027   -0.334156    1.857989

 Total Charge           Charge          ....    0
 Multiplicity           Mult            ....    1
 Number of Electrons    NEL             ....   58
 Basis Dimension        Dim             ....  290

ORBITAL ENERGIES
----------------

  NO   OCC          E(Eh)            E(eV)
   0   2.0000     -15.591175      -424.2574
   1   2.0000     -15.546791      -423.0497
   2   2.0000     -15.533660      -422.6924
   3   2.0000     -11.326308      -308.2045
   4   2.0000     -11.318177      -307.9833
   5   2.0000     -11.299306      -307.4698
   6   2.0000     -11.272600      -306.7430
   7   2.0000     -11.269724      -306.6648
   8   2.0000      -1.356310       -36.9071
   9   2.0000      -1.205561       -32.8050
  10   2.0000      -1.191559       -32.4240
  11   2.0000      -1.049965       -28.5710
  12   2.0000      -0.946624       -25.7590
  13   2.0000      -0.902927       -24.5699
  14   2.0000      -0.823032       -22.3958
  15   2.0000      -0.714524       -19.4432
  16   2.0000      -0.693855       -18.8807
  17   2.0000      -0.685601       -18.6562
  18   2.0000      -0.628164       -17.0932
  19   2.0000      -0.620480       -16.8841
  20   2.0000      -0.572375       -15.5751
  21   2.0000      -0.562413       -15.3040
  22   2.0000      -0.552378       -15.0310
  23   2.0000      -0.515788       -14.0353
  24   2.0000      -0.508641       -13.8408
  25   2.0000      -0.464781       -12.6473
  26   2.0000      -0.444851       -12.1050
  27   2.0000      -0.400037       -10.8856
  28   2.0000      -0.342309        -9.3147
  29   0.0000       0.128455         3.4954
  30   0.0000       0.138079         3.7573
  31   0.0000       0.143760         3.9119
  32   0.0000       0.160746         4.3741
  33   0.0000       0.182019         4.9530

MULLIKEN ATOMIC CHARGES
-----------------------
   0 N :   -0.362192
   1 C :    0.021567
   2 C :   -0.093380
   3 N :   -0.248107
   4 C :    0.042079
   5 C :   -0.196544
   6 C :   -0.135419
   7 N :   -0.085525
   8 H :    0.220410
   9 H :    0.138413
  10 H :    0.138731
  11 H :    0.148237
  12 H :    0.145922
  13 H :    0.134251
  14 H :    0.131558
Sum of atomic charges:    0.0000000

LOEWDIN ATOMIC CHARGES
----------------------
   0 N :   -0.072893
   1 C :   -0.340538
   2 C :   -0.230630
   3 N :    0.071985
   4 C :   -0.306584
   5 C :   -0.180670
   6 C :   -0.187863
   7 N :    0.247579
   8 H :    0.167161
   9 H :    0.144141
  10 H :    0.141536
  11 H :    0.144420
  12 H :    0.142705
  13 H :    0.128126
  14 H :    0.131523

  Mayer bond orders larger than 0.1
B(  0-N ,  1-C ) :   1.9910 B(  0-N ,  8-H ) :   0.8573 B(  1-C ,  2-C ) :   0.9152
B(  1-C ,  7-N ) :   1.0312 B(  2-C ,  3-N ) :   0.9211 B(  2-C ,  9-H ) :   0.9005
B(  2-C , 10-H ) :   0.9107 B(  3-N ,  4-C ) :   1.8938 B(  4-C ,  5-C ) :   0.9216
B(  4-C ,  7-N ) :   1.0519 B(  5-C ,  6-C ) :   0.9519 B(  5-C , 11-H ) :   0.9137
B(  5-C , 12-H ) :   0.9157 B(  6-C ,  7-N ) :   0.8734 B(  6-C , 13-H ) :   0.9184
B(  6-C , 14-H ) :   0.9162

MP2 TOTAL ENERGY:     -358.206275165 Eh
FINAL SINGLE POINT ENERGY      -358.206275165112

DIPOLE MOMENT
-------------
                                X             Y             Z
Electronic contribution:      1.38952       0.05020      -0.91683
Nuclear contribution   :     -1.89905      -0.24133       1.14904
                        -----------------------------------------
Total Dipole Moment    :     -0.50953      -0.19113       0.23221
                        -----------------------------------------
Magnitude (a.u.)       :      0.59167
Magnitude (Debye)      :      1.50391

                             ****ORCA TERMINATED NORMALLY****
TOTAL RUN TIME: 0 days 0 hours 12 minutes 7 seconds 92 msec
