                         Program Version 3.0.3 - RELEASE   -
|  1> ! RI-MP2 RIJK def2-TZVP def2-TZVP/C def2-TZVP/JK TIGHTSCF
|  2> % maxcore 2000
|  3> % mp2 density relaxed end
|  4> *xyz 0 1
|  5>  C       -0.0296148801     1.3685416955    -0.1300499639
|  6>  O       -0.0424552316     0.0591008518     0.3947205554
|  7>  C       -1.2558032409    -0.6038476089     0.1909875194
|  8>  C       -1.6284392856    -1.2025991630    -1.2003896837
|  9>  N       -1.8476187078    -2.5658955893    -0.5888913767
| 10>  C       -0.5254815541    -2.9996539885    -0.0604605049
| 11>  C        0.7195847918    -2.7414296509    -0.7282166695
| 12>  C        1.7629949136    -2.6097422558    -1.3112609790
| 13>  C       -1.3183413886    -2.0196787239     0.7294198729
| 14>  H        0.9438603264     1.8029465378     0.1073169029
| 15>  H       -0.1634016778     1.3756714902    -1.2220793958
| 16>  H       -0.8184441067     1.9931329381     0.3185996221
| 17>  H       -2.0912257066    -0.0030808147     0.5819053829
| 18>  H       -2.5649934174    -0.8308474832    -1.6182457908
| 19>  H       -0.8424817838    -1.1845453308    -1.9589730280
| 20>  H       -0.6034953128    -4.0142913808     0.3251829876
| 21>  H        2.6910569600    -2.4679252781    -1.8074138531
| 22>  H       -1.7492679479    -2.3054774255     1.6839348021
| 23> *
| 24>
| 25>                          ****END OF INPUT****

CARTESIAN COORDINATES (ANGSTROEM)
---------------------------------
  C     -0.029615    1.368542   -0.130050
  O     -0.042455    0.059101    0.394721
  C     -1.255803   -0.603848    0.190988
  C     -1.628439   -1.202599   -1.200390
  N     -1.847619   -2.565896   -0.588891
  C     -0.525482   -2.999654   -0.060461
  C      0.719585   -2.741430   -0.728217
  C      1.762995   -2.609742   -1.311261
  C     -1.318341   -2.019679    0.729420
  H      0.943860    1.802947    0.107317
  H     -0.163402    1.375671   -1.222079
  H     -0.818444    1.993133    0.318600
  H     -2.091226   -0.003081    0.581905
  H     -2.564993   -0.830847   -1.618246
  H     -0.842482   -1.184545   -1.958973
  H     -0.603495   -4.014291    0.325183
  H      2.691057   -2.467925   -1.807414
  H     -1.749268   -2.305477    1.683935

 Total Charge           Charge          ....    0
 Multiplicity           Mult            ....    1
 Number of Electrons    NEL             ....   66
 Basis Dimension        Dim             ....  333

ORBITAL ENERGIES
----------------

  NO   OCC          E(Eh)            E(eV)
   0   2.0000     -20.562397      -559.5313
   1   2.0000     -15.575747      -423.8376
   2   2.0000     -11.294950      -307.3512
   3   2.0000     -11.288926      -307.1873
   4   2.0000     -11.276863      -306.8590
   5   2.0000     -11.273122      -306.7572
   6   2.0000     -11.257612      -306.3352
   7   2.0000     -11.236402      -305.7580
   8   2.0000     -11.226301      -305.4832
   9   2.0000      -1.389084       -37.7989
  10   2.0000      -1.297127       -35.2966
  11   2.0000      -1.049286       -28.5525
  12   2.0000      -1.005860       -27.3709
  13   2.0000      -0.963678       -26.2230
  14   2.0000      -0.898587       -24.4518
  15   2.0000      -0.870601       -23.6903
  16   2.0000      -0.760033       -20.6816
  17   2.0000      -0.729329       -19.8460
  18   2.0000      -0.710566       -19.3355
  19   2.0000      -0.680557       -18.5189
  20   2.0000      -0.652772       -17.7628
  21   2.0000      -0.631020       -17.1709
  22   2.0000      -0.618434       -16.8285
  23   2.0000      -0.584742       -15.9116
  24   2.0000      -0.564901       -15.3717
  25   2.0000      -0.516947       -14.0669
  26   2.0000      -0.499414       -13.5898
  27   2.0000      -0.468541       -12.7496
  28   2.0000      -0.456257       -12.4154
  29   2.0000      -0.442659       -12.0454
  30   2.0000      -0.401475       -10.9247
  31   2.0000      -0.391649       -10.6573
  32   2.0000      -0.359566        -9.7843
  33   0.0000       0.138240         3.7617
  34   0.0000       0.148700         4.0463
  35   0.0000       0.163175         4.4402
  36   0.0000       0.168286         4.5793
  37   0.0000       0.175619         4.7788

MULLIKEN ATOMIC CHARGES
-----------------------
   0 C :   -0.224945
   1 O :   -0.294377
   2 C :    0.050889
   3 C :   -0.178320
   4 N :   -0.205647
   5 C :   -0.261797
   6 C :    0.065696
   7 C :   -0.160431
   8 C :    0.026124
   9 H :    0.144832
  10 H :    0.116459
  11 H :    0.112622
  12 H :    0.085469
  13 H :    0.130433
  14 H :    0.133851
  15 H :    0.133025
  16 H :    0.190528
  17 H :    0.135588
Sum of atomic charges:   -0.0000000

LOEWDIN ATOMIC CHARGES
----------------------
   0 C :   -0.352342
   1 O :    0.171884
   2 C :   -0.315435
   3 C :   -0.222142
   4 N :    0.131164
   5 C :   -0.231295
   6 C :   -0.093010
   7 C :   -0.083657
   8 C :   -0.160327
   9 H :    0.115455
  10 H :    0.103267
  11 H :    0.102774
  12 H :    0.139311
  13 H :    0.127805
  14 H :    0.132643
  15 H :    0.170219
  16 H :    0.127410
  17 H :    0.136277

  Mayer bond orders larger than 0.1
B(  0-C ,  1-O ) :   0.9067 B(  0-C ,  9-H ) :   0.9404 B(  0-C , 10-H ) :   0.9349
B(  0-C , 11-H ) :   0.9341 B(  1-O ,  2-C ) :   0.9886 B(  2-C ,  3-C ) :   0.9678
B(  2-C ,  8-C ) :   0.9294 B(  2-C , 12-H ) :   0.9266 B(  3-C ,  4-N ) :   0.9235
B(  3-C , 13-H ) :   0.9151 B(  3-C , 14-H ) :   0.9217 B(  4-N ,  5-C ) :   0.9428
B(  4-N ,  8-C ) :   0.8356 B(  5-C ,  6-C ) :   1.0918 B(  5-C ,  8-C ) :   0.9473
B(  5-C , 15-H ) :   0.9417 B(  6-C ,  7-C ) :   2.5756 B(  7-C , 16-H ) :   0.8974
B(  8-C , 17-H ) :   0.9030

MP2 TOTAL ENERGY:     -401.146136780 Eh
FINAL SINGLE POINT ENERGY      -401.146136779629

DIPOLE MOMENT
-------------
                                X             Y             Z
Electronic contribution:      0.86980      -5.67072       0.89372
Nuclear contribution   :     -0.82442       6.41796      -0.91180
                        -----------------------------------------
Total Dipole Moment    :      0.04538       0.74724      -0.01808
                        -----------------------------------------
Magnitude (a.u.)       :      0.74883
Magnitude (Debye)      :      1.90338

                             ****ORCA TERMINATED NORMALLY****
TOTAL RUN TIME: 0 days 0 hours 29 minutes 8 seconds 527 msec
