                         Program Version 3.0.3 - RELEASE   -
|  1> ! RI-MP2 RIJK def2-TZVP def2-TZVP/C def2-TZVP/JK TIGHTSCF
|  2> % maxcore 2000
|  3> % mp2 density relaxed end
|  4> *xyz 0 1
|  5>  C       -0.0715264633     1.4423013281    -0.1630664546
|  6>  C       -0.0502265836    -0.0764558851    -0.0309216684
|  7>  C       -1.2569123004    -0.7216089342     0.6924507405
|  8>  O       -0.3976356895    -1.3619378488     1.6570857195
|  9>  C        0.7595168182    -0.6434672347     1.1671804087
| 10>  C        1.9621122736    -1.5478909224     0.8476967959
| 11>  C        2.6085453643    -1.1476214061    -0.4566107066
| 12>  C        1.8576727211    -0.7785713179    -1.4950389530
| 13>  C        0.3541244575    -0.7522206206    -1.3598088455
| 14>  H        0.8955088772     1.8149154879    -0.5174257120
| 15>  H       -0.8371275670     1.7631909720    -0.8790276202
| 16>  H       -0.2867328742     1.9237524461     0.7965069218
| 17>  H       -1.9398677844    -0.0022781707     1.1656464563
| 18>  H       -1.8470983233    -1.4490735188     0.1211741968
| 19>  H        1.0552608697     0.1394496110     1.8792415968
| 20>  H        2.6862713524    -1.5413380317     1.6673726520
| 21>  H        1.5774810013    -2.5747666333     0.7786544346
| 22>  H        3.6913724546    -1.1809258538    -0.5312271418
| 23>  H        2.3087922934    -0.5044123014    -2.4437861103
| 24>  H       -0.0276602420    -1.7830568857    -1.3690753293
| 25>  H       -0.1157253655    -0.2412783198    -2.2064850412
| 26> *
| 27>
| 28>                          ****END OF INPUT****

CARTESIAN COORDINATES (ANGSTROEM)
---------------------------------
  C     -0.071526    1.442301   -0.163066
  C     -0.050227   -0.076456   -0.030922
  C     -1.256912   -0.721609    0.692451
  O     -0.397636   -1.361938    1.657086
  C      0.759517   -0.643467    1.167180
  C      1.962112   -1.547891    0.847697
  C      2.608545   -1.147621   -0.456611
  C      1.857673   -0.778571   -1.495039
  C      0.354124   -0.752221   -1.359809
  H      0.895509    1.814915   -0.517426
  H     -0.837128    1.763191   -0.879028
  H     -0.286733    1.923752    0.796507
  H     -1.939868   -0.002278    1.165646
  H     -1.847098   -1.449074    0.121174
  H      1.055261    0.139450    1.879242
  H      2.686271   -1.541338    1.667373
  H      1.577481   -2.574767    0.778654
  H      3.691372   -1.180926   -0.531227
  H      2.308792   -0.504412   -2.443786
  H     -0.027660   -1.783057   -1.369075
  H     -0.115725   -0.241278   -2.206485

 Total Charge           Charge          ....    0
 Multiplicity           Mult            ....    1
 Number of Electrons    NEL             ....   68
 Basis Dimension        Dim             ....  351

ORBITAL ENERGIES
----------------

  NO   OCC          E(Eh)            E(eV)
   0   2.0000     -20.541824      -558.9715
   1   2.0000     -11.276835      -306.8583
   2   2.0000     -11.271437      -306.7114
   3   2.0000     -11.238667      -305.8197
   4   2.0000     -11.229159      -305.5610
   5   2.0000     -11.227462      -305.5148
   6   2.0000     -11.225483      -305.4609
   7   2.0000     -11.224019      -305.4211
   8   2.0000     -11.218984      -305.2841
   9   2.0000      -1.373016       -37.3617
  10   2.0000      -1.120234       -30.4831
  11   2.0000      -1.048801       -28.5393
  12   2.0000      -0.993225       -27.0270
  13   2.0000      -0.924824       -25.1657
  14   2.0000      -0.911468       -24.8023
  15   2.0000      -0.849209       -23.1081
  16   2.0000      -0.757361       -20.6088
  17   2.0000      -0.695900       -18.9364
  18   2.0000      -0.669792       -18.2260
  19   2.0000      -0.653450       -17.7813
  20   2.0000      -0.642828       -17.4922
  21   2.0000      -0.618751       -16.8371
  22   2.0000      -0.576306       -15.6821
  23   2.0000      -0.564822       -15.3696
  24   2.0000      -0.553459       -15.0604
  25   2.0000      -0.540518       -14.7082
  26   2.0000      -0.531236       -14.4557
  27   2.0000      -0.521724       -14.1968
  28   2.0000      -0.501562       -13.6482
  29   2.0000      -0.484020       -13.1709
  30   2.0000      -0.434752       -11.8302
  31   2.0000      -0.424686       -11.5563
  32   2.0000      -0.403367       -10.9762
  33   2.0000      -0.349323        -9.5056
  34   0.0000       0.134107         3.6492
  35   0.0000       0.146494         3.9863
  36   0.0000       0.161501         4.3947
  37   0.0000       0.171312         4.6616
  38   0.0000       0.172448         4.6925

MULLIKEN ATOMIC CHARGES
-----------------------
   0 C :   -0.458832
   1 C :    0.152513
   2 C :   -0.053322
   3 O :   -0.323740
   4 C :    0.008935
   5 C :   -0.146704
   6 C :   -0.198772
   7 C :   -0.198201
   8 C :   -0.196866
   9 H :    0.145757
  10 H :    0.132483
  11 H :    0.134223
  12 H :    0.088864
  13 H :    0.095803
  14 H :    0.079591
  15 H :    0.130570
  16 H :    0.115592
  17 H :    0.123223
  18 H :    0.122072
  19 H :    0.119783
  20 H :    0.127028
Sum of atomic charges:    0.0000000

LOEWDIN ATOMIC CHARGES
----------------------
   0 C :   -0.272504
   1 C :   -0.259556
   2 C :   -0.234204
   3 O :    0.131978
   4 C :   -0.225615
   5 C :   -0.227327
   6 C :   -0.168072
   7 C :   -0.168810
   8 C :   -0.205049
   9 H :    0.130927
  10 H :    0.126249
  11 H :    0.126112
  12 H :    0.118075
  13 H :    0.116605
  14 H :    0.137580
  15 H :    0.140921
  16 H :    0.156413
  17 H :    0.139690
  18 H :    0.139648
  19 H :    0.153266
  20 H :    0.143674

  Mayer bond orders larger than 0.1
B(  0-C ,  1-C ) :   0.9042 B(  0-C ,  9-H ) :   0.9361 B(  0-C , 10-H ) :   0.9331
B(  0-C , 11-H ) :   0.9360 B(  1-C ,  2-C ) :   0.9685 B(  1-C ,  4-C ) :   0.9407
B(  1-C ,  8-C ) :   0.9026 B(  2-C ,  3-O ) :   0.9571 B(  2-C , 12-H ) :   0.9049
B(  2-C , 13-H ) :   0.9041 B(  3-O ,  4-C ) :   1.0248 B(  4-C ,  5-C ) :   0.8998
B(  4-C , 14-H ) :   0.9155 B(  5-C ,  6-C ) :   0.9530 B(  5-C , 15-H ) :   0.9309
B(  5-C , 16-H ) :   0.8867 B(  6-C ,  7-C ) :   1.7596 B(  6-C , 17-H ) :   0.9288
B(  7-C ,  8-C ) :   0.9567 B(  7-C , 18-H ) :   0.9366 B(  8-C , 19-H ) :   0.8963
B(  8-C , 20-H ) :   0.9323

MP2 TOTAL ENERGY:     -386.407186808 Eh
FINAL SINGLE POINT ENERGY      -386.407186807708

DIPOLE MOMENT
-------------
                                X             Y             Z
Electronic contribution:      0.20941      -3.05263       2.28071
Nuclear contribution   :     -0.08576       3.48667      -2.81448
                        -----------------------------------------
Total Dipole Moment    :      0.12366       0.43404      -0.53377
                        -----------------------------------------
Magnitude (a.u.)       :      0.69899
Magnitude (Debye)      :      1.77670

                             ****ORCA TERMINATED NORMALLY****
TOTAL RUN TIME: 0 days 0 hours 19 minutes 23 seconds 506 msec
