                         Program Version 3.0.3 - RELEASE   -
|  1> ! RI-MP2 RIJK def2-TZVP def2-TZVP/C def2-TZVP/JK TIGHTSCF
|  2> % maxcore 2000
|  3> % mp2 density relaxed end
|  4> *xyz 0 1
|  5>  O        0.0809408760     1.3056680284     0.3788747157
|  6>  C        0.0098282032    -0.0271394431     0.1048215495
|  7>  C       -1.2048569192    -0.6289762177     0.1730647852
|  8>  C       -1.4945484289    -2.0023894376    -0.1248182204
|  9>  C       -0.6320524462    -3.0363635672    -0.2315532076
| 10>  C        0.8148552773    -2.9843295408     0.0108104890
| 11>  N        1.3943085440    -3.9799308997     0.5641190405
| 12>  N        1.5550144161    -1.8917456553    -0.4810088385
| 13>  C        1.2221763103    -0.6608264437    -0.3981630251
| 14>  H        0.9973270645     1.5988214267     0.3328491980
| 15>  H       -2.0424024676     0.0144739212     0.4260949856
| 16>  H       -2.5512909237    -2.2305768683    -0.2381321232
| 17>  H       -1.0187612392    -4.0302694483    -0.4315949027
| 18>  H        2.4019134913    -3.8052234791     0.6031501246
| 19>  H        1.9538884521     0.0527900745    -0.8008930704
| 20> *
| 21>
| 22>                          ****END OF INPUT****

CARTESIAN COORDINATES (ANGSTROEM)
---------------------------------
  O      0.080941    1.305668    0.378875
  C      0.009828   -0.027139    0.104822
  C     -1.204857   -0.628976    0.173065
  C     -1.494548   -2.002389   -0.124818
  C     -0.632052   -3.036364   -0.231553
  C      0.814855   -2.984330    0.010810
  N      1.394309   -3.979931    0.564119
  N      1.555014   -1.891746   -0.481009
  C      1.222176   -0.660826   -0.398163
  H      0.997327    1.598821    0.332849
  H     -2.042402    0.014474    0.426095
  H     -2.551291   -2.230577   -0.238132
  H     -1.018761   -4.030269   -0.431595
  H      2.401913   -3.805223    0.603150
  H      1.953888    0.052790   -0.800893

 Total Charge           Charge          ....    0
 Multiplicity           Mult            ....    1
 Number of Electrons    NEL             ....   64
 Basis Dimension        Dim             ....  315

ORBITAL ENERGIES
----------------

  NO   OCC          E(Eh)            E(eV)
   0   2.0000     -20.613183      -560.9132
   1   2.0000     -15.592571      -424.2954
   2   2.0000     -15.536312      -422.7645
   3   2.0000     -11.329754      -308.2983
   4   2.0000     -11.322200      -308.0927
   5   2.0000     -11.317605      -307.9677
   6   2.0000     -11.262299      -306.4627
   7   2.0000     -11.258813      -306.3679
   8   2.0000     -11.251776      -306.1764
   9   2.0000      -1.433413       -39.0052
  10   2.0000      -1.287365       -35.0310
  11   2.0000      -1.182666       -32.1820
  12   2.0000      -1.115103       -30.3435
  13   2.0000      -1.034996       -28.1637
  14   2.0000      -0.931882       -25.3578
  15   2.0000      -0.898372       -24.4460
  16   2.0000      -0.790771       -21.5180
  17   2.0000      -0.777201       -21.1487
  18   2.0000      -0.727455       -19.7951
  19   2.0000      -0.673088       -18.3157
  20   2.0000      -0.653732       -17.7890
  21   2.0000      -0.634789       -17.2735
  22   2.0000      -0.621497       -16.9118
  23   2.0000      -0.599962       -16.3258
  24   2.0000      -0.579730       -15.7753
  25   2.0000      -0.551535       -15.0080
  26   2.0000      -0.521802       -14.1990
  27   2.0000      -0.457450       -12.4478
  28   2.0000      -0.438791       -11.9401
  29   2.0000      -0.426420       -11.6035
  30   2.0000      -0.411625       -11.2009
  31   2.0000      -0.312679        -8.5084
  32   0.0000       0.050823         1.3830
  33   0.0000       0.091877         2.5001
  34   0.0000       0.122884         3.3439
  35   0.0000       0.154553         4.2056
  36   0.0000       0.178587         4.8596

MULLIKEN ATOMIC CHARGES
-----------------------
   0 O :   -0.411376
   1 C :    0.261162
   2 C :   -0.201340
   3 C :   -0.090590
   4 C :   -0.123022
   5 C :    0.130810
   6 N :   -0.353977
   7 N :   -0.201987
   8 C :   -0.107765
   9 H :    0.334612
  10 H :    0.142705
  11 H :    0.136320
  12 H :    0.145323
  13 H :    0.214676
  14 H :    0.124450
Sum of atomic charges:    0.0000000

LOEWDIN ATOMIC CHARGES
----------------------
   0 O :    0.084228
   1 C :   -0.277293
   2 C :   -0.120197
   3 C :   -0.140477
   4 C :   -0.103313
   5 C :   -0.367195
   6 N :   -0.032986
   7 N :    0.175941
   8 C :   -0.198269
   9 H :    0.192928
  10 H :    0.161144
  11 H :    0.158092
  12 H :    0.160162
  13 H :    0.163181
  14 H :    0.144054

  Mayer bond orders larger than 0.1
B(  0-O ,  1-C ) :   1.0756 B(  0-O ,  9-H ) :   0.8277 B(  1-C ,  2-C ) :   1.5775
B(  1-C ,  8-C ) :   0.9573 B(  2-C ,  3-C ) :   1.0779 B(  2-C , 10-H ) :   0.9242
B(  3-C ,  4-C ) :   1.6264 B(  3-C , 11-H ) :   0.9242 B(  4-C ,  5-C ) :   0.9621
B(  4-C , 12-H ) :   0.9187 B(  5-C ,  6-N ) :   1.9563 B(  5-C ,  7-N ) :   0.9940
B(  6-N , 13-H ) :   0.8563 B(  7-N ,  8-C ) :   1.7766 B(  8-C , 14-H ) :   0.9466

MP2 TOTAL ENERGY:     -416.098066406 Eh
FINAL SINGLE POINT ENERGY      -416.098066405945

DIPOLE MOMENT
-------------
                                X             Y             Z
Electronic contribution:      1.37036       0.74747      -0.05798
Nuclear contribution   :     -1.47212       0.53373      -0.16619
                        -----------------------------------------
Total Dipole Moment    :     -0.10177       1.28120      -0.22417
                        -----------------------------------------
Magnitude (a.u.)       :      1.30464
Magnitude (Debye)      :      3.31613

                             ****ORCA TERMINATED NORMALLY****
TOTAL RUN TIME: 0 days 0 hours 15 minutes 32 seconds 104 msec
