                         Program Version 3.0.3 - RELEASE   -
|  1> ! RI-MP2 RIJK def2-TZVP def2-TZVP/C def2-TZVP/JK TIGHTSCF
|  2> % maxcore 2000
|  3> % mp2 density relaxed end
|  4> *xyz 0 1
|  5>  N       -0.1012458925     1.3125203494     0.0100855491
|  6>  C        0.0581699373    -0.0341332881     0.0025447068
|  7>  O        1.1215945976    -0.6138662375    -0.0086601653
|  8>  C       -1.2712591017    -0.7880121961     0.0101891292
|  9>  N       -2.3973963258    -0.0644285794     0.0204739754
| 10>  C       -3.5217837741    -0.7786037264     0.0265624078
| 11>  N       -3.5959481600    -2.1082318991     0.0233157125
| 12>  C       -2.4076431623    -2.7172717131     0.0130223869
| 13>  N       -1.2183762367    -2.1186682483     0.0060554188
| 14>  H        0.7174732265     1.8964127514     0.0035076819
| 15>  H       -1.0249338606     1.7117958328     0.0165846105
| 16>  H       -4.4593625479    -0.2273464146     0.0348632779
| 17>  H       -2.4115403398    -3.8048822311     0.0100169286
| 18> *
| 19>
| 20>                          ****END OF INPUT****

CARTESIAN COORDINATES (ANGSTROEM)
---------------------------------
  N     -0.101246    1.312520    0.010086
  C      0.058170   -0.034133    0.002545
  O      1.121595   -0.613866   -0.008660
  C     -1.271259   -0.788012    0.010189
  N     -2.397396   -0.064429    0.020474
  C     -3.521784   -0.778604    0.026562
  N     -3.595948   -2.108232    0.023316
  C     -2.407643   -2.717272    0.013022
  N     -1.218376   -2.118668    0.006055
  H      0.717473    1.896413    0.003508
  H     -1.024934    1.711796    0.016585
  H     -4.459363   -0.227346    0.034863
  H     -2.411540   -3.804882    0.010017

 Total Charge           Charge          ....    0
 Multiplicity           Mult            ....    1
 Number of Electrons    NEL             ....   64
 Basis Dimension        Dim             ....  303

ORBITAL ENERGIES
----------------

  NO   OCC          E(Eh)            E(eV)
   0   2.0000     -20.534348      -558.7680
   1   2.0000     -15.604297      -424.6145
   2   2.0000     -15.598885      -424.4673
   3   2.0000     -15.596540      -424.4034
   4   2.0000     -15.592251      -424.2867
   5   2.0000     -11.370446      -309.4056
   6   2.0000     -11.360586      -309.1373
   7   2.0000     -11.354379      -308.9683
   8   2.0000     -11.350696      -308.8681
   9   2.0000      -1.403255       -38.1845
  10   2.0000      -1.374365       -37.3984
  11   2.0000      -1.243596       -33.8400
  12   2.0000      -1.229725       -33.4625
  13   2.0000      -1.213889       -33.0316
  14   2.0000      -0.972169       -26.4541
  15   2.0000      -0.945394       -25.7255
  16   2.0000      -0.840282       -22.8652
  17   2.0000      -0.771769       -21.0009
  18   2.0000      -0.766882       -20.8679
  19   2.0000      -0.713100       -19.4044
  20   2.0000      -0.666649       -18.1404
  21   2.0000      -0.637762       -17.3544
  22   2.0000      -0.625216       -17.0130
  23   2.0000      -0.611141       -16.6300
  24   2.0000      -0.592079       -16.1113
  25   2.0000      -0.578829       -15.7507
  26   2.0000      -0.472424       -12.8553
  27   2.0000      -0.455049       -12.3825
  28   2.0000      -0.450088       -12.2475
  29   2.0000      -0.448322       -12.1995
  30   2.0000      -0.438490       -11.9319
  31   2.0000      -0.422281       -11.4909
  32   0.0000       0.050970         1.3870
  33   0.0000       0.075762         2.0616
  34   0.0000       0.138434         3.7670
  35   0.0000       0.160629         4.3709
  36   0.0000       0.175024         4.7627

MULLIKEN ATOMIC CHARGES
-----------------------
   0 N :   -0.452755
   1 C :    0.197614
   2 O :   -0.304670
   3 C :    0.257647
   4 N :   -0.293409
   5 C :    0.077043
   6 N :   -0.231977
   7 C :    0.091856
   8 N :   -0.192439
   9 H :    0.263072
  10 H :    0.280439
  11 H :    0.152058
  12 H :    0.155520
Sum of atomic charges:    0.0000000

LOEWDIN ATOMIC CHARGES
----------------------
   0 N :    0.003938
   1 C :   -0.458483
   2 O :    0.117507
   3 C :   -0.247576
   4 N :    0.138955
   5 C :   -0.255572
   6 N :    0.128463
   7 C :   -0.245323
   8 N :    0.183513
   9 H :    0.176353
  10 H :    0.176435
  11 H :    0.140124
  12 H :    0.141665

  Mayer bond orders larger than 0.1
B(  0-N ,  1-C ) :   1.2184 B(  0-N ,  9-H ) :   0.8594 B(  0-N , 10-H ) :   0.8470
B(  1-C ,  2-O ) :   2.0423 B(  1-C ,  3-C ) :   0.8633 B(  3-C ,  4-N ) :   1.2433
B(  3-C ,  8-N ) :   1.4149 B(  4-N ,  5-C ) :   1.3958 B(  5-C ,  6-N ) :   1.3794
B(  5-C , 11-H ) :   0.9344 B(  6-N ,  7-C ) :   1.3545 B(  7-C ,  8-N ) :   1.3662
B(  7-C , 12-H ) :   0.9341

MP2 TOTAL ENERGY:     -448.259547463 Eh
FINAL SINGLE POINT ENERGY      -448.259547463057

DIPOLE MOMENT
-------------
                                X             Y             Z
Electronic contribution:      0.27908      -1.79660      -0.00876
Nuclear contribution   :     -1.33785       2.74739       0.01857
                        -----------------------------------------
Total Dipole Moment    :     -1.05876       0.95079       0.00981
                        -----------------------------------------
Magnitude (a.u.)       :      1.42305
Magnitude (Debye)      :      3.61711

                             ****ORCA TERMINATED NORMALLY****
TOTAL RUN TIME: 0 days 0 hours 12 minutes 19 seconds 707 msec
