                         Program Version 3.0.3 - RELEASE   -
|  1> ! RI-MP2 RIJK def2-TZVP def2-TZVP/C def2-TZVP/JK TIGHTSCF
|  2> % maxcore 2000
|  3> % mp2 density relaxed end
|  4> *xyz 0 1
|  5>  C        0.4569485872     1.6309151083    -0.0026463803
|  6>  C       -0.0604532271     0.1819563573    -0.0422805190
|  7>  C        0.4425083943    -0.5045577854    -1.3199021689
|  8>  O       -0.1439519712    -1.7629241374    -1.5825956905
|  9>  C        0.4621865216    -2.8580844885    -0.9258286649
| 10>  C       -0.0221018784    -3.0642209377     0.5095515661
| 11>  C        0.3323431690    -1.9757819380     1.4988094312
| 12>  O        1.5547140351    -1.2447807434     1.3178171351
| 13>  C        0.3110093241    -0.5272142555     1.2492427624
| 14>  H        1.5508894820     1.6536813932     0.0527384065
| 15>  H        0.1518695763     2.1842778620    -0.8961596912
| 16>  H        0.0687139695     2.1650148707     0.8699174737
| 17>  H       -1.1582615643     0.2048658667    -0.0916674161
| 18>  H        0.1820020911     0.1304285891    -2.1736844106
| 19>  H        1.5383635428    -0.5890599654    -1.2841466913
| 20>  H        0.2012685629    -3.7452127732    -1.5126837899
| 21>  H        1.5564472910    -2.7546504585    -0.9380237439
| 22>  H       -1.1124243607    -3.1907817225     0.5104462211
| 23>  H        0.4009155769    -4.0109469014     0.8722128133
| 24>  H        0.1643738425    -2.2728974432     2.5371323806
| 25>  H        0.1348815852     0.0941350328     2.1318927066
| 26> *
| 27>
| 28>                          ****END OF INPUT****

CARTESIAN COORDINATES (ANGSTROEM)
---------------------------------
  C      0.456949    1.630915   -0.002646
  C     -0.060453    0.181956   -0.042281
  C      0.442508   -0.504558   -1.319902
  O     -0.143952   -1.762924   -1.582596
  C      0.462187   -2.858084   -0.925829
  C     -0.022102   -3.064221    0.509552
  C      0.332343   -1.975782    1.498809
  O      1.554714   -1.244781    1.317817
  C      0.311009   -0.527214    1.249243
  H      1.550889    1.653681    0.052738
  H      0.151870    2.184278   -0.896160
  H      0.068714    2.165015    0.869917
  H     -1.158262    0.204866   -0.091667
  H      0.182002    0.130429   -2.173684
  H      1.538364   -0.589060   -1.284147
  H      0.201269   -3.745213   -1.512684
  H      1.556447   -2.754650   -0.938024
  H     -1.112424   -3.190782    0.510446
  H      0.400916   -4.010947    0.872213
  H      0.164374   -2.272897    2.537132
  H      0.134882    0.094135    2.131893

 Total Charge           Charge          ....    0
 Multiplicity           Mult            ....    1
 Number of Electrons    NEL             ....   70
 Basis Dimension        Dim             ....  351

ORBITAL ENERGIES
----------------

  NO   OCC          E(Eh)            E(eV)
   0   2.0000     -20.562523      -559.5347
   1   2.0000     -20.550145      -559.1979
   2   2.0000     -11.285368      -307.0905
   3   2.0000     -11.283150      -307.0301
   4   2.0000     -11.272842      -306.7496
   5   2.0000     -11.270760      -306.6930
   6   2.0000     -11.235906      -305.7445
   7   2.0000     -11.230587      -305.5998
   8   2.0000     -11.221419      -305.3503
   9   2.0000      -1.406450       -38.2714
  10   2.0000      -1.370932       -37.3050
  11   2.0000      -1.080607       -29.4048
  12   2.0000      -1.043953       -28.4074
  13   2.0000      -0.941651       -25.6236
  14   2.0000      -0.911463       -24.8022
  15   2.0000      -0.883244       -24.0343
  16   2.0000      -0.794430       -21.6175
  17   2.0000      -0.758158       -20.6305
  18   2.0000      -0.706499       -19.2248
  19   2.0000      -0.677824       -18.4445
  20   2.0000      -0.662149       -18.0180
  21   2.0000      -0.626075       -17.0364
  22   2.0000      -0.597825       -16.2676
  23   2.0000      -0.581395       -15.8206
  24   2.0000      -0.572871       -15.5886
  25   2.0000      -0.565908       -15.3991
  26   2.0000      -0.537869       -14.6362
  27   2.0000      -0.530970       -14.4484
  28   2.0000      -0.510547       -13.8927
  29   2.0000      -0.484842       -13.1932
  30   2.0000      -0.469770       -12.7831
  31   2.0000      -0.467875       -12.7315
  32   2.0000      -0.447041       -12.1646
  33   2.0000      -0.419924       -11.4267
  34   2.0000      -0.405959       -11.0467
  35   0.0000       0.138673         3.7735
  36   0.0000       0.149700         4.0736
  37   0.0000       0.164560         4.4779
  38   0.0000       0.176205         4.7948
  39   0.0000       0.189953         5.1689

MULLIKEN ATOMIC CHARGES
-----------------------
   0 C :   -0.436860
   1 C :    0.006857
   2 C :   -0.086964
   3 O :   -0.317176
   4 C :   -0.068961
   5 C :   -0.185402
   6 C :    0.017420
   7 O :   -0.350050
   8 C :   -0.003769
   9 H :    0.142925
  10 H :    0.137366
  11 H :    0.135043
  12 H :    0.090545
  13 H :    0.123034
  14 H :    0.112029
  15 H :    0.126121
  16 H :    0.108365
  17 H :    0.113088
  18 H :    0.117157
  19 H :    0.109735
  20 H :    0.109498
Sum of atomic charges:    0.0000000

LOEWDIN ATOMIC CHARGES
----------------------
   0 C :   -0.286761
   1 C :   -0.272331
   2 C :   -0.299878
   3 O :    0.159396
   4 C :   -0.320685
   5 C :   -0.258893
   6 C :   -0.268063
   7 O :    0.154789
   8 C :   -0.245965
   9 H :    0.129119
  10 H :    0.124580
  11 H :    0.124366
  12 H :    0.160974
  13 H :    0.133299
  14 H :    0.128789
  15 H :    0.130879
  16 H :    0.126752
  17 H :    0.149517
  18 H :    0.148791
  19 H :    0.139297
  20 H :    0.142031

  Mayer bond orders larger than 0.1
B(  0-C ,  1-C ) :   0.8930 B(  0-C ,  9-H ) :   0.9306 B(  0-C , 10-H ) :   0.9406
B(  0-C , 11-H ) :   0.9365 B(  1-C ,  2-C ) :   0.9295 B(  1-C ,  8-C ) :   0.9177
B(  1-C , 12-H ) :   0.9070 B(  2-C ,  3-O ) :   0.9224 B(  2-C , 13-H ) :   0.9316
B(  2-C , 14-H ) :   0.9307 B(  3-O ,  4-C ) :   0.9237 B(  4-C ,  5-C ) :   0.9462
B(  4-C , 15-H ) :   0.9315 B(  4-C , 16-H ) :   0.9327 B(  5-C ,  6-C ) :   0.9286
B(  5-C , 17-H ) :   0.9019 B(  5-C , 18-H ) :   0.9176 B(  6-C ,  7-O ) :   0.9062
B(  6-C ,  8-C ) :   0.9745 B(  6-C , 19-H ) :   0.9246 B(  7-O ,  8-C ) :   0.8790
B(  8-C , 20-H ) :   0.9156

MP2 TOTAL ENERGY:     -423.510052312 Eh
FINAL SINGLE POINT ENERGY      -423.510052312129

DIPOLE MOMENT
-------------
                                X             Y             Z
Electronic contribution:      0.52781      -3.06491       0.85540
Nuclear contribution   :     -0.87541       3.11610      -0.58743
                        -----------------------------------------
Total Dipole Moment    :     -0.34761       0.05119       0.26797
                        -----------------------------------------
Magnitude (a.u.)       :      0.44188
Magnitude (Debye)      :      1.12317

                             ****ORCA TERMINATED NORMALLY****
TOTAL RUN TIME: 0 days 0 hours 18 minutes 29 seconds 56 msec
