                         Program Version 3.0.3 - RELEASE   -
|  1> ! RI-MP2 RIJK def2-TZVP def2-TZVP/C def2-TZVP/JK TIGHTSCF
|  2> % maxcore 2000
|  3> % mp2 density relaxed end
|  4> *xyz 0 1
|  5>  C        0.0078904024     1.4855797129     0.2587295714
|  6>  C       -0.0081509648    -0.0222250532    -0.0036131313
|  7>  C       -1.4222156536    -0.6106680381    -0.0023203161
|  8>  C       -1.4353937261    -2.1244995653    -0.2357764402
|  9>  O       -0.7729069624    -2.8587878260     0.8004523327
| 10>  C       -1.7672164169    -3.3377887136     1.6622614816
| 11>  O       -2.9601383235    -3.4790092398     0.8911300986
| 12>  C       -2.8357208994    -2.7084362730    -0.2284078675
| 13>  N       -3.7228686028    -2.5084678392    -1.0999391539
| 14>  H        1.0288420590     1.8792983743     0.2476182595
| 15>  H       -0.5672192101     2.0273571643    -0.5002831619
| 16>  H       -0.4292630881     1.7229909570     1.2350570005
| 17>  H        0.4667343745    -0.2333937443    -0.9709740935
| 18>  H        0.5926932734    -0.5405622823     0.7521816308
| 19>  H       -1.9217788829    -0.3873438497     0.9500834137
| 20>  H       -2.0346554152    -0.1543255745    -0.7888880617
| 21>  H       -0.9303721150    -2.3620701174    -1.1770948505
| 22>  H       -1.4731080410    -4.3172359810     2.0502058506
| 23>  H       -1.9683438249    -2.6433137384     2.4933536045
| 24>  H       -4.5896315426    -2.9923226427    -0.8617566273
| 25> *
| 26>
| 27>                          ****END OF INPUT****

CARTESIAN COORDINATES (ANGSTROEM)
---------------------------------
  C      0.007890    1.485580    0.258730
  C     -0.008151   -0.022225   -0.003613
  C     -1.422216   -0.610668   -0.002320
  C     -1.435394   -2.124500   -0.235776
  O     -0.772907   -2.858788    0.800452
  C     -1.767216   -3.337789    1.662261
  O     -2.960138   -3.479009    0.891130
  C     -2.835721   -2.708436   -0.228408
  N     -3.722869   -2.508468   -1.099939
  H      1.028842    1.879298    0.247618
  H     -0.567219    2.027357   -0.500283
  H     -0.429263    1.722991    1.235057
  H      0.466734   -0.233394   -0.970974
  H      0.592693   -0.540562    0.752182
  H     -1.921779   -0.387344    0.950083
  H     -2.034655   -0.154326   -0.788888
  H     -0.930372   -2.362070   -1.177095
  H     -1.473108   -4.317236    2.050206
  H     -1.968344   -2.643314    2.493354
  H     -4.589632   -2.992323   -0.861757

 Total Charge           Charge          ....    0
 Multiplicity           Mult            ....    1
 Number of Electrons    NEL             ....   70
 Basis Dimension        Dim             ....  345

ORBITAL ENERGIES
----------------

  NO   OCC          E(Eh)            E(eV)
   0   2.0000     -20.607524      -560.7592
   1   2.0000     -20.583160      -560.0963
   2   2.0000     -15.540096      -422.8675
   3   2.0000     -11.353543      -308.9456
   4   2.0000     -11.344481      -308.6990
   5   2.0000     -11.303899      -307.5947
   6   2.0000     -11.233599      -305.6818
   7   2.0000     -11.225949      -305.4736
   8   2.0000     -11.217705      -305.2493
   9   2.0000      -1.478476       -40.2314
  10   2.0000      -1.371667       -37.3250
  11   2.0000      -1.206737       -32.8370
  12   2.0000      -1.083725       -29.4897
  13   2.0000      -1.013321       -27.5739
  14   2.0000      -0.940462       -25.5913
  15   2.0000      -0.881425       -23.9848
  16   2.0000      -0.805651       -21.9229
  17   2.0000      -0.802674       -21.8419
  18   2.0000      -0.729623       -19.8540
  19   2.0000      -0.711780       -19.3685
  20   2.0000      -0.680526       -18.5181
  21   2.0000      -0.642855       -17.4930
  22   2.0000      -0.619455       -16.8562
  23   2.0000      -0.595653       -16.2085
  24   2.0000      -0.587592       -15.9892
  25   2.0000      -0.565053       -15.3759
  26   2.0000      -0.555931       -15.1276
  27   2.0000      -0.542422       -14.7601
  28   2.0000      -0.529695       -14.4137
  29   2.0000      -0.500832       -13.6283
  30   2.0000      -0.480565       -13.0768
  31   2.0000      -0.476979       -12.9792
  32   2.0000      -0.445949       -12.1349
  33   2.0000      -0.433737       -11.8026
  34   2.0000      -0.406994       -11.0749
  35   0.0000       0.131380         3.5750
  36   0.0000       0.154003         4.1906
  37   0.0000       0.158939         4.3249
  38   0.0000       0.172622         4.6973
  39   0.0000       0.179600         4.8872

MULLIKEN ATOMIC CHARGES
-----------------------
   0 C :   -0.384141
   1 C :   -0.191428
   2 C :   -0.302535
   3 C :    0.191360
   4 O :   -0.325819
   5 C :    0.109226
   6 O :   -0.262034
   7 C :    0.101123
   8 N :   -0.382993
   9 H :    0.135792
  10 H :    0.124310
  11 H :    0.122714
  12 H :    0.106334
  13 H :    0.124973
  14 H :    0.110537
  15 H :    0.140935
  16 H :    0.126126
  17 H :    0.130317
  18 H :    0.096982
  19 H :    0.228219
Sum of atomic charges:   -0.0000000

LOEWDIN ATOMIC CHARGES
----------------------
   0 C :   -0.319712
   1 C :   -0.293077
   2 C :   -0.241764
   3 C :   -0.265246
   4 O :    0.179153
   5 C :   -0.340815
   6 O :    0.232448
   7 C :   -0.393627
   8 N :   -0.051129
   9 H :    0.121653
  10 H :    0.121154
  11 H :    0.120451
  12 H :    0.136437
  13 H :    0.138637
  14 H :    0.142243
  15 H :    0.152416
  16 H :    0.158847
  17 H :    0.121072
  18 H :    0.109941
  19 H :    0.170919

  Mayer bond orders larger than 0.1
B(  0-C ,  1-C ) :   0.9181 B(  0-C ,  9-H ) :   0.9431 B(  0-C , 10-H ) :   0.9376
B(  0-C , 11-H ) :   0.9402 B(  1-C ,  2-C ) :   0.9277 B(  1-C , 12-H ) :   0.9308
B(  1-C , 13-H ) :   0.9348 B(  2-C ,  3-C ) :   0.9472 B(  2-C , 14-H ) :   0.9122
B(  2-C , 15-H ) :   0.9226 B(  3-C ,  4-O ) :   0.8731 B(  3-C ,  7-C ) :   0.8958
B(  3-C , 16-H ) :   0.9057 B(  4-O ,  5-C ) :   0.9862 B(  5-C ,  6-O ) :   0.9095
B(  5-C , 17-H ) :   0.9276 B(  5-C , 18-H ) :   0.9208 B(  6-O ,  7-C ) :   1.0837
B(  7-C ,  8-N ) :   2.0495 B(  8-N , 19-H ) :   0.8522

MP2 TOTAL ENERGY:     -439.582348741 Eh
FINAL SINGLE POINT ENERGY      -439.582348740525

DIPOLE MOMENT
-------------
                                X             Y             Z
Electronic contribution:     -5.68746     -10.94239       0.05221
Nuclear contribution   :      5.93847      11.02604       0.62761
                        -----------------------------------------
Total Dipole Moment    :      0.25101       0.08366       0.67982
                        -----------------------------------------
Magnitude (a.u.)       :      0.72949
Magnitude (Debye)      :      1.85421

                             ****ORCA TERMINATED NORMALLY****
TOTAL RUN TIME: 0 days 0 hours 16 minutes 46 seconds 905 msec
