                         Program Version 3.0.3 - RELEASE   -
|  1> ! RI-MP2 RIJK def2-TZVP def2-TZVP/C def2-TZVP/JK TIGHTSCF
|  2> % maxcore 2000
|  3> % mp2 density relaxed end
|  4> *xyz 0 1
|  5>  O        0.1020371480     1.1605774029    -0.5666718532
|  6>  C       -0.0009379232    -0.2420568155    -0.3598882581
|  7>  C       -1.3982251520    -0.5122222275     0.1935498997
|  8>  C       -2.5029676479    -0.1264482003    -0.8041468570
|  9>  O       -2.7061319716    -1.2956274830    -1.6420682797
| 10>  C       -2.1846246859    -2.3826826320    -1.0325640006
| 11>  N       -2.0673561914    -3.5472138505    -1.5069957456
| 12>  C       -1.6808065666    -2.0161602901     0.3517579175
| 13>  O       -0.5838401256    -2.7983797448     0.7395450101
| 14>  H        0.9770075971     1.3493013916    -0.9172988778
| 15>  H        0.1469372932    -0.7967409651    -1.2998823008
| 16>  H        0.7456517317    -0.6074193889     0.3555086765
| 17>  H       -1.5147781190     0.0381870163     1.1301997576
| 18>  H       -3.4492766682     0.1095685147    -0.3056609419
| 19>  H       -2.2165032788     0.7038180528    -1.4499215791
| 20>  H       -2.4237414023    -3.6184422442    -2.4595694107
| 21>  H       -2.5187680842    -2.1450543039     1.0587956280
| 22>  H       -0.6351467235    -3.5975905026     0.1923799350
| 23> *
| 24>
| 25>                          ****END OF INPUT****

CARTESIAN COORDINATES (ANGSTROEM)
---------------------------------
  O      0.102037    1.160577   -0.566672
  C     -0.000938   -0.242057   -0.359888
  C     -1.398225   -0.512222    0.193550
  C     -2.502968   -0.126448   -0.804147
  O     -2.706132   -1.295627   -1.642068
  C     -2.184625   -2.382683   -1.032564
  N     -2.067356   -3.547214   -1.506996
  C     -1.680807   -2.016160    0.351758
  O     -0.583840   -2.798380    0.739545
  H      0.977008    1.349301   -0.917299
  H      0.146937   -0.796741   -1.299882
  H      0.745652   -0.607419    0.355509
  H     -1.514778    0.038187    1.130200
  H     -3.449277    0.109569   -0.305661
  H     -2.216503    0.703818   -1.449922
  H     -2.423741   -3.618442   -2.459569
  H     -2.518768   -2.145054    1.058796
  H     -0.635147   -3.597591    0.192380

 Total Charge           Charge          ....    0
 Multiplicity           Mult            ....    1
 Number of Electrons    NEL             ....   70
 Basis Dimension        Dim             ....  333

ORBITAL ENERGIES
----------------

  NO   OCC          E(Eh)            E(eV)
   0   2.0000     -20.603474      -560.6490
   1   2.0000     -20.566832      -559.6520
   2   2.0000     -20.563660      -559.5656
   3   2.0000     -15.542560      -422.9346
   4   2.0000     -11.343400      -308.6696
   5   2.0000     -11.302343      -307.5524
   6   2.0000     -11.298060      -307.4358
   7   2.0000     -11.284983      -307.0800
   8   2.0000     -11.248794      -306.0952
   9   2.0000      -1.441903       -39.2362
  10   2.0000      -1.376655       -37.4607
  11   2.0000      -1.370853       -37.3028
  12   2.0000      -1.202915       -32.7330
  13   2.0000      -1.092485       -29.7280
  14   2.0000      -0.966365       -26.2961
  15   2.0000      -0.936459       -25.4823
  16   2.0000      -0.810947       -22.0670
  17   2.0000      -0.789617       -21.4866
  18   2.0000      -0.722786       -19.6680
  19   2.0000      -0.705397       -19.1948
  20   2.0000      -0.697075       -18.9684
  21   2.0000      -0.692238       -18.8368
  22   2.0000      -0.649982       -17.6869
  23   2.0000      -0.623145       -16.9566
  24   2.0000      -0.611436       -16.6380
  25   2.0000      -0.583464       -15.8769
  26   2.0000      -0.570931       -15.5358
  27   2.0000      -0.541037       -14.7224
  28   2.0000      -0.527203       -14.3459
  29   2.0000      -0.493457       -13.4276
  30   2.0000      -0.491362       -13.3706
  31   2.0000      -0.455845       -12.4042
  32   2.0000      -0.450749       -12.2655
  33   2.0000      -0.445238       -12.1155
  34   2.0000      -0.408150       -11.1063
  35   0.0000       0.129583         3.5261
  36   0.0000       0.139299         3.7905
  37   0.0000       0.159141         4.3305
  38   0.0000       0.165055         4.4914
  39   0.0000       0.190355         5.1798

MULLIKEN ATOMIC CHARGES
-----------------------
   0 O :   -0.474827
   1 C :   -0.128207
   2 C :   -0.012662
   3 C :   -0.078116
   4 O :   -0.246703
   5 C :    0.104111
   6 N :   -0.444947
   7 C :    0.125706
   8 O :   -0.486828
   9 H :    0.321894
  10 H :    0.110782
  11 H :    0.130985
  12 H :    0.121853
  13 H :    0.121239
  14 H :    0.150862
  15 H :    0.228245
  16 H :    0.115574
  17 H :    0.341039
Sum of atomic charges:   -0.0000000

LOEWDIN ATOMIC CHARGES
----------------------
   0 O :   -0.047641
   1 C :   -0.319809
   2 C :   -0.234143
   3 C :   -0.225538
   4 O :    0.244766
   5 C :   -0.413145
   6 N :   -0.071306
   7 C :   -0.298640
   8 O :    0.001072
   9 H :    0.174762
  10 H :    0.124758
  11 H :    0.126856
  12 H :    0.158635
  13 H :    0.128436
  14 H :    0.137720
  15 H :    0.170157
  16 H :    0.153848
  17 H :    0.189212

  Mayer bond orders larger than 0.1
B(  0-O ,  1-C ) :   0.9940 B(  0-O ,  9-H ) :   0.8459 B(  1-C ,  2-C ) :   0.9296
B(  1-C , 10-H ) :   0.9128 B(  1-C , 11-H ) :   0.9257 B(  2-C ,  3-C ) :   0.9251
B(  2-C ,  7-C ) :   0.8636 B(  2-C , 12-H ) :   0.9159 B(  3-C ,  4-O ) :   0.8487
B(  3-C , 13-H ) :   0.9269 B(  3-C , 14-H ) :   0.9193 B(  4-O ,  5-C ) :   1.1273
B(  5-C ,  6-N ) :   1.9608 B(  5-C ,  7-C ) :   0.8874 B(  6-N , 15-H ) :   0.8567
B(  7-C ,  8-O ) :   1.0623 B(  7-C , 16-H ) :   0.9400 B(  8-O , 17-H ) :   0.8067

MP2 TOTAL ENERGY:     -475.493881634 Eh
FINAL SINGLE POINT ENERGY      -475.493881633550

DIPOLE MOMENT
-------------
                                X             Y             Z
Electronic contribution:     -1.55725      -2.20403      -1.15451
Nuclear contribution   :      1.65896       2.82667       0.91860
                        -----------------------------------------
Total Dipole Moment    :      0.10170       0.62264      -0.23591
                        -----------------------------------------
Magnitude (a.u.)       :      0.67356
Magnitude (Debye)      :      1.71205

                             ****ORCA TERMINATED NORMALLY****
TOTAL RUN TIME: 0 days 0 hours 26 minutes 10 seconds 301 msec
