                         Program Version 3.0.3 - RELEASE   -
|  1> ! RI-MP2 RIJK def2-TZVP def2-TZVP/C def2-TZVP/JK TIGHTSCF
|  2> % maxcore 2000
|  3> % mp2 density relaxed end
|  4> *xyz 0 1
|  5>  C       -0.1395003337     1.3757038413     0.0148359773
|  6>  O        0.0126327870    -0.0289488524    -0.0059255761
|  7>  C        0.6432362977    -0.5608989623    -1.1533478603
|  8>  C        2.0743778625    -0.0590943028    -1.3391086416
|  9>  C        0.5473699024    -2.0701708402    -1.2449518758
| 10>  C       -0.7617925225    -2.4360115393    -1.8576878670
| 11>  C       -1.5441767246    -1.1675987457    -2.1487744868
| 12>  C       -0.1598480527    -0.5882584978    -2.4876220800
| 13>  N        0.3848199270    -2.0320135147    -2.7449168125
| 14>  H        0.8164774493     1.9026112064     0.1378114409
| 15>  H       -0.6272769035     1.7518713946    -0.8969596758
| 16>  H       -0.7763974047     1.6112470898     0.8709695077
| 17>  H        2.6593125276    -0.2404301538    -0.4317924481
| 18>  H        2.5485589424    -0.5823184291    -2.1728889976
| 19>  H        2.1013246008     1.0128991301    -1.5557155793
| 20>  H        1.1945540476    -2.7996049449    -0.7704023648
| 21>  H       -1.1227410285    -3.4584716787    -1.8459131677
| 22>  H       -2.1555096628    -1.2846939900    -3.0469720779
| 23>  H       -2.1209550704    -0.6993082681    -1.3476432437
| 24>  H       -0.0192666807     0.1749924976    -3.2513384207
| 25> *
| 26>
| 27>                          ****END OF INPUT****

CARTESIAN COORDINATES (ANGSTROEM)
---------------------------------
  C     -0.139500    1.375704    0.014836
  O      0.012633   -0.028949   -0.005926
  C      0.643236   -0.560899   -1.153348
  C      2.074378   -0.059094   -1.339109
  C      0.547370   -2.070171   -1.244952
  C     -0.761793   -2.436012   -1.857688
  C     -1.544177   -1.167599   -2.148774
  C     -0.159848   -0.588258   -2.487622
  N      0.384820   -2.032014   -2.744917
  H      0.816477    1.902611    0.137811
  H     -0.627277    1.751871   -0.896960
  H     -0.776397    1.611247    0.870970
  H      2.659313   -0.240430   -0.431792
  H      2.548559   -0.582318   -2.172889
  H      2.101325    1.012899   -1.555716
  H      1.194554   -2.799605   -0.770402
  H     -1.122741   -3.458472   -1.845913
  H     -2.155510   -1.284694   -3.046972
  H     -2.120955   -0.699308   -1.347643
  H     -0.019267    0.174992   -3.251338

 Total Charge           Charge          ....    0
 Multiplicity           Mult            ....    1
 Number of Electrons    NEL             ....   68
 Basis Dimension        Dim             ....  345

ORBITAL ENERGIES
----------------

  NO   OCC          E(Eh)            E(eV)
   0   2.0000     -20.556786      -559.3786
   1   2.0000     -15.561329      -423.4453
   2   2.0000     -11.294249      -307.3321
   3   2.0000     -11.274739      -306.8012
   4   2.0000     -11.264530      -306.5234
   5   2.0000     -11.262860      -306.4780
   6   2.0000     -11.257527      -306.3329
   7   2.0000     -11.230545      -305.5987
   8   2.0000     -11.218842      -305.2802
   9   2.0000      -1.383075       -37.6354
  10   2.0000      -1.310300       -35.6551
  11   2.0000      -1.036595       -28.2072
  12   2.0000      -0.997668       -27.1479
  13   2.0000      -0.942443       -25.6452
  14   2.0000      -0.914549       -24.8862
  15   2.0000      -0.870623       -23.6909
  16   2.0000      -0.756045       -20.5730
  17   2.0000      -0.727303       -19.7909
  18   2.0000      -0.701260       -19.0823
  19   2.0000      -0.657595       -17.8941
  20   2.0000      -0.654574       -17.8119
  21   2.0000      -0.630095       -17.1458
  22   2.0000      -0.598600       -16.2887
  23   2.0000      -0.562550       -15.3078
  24   2.0000      -0.559437       -15.2231
  25   2.0000      -0.546612       -14.8741
  26   2.0000      -0.532319       -14.4851
  27   2.0000      -0.518100       -14.0982
  28   2.0000      -0.482136       -13.1196
  29   2.0000      -0.456538       -12.4230
  30   2.0000      -0.439875       -11.9696
  31   2.0000      -0.427544       -11.6341
  32   2.0000      -0.399007       -10.8575
  33   2.0000      -0.380728       -10.3601
  34   0.0000       0.133583         3.6350
  35   0.0000       0.159713         4.3460
  36   0.0000       0.166461         4.5296
  37   0.0000       0.182066         4.9543
  38   0.0000       0.191023         5.1980

MULLIKEN ATOMIC CHARGES
-----------------------
   0 C :   -0.243093
   1 O :   -0.315550
   2 C :    0.289094
   3 C :   -0.479055
   4 C :   -0.083716
   5 C :   -0.140263
   6 C :   -0.154549
   7 C :   -0.109040
   8 N :   -0.239908
   9 H :    0.124321
  10 H :    0.114443
  11 H :    0.146273
  12 H :    0.142755
  13 H :    0.163693
  14 H :    0.135306
  15 H :    0.136145
  16 H :    0.131705
  17 H :    0.121913
  18 H :    0.121603
  19 H :    0.137923
Sum of atomic charges:    0.0000000

LOEWDIN ATOMIC CHARGES
----------------------
   0 C :   -0.353624
   1 O :    0.181140
   2 C :   -0.352888
   3 C :   -0.265273
   4 C :   -0.171284
   5 C :   -0.205883
   6 C :   -0.210482
   7 C :   -0.160940
   8 N :    0.140882
   9 H :    0.103696
  10 H :    0.104492
  11 H :    0.115033
  12 H :    0.130564
  13 H :    0.140165
  14 H :    0.125065
  15 H :    0.138997
  16 H :    0.135504
  17 H :    0.141986
  18 H :    0.132089
  19 H :    0.130762

  Mayer bond orders larger than 0.1
B(  0-C ,  1-O ) :   0.8976 B(  0-C ,  9-H ) :   0.9342 B(  0-C , 10-H ) :   0.9301
B(  0-C , 11-H ) :   0.9424 B(  1-O ,  2-C ) :   0.9706 B(  2-C ,  3-C ) :   0.8824
B(  2-C ,  4-C ) :   0.8888 B(  2-C ,  7-C ) :   0.9665 B(  3-C , 12-H ) :   0.9449
B(  3-C , 13-H ) :   0.9286 B(  3-C , 14-H ) :   0.9342 B(  4-C ,  5-C ) :   0.9068
B(  4-C ,  8-N ) :   0.8511 B(  4-C , 15-H ) :   0.9083 B(  5-C ,  6-C ) :   0.9662
B(  5-C ,  8-N ) :   0.9038 B(  5-C , 16-H ) :   0.9211 B(  6-C ,  7-C ) :   0.9408
B(  6-C , 17-H ) :   0.9226 B(  6-C , 18-H ) :   0.8921 B(  7-C ,  8-N ) :   0.9277
B(  7-C , 19-H ) :   0.9002

MP2 TOTAL ENERGY:     -402.393678451 Eh
FINAL SINGLE POINT ENERGY      -402.393678451078

DIPOLE MOMENT
-------------
                                X             Y             Z
Electronic contribution:     -1.21491      -4.98798      -0.87430
Nuclear contribution   :      1.02143       5.60902       1.07147
                        -----------------------------------------
Total Dipole Moment    :     -0.19349       0.62104       0.19716
                        -----------------------------------------
Magnitude (a.u.)       :      0.67970
Magnitude (Debye)      :      1.72767

                             ****ORCA TERMINATED NORMALLY****
TOTAL RUN TIME: 0 days 0 hours 19 minutes 58 seconds 264 msec
