                         Program Version 3.0.3 - RELEASE   -
|  1> ! RI-MP2 RIJK def2-TZVP def2-TZVP/C def2-TZVP/JK TIGHTSCF
|  2> % maxcore 2000
|  3> % mp2 density relaxed end
|  4> *xyz 0 1
|  5>  C        3.4006326734     1.8989696650    -8.4396823308
|  6>  C        3.8515133948     1.5979646497    -7.0078779560
|  7>  C        3.3249529858     0.2597172020    -6.4790815298
|  8>  C        3.7721137790    -0.0461005691    -5.0424680811
|  9>  C        3.1668394815    -1.3365063293    -4.5231326727
| 10>  C        3.8346545696    -2.6738800651    -4.6383100151
| 11>  C        5.1941089887    -2.8799016423    -5.2732310840
| 12>  N        3.6390883394    -2.0434069920    -3.3288021026
| 13>  C        4.7746453501    -1.5421274423    -2.5700708477
| 14>  H        3.7467517567     1.1258104426    -9.1347647874
| 15>  H        2.3078689176     1.9391795181    -8.5102744805
| 16>  H        3.7919022169     2.8595775899    -8.7891311937
| 17>  H        4.9487575372     1.5994600949    -6.9609627553
| 18>  H        3.5200815381     2.4052980869    -6.3413268272
| 19>  H        2.2270207529     0.2582618126    -6.5250070910
| 20>  H        3.6547952724    -0.5514672642    -7.1420359640
| 21>  H        4.8653173544    -0.0680155516    -5.0027249039
| 22>  H        3.4619050738     0.7789616698    -4.3857368019
| 23>  H        2.0770046144    -1.3305126465    -4.5911337449
| 24>  H        3.1799497108    -3.5351039316    -4.7789555449
| 25>  H        5.8388675545    -2.0009254287    -5.2215336602
| 26>  H        5.7237085926    -3.7093145390    -4.7909275692
| 27>  H        5.0740686593    -3.1401786601    -6.3305012767
| 28>  H        5.5912567213    -1.0965586990    -3.1556169416
| 29>  H        4.4181737764    -0.7836399217    -1.8652103851
| 30>  H        5.1956545083    -2.3662756991    -1.9845202126
| 31> *
| 32>
| 33>                          ****END OF INPUT****

CARTESIAN COORDINATES (ANGSTROEM)
---------------------------------
  C      3.400633    1.898970   -8.439682
  C      3.851513    1.597965   -7.007878
  C      3.324953    0.259717   -6.479082
  C      3.772114   -0.046101   -5.042468
  C      3.166839   -1.336506   -4.523133
  C      3.834655   -2.673880   -4.638310
  C      5.194109   -2.879902   -5.273231
  N      3.639088   -2.043407   -3.328802
  C      4.774645   -1.542127   -2.570071
  H      3.746752    1.125810   -9.134765
  H      2.307869    1.939180   -8.510274
  H      3.791902    2.859578   -8.789131
  H      4.948758    1.599460   -6.960963
  H      3.520082    2.405298   -6.341327
  H      2.227021    0.258262   -6.525007
  H      3.654795   -0.551467   -7.142036
  H      4.865317   -0.068016   -5.002725
  H      3.461905    0.778962   -4.385737
  H      2.077005   -1.330513   -4.591134
  H      3.179950   -3.535104   -4.778956
  H      5.838868   -2.000925   -5.221534
  H      5.723709   -3.709315   -4.790928
  H      5.074069   -3.140179   -6.330501
  H      5.591257   -1.096559   -3.155617
  H      4.418174   -0.783640   -1.865210
  H      5.195655   -2.366276   -1.984520

 Total Charge           Charge          ....    0
 Multiplicity           Mult            ....    1
 Number of Electrons    NEL             ....   72
 Basis Dimension        Dim             ....  381

ORBITAL ENERGIES
----------------

  NO   OCC          E(Eh)            E(eV)
   0   2.0000     -15.544234      -422.9801
   1   2.0000     -11.250178      -306.1329
   2   2.0000     -11.247658      -306.0643
   3   2.0000     -11.239264      -305.8359
   4   2.0000     -11.222249      -305.3729
   5   2.0000     -11.220247      -305.3184
   6   2.0000     -11.220157      -305.3160
   7   2.0000     -11.219468      -305.2972
   8   2.0000     -11.212995      -305.1211
   9   2.0000      -1.259522       -34.2733
  10   2.0000      -1.077232       -29.3130
  11   2.0000      -1.011643       -27.5282
  12   2.0000      -0.994991       -27.0751
  13   2.0000      -0.955250       -25.9937
  14   2.0000      -0.882914       -24.0253
  15   2.0000      -0.796418       -21.6716
  16   2.0000      -0.775867       -21.1124
  17   2.0000      -0.757369       -20.6091
  18   2.0000      -0.677608       -18.4387
  19   2.0000      -0.635889       -17.3034
  20   2.0000      -0.620267       -16.8783
  21   2.0000      -0.600590       -16.3429
  22   2.0000      -0.587568       -15.9886
  23   2.0000      -0.570790       -15.5320
  24   2.0000      -0.558797       -15.2056
  25   2.0000      -0.542726       -14.7683
  26   2.0000      -0.541030       -14.7222
  27   2.0000      -0.535348       -14.5676
  28   2.0000      -0.506302       -13.7772
  29   2.0000      -0.492577       -13.4037
  30   2.0000      -0.477145       -12.9838
  31   2.0000      -0.467705       -12.7269
  32   2.0000      -0.464584       -12.6420
  33   2.0000      -0.435726       -11.8567
  34   2.0000      -0.422900       -11.5077
  35   2.0000      -0.347770        -9.4633
  36   0.0000       0.128859         3.5064
  37   0.0000       0.147061         4.0017
  38   0.0000       0.159193         4.3319
  39   0.0000       0.163272         4.4428
  40   0.0000       0.179556         4.8860

MULLIKEN ATOMIC CHARGES
-----------------------
   0 C :   -0.383893
   1 C :   -0.178055
   2 C :   -0.252755
   3 C :   -0.222465
   4 C :   -0.043515
   5 C :   -0.054043
   6 C :   -0.397612
   7 N :   -0.216523
   8 C :   -0.288377
   9 H :    0.121522
  10 H :    0.122294
  11 H :    0.133026
  12 H :    0.104437
  13 H :    0.104891
  14 H :    0.110727
  15 H :    0.113422
  16 H :    0.106172
  17 H :    0.121102
  18 H :    0.112019
  19 H :    0.108760
  20 H :    0.122699
  21 H :    0.140404
  22 H :    0.137415
  23 H :    0.102805
  24 H :    0.137268
  25 H :    0.138275
Sum of atomic charges:   -0.0000000

LOEWDIN ATOMIC CHARGES
----------------------
   0 C :   -0.321896
   1 C :   -0.297699
   2 C :   -0.265764
   3 C :   -0.253742
   4 C :   -0.244173
   5 C :   -0.264372
   6 C :   -0.301516
   7 N :    0.099304
   8 C :   -0.334683
   9 H :    0.119928
  10 H :    0.120194
  11 H :    0.120182
  12 H :    0.133807
  13 H :    0.134353
  14 H :    0.138024
  15 H :    0.138092
  16 H :    0.135873
  17 H :    0.142564
  18 H :    0.142824
  19 H :    0.139981
  20 H :    0.121237
  21 H :    0.128032
  22 H :    0.129907
  23 H :    0.101539
  24 H :    0.119144
  25 H :    0.118859

  Mayer bond orders larger than 0.1
B(  0-C ,  1-C ) :   0.9234 B(  0-C ,  9-H ) :   0.9396 B(  0-C , 10-H ) :   0.9394
B(  0-C , 11-H ) :   0.9431 B(  1-C ,  2-C ) :   0.9292 B(  1-C , 12-H ) :   0.9344
B(  1-C , 13-H ) :   0.9331 B(  2-C ,  3-C ) :   0.9297 B(  2-C , 14-H ) :   0.9325
B(  2-C , 15-H ) :   0.9305 B(  3-C ,  4-C ) :   0.8977 B(  3-C , 16-H ) :   0.9391
B(  3-C , 17-H ) :   0.9272 B(  4-C ,  5-C ) :   0.9540 B(  4-C ,  7-N ) :   0.9196
B(  4-C , 18-H ) :   0.9144 B(  5-C ,  6-C ) :   0.9054 B(  5-C ,  7-N ) :   0.9223
B(  5-C , 19-H ) :   0.9137 B(  6-C , 20-H ) :   0.9402 B(  6-C , 21-H ) :   0.9351
B(  6-C , 22-H ) :   0.9313 B(  7-N ,  8-C ) :   0.8911 B(  8-C , 23-H ) :   0.9273
B(  8-C , 24-H ) :   0.9386 B(  8-C , 25-H ) :   0.9377

MP2 TOTAL ENERGY:     -368.922864585 Eh
FINAL SINGLE POINT ENERGY      -368.922864585106

DIPOLE MOMENT
-------------
                                X             Y             Z
Electronic contribution:     -2.59279      -4.26447       5.08610
Nuclear contribution   :      2.97451       4.50772      -5.47299
                        -----------------------------------------
Total Dipole Moment    :      0.38173       0.24324      -0.38688
                        -----------------------------------------
Magnitude (a.u.)       :      0.59545
Magnitude (Debye)      :      1.51351

                             ****ORCA TERMINATED NORMALLY****
TOTAL RUN TIME: 0 days 0 hours 19 minutes 27 seconds 824 msec
