                         Program Version 3.0.3 - RELEASE   -
|  1> ! RI-MP2 RIJK def2-TZVP def2-TZVP/C def2-TZVP/JK TIGHTSCF
|  2> % maxcore 2000
|  3> % mp2 density relaxed end
|  4> *xyz 0 1
|  5>  C       -0.1659589484     1.5851085175     0.0780189213
|  6>  C        0.0204100250     0.0621230575     0.0091253352
|  7>  C        0.8054630200    -0.4148876714    -1.2005300905
|  8>  C        1.8127595261    -1.2351308808    -0.8872919748
|  9>  C        2.7713179292    -1.9279969302    -1.8014664147
| 10>  C        1.9046194236    -1.4025806334     0.6057034587
| 11>  O        2.1926593741    -2.6648457400     1.1308986013
| 12>  C        2.2617350008    -0.1485674638     1.3706758637
| 13>  C        0.8060280168    -0.5417329070     1.1763855751
| 14>  H        0.7978028153     2.1012494442     0.1283612186
| 15>  H       -0.6978697412     1.9544157451    -0.8053730383
| 16>  H       -0.7476309081     1.8682653260     0.9611820286
| 17>  H       -0.9830453388    -0.3894866982    -0.0122989653
| 18>  H        0.5643759026    -0.0852935729    -2.2066316594
| 19>  H        2.5344251779    -1.7432914167    -2.8522552379
| 20>  H        3.8041839135    -1.5998076505    -1.6223955161
| 21>  H        2.7508399563    -3.0102490518    -1.6274798769
| 22>  H        3.1479587007    -2.7383481131     1.2252436749
| 23>  H        2.6448212498    -0.2870132140     2.3773406631
| 24>  H        2.6793610496     0.6948792457     0.8302816994
| 25>  H        0.2740342654    -0.8702785520     2.0611822842
| 26> *
| 27>
| 28>                          ****END OF INPUT****

CARTESIAN COORDINATES (ANGSTROEM)
---------------------------------
  C     -0.165959    1.585109    0.078019
  C      0.020410    0.062123    0.009125
  C      0.805463   -0.414888   -1.200530
  C      1.812760   -1.235131   -0.887292
  C      2.771318   -1.927997   -1.801466
  C      1.904619   -1.402581    0.605703
  O      2.192659   -2.664846    1.130899
  C      2.261735   -0.148567    1.370676
  C      0.806028   -0.541733    1.176386
  H      0.797803    2.101249    0.128361
  H     -0.697870    1.954416   -0.805373
  H     -0.747631    1.868265    0.961182
  H     -0.983045   -0.389487   -0.012299
  H      0.564376   -0.085294   -2.206632
  H      2.534425   -1.743291   -2.852255
  H      3.804184   -1.599808   -1.622396
  H      2.750840   -3.010249   -1.627480
  H      3.147959   -2.738348    1.225244
  H      2.644821   -0.287013    2.377341
  H      2.679361    0.694879    0.830282
  H      0.274034   -0.870279    2.061182

 Total Charge           Charge          ....    0
 Multiplicity           Mult            ....    1
 Number of Electrons    NEL             ....   68
 Basis Dimension        Dim             ....  351

ORBITAL ENERGIES
----------------

  NO   OCC          E(Eh)            E(eV)
   0   2.0000     -20.562803      -559.5423
   1   2.0000     -11.282268      -307.0061
   2   2.0000     -11.230770      -305.6048
   3   2.0000     -11.229205      -305.5622
   4   2.0000     -11.225306      -305.4561
   5   2.0000     -11.224021      -305.4211
   6   2.0000     -11.221908      -305.3636
   7   2.0000     -11.213792      -305.1428
   8   2.0000     -11.212339      -305.1033
   9   2.0000      -1.372597       -37.3503
  10   2.0000      -1.173056       -31.9205
  11   2.0000      -1.051747       -28.6195
  12   2.0000      -1.024911       -27.8892
  13   2.0000      -0.935572       -25.4582
  14   2.0000      -0.862461       -23.4688
  15   2.0000      -0.833732       -22.6870
  16   2.0000      -0.751517       -20.4498
  17   2.0000      -0.737210       -20.0605
  18   2.0000      -0.684094       -18.6152
  19   2.0000      -0.646131       -17.5821
  20   2.0000      -0.609183       -16.5767
  21   2.0000      -0.591774       -16.1030
  22   2.0000      -0.585505       -15.9324
  23   2.0000      -0.570197       -15.5159
  24   2.0000      -0.565858       -15.3978
  25   2.0000      -0.548158       -14.9161
  26   2.0000      -0.526519       -14.3273
  27   2.0000      -0.515342       -14.0232
  28   2.0000      -0.491276       -13.3683
  29   2.0000      -0.479601       -13.0506
  30   2.0000      -0.459930       -12.5153
  31   2.0000      -0.417320       -11.3559
  32   2.0000      -0.392928       -10.6921
  33   2.0000      -0.325783        -8.8650
  34   0.0000       0.130885         3.5616
  35   0.0000       0.144242         3.9250
  36   0.0000       0.164755         4.4832
  37   0.0000       0.167969         4.5707
  38   0.0000       0.173034         4.7085

MULLIKEN ATOMIC CHARGES
-----------------------
   0 C :   -0.397551
   1 C :    0.043430
   2 C :   -0.261646
   3 C :    0.060177
   4 C :   -0.495757
   5 C :    0.217874
   6 O :   -0.461707
   7 C :   -0.351461
   8 C :   -0.110519
   9 H :    0.119633
  10 H :    0.128877
  11 H :    0.130436
  12 H :    0.099934
  13 H :    0.119788
  14 H :    0.140700
  15 H :    0.136312
  16 H :    0.156016
  17 H :    0.327642
  18 H :    0.137075
  19 H :    0.129987
  20 H :    0.130760
Sum of atomic charges:    0.0000000

LOEWDIN ATOMIC CHARGES
----------------------
   0 C :   -0.286475
   1 C :   -0.234521
   2 C :   -0.110228
   3 C :   -0.151640
   4 C :   -0.273872
   5 C :   -0.304101
   6 O :    0.026291
   7 C :   -0.188900
   8 C :   -0.141340
   9 H :    0.122078
  10 H :    0.122180
  11 H :    0.123717
  12 H :    0.159137
  13 H :    0.138083
  14 H :    0.131213
  15 H :    0.130222
  16 H :    0.134940
  17 H :    0.182342
  18 H :    0.137096
  19 H :    0.134601
  20 H :    0.149177

  Mayer bond orders larger than 0.1
B(  0-C ,  1-C ) :   0.8823 B(  0-C ,  9-H ) :   0.9316 B(  0-C , 10-H ) :   0.9398
B(  0-C , 11-H ) :   0.9390 B(  1-C ,  2-C ) :   0.9487 B(  1-C ,  8-C ) :   0.9281
B(  1-C , 12-H ) :   0.9100 B(  2-C ,  3-C ) :   1.7404 B(  2-C , 13-H ) :   0.9208
B(  3-C ,  4-C ) :   0.8528 B(  3-C ,  5-C ) :   0.9132 B(  4-C , 14-H ) :   0.9491
B(  4-C , 15-H ) :   0.9326 B(  4-C , 16-H ) :   0.9400 B(  5-C ,  6-O ) :   1.0160
B(  5-C ,  7-C ) :   0.8950 B(  5-C ,  8-C ) :   0.8739 B(  6-O , 17-H ) :   0.8386
B(  7-C ,  8-C ) :   0.8913 B(  7-C , 18-H ) :   0.9223 B(  7-C , 19-H ) :   0.9047
B(  8-C , 20-H ) :   0.9162

MP2 TOTAL ENERGY:     -386.414532149 Eh
FINAL SINGLE POINT ENERGY      -386.414532149307

DIPOLE MOMENT
-------------
                                X             Y             Z
Electronic contribution:      0.51907      -4.43973       2.12841
Nuclear contribution   :     -0.09305       4.74235      -2.22397
                        -----------------------------------------
Total Dipole Moment    :      0.42602       0.30261      -0.09556
                        -----------------------------------------
Magnitude (a.u.)       :      0.53122
Magnitude (Debye)      :      1.35026

                             ****ORCA TERMINATED NORMALLY****
TOTAL RUN TIME: 0 days 0 hours 20 minutes 12 seconds 510 msec
