                         Program Version 3.0.3 - RELEASE   -
|  1> ! RI-MP2 RIJK def2-TZVP def2-TZVP/C def2-TZVP/JK TIGHTSCF
|  2> % maxcore 2000
|  3> % mp2 density relaxed end
|  4> *xyz 0 1
|  5>  N        0.0196823107     1.3973980826     0.0906512434
|  6>  C       -0.0362638414     0.0213438617    -0.0049225805
|  7>  C       -1.1624334529    -0.7284552626     0.0912857583
|  8>  O       -2.3864204624    -0.2006571305     0.2242376004
|  9>  C       -1.0695346772    -2.1716613196     0.0435627522
| 10>  N       -2.1493395018    -2.8477408984     0.1325425022
| 11>  O        0.1696166776    -2.7024092638    -0.0952041634
| 12>  N        1.3586235589    -1.8315572999    -0.2163180390
| 13>  N        1.1832055712    -0.6170999795    -0.1628304176
| 14>  H        0.8261670231     1.8098288883    -0.3556610556
| 15>  H       -0.8482520904     1.8691040597    -0.1175906314
| 16>  H       -2.9833215801    -0.9758756052     0.2578787266
| 17>  H       -1.9933547053    -3.8518341327     0.0869037343
| 18> *
| 19>
| 20>                          ****END OF INPUT****

CARTESIAN COORDINATES (ANGSTROEM)
---------------------------------
  N      0.019682    1.397398    0.090651
  C     -0.036264    0.021344   -0.004923
  C     -1.162433   -0.728455    0.091286
  O     -2.386420   -0.200657    0.224238
  C     -1.069535   -2.171661    0.043563
  N     -2.149340   -2.847741    0.132543
  O      0.169617   -2.702409   -0.095204
  N      1.358624   -1.831557   -0.216318
  N      1.183206   -0.617100   -0.162830
  H      0.826167    1.809829   -0.355661
  H     -0.848252    1.869104   -0.117591
  H     -2.983322   -0.975876    0.257879
  H     -1.993355   -3.851834    0.086904

 Total Charge           Charge          ....    0
 Multiplicity           Mult            ....    1
 Number of Electrons    NEL             ....   66
 Basis Dimension        Dim             ....  303

ORBITAL ENERGIES
----------------

  NO   OCC          E(Eh)            E(eV)
   0   2.0000     -20.651071      -561.9442
   1   2.0000     -20.608361      -560.7820
   2   2.0000     -15.737698      -428.2445
   3   2.0000     -15.672780      -426.4780
   4   2.0000     -15.593719      -424.3267
   5   2.0000     -15.553657      -423.2365
   6   2.0000     -11.370544      -309.4082
   7   2.0000     -11.342415      -308.6428
   8   2.0000     -11.329257      -308.2847
   9   2.0000      -1.505223       -40.9592
  10   2.0000      -1.436152       -39.0797
  11   2.0000      -1.372878       -37.3579
  12   2.0000      -1.255244       -34.1569
  13   2.0000      -1.210832       -32.9484
  14   2.0000      -1.083369       -29.4800
  15   2.0000      -0.968101       -26.3434
  16   2.0000      -0.897329       -24.4176
  17   2.0000      -0.827392       -22.5145
  18   2.0000      -0.754402       -20.5283
  19   2.0000      -0.734286       -19.9809
  20   2.0000      -0.692717       -18.8498
  21   2.0000      -0.689780       -18.7699
  22   2.0000      -0.661401       -17.9976
  23   2.0000      -0.655175       -17.8282
  24   2.0000      -0.612940       -16.6789
  25   2.0000      -0.609838       -16.5945
  26   2.0000      -0.575805       -15.6684
  27   2.0000      -0.552748       -15.0410
  28   2.0000      -0.505488       -13.7550
  29   2.0000      -0.494514       -13.4564
  30   2.0000      -0.445141       -12.1129
  31   2.0000      -0.438911       -11.9434
  32   2.0000      -0.325104        -8.8465
  33   0.0000       0.052918         1.4400
  34   0.0000       0.126526         3.4429
  35   0.0000       0.144348         3.9279
  36   0.0000       0.158002         4.2994
  37   0.0000       0.184400         5.0178

MULLIKEN ATOMIC CHARGES
-----------------------
   0 N :   -0.505679
   1 C :    0.157000
   2 C :    0.179382
   3 O :   -0.434882
   4 C :    0.204585
   5 N :   -0.507406
   6 O :   -0.155352
   7 N :   -0.006367
   8 N :   -0.067060
   9 H :    0.266795
  10 H :    0.270132
  11 H :    0.368675
  12 H :    0.230178
Sum of atomic charges:    0.0000000

LOEWDIN ATOMIC CHARGES
----------------------
   0 N :   -0.042435
   1 C :   -0.329651
   2 C :   -0.265281
   3 O :    0.108870
   4 C :   -0.425360
   5 N :   -0.092444
   6 O :    0.194362
   7 N :    0.025952
   8 N :    0.083886
   9 H :    0.178125
  10 H :    0.180062
  11 H :    0.214930
  12 H :    0.168984

  Mayer bond orders larger than 0.1
B(  0-N ,  1-C ) :   1.1004 B(  0-N ,  9-H ) :   0.8604 B(  0-N , 10-H ) :   0.8638
B(  1-C ,  2-C ) :   1.4252 B(  1-C ,  8-N ) :   1.1225 B(  2-C ,  3-O ) :   1.1413
B(  2-C ,  4-C ) :   1.0273 B(  3-O , 11-H ) :   0.7705 B(  4-C ,  5-N ) :   1.7996
B(  4-C ,  6-O ) :   1.1356 B(  5-N , 12-H ) :   0.8588 B(  6-O ,  7-N ) :   0.7458
B(  7-N ,  8-N ) :   1.5568

MP2 TOTAL ENERGY:     -485.257188270 Eh
FINAL SINGLE POINT ENERGY      -485.257188269926

DIPOLE MOMENT
-------------
                                X             Y             Z
Electronic contribution:      2.58643      -2.12564      -0.18187
Nuclear contribution   :     -2.87955       2.92064      -0.15841
                        -----------------------------------------
Total Dipole Moment    :     -0.29312       0.79500      -0.34028
                        -----------------------------------------
Magnitude (a.u.)       :      0.91309
Magnitude (Debye)      :      2.32089

                             ****ORCA TERMINATED NORMALLY****
TOTAL RUN TIME: 0 days 0 hours 14 minutes 59 seconds 768 msec
