                         Program Version 3.0.3 - RELEASE   -
|  1> ! RI-MP2 RIJK def2-TZVP def2-TZVP/C def2-TZVP/JK TIGHTSCF
|  2> % maxcore 2000
|  3> % mp2 density relaxed end
|  4> *xyz 0 1
|  5>  C       -0.0011572351     1.5384844187    -0.0143988670
|  6>  C        1.5235699286     1.7790755781     0.0012567464
|  7>  C        2.0225463270     1.3995344866     1.4168251851
|  8>  O        1.7732319813     0.0354572210     1.7274183904
|  9>  C        0.4660219530    -0.4311377516     1.4227516740
| 10>  C        0.0066558980    -0.0050175502     0.0070271213
| 11>  C        1.1210780189    -0.2938150329    -0.9923317522
| 12>  C        1.9846487651     0.7218571599    -0.9956163587
| 13>  H       -0.5183882370     1.9810311528     0.8438126242
| 14>  H       -0.4526770225     1.9194139617    -0.9346433860
| 15>  H        1.8244332149     2.8036660071    -0.2358816333
| 16>  H        3.1063728761     1.5236995715     1.5076539462
| 17>  H        1.5419185654     2.0617414515     2.1574280660
| 18>  H        0.5180683851    -1.5204753056     1.5175167739
| 19>  H       -0.2624966646    -0.0604705157     2.1642904775
| 20>  H       -0.9569573179    -0.4676299912    -0.2253056733
| 21>  H        1.2218026569    -1.2286677611    -1.5307452801
| 22>  H        2.9218017769     0.7707698694    -1.5372214545
| 23> *
| 24>
| 25>                          ****END OF INPUT****

CARTESIAN COORDINATES (ANGSTROEM)
---------------------------------
  C     -0.001157    1.538484   -0.014399
  C      1.523570    1.779076    0.001257
  C      2.022546    1.399534    1.416825
  O      1.773232    0.035457    1.727418
  C      0.466022   -0.431138    1.422752
  C      0.006656   -0.005018    0.007027
  C      1.121078   -0.293815   -0.992332
  C      1.984649    0.721857   -0.995616
  H     -0.518388    1.981031    0.843813
  H     -0.452677    1.919414   -0.934643
  H      1.824433    2.803666   -0.235882
  H      3.106373    1.523700    1.507654
  H      1.541919    2.061741    2.157428
  H      0.518068   -1.520475    1.517517
  H     -0.262497   -0.060471    2.164290
  H     -0.956957   -0.467630   -0.225306
  H      1.221803   -1.228668   -1.530745
  H      2.921802    0.770770   -1.537221

 Total Charge           Charge          ....    0
 Multiplicity           Mult            ....    1
 Number of Electrons    NEL             ....   60
 Basis Dimension        Dim             ....  308

ORBITAL ENERGIES
----------------

  NO   OCC          E(Eh)            E(eV)
   0   2.0000     -20.545452      -559.0702
   1   2.0000     -11.271163      -306.7039
   2   2.0000     -11.271144      -306.7034
   3   2.0000     -11.232187      -305.6434
   4   2.0000     -11.232181      -305.6432
   5   2.0000     -11.222144      -305.3701
   6   2.0000     -11.221777      -305.3601
   7   2.0000     -11.220409      -305.3229
   8   2.0000      -1.366517       -37.1848
   9   2.0000      -1.144901       -31.1543
  10   2.0000      -1.027990       -27.9730
  11   2.0000      -0.975874       -26.5549
  12   2.0000      -0.879604       -23.9352
  13   2.0000      -0.872263       -23.7355
  14   2.0000      -0.751004       -20.4359
  15   2.0000      -0.729830       -19.8597
  16   2.0000      -0.694289       -18.8926
  17   2.0000      -0.649212       -17.6659
  18   2.0000      -0.638120       -17.3641
  19   2.0000      -0.611536       -16.6408
  20   2.0000      -0.560289       -15.2462
  21   2.0000      -0.559202       -15.2167
  22   2.0000      -0.542224       -14.7547
  23   2.0000      -0.533252       -14.5105
  24   2.0000      -0.497493       -13.5375
  25   2.0000      -0.471612       -12.8332
  26   2.0000      -0.445002       -12.1091
  27   2.0000      -0.443234       -12.0610
  28   2.0000      -0.414768       -11.2864
  29   2.0000      -0.339940        -9.2502
  30   0.0000       0.139868         3.8060
  31   0.0000       0.142446         3.8761
  32   0.0000       0.169265         4.6059
  33   0.0000       0.175859         4.7854
  34   0.0000       0.183034         4.9806

MULLIKEN ATOMIC CHARGES
-----------------------
   0 C :   -0.278747
   1 C :    0.002450
   2 C :   -0.074504
   3 O :   -0.315494
   4 C :   -0.074504
   5 C :    0.002449
   6 C :   -0.209060
   7 C :   -0.209063
   8 H :    0.121986
   9 H :    0.115422
  10 H :    0.117176
  11 H :    0.118168
  12 H :    0.096606
  13 H :    0.118168
  14 H :    0.096606
  15 H :    0.117176
  16 H :    0.127581
  17 H :    0.127581
Sum of atomic charges:    0.0000000

LOEWDIN ATOMIC CHARGES
----------------------
   0 C :   -0.204202
   1 C :   -0.232434
   2 C :   -0.286641
   3 O :    0.155857
   4 C :   -0.286641
   5 C :   -0.232434
   6 C :   -0.128406
   7 C :   -0.128405
   8 H :    0.133502
   9 H :    0.139782
  10 H :    0.147273
  11 H :    0.130099
  12 H :    0.121850
  13 H :    0.130099
  14 H :    0.121850
  15 H :    0.147272
  16 H :    0.135789
  17 H :    0.135789

  Mayer bond orders larger than 0.1
B(  0-C ,  1-C ) :   0.9232 B(  0-C ,  5-C ) :   0.9232 B(  0-C ,  8-H ) :   0.9355
B(  0-C ,  9-H ) :   0.9171 B(  1-C ,  2-C ) :   0.8972 B(  1-C ,  7-C ) :   0.9105
B(  1-C , 10-H ) :   0.9158 B(  2-C ,  3-O ) :   0.9422 B(  2-C , 11-H ) :   0.9263
B(  2-C , 12-H ) :   0.9308 B(  3-O ,  4-C ) :   0.9422 B(  4-C ,  5-C ) :   0.8972
B(  4-C , 13-H ) :   0.9263 B(  4-C , 14-H ) :   0.9308 B(  5-C ,  6-C ) :   0.9105
B(  5-C , 15-H ) :   0.9158 B(  6-C ,  7-C ) :   1.8162 B(  6-C , 16-H ) :   0.9235
B(  7-C , 17-H ) :   0.9235

MP2 TOTAL ENERGY:     -347.205342834 Eh
FINAL SINGLE POINT ENERGY      -347.205342834018

DIPOLE MOMENT
-------------
                                X             Y             Z
Electronic contribution:      1.73375      -1.47473      -0.19213
Nuclear contribution   :     -2.07025       1.76015      -0.02219
                        -----------------------------------------
Total Dipole Moment    :     -0.33650       0.28542      -0.21432
                        -----------------------------------------
Magnitude (a.u.)       :      0.49054
Magnitude (Debye)      :      1.24685

                             ****ORCA TERMINATED NORMALLY****
TOTAL RUN TIME: 0 days 0 hours 13 minutes 33 seconds 437 msec
