                         Program Version 3.0.3 - RELEASE   -
|  1> ! RI-MP2 RIJK def2-TZVP def2-TZVP/C def2-TZVP/JK TIGHTSCF
|  2> % maxcore 2000
|  3> % mp2 density relaxed end
|  4> *xyz 0 1
|  5>  C        0.1282020891     1.5767410644    -0.1205478348
|  6>  C        0.0919032028     0.1240223545    -0.0548780105
|  7>  C        0.0577937862    -1.0786852114    -0.0131354218
|  8>  C        0.0118477039    -2.5340872138     0.0639777413
|  9>  C        0.1549419115    -3.1430516873     1.5029004071
| 10>  C       -1.2686781523    -3.6760545188     1.2766738248
| 11>  O       -1.3534242755    -3.0516256541    -0.0226071637
| 12>  C        0.8810101308    -3.1435869961    -0.9419297316
| 13>  C        1.5996363939    -3.6701223580    -1.7482389394
| 14>  H        0.7431811169     1.9205547539    -0.9591749543
| 15>  H       -0.8784969914     1.9872928626    -0.2549020603
| 16>  H        0.5426725548     2.0067836701     0.7977530197
| 17>  H        0.9422653719    -3.8898743776     1.5953939004
| 18>  H        0.2578653313    -2.3882208735     2.2813242042
| 19>  H       -1.3580044425    -4.7663135778     1.2082570010
| 20>  H       -2.0368824272    -3.2956351079     1.9589052054
| 21>  H        2.2299391455    -4.1246235992    -2.4722632774
| 22> *
| 23>
| 24>                          ****END OF INPUT****

CARTESIAN COORDINATES (ANGSTROEM)
---------------------------------
  C      0.128202    1.576741   -0.120548
  C      0.091903    0.124022   -0.054878
  C      0.057794   -1.078685   -0.013135
  C      0.011848   -2.534087    0.063978
  C      0.154942   -3.143052    1.502900
  C     -1.268678   -3.676055    1.276674
  O     -1.353424   -3.051626   -0.022607
  C      0.881010   -3.143587   -0.941930
  C      1.599636   -3.670122   -1.748239
  H      0.743181    1.920555   -0.959175
  H     -0.878497    1.987293   -0.254902
  H      0.542673    2.006784    0.797753
  H      0.942265   -3.889874    1.595394
  H      0.257865   -2.388221    2.281324
  H     -1.358004   -4.766314    1.208257
  H     -2.036882   -3.295635    1.958905
  H      2.229939   -4.124624   -2.472263

 Total Charge           Charge          ....    0
 Multiplicity           Mult            ....    1
 Number of Electrons    NEL             ....   64
 Basis Dimension        Dim             ....  327

ORBITAL ENERGIES
----------------

  NO   OCC          E(Eh)            E(eV)
   0   2.0000     -20.559724      -559.4585
   1   2.0000     -11.341773      -308.6253
   2   2.0000     -11.284910      -307.0780
   3   2.0000     -11.250800      -306.1498
   4   2.0000     -11.245426      -306.0036
   5   2.0000     -11.238006      -305.8017
   6   2.0000     -11.235726      -305.7396
   7   2.0000     -11.231273      -305.6185
   8   2.0000     -11.223078      -305.3955
   9   2.0000      -1.388825       -37.7918
  10   2.0000      -1.088577       -29.6217
  11   2.0000      -1.048690       -28.5363
  12   2.0000      -1.015003       -27.6196
  13   2.0000      -0.984574       -26.7916
  14   2.0000      -0.928393       -25.2628
  15   2.0000      -0.813848       -22.1459
  16   2.0000      -0.755176       -20.5494
  17   2.0000      -0.704550       -19.1718
  18   2.0000      -0.685061       -18.6414
  19   2.0000      -0.640587       -17.4313
  20   2.0000      -0.625268       -17.0144
  21   2.0000      -0.611578       -16.6419
  22   2.0000      -0.591386       -16.0924
  23   2.0000      -0.589685       -16.0462
  24   2.0000      -0.553653       -15.0657
  25   2.0000      -0.520251       -14.1567
  26   2.0000      -0.477144       -12.9837
  27   2.0000      -0.443319       -12.0633
  28   2.0000      -0.406959       -11.0739
  29   2.0000      -0.393796       -10.7157
  30   2.0000      -0.376669       -10.2497
  31   2.0000      -0.372976       -10.1492
  32   0.0000       0.134619         3.6632
  33   0.0000       0.135826         3.6960
  34   0.0000       0.148805         4.0492
  35   0.0000       0.163918         4.4604
  36   0.0000       0.170215         4.6318

MULLIKEN ATOMIC CHARGES
-----------------------
   0 C :   -0.485621
   1 C :    0.111118
   2 C :   -0.088815
   3 C :    0.102304
   4 C :   -0.292450
   5 C :   -0.031827
   6 O :   -0.318202
   7 C :   -0.054892
   8 C :   -0.118931
   9 H :    0.166967
  10 H :    0.168260
  11 H :    0.162979
  12 H :    0.141397
  13 H :    0.138307
  14 H :    0.101874
  15 H :    0.103175
  16 H :    0.194357
Sum of atomic charges:    0.0000000

LOEWDIN ATOMIC CHARGES
----------------------
   0 C :   -0.290440
   1 C :   -0.074869
   2 C :   -0.024568
   3 C :   -0.295831
   4 C :   -0.171767
   5 C :   -0.268189
   6 O :    0.171810
   7 C :   -0.045535
   8 C :   -0.071854
   9 H :    0.143102
  10 H :    0.144344
  11 H :    0.141816
  12 H :    0.137945
  13 H :    0.138405
  14 H :    0.118685
  15 H :    0.118161
  16 H :    0.128784

  Mayer bond orders larger than 0.1
B(  0-C ,  1-C ) :   0.8424 B(  0-C ,  9-H ) :   0.9484 B(  0-C , 10-H ) :   0.9434
B(  0-C , 11-H ) :   0.9479 B(  1-C ,  2-C ) :   2.5883 B(  1-C ,  3-C ) :  -0.1364
B(  2-C ,  3-C ) :   1.1980 B(  3-C ,  4-C ) :   0.8625 B(  3-C ,  6-O ) :   0.9353
B(  3-C ,  7-C ) :   1.1996 B(  3-C ,  8-C ) :  -0.1069 B(  4-C ,  5-C ) :   0.9834
B(  4-C , 12-H ) :   0.9263 B(  4-C , 13-H ) :   0.9269 B(  5-C ,  6-O ) :   0.9551
B(  5-C , 14-H ) :   0.9155 B(  5-C , 15-H ) :   0.9158 B(  7-C ,  8-C ) :   2.5325
B(  8-C , 16-H ) :   0.8909

MP2 TOTAL ENERGY:     -383.905424665 Eh
FINAL SINGLE POINT ENERGY      -383.905424665073

DIPOLE MOMENT
-------------
                                X             Y             Z
Electronic contribution:     -0.00106      -3.44503      -3.08347
Nuclear contribution   :      0.47711       3.71435       3.68499
                        -----------------------------------------
Total Dipole Moment    :      0.47605       0.26932       0.60152
                        -----------------------------------------
Magnitude (a.u.)       :      0.81301
Magnitude (Debye)      :      2.06650

                             ****ORCA TERMINATED NORMALLY****
TOTAL RUN TIME: 0 days 0 hours 15 minutes 22 seconds 8 msec
