                         Program Version 3.0.3 - RELEASE   -
|  1> ! RI-MP2 RIJK def2-TZVP def2-TZVP/C def2-TZVP/JK TIGHTSCF
|  2> % maxcore 2000
|  3> % mp2 density relaxed end
|  4> *xyz 0 1
|  5>  C       -0.1531290676     1.5710483721     0.0514071993
|  6>  C       -0.0150461780     0.0614751219     0.0509204262
|  7>  O       -1.2246306684    -0.5947602523     0.3966888667
|  8>  C        0.6650182041    -0.6122111584    -1.1599132376
|  9>  N        2.0701918387    -0.1300432962    -1.1697490375
| 10>  C        1.6780916394    -1.2669406479    -0.2947097342
| 11>  C        1.1175803003    -0.5827539991     0.9584922813
| 12>  O        1.9883366846     0.2571056639     1.6579416097
| 13>  H        0.7793781088     2.0477387581    -0.2580680631
| 14>  H       -0.9391264039     1.8864255658    -0.6469735427
| 15>  H       -0.4159556384     1.9263601131     1.0515685188
| 16>  H       -1.9171873610    -0.2691710178    -0.1888620781
| 17>  H        0.1906808127    -0.9787930518    -2.0629688462
| 18>  H        2.5286784071    -0.5144949178    -1.9938812357
| 19>  H        2.1670587989    -2.2290858503    -0.3833761480
| 20>  H        0.6521612695    -1.2681900810     1.6687557172
| 21>  H        2.5180649732     0.7014313278     0.9819100739
| 22> *
| 23>
| 24>                          ****END OF INPUT****

CARTESIAN COORDINATES (ANGSTROEM)
---------------------------------
  C     -0.153129    1.571048    0.051407
  C     -0.015046    0.061475    0.050920
  O     -1.224631   -0.594760    0.396689
  C      0.665018   -0.612211   -1.159913
  N      2.070192   -0.130043   -1.169749
  C      1.678092   -1.266941   -0.294710
  C      1.117580   -0.582754    0.958492
  O      1.988337    0.257106    1.657942
  H      0.779378    2.047739   -0.258068
  H     -0.939126    1.886426   -0.646974
  H     -0.415956    1.926360    1.051569
  H     -1.917187   -0.269171   -0.188862
  H      0.190681   -0.978793   -2.062969
  H      2.528678   -0.514495   -1.993881
  H      2.167059   -2.229086   -0.383376
  H      0.652161   -1.268190    1.668756
  H      2.518065    0.701431    0.981910

 Total Charge           Charge          ....    0
 Multiplicity           Mult            ....    1
 Number of Electrons    NEL             ....   62
 Basis Dimension        Dim             ....  302

ORBITAL ENERGIES
----------------

  NO   OCC          E(Eh)            E(eV)
   0   2.0000     -20.562164      -559.5249
   1   2.0000     -20.549941      -559.1923
   2   2.0000     -15.574696      -423.8090
   3   2.0000     -11.291811      -307.2658
   4   2.0000     -11.280702      -306.9635
   5   2.0000     -11.268499      -306.6315
   6   2.0000     -11.265969      -306.5626
   7   2.0000     -11.214870      -305.1721
   8   2.0000      -1.378958       -37.5234
   9   2.0000      -1.359242       -36.9868
  10   2.0000      -1.280306       -34.8389
  11   2.0000      -1.043708       -28.4007
  12   2.0000      -0.971455       -26.4346
  13   2.0000      -0.875810       -23.8320
  14   2.0000      -0.833643       -22.6846
  15   2.0000      -0.763032       -20.7631
  16   2.0000      -0.738582       -20.0978
  17   2.0000      -0.671402       -18.2698
  18   2.0000      -0.657363       -17.8878
  19   2.0000      -0.618986       -16.8435
  20   2.0000      -0.605267       -16.4702
  21   2.0000      -0.592783       -16.1304
  22   2.0000      -0.569425       -15.4948
  23   2.0000      -0.536993       -14.6123
  24   2.0000      -0.524678       -14.2772
  25   2.0000      -0.511314       -13.9136
  26   2.0000      -0.492651       -13.4057
  27   2.0000      -0.484667       -13.1885
  28   2.0000      -0.434908       -11.8345
  29   2.0000      -0.405797       -11.0423
  30   2.0000      -0.379998       -10.3403
  31   0.0000       0.132235         3.5983
  32   0.0000       0.137195         3.7333
  33   0.0000       0.164944         4.4884
  34   0.0000       0.181215         4.9311
  35   0.0000       0.194521         5.2932

MULLIKEN ATOMIC CHARGES
-----------------------
   0 C :   -0.439477
   1 C :    0.284777
   2 O :   -0.468647
   3 C :   -0.115165
   4 N :   -0.436176
   5 C :   -0.099024
   6 C :    0.048942
   7 O :   -0.463157
   8 H :    0.135061
   9 H :    0.113856
  10 H :    0.153724
  11 H :    0.314653
  12 H :    0.149905
  13 H :    0.220902
  14 H :    0.141037
  15 H :    0.125633
  16 H :    0.333155
Sum of atomic charges:   -0.0000000

LOEWDIN ATOMIC CHARGES
----------------------
   0 C :   -0.282711
   1 C :   -0.353423
   2 O :    0.014822
   3 C :   -0.205425
   4 N :   -0.011075
   5 C :   -0.217541
   6 C :   -0.275308
   7 O :    0.000296
   8 H :    0.132357
   9 H :    0.122919
  10 H :    0.133984
  11 H :    0.176455
  12 H :    0.130125
  13 H :    0.172532
  14 H :    0.129559
  15 H :    0.149769
  16 H :    0.182667

  Mayer bond orders larger than 0.1
B(  0-C ,  1-C ) :   0.9234 B(  0-C ,  8-H ) :   0.9241 B(  0-C ,  9-H ) :   0.9264
B(  0-C , 10-H ) :   0.9348 B(  1-C ,  2-O ) :   1.0035 B(  1-C ,  3-C ) :   0.8747
B(  1-C ,  6-C ) :   0.8995 B(  2-O , 11-H ) :   0.8405 B(  3-C ,  4-N ) :   0.9191
B(  3-C ,  5-C ) :   0.8921 B(  3-C , 12-H ) :   0.8899 B(  4-N ,  5-C ) :   0.8648
B(  4-N , 13-H ) :   0.8693 B(  5-C ,  6-C ) :   0.9746 B(  5-C , 14-H ) :   0.9196
B(  6-C ,  7-O ) :   1.0175 B(  6-C , 15-H ) :   0.9309 B(  7-O , 16-H ) :   0.8221

MP2 TOTAL ENERGY:     -400.312478379 Eh
FINAL SINGLE POINT ENERGY      -400.312478378713

DIPOLE MOMENT
-------------
                                X             Y             Z
Electronic contribution:      0.96488      -2.59515       1.10270
Nuclear contribution   :     -1.11810       2.38492      -2.42456
                        -----------------------------------------
Total Dipole Moment    :     -0.15322      -0.21024      -1.32186
                        -----------------------------------------
Magnitude (a.u.)       :      1.34722
Magnitude (Debye)      :      3.42436

                             ****ORCA TERMINATED NORMALLY****
TOTAL RUN TIME: 0 days 0 hours 11 minutes 37 seconds 416 msec
