                         Program Version 3.0.3 - RELEASE   -
|  1> ! RI-MP2 RIJK def2-TZVP def2-TZVP/C def2-TZVP/JK TIGHTSCF
|  2> % maxcore 2000
|  3> % mp2 density relaxed end
|  4> *xyz 0 1
|  5>  C        0.2243877401     1.1635159015    -0.4063788422
|  6>  N       -0.0319701373    -0.1613354825     0.1579151089
|  7>  C        0.5451036337    -0.3181691541     1.5003587309
|  8>  C       -1.3990660056    -0.5920568850     0.0658291166
|  9>  C       -1.8661004939    -1.0886069034    -1.3162648814
| 10>  C       -1.5393840585    -2.0964555409    -0.2759910960
| 11>  O       -0.3706267661    -2.8330584742    -0.3332776661
| 12>  C       -2.4453214916     0.0120239580     0.9217399892
| 13>  O       -2.2710932960     0.9155308206     1.7058603325
| 14>  H        1.3053900292     1.3306472539    -0.4518431674
| 15>  H       -0.1705606938     1.2134415573    -1.4248717515
| 16>  H       -0.2289287385     1.9713919608     0.1852284396
| 17>  H        0.1273469466     0.3868383965     2.2294342201
| 18>  H        0.3677326697    -1.3386944788     1.8496344653
| 19>  H        1.6269438039    -0.1619707746     1.4381033164
| 20>  H       -2.9030101281    -0.9166043614    -1.5847050717
| 21>  H       -1.1526355350    -0.9533589856    -2.1213600491
| 22>  H       -2.3459538217    -2.6518563097     0.1916015947
| 23>  H        0.3355709660    -2.1736767185    -0.4435748123
| 24>  H       -3.4554032130    -0.4468393198     0.7910458734
| 25> *
| 26>
| 27>                          ****END OF INPUT****

CARTESIAN COORDINATES (ANGSTROEM)
---------------------------------
  C      0.224388    1.163516   -0.406379
  N     -0.031970   -0.161335    0.157915
  C      0.545104   -0.318169    1.500359
  C     -1.399066   -0.592057    0.065829
  C     -1.866100   -1.088607   -1.316265
  C     -1.539384   -2.096456   -0.275991
  O     -0.370627   -2.833058   -0.333278
  C     -2.445321    0.012024    0.921740
  O     -2.271093    0.915531    1.705860
  H      1.305390    1.330647   -0.451843
  H     -0.170561    1.213442   -1.424872
  H     -0.228929    1.971392    0.185228
  H      0.127347    0.386838    2.229434
  H      0.367733   -1.338694    1.849634
  H      1.626944   -0.161971    1.438103
  H     -2.903010   -0.916604   -1.584705
  H     -1.152636   -0.953359   -2.121360
  H     -2.345954   -2.651856    0.191602
  H      0.335571   -2.173677   -0.443575
  H     -3.455403   -0.446839    0.791046

 Total Charge           Charge          ....    0
 Multiplicity           Mult            ....    1
 Number of Electrons    NEL             ....   70
 Basis Dimension        Dim             ....  345

ORBITAL ENERGIES
----------------

  NO   OCC          E(Eh)            E(eV)
   0   2.0000     -20.567982      -559.6832
   1   2.0000     -20.556261      -559.3643
   2   2.0000     -15.569755      -423.6746
   3   2.0000     -11.337375      -308.5056
   4   2.0000     -11.308574      -307.7219
   5   2.0000     -11.281612      -306.9883
   6   2.0000     -11.252406      -306.1935
   7   2.0000     -11.250112      -306.1311
   8   2.0000     -11.246281      -306.0269
   9   2.0000      -1.397811       -38.0364
  10   2.0000      -1.386949       -37.7408
  11   2.0000      -1.248076       -33.9619
  12   2.0000      -1.131372       -30.7862
  13   2.0000      -0.959898       -26.1201
  14   2.0000      -0.926808       -25.2197
  15   2.0000      -0.876853       -23.8604
  16   2.0000      -0.844963       -22.9926
  17   2.0000      -0.762424       -20.7466
  18   2.0000      -0.727785       -19.8040
  19   2.0000      -0.687136       -18.6979
  20   2.0000      -0.651711       -17.7340
  21   2.0000      -0.640405       -17.4263
  22   2.0000      -0.621956       -16.9243
  23   2.0000      -0.615250       -16.7418
  24   2.0000      -0.586165       -15.9504
  25   2.0000      -0.574574       -15.6350
  26   2.0000      -0.567194       -15.4341
  27   2.0000      -0.557308       -15.1651
  28   2.0000      -0.530801       -14.4438
  29   2.0000      -0.530295       -14.4301
  30   2.0000      -0.517895       -14.0926
  31   2.0000      -0.454613       -12.3706
  32   2.0000      -0.432643       -11.7728
  33   2.0000      -0.402593       -10.9551
  34   2.0000      -0.363743        -9.8980
  35   0.0000       0.121854         3.3158
  36   0.0000       0.142288         3.8718
  37   0.0000       0.146575         3.9885
  38   0.0000       0.166640         4.5345
  39   0.0000       0.181746         4.9456

MULLIKEN ATOMIC CHARGES
-----------------------
   0 C :   -0.323971
   1 N :   -0.248284
   2 C :   -0.341966
   3 C :    0.129721
   4 C :   -0.275328
   5 C :    0.040894
   6 O :   -0.451005
   7 C :    0.067603
   8 O :   -0.289501
   9 H :    0.134398
  10 H :    0.131137
  11 H :    0.147862
  12 H :    0.154964
  13 H :    0.151763
  14 H :    0.135841
  15 H :    0.145306
  16 H :    0.151752
  17 H :    0.133703
  18 H :    0.329278
  19 H :    0.075833
Sum of atomic charges:   -0.0000000

LOEWDIN ATOMIC CHARGES
----------------------
   0 C :   -0.309992
   1 N :    0.075777
   2 C :   -0.312253
   3 C :   -0.288565
   4 C :   -0.180640
   5 C :   -0.289954
   6 O :    0.016007
   7 C :   -0.278904
   8 O :    0.125414
   9 H :    0.117951
  10 H :    0.118937
  11 H :    0.114843
  12 H :    0.115410
  13 H :    0.124509
  14 H :    0.117688
  15 H :    0.140343
  16 H :    0.146887
  17 H :    0.143665
  18 H :    0.182954
  19 H :    0.119923

  Mayer bond orders larger than 0.1
B(  0-C ,  1-N ) :   0.8969 B(  0-C ,  9-H ) :   0.9337 B(  0-C , 10-H ) :   0.9365
B(  0-C , 11-H ) :   0.9321 B(  1-N ,  2-C ) :   0.8666 B(  1-N ,  3-C ) :   0.8842
B(  2-C , 12-H ) :   0.9258 B(  2-C , 13-H ) :   0.9318 B(  2-C , 14-H ) :   0.9346
B(  3-C ,  4-C ) :   0.8204 B(  3-C ,  5-C ) :   0.8273 B(  3-C ,  7-C ) :   0.8982
B(  4-C ,  5-C ) :   0.8851 B(  4-C , 15-H ) :   0.9155 B(  4-C , 16-H ) :   0.9083
B(  5-C ,  6-O ) :   1.0223 B(  5-C , 17-H ) :   0.9428 B(  6-O , 18-H ) :   0.7936
B(  7-C ,  8-O ) :   1.9583 B(  7-C , 19-H ) :   0.9393

MP2 TOTAL ENERGY:     -439.540555403 Eh
FINAL SINGLE POINT ENERGY      -439.540555402726

DIPOLE MOMENT
-------------
                                X             Y             Z
Electronic contribution:     -3.99056      -2.11420       1.20913
Nuclear contribution   :      4.05817       2.21597      -1.82318
                        -----------------------------------------
Total Dipole Moment    :      0.06761       0.10177      -0.61406
                        -----------------------------------------
Magnitude (a.u.)       :      0.62609
Magnitude (Debye)      :      1.59140

                             ****ORCA TERMINATED NORMALLY****
TOTAL RUN TIME: 0 days 0 hours 22 minutes 7 seconds 8 msec
