                         Program Version 3.0.3 - RELEASE   -
|  1> ! RI-MP2 RIJK def2-TZVP def2-TZVP/C def2-TZVP/JK TIGHTSCF
|  2> % maxcore 2000
|  3> % mp2 density relaxed end
|  4> *xyz 0 1
|  5>  C        0.1693900507     1.5394687006     0.1187715817
|  6>  C       -0.0270273654     0.0381883667     0.0909277473
|  7>  O        0.8865806618    -0.6524544640    -0.8297735382
|  8>  C        1.1423875775    -1.7159646506     0.1682635421
|  9>  C        0.4048265611    -2.9847375606    -0.2333196493
| 10>  C        2.5720135283    -1.9501892885     0.6990706534
| 11>  C        2.3953307783    -1.7669119078     2.2440198987
| 12>  C        1.2501717586    -0.7550709840     2.3315288728
| 13>  C        0.5542453158    -0.8042072770     1.2019192248
| 14>  H        1.1999853744     1.7853692311     0.3864908875
| 15>  H       -0.0506214736     1.9675576747    -0.8641447391
| 16>  H       -0.5065587961     1.9972909569     0.8489147587
| 17>  H       -1.0655030691    -0.2093660507    -0.1721549718
| 18>  H        0.8278622510    -3.3795548688    -1.1632349916
| 19>  H        0.5031332311    -3.7544843389     0.5397085720
| 20>  H       -0.6594357991    -2.7944624785    -0.3976878000
| 21>  H        2.9992090394    -2.9190213126     0.4227633946
| 22>  H        3.2240009857    -1.1612264537     0.3124012191
| 23>  H        2.1633431547    -2.7192343499     2.7402694576
| 24>  H        3.3041162276    -1.3851852796     2.7206074969
| 25>  H        1.1450622275    -0.0464781150     3.1447954628
| 26> *
| 27>
| 28>                          ****END OF INPUT****

CARTESIAN COORDINATES (ANGSTROEM)
---------------------------------
  C      0.169390    1.539469    0.118772
  C     -0.027027    0.038188    0.090928
  O      0.886581   -0.652454   -0.829774
  C      1.142388   -1.715965    0.168264
  C      0.404827   -2.984738   -0.233320
  C      2.572014   -1.950189    0.699071
  C      2.395331   -1.766912    2.244020
  C      1.250172   -0.755071    2.331529
  C      0.554245   -0.804207    1.201919
  H      1.199985    1.785369    0.386491
  H     -0.050621    1.967558   -0.864145
  H     -0.506559    1.997291    0.848915
  H     -1.065503   -0.209366   -0.172155
  H      0.827862   -3.379555   -1.163235
  H      0.503133   -3.754484    0.539709
  H     -0.659436   -2.794462   -0.397688
  H      2.999209   -2.919021    0.422763
  H      3.224001   -1.161226    0.312401
  H      2.163343   -2.719234    2.740269
  H      3.304116   -1.385185    2.720607
  H      1.145062   -0.046478    3.144795

 Total Charge           Charge          ....    0
 Multiplicity           Mult            ....    1
 Number of Electrons    NEL             ....   68
 Basis Dimension        Dim             ....  351

ORBITAL ENERGIES
----------------

  NO   OCC          E(Eh)            E(eV)
   0   2.0000     -20.543208      -559.0091
   1   2.0000     -11.291193      -307.2490
   2   2.0000     -11.278733      -306.9099
   3   2.0000     -11.233233      -305.6718
   4   2.0000     -11.231438      -305.6230
   5   2.0000     -11.225512      -305.4617
   6   2.0000     -11.223988      -305.4202
   7   2.0000     -11.217878      -305.2540
   8   2.0000     -11.215622      -305.1926
   9   2.0000      -1.367339       -37.2072
  10   2.0000      -1.125250       -30.6196
  11   2.0000      -1.034843       -28.1595
  12   2.0000      -0.988751       -26.9053
  13   2.0000      -0.961348       -26.1596
  14   2.0000      -0.897092       -24.4111
  15   2.0000      -0.840927       -22.8828
  16   2.0000      -0.776972       -21.1425
  17   2.0000      -0.689912       -18.7735
  18   2.0000      -0.673814       -18.3354
  19   2.0000      -0.632807       -17.2196
  20   2.0000      -0.627408       -17.0726
  21   2.0000      -0.608496       -16.5580
  22   2.0000      -0.564212       -15.3530
  23   2.0000      -0.556747       -15.1499
  24   2.0000      -0.553447       -15.0601
  25   2.0000      -0.546017       -14.8579
  26   2.0000      -0.520429       -14.1616
  27   2.0000      -0.500723       -13.6254
  28   2.0000      -0.492500       -13.4016
  29   2.0000      -0.481108       -13.0916
  30   2.0000      -0.472064       -12.8455
  31   2.0000      -0.430937       -11.7264
  32   2.0000      -0.417685       -11.3658
  33   2.0000      -0.341783        -9.3004
  34   0.0000       0.130165         3.5420
  35   0.0000       0.145621         3.9625
  36   0.0000       0.152688         4.1548
  37   0.0000       0.161669         4.3992
  38   0.0000       0.182010         4.9527

MULLIKEN ATOMIC CHARGES
-----------------------
   0 C :   -0.397473
   1 C :    0.096358
   2 O :   -0.325153
   3 C :    0.296828
   4 C :   -0.454080
   5 C :   -0.262056
   6 C :   -0.186257
   7 C :   -0.210843
   8 C :   -0.075605
   9 H :    0.132157
  10 H :    0.140292
  11 H :    0.127116
  12 H :    0.092309
  13 H :    0.141706
  14 H :    0.128825
  15 H :    0.132181
  16 H :    0.124964
  17 H :    0.124326
  18 H :    0.118300
  19 H :    0.123328
  20 H :    0.132777
Sum of atomic charges:   -0.0000000

LOEWDIN ATOMIC CHARGES
----------------------
   0 C :   -0.288204
   1 C :   -0.261128
   2 O :    0.161171
   3 C :   -0.282627
   4 C :   -0.264120
   5 C :   -0.194496
   6 C :   -0.227732
   7 C :   -0.125663
   8 C :   -0.119800
   9 H :    0.127594
  10 H :    0.129347
  11 H :    0.129724
  12 H :    0.140337
  13 H :    0.131540
  14 H :    0.129585
  15 H :    0.127855
  16 H :    0.132651
  17 H :    0.146192
  18 H :    0.136194
  19 H :    0.135520
  20 H :    0.136060

  Mayer bond orders larger than 0.1
B(  0-C ,  1-C ) :   0.8922 B(  0-C ,  9-H ) :   0.9433 B(  0-C , 10-H ) :   0.9344
B(  0-C , 11-H ) :   0.9278 B(  1-C ,  2-O ) :   0.9454 B(  1-C ,  8-C ) :   0.9761
B(  1-C , 12-H ) :   0.9008 B(  2-O ,  3-C ) :   0.9159 B(  3-C ,  4-C ) :   0.9045
B(  3-C ,  5-C ) :   0.8686 B(  3-C ,  8-C ) :   0.9245 B(  4-C , 13-H ) :   0.9356
B(  4-C , 14-H ) :   0.9293 B(  4-C , 15-H ) :   0.9336 B(  5-C ,  6-C ) :   0.9529
B(  5-C , 16-H ) :   0.9322 B(  5-C , 17-H ) :   0.9250 B(  6-C ,  7-C ) :   0.9172
B(  6-C , 18-H ) :   0.9089 B(  6-C , 19-H ) :   0.9286 B(  7-C ,  8-C ) :   1.7335
B(  7-C , 20-H ) :   0.9218

MP2 TOTAL ENERGY:     -386.391064613 Eh
FINAL SINGLE POINT ENERGY      -386.391064613215

DIPOLE MOMENT
-------------
                                X             Y             Z
Electronic contribution:     -0.61113       0.55767      -0.62610
Nuclear contribution   :      0.57834      -0.58803       1.18623
                        -----------------------------------------
Total Dipole Moment    :     -0.03279      -0.03036       0.56013
                        -----------------------------------------
Magnitude (a.u.)       :      0.56191
Magnitude (Debye)      :      1.42826

                             ****ORCA TERMINATED NORMALLY****
TOTAL RUN TIME: 0 days 0 hours 20 minutes 55 seconds 824 msec
