                         Program Version 3.0.3 - RELEASE   -
|  1> ! RI-MP2 RIJK def2-TZVP def2-TZVP/C def2-TZVP/JK TIGHTSCF
|  2> % maxcore 2000
|  3> % mp2 density relaxed end
|  4> *xyz 0 1
|  5>  C       -0.0420007625     1.6640456767     0.0197862172
|  6>  C       -0.0017966160     0.1314865846    -0.0079623909
|  7>  C       -1.3952717459    -0.5029725407     0.0273204637
|  8>  C       -1.4435745143    -2.0717228015    -0.0357595983
|  9>  C       -0.3014789165    -2.8571619757    -0.6641565095
| 10>  C       -1.6077682817    -2.0981664592     1.5083519305
| 11>  C       -2.0407413899    -0.6122816014     1.4400826544
| 12>  O       -1.5321384322     0.2863394394     2.4028918104
| 13>  H        0.9678295263     2.0846205803    -0.0287161991
| 14>  H       -0.6053508788     2.0565121649    -0.8349535452
| 15>  H       -0.5193721455     2.0222261523     0.9343921475
| 16>  H        0.5090318419    -0.1994644366    -0.9209813335
| 17>  H        0.6009565566    -0.2304879471     0.8326839867
| 18>  H       -2.0252384600    -0.0037581671    -0.7170786721
| 19>  H       -2.3854538205    -2.3748892618    -0.5066654172
| 20>  H        0.6628671052    -2.6000412725    -0.2148973234
| 21>  H       -0.4539871693    -3.9335141207    -0.5256559010
| 22>  H       -0.2286809977    -2.6705029372    -1.7415816700
| 23>  H       -2.3011898623    -2.8221956358     1.9453473958
| 24>  H       -0.6384487571    -2.1847888954     2.0101850058
| 25>  H       -3.1348801197    -0.5270642840     1.3682529983
| 26>  H       -1.9374177402     0.0795462186     3.2508198297
| 27> *
| 28>
| 29>                          ****END OF INPUT****

CARTESIAN COORDINATES (ANGSTROEM)
---------------------------------
  C     -0.042001    1.664046    0.019786
  C     -0.001797    0.131487   -0.007962
  C     -1.395272   -0.502973    0.027320
  C     -1.443575   -2.071723   -0.035760
  C     -0.301479   -2.857162   -0.664157
  C     -1.607768   -2.098166    1.508352
  C     -2.040741   -0.612282    1.440083
  O     -1.532138    0.286339    2.402892
  H      0.967830    2.084621   -0.028716
  H     -0.605351    2.056512   -0.834954
  H     -0.519372    2.022226    0.934392
  H      0.509032   -0.199464   -0.920981
  H      0.600957   -0.230488    0.832684
  H     -2.025238   -0.003758   -0.717079
  H     -2.385454   -2.374889   -0.506665
  H      0.662867   -2.600041   -0.214897
  H     -0.453987   -3.933514   -0.525656
  H     -0.228681   -2.670503   -1.741582
  H     -2.301190   -2.822196    1.945347
  H     -0.638449   -2.184789    2.010185
  H     -3.134880   -0.527064    1.368253
  H     -1.937418    0.079546    3.250820

 Total Charge           Charge          ....    0
 Multiplicity           Mult            ....    1
 Number of Electrons    NEL             ....   64
 Basis Dimension        Dim             ....  332

ORBITAL ENERGIES
----------------

  NO   OCC          E(Eh)            E(eV)
   0   2.0000     -20.553036      -559.2765
   1   2.0000     -11.273932      -306.7793
   2   2.0000     -11.224687      -305.4393
   3   2.0000     -11.218419      -305.2687
   4   2.0000     -11.214151      -305.1526
   5   2.0000     -11.210622      -305.0565
   6   2.0000     -11.209672      -305.0307
   7   2.0000     -11.197036      -304.6868
   8   2.0000      -1.360148       -37.0115
   9   2.0000      -1.129949       -30.7475
  10   2.0000      -1.019662       -27.7464
  11   2.0000      -0.973019       -26.4772
  12   2.0000      -0.896396       -24.3922
  13   2.0000      -0.833795       -22.6887
  14   2.0000      -0.814607       -22.1666
  15   2.0000      -0.715748       -19.4765
  16   2.0000      -0.699076       -19.0228
  17   2.0000      -0.660259       -17.9666
  18   2.0000      -0.611165       -16.6306
  19   2.0000      -0.589803       -16.0493
  20   2.0000      -0.575343       -15.6559
  21   2.0000      -0.568445       -15.4682
  22   2.0000      -0.549958       -14.9651
  23   2.0000      -0.528849       -14.3907
  24   2.0000      -0.512087       -13.9346
  25   2.0000      -0.497669       -13.5423
  26   2.0000      -0.492297       -13.3961
  27   2.0000      -0.484169       -13.1749
  28   2.0000      -0.440184       -11.9780
  29   2.0000      -0.429705       -11.6929
  30   2.0000      -0.418582       -11.3902
  31   2.0000      -0.404817       -11.0156
  32   0.0000       0.131180         3.5696
  33   0.0000       0.148032         4.0282
  34   0.0000       0.154387         4.2011
  35   0.0000       0.166668         4.5353
  36   0.0000       0.187159         5.0929

MULLIKEN ATOMIC CHARGES
-----------------------
   0 C :   -0.407107
   1 C :   -0.236904
   2 C :   -0.032316
   3 C :   -0.039492
   4 C :   -0.425437
   5 C :   -0.237203
   6 C :    0.012064
   7 O :   -0.454422
   8 H :    0.124243
   9 H :    0.112676
  10 H :    0.152690
  11 H :    0.113247
  12 H :    0.115238
  13 H :    0.096145
  14 H :    0.094266
  15 H :    0.131429
  16 H :    0.133590
  17 H :    0.132068
  18 H :    0.118581
  19 H :    0.104914
  20 H :    0.079647
  21 H :    0.312086
Sum of atomic charges:   -0.0000000

LOEWDIN ATOMIC CHARGES
----------------------
   0 C :   -0.318628
   1 C :   -0.271734
   2 C :   -0.191764
   3 C :   -0.235117
   4 C :   -0.303904
   5 C :   -0.215460
   6 C :   -0.310248
   7 O :   -0.018876
   8 H :    0.118211
   9 H :    0.117490
  10 H :    0.125193
  11 H :    0.137483
  12 H :    0.140271
  13 H :    0.141452
  14 H :    0.148722
  15 H :    0.123673
  16 H :    0.124807
  17 H :    0.123855
  18 H :    0.120907
  19 H :    0.138881
  20 H :    0.129632
  21 H :    0.175152

  Mayer bond orders larger than 0.1
B(  0-C ,  1-C ) :   0.9158 B(  0-C ,  8-H ) :   0.9409 B(  0-C ,  9-H ) :   0.9382
B(  0-C , 10-H ) :   0.9382 B(  1-C ,  2-C ) :   0.9207 B(  1-C , 11-H ) :   0.9379
B(  1-C , 12-H ) :   0.9213 B(  2-C ,  3-C ) :   0.8919 B(  2-C ,  6-C ) :   0.9030
B(  2-C , 13-H ) :   0.9202 B(  3-C ,  4-C ) :   0.8753 B(  3-C ,  5-C ) :   0.9356
B(  3-C , 14-H ) :   0.9299 B(  4-C , 15-H ) :   0.9401 B(  4-C , 16-H ) :   0.9381
B(  4-C , 17-H ) :   0.9419 B(  5-C ,  6-C ) :   0.9088 B(  5-C , 18-H ) :   0.9211
B(  5-C , 19-H ) :   0.9038 B(  6-C ,  7-O ) :   1.1043 B(  6-C , 20-H ) :   0.9611
B(  7-O , 21-H ) :   0.8443

MP2 TOTAL ENERGY:     -349.597281385 Eh
FINAL SINGLE POINT ENERGY      -349.597281384910

DIPOLE MOMENT
-------------
                                X             Y             Z
Electronic contribution:     -3.19257       0.59846       3.73950
Nuclear contribution   :      2.80505      -1.03782      -3.56742
                        -----------------------------------------
Total Dipole Moment    :     -0.38752      -0.43936       0.17207
                        -----------------------------------------
Magnitude (a.u.)       :      0.61059
Magnitude (Debye)      :      1.55200

                             ****ORCA TERMINATED NORMALLY****
TOTAL RUN TIME: 0 days 0 hours 14 minutes 48 seconds 510 msec
