                         Program Version 3.0.3 - RELEASE   -
|  1> ! RI-MP2 RIJK def2-TZVP def2-TZVP/C def2-TZVP/JK TIGHTSCF
|  2> % maxcore 2000
|  3> % mp2 density relaxed end
|  4> *xyz 0 1
|  5>  O        0.0923114868     1.4632333558    -0.1411917898
|  6>  C        0.0455551099     0.0603344561    -0.0178377382
|  7>  C        0.2800640312    -0.5820977964     1.3885685291
|  8>  N       -1.0736775659    -1.2331618412     1.3418306964
|  9>  C       -2.1952305851    -0.5123640525     1.9908192372
| 10>  C       -2.1426331631     0.9878489598     1.9039583988
| 11>  C       -2.5624686444     0.2072372092     0.6886225644
| 12>  C       -1.3874441453    -0.5374111962     0.0446534409
| 13>  H        1.0146700036     1.7279677120    -0.2144339155
| 14>  H        0.6506027748    -0.4197290413    -0.7985676094
| 15>  H        1.0838995472    -1.3230368469     1.4346572555
| 16>  H        0.4155086588     0.1434006142     2.1964472552
| 17>  H       -2.8183051875    -1.0285650026     2.7130874850
| 18>  H       -2.9660923196     1.4774945273     2.4158839557
| 19>  H       -1.2181058982     1.5507453567     1.9097967299
| 20>  H       -3.5298541064     0.3366496189     0.2205437092
| 21>  H       -1.6757571168    -1.1853281830    -0.7880453144
| 22> *
| 23>
| 24>                          ****END OF INPUT****

CARTESIAN COORDINATES (ANGSTROEM)
---------------------------------
  O      0.092311    1.463233   -0.141192
  C      0.045555    0.060334   -0.017838
  C      0.280064   -0.582098    1.388569
  N     -1.073678   -1.233162    1.341831
  C     -2.195231   -0.512364    1.990819
  C     -2.142633    0.987849    1.903958
  C     -2.562469    0.207237    0.688623
  C     -1.387444   -0.537411    0.044653
  H      1.014670    1.727968   -0.214434
  H      0.650603   -0.419729   -0.798568
  H      1.083900   -1.323037    1.434657
  H      0.415509    0.143401    2.196447
  H     -2.818305   -1.028565    2.713087
  H     -2.966092    1.477495    2.415884
  H     -1.218106    1.550745    1.909797
  H     -3.529854    0.336650    0.220544
  H     -1.675757   -1.185328   -0.788045

 Total Charge           Charge          ....    0
 Multiplicity           Mult            ....    1
 Number of Electrons    NEL             ....   60
 Basis Dimension        Dim             ....  302

ORBITAL ENERGIES
----------------

  NO   OCC          E(Eh)            E(eV)
   0   2.0000     -20.563954      -559.5736
   1   2.0000     -15.543401      -422.9574
   2   2.0000     -11.285416      -307.0918
   3   2.0000     -11.257122      -306.3219
   4   2.0000     -11.256948      -306.3171
   5   2.0000     -11.246860      -306.0426
   6   2.0000     -11.232089      -305.6407
   7   2.0000     -11.224036      -305.4215
   8   2.0000      -1.372363       -37.3439
   9   2.0000      -1.273484       -34.6532
  10   2.0000      -1.099537       -29.9199
  11   2.0000      -0.963833       -26.2272
  12   2.0000      -0.934296       -25.4235
  13   2.0000      -0.817202       -22.2372
  14   2.0000      -0.790922       -21.5221
  15   2.0000      -0.725537       -19.7429
  16   2.0000      -0.700263       -19.0551
  17   2.0000      -0.683341       -18.5947
  18   2.0000      -0.649892       -17.6844
  19   2.0000      -0.620972       -16.8975
  20   2.0000      -0.588115       -16.0034
  21   2.0000      -0.568934       -15.4815
  22   2.0000      -0.537748       -14.6329
  23   2.0000      -0.526673       -14.3315
  24   2.0000      -0.487399       -13.2628
  25   2.0000      -0.465709       -12.6726
  26   2.0000      -0.441808       -12.0222
  27   2.0000      -0.417512       -11.3611
  28   2.0000      -0.370166       -10.0727
  29   2.0000      -0.356065        -9.6890
  30   0.0000       0.129397         3.5211
  31   0.0000       0.162192         4.4135
  32   0.0000       0.167823         4.5667
  33   0.0000       0.173229         4.7138
  34   0.0000       0.192089         5.2270

MULLIKEN ATOMIC CHARGES
-----------------------
   0 O :   -0.446790
   1 C :   -0.045454
   2 C :   -0.157933
   3 N :   -0.177628
   4 C :   -0.074188
   5 C :   -0.220017
   6 C :   -0.215894
   7 C :    0.060194
   8 H :    0.318785
   9 H :    0.091794
  10 H :    0.115489
  11 H :    0.111880
  12 H :    0.123217
  13 H :    0.125995
  14 H :    0.145224
  15 H :    0.133396
  16 H :    0.111930
Sum of atomic charges:   -0.0000000

LOEWDIN ATOMIC CHARGES
----------------------
   0 O :   -0.011784
   1 C :   -0.316399
   2 C :   -0.238995
   3 N :    0.117570
   4 C :   -0.214122
   5 C :   -0.213886
   6 C :   -0.169843
   7 C :   -0.179306
   8 H :    0.176618
   9 H :    0.128143
  10 H :    0.121505
  11 H :    0.124807
  12 H :    0.129256
  13 H :    0.142587
  14 H :    0.131451
  15 H :    0.134946
  16 H :    0.137453

  Mayer bond orders larger than 0.1
B(  0-O ,  1-C ) :   1.1248 B(  0-O ,  8-H ) :   0.8422 B(  1-C ,  2-C ) :   0.9487
B(  1-C ,  7-C ) :   0.8804 B(  1-C ,  9-H ) :   0.9464 B(  2-C ,  3-N ) :   0.9132
B(  2-C , 10-H ) :   0.9123 B(  2-C , 11-H ) :   0.9206 B(  3-N ,  4-C ) :   0.9523
B(  3-N ,  7-C ) :   0.9442 B(  4-C ,  5-C ) :   0.8686 B(  4-C ,  6-C ) :   0.8809
B(  4-C , 12-H ) :   0.9296 B(  5-C ,  6-C ) :   0.8757 B(  5-C , 13-H ) :   0.9230
B(  5-C , 14-H ) :   0.9149 B(  6-C ,  7-C ) :   0.9746 B(  6-C , 15-H ) :   0.9161
B(  7-C , 16-H ) :   0.8960

MP2 TOTAL ENERGY:     -363.158008703 Eh
FINAL SINGLE POINT ENERGY      -363.158008703014

DIPOLE MOMENT
-------------
                                X             Y             Z
Electronic contribution:     -0.03714      -0.67981      -1.20264
Nuclear contribution   :      0.52081       0.99407       1.08887
                        -----------------------------------------
Total Dipole Moment    :      0.48367       0.31426      -0.11377
                        -----------------------------------------
Magnitude (a.u.)       :      0.58791
Magnitude (Debye)      :      1.49436

                             ****ORCA TERMINATED NORMALLY****
TOTAL RUN TIME: 0 days 0 hours 12 minutes 6 seconds 205 msec
