                         Program Version 3.0.3 - RELEASE   -
|  1> ! RI-MP2 RIJK def2-TZVP def2-TZVP/C def2-TZVP/JK TIGHTSCF
|  2> % maxcore 2000
|  3> % mp2 density relaxed end
|  4> *xyz 0 1
|  5>  C        0.0642658783     1.5496904750    -0.2179200371
|  6>  C        0.0493654905     0.0992429683    -0.1026313499
|  7>  C        0.0352777522    -1.1002390484     0.0050629020
|  8>  C       -0.0111530125    -2.5493430099     0.1066395395
|  9>  C        0.9800651559    -3.2231579267    -0.8574159880
| 10>  N        0.0279569798    -3.0750607024     1.5159234978
| 11>  C       -1.2094950800    -3.8793863345     1.3523225889
| 12>  C       -1.4310995841    -3.1974371181    -0.0026696113
| 13>  O       -2.3017182531    -3.1678390427    -0.8139879299
| 14>  H        0.8311300503     1.8879060025    -0.9233885296
| 15>  H       -0.9018593439     1.9281471700    -0.5695141473
| 16>  H        0.2717494515     2.0190301921     0.7500104409
| 17>  H        2.0036844452    -2.9339044520    -0.5999466178
| 18>  H        0.8971787307    -4.3139160811    -0.8039553609
| 19>  H        0.7830290419    -2.9089868135    -1.8854709422
| 20>  H        0.8572727184    -3.6275804502     1.7033334398
| 21>  H       -1.0797933063    -4.9663578876     1.2577267856
| 22>  H       -1.9764937847    -3.6865711610     2.1103485795
| 23> *
| 24>
| 25>                          ****END OF INPUT****

CARTESIAN COORDINATES (ANGSTROEM)
---------------------------------
  C      0.064266    1.549690   -0.217920
  C      0.049365    0.099243   -0.102631
  C      0.035278   -1.100239    0.005063
  C     -0.011153   -2.549343    0.106640
  C      0.980065   -3.223158   -0.857416
  N      0.027957   -3.075061    1.515923
  C     -1.209495   -3.879386    1.352323
  C     -1.431100   -3.197437   -0.002670
  O     -2.301718   -3.167839   -0.813988
  H      0.831130    1.887906   -0.923389
  H     -0.901859    1.928147   -0.569514
  H      0.271749    2.019030    0.750010
  H      2.003684   -2.933904   -0.599947
  H      0.897179   -4.313916   -0.803955
  H      0.783029   -2.908987   -1.885471
  H      0.857273   -3.627580    1.703333
  H     -1.079793   -4.966358    1.257727
  H     -1.976494   -3.686571    2.110349

 Total Charge           Charge          ....    0
 Multiplicity           Mult            ....    1
 Number of Electrons    NEL             ....   66
 Basis Dimension        Dim             ....  333

ORBITAL ENERGIES
----------------

  NO   OCC          E(Eh)            E(eV)
   0   2.0000     -20.565104      -559.6049
   1   2.0000     -15.563780      -423.5120
   2   2.0000     -11.341818      -308.6266
   3   2.0000     -11.302485      -307.5563
   4   2.0000     -11.274193      -306.7864
   5   2.0000     -11.247976      -306.0730
   6   2.0000     -11.240833      -305.8786
   7   2.0000     -11.230790      -305.6053
   8   2.0000     -11.219287      -305.2923
   9   2.0000      -1.410093       -38.3706
  10   2.0000      -1.254807       -34.1450
  11   2.0000      -1.070764       -29.1370
  12   2.0000      -1.028556       -27.9884
  13   2.0000      -0.955901       -26.0114
  14   2.0000      -0.950223       -25.8569
  15   2.0000      -0.887193       -24.1417
  16   2.0000      -0.763948       -20.7881
  17   2.0000      -0.694836       -18.9075
  18   2.0000      -0.670792       -18.2532
  19   2.0000      -0.653488       -17.7823
  20   2.0000      -0.633692       -17.2436
  21   2.0000      -0.595466       -16.2035
  22   2.0000      -0.589143       -16.0314
  23   2.0000      -0.586824       -15.9683
  24   2.0000      -0.575261       -15.6537
  25   2.0000      -0.566785       -15.4230
  26   2.0000      -0.556652       -15.1473
  27   2.0000      -0.531560       -14.4645
  28   2.0000      -0.517922       -14.0934
  29   2.0000      -0.425445       -11.5770
  30   2.0000      -0.403111       -10.9692
  31   2.0000      -0.375842       -10.2272
  32   2.0000      -0.361100        -9.8260
  33   0.0000       0.121694         3.3115
  34   0.0000       0.126900         3.4531
  35   0.0000       0.141439         3.8487
  36   0.0000       0.160491         4.3672
  37   0.0000       0.169499         4.6123

MULLIKEN ATOMIC CHARGES
-----------------------
   0 C :   -0.486695
   1 C :    0.110556
   2 C :   -0.004080
   3 C :   -0.026353
   4 C :   -0.420005
   5 N :   -0.317049
   6 C :   -0.149348
   7 C :    0.120585
   8 O :   -0.234031
   9 H :    0.161730
  10 H :    0.166808
  11 H :    0.165578
  12 H :    0.148073
  13 H :    0.136149
  14 H :    0.151487
  15 H :    0.210227
  16 H :    0.130643
  17 H :    0.135724
Sum of atomic charges:    0.0000000

LOEWDIN ATOMIC CHARGES
----------------------
   0 C :   -0.292435
   1 C :   -0.081947
   2 C :   -0.041213
   3 C :   -0.291707
   4 C :   -0.251538
   5 N :    0.028584
   6 C :   -0.244843
   7 C :   -0.266033
   8 O :    0.187827
   9 H :    0.140779
  10 H :    0.142813
  11 H :    0.142882
  12 H :    0.132948
  13 H :    0.127637
  14 H :    0.138475
  15 H :    0.159773
  16 H :    0.132596
  17 H :    0.135401

  Mayer bond orders larger than 0.1
B(  0-C ,  1-C ) :   0.8404 B(  0-C ,  9-H ) :   0.9489 B(  0-C , 10-H ) :   0.9479
B(  0-C , 11-H ) :   0.9452 B(  1-C ,  2-C ) :   2.6623 B(  1-C ,  3-C ) :  -0.1637
B(  2-C ,  3-C ) :   1.1362 B(  3-C ,  4-C ) :   0.9523 B(  3-C ,  5-N ) :   1.0826
B(  3-C ,  7-C ) :   0.7441 B(  4-C , 12-H ) :   0.9317 B(  4-C , 13-H ) :   0.9232
B(  4-C , 14-H ) :   0.9276 B(  5-N ,  6-C ) :   0.9728 B(  5-N , 15-H ) :   0.8762
B(  6-C ,  7-C ) :   0.9209 B(  6-C , 16-H ) :   0.8997 B(  6-C , 17-H ) :   0.9014
B(  7-C ,  8-O ) :   2.0796

MP2 TOTAL ENERGY:     -401.211201019 Eh
FINAL SINGLE POINT ENERGY      -401.211201019125

DIPOLE MOMENT
-------------
                                X             Y             Z
Electronic contribution:     -4.38140      -2.30461       0.10857
Nuclear contribution   :      5.19190       2.10754       0.10102
                        -----------------------------------------
Total Dipole Moment    :      0.81050      -0.19707       0.20960
                        -----------------------------------------
Magnitude (a.u.)       :      0.86004
Magnitude (Debye)      :      2.18606

                             ****ORCA TERMINATED NORMALLY****
TOTAL RUN TIME: 0 days 0 hours 16 minutes 3 seconds 47 msec
