                         Program Version 3.0.3 - RELEASE   -
|  1> ! RI-MP2 RIJK def2-TZVP def2-TZVP/C def2-TZVP/JK TIGHTSCF
|  2> % maxcore 2000
|  3> % mp2 density relaxed end
|  4> *xyz 0 1
|  5>  C       -0.0177900187    -1.2410075369    -0.0389000358
|  6>  C       -0.0055639841    -0.0400056805    -0.0039196869
|  7>  C        0.0154689948     1.4169489831     0.0168196002
|  8>  C        1.4320372728     2.0132782681     0.0058454545
|  9>  C        1.4610131713     3.5467246453    -0.0700325558
| 10>  C        2.7617384136     3.8787374199     0.6728388699
| 11>  C        2.7749863046     2.8011408853     1.7637269314
| 12>  O        2.1069680270     1.6654387439     1.2153370035
| 13>  H       -0.0274783293    -2.3022922112    -0.0585586303
| 14>  H       -0.5300986682     1.8029027408    -0.8546395991
| 15>  H       -0.5055597930     1.7875060891     0.9084412988
| 16>  H        1.9844049294     1.5819674242    -0.8429633801
| 17>  H        1.4354743336     3.9158130387    -1.0980869319
| 18>  H        0.5980238450     3.9659551852     0.4616845854
| 19>  H        3.6223503005     3.7591830516     0.0062002727
| 20>  H        2.7869119543     4.8930909576     1.0781245238
| 21>  H        3.7859326806     2.5051700865     2.0644995787
| 22>  H        2.2424501459     3.1431935194     2.6639106610
| 23> *
| 24>
| 25>                          ****END OF INPUT****

CARTESIAN COORDINATES (ANGSTROEM)
---------------------------------
  C     -0.017790   -1.241008   -0.038900
  C     -0.005564   -0.040006   -0.003920
  C      0.015469    1.416949    0.016820
  C      1.432037    2.013278    0.005845
  C      1.461013    3.546725   -0.070033
  C      2.761738    3.878737    0.672839
  C      2.774986    2.801141    1.763727
  O      2.106968    1.665439    1.215337
  H     -0.027478   -2.302292   -0.058559
  H     -0.530099    1.802903   -0.854640
  H     -0.505560    1.787506    0.908441
  H      1.984405    1.581967   -0.842963
  H      1.435474    3.915813   -1.098087
  H      0.598024    3.965955    0.461685
  H      3.622350    3.759183    0.006200
  H      2.786912    4.893091    1.078125
  H      3.785933    2.505170    2.064500
  H      2.242450    3.143194    2.663911

 Total Charge           Charge          ....    0
 Multiplicity           Mult            ....    1
 Number of Electrons    NEL             ....   60
 Basis Dimension        Dim             ....  308

ORBITAL ENERGIES
----------------

  NO   OCC          E(Eh)            E(eV)
   0   2.0000     -20.546765      -559.1059
   1   2.0000     -11.285500      -307.0941
   2   2.0000     -11.273180      -306.7588
   3   2.0000     -11.249785      -306.1222
   4   2.0000     -11.232099      -305.6410
   5   2.0000     -11.230576      -305.5995
   6   2.0000     -11.226138      -305.4788
   7   2.0000     -11.212172      -305.0987
   8   2.0000      -1.372944       -37.3597
   9   2.0000      -1.081947       -29.4413
  10   2.0000      -1.059084       -28.8191
  11   2.0000      -1.000890       -27.2356
  12   2.0000      -0.929189       -25.2845
  13   2.0000      -0.817191       -22.2369
  14   2.0000      -0.795194       -21.6383
  15   2.0000      -0.715539       -19.4708
  16   2.0000      -0.691800       -18.8248
  17   2.0000      -0.669466       -18.2171
  18   2.0000      -0.633384       -17.2353
  19   2.0000      -0.612354       -16.6630
  20   2.0000      -0.588962       -16.0265
  21   2.0000      -0.563540       -15.3347
  22   2.0000      -0.545510       -14.8441
  23   2.0000      -0.508826       -13.8459
  24   2.0000      -0.499328       -13.5874
  25   2.0000      -0.481346       -13.0981
  26   2.0000      -0.468888       -12.7591
  27   2.0000      -0.414385       -11.2760
  28   2.0000      -0.378538       -10.3005
  29   2.0000      -0.375798       -10.2260
  30   0.0000       0.129682         3.5288
  31   0.0000       0.153168         4.1679
  32   0.0000       0.160789         4.3753
  33   0.0000       0.174195         4.7401
  34   0.0000       0.182167         4.9570

MULLIKEN ATOMIC CHARGES
-----------------------
   0 C :   -0.125190
   1 C :   -0.016447
   2 C :   -0.364231
   3 C :    0.082737
   4 C :   -0.234615
   5 C :   -0.231312
   6 C :   -0.036817
   7 O :   -0.310821
   8 H :    0.187776
   9 H :    0.138364
  10 H :    0.134652
  11 H :    0.087493
  12 H :    0.128525
  13 H :    0.114504
  14 H :    0.117518
  15 H :    0.126825
  16 H :    0.109558
  17 H :    0.091480
Sum of atomic charges:   -0.0000000

LOEWDIN ATOMIC CHARGES
----------------------
   0 C :   -0.105558
   1 C :   -0.108171
   2 C :   -0.232950
   3 C :   -0.297498
   4 C :   -0.241930
   5 C :   -0.264522
   6 C :   -0.301070
   7 O :    0.168018
   8 H :    0.125209
   9 H :    0.160735
  10 H :    0.159309
  11 H :    0.141931
  12 H :    0.138453
  13 H :    0.141199
  14 H :    0.138425
  15 H :    0.136488
  16 H :    0.123064
  17 H :    0.118867

  Mayer bond orders larger than 0.1
B(  0-C ,  1-C ) :   2.6075 B(  0-C ,  2-C ) :  -0.1131 B(  0-C ,  8-H ) :   0.8975
B(  1-C ,  2-C ) :   1.1473 B(  2-C ,  3-C ) :   0.9048 B(  2-C ,  9-H ) :   0.9336
B(  2-C , 10-H ) :   0.8991 B(  3-C ,  4-C ) :   0.9211 B(  3-C ,  7-O ) :   0.9471
B(  3-C , 11-H ) :   0.9365 B(  4-C ,  5-C ) :   0.9206 B(  4-C , 12-H ) :   0.9245
B(  4-C , 13-H ) :   0.9250 B(  5-C ,  6-C ) :   0.9530 B(  5-C , 14-H ) :   0.9275
B(  5-C , 15-H ) :   0.9260 B(  6-C ,  7-O ) :   0.9417 B(  6-C , 16-H ) :   0.9264
B(  6-C , 17-H ) :   0.9269

MP2 TOTAL ENERGY:     -347.165135376 Eh
FINAL SINGLE POINT ENERGY      -347.165135375761

DIPOLE MOMENT
-------------
                                X             Y             Z
Electronic contribution:     -1.55048      -5.53438       0.12740
Nuclear contribution   :      1.64419       6.42142      -0.35587
                        -----------------------------------------
Total Dipole Moment    :      0.09370       0.88703      -0.22847
                        -----------------------------------------
Magnitude (a.u.)       :      0.92076
Magnitude (Debye)      :      2.34039

                             ****ORCA TERMINATED NORMALLY****
TOTAL RUN TIME: 0 days 0 hours 13 minutes 37 seconds 97 msec
