                         Program Version 3.0.3 - RELEASE   -
|  1> ! RI-MP2 RIJK def2-TZVP def2-TZVP/C def2-TZVP/JK TIGHTSCF
|  2> % maxcore 2000
|  3> % mp2 density relaxed end
|  4> *xyz 0 1
|  5>  C        0.0735789856     1.4913568344     0.2952242286
|  6>  O        1.1491374816     2.1767612784    -0.3354350030
|  7>  C        2.1887372885     1.3894293168    -0.8770061250
|  8>  C        2.3415765650     0.0482548856    -0.1613545452
|  9>  N        1.1278320644    -0.7742022188    -0.2752600883
| 10>  C       -0.0862607880     0.0434806168    -0.1151277805
| 11>  C        0.3027816469    -0.4577643670    -1.4609682657
| 12>  C        0.8173929552     0.4457734282    -2.5727265263
| 13>  O        2.0024380841     1.1645026479    -2.2562676891
| 14>  H        0.2067824742     1.5308647060     1.3881159660
| 15>  H       -0.8406340096     2.0514451481     0.0633676460
| 16>  H        3.0980773617     1.9937284139    -0.8141760019
| 17>  H        3.1822587725    -0.4929287171    -0.6050058983
| 18>  H        2.5565514640     0.2000538541     0.9023446220
| 19>  H       -0.9011582233    -0.4587637095     0.4055045793
| 20>  H       -0.2466617016    -1.3189480718    -1.8368255902
| 21>  H        1.0590657500    -0.1668043480    -3.4478657103
| 22>  H        0.0237476388     1.1466049120    -2.8732150881
| 23> *
| 24>
| 25>                          ****END OF INPUT****

CARTESIAN COORDINATES (ANGSTROEM)
---------------------------------
  C      0.073579    1.491357    0.295224
  O      1.149137    2.176761   -0.335435
  C      2.188737    1.389429   -0.877006
  C      2.341577    0.048255   -0.161355
  N      1.127832   -0.774202   -0.275260
  C     -0.086261    0.043481   -0.115128
  C      0.302782   -0.457764   -1.460968
  C      0.817393    0.445773   -2.572727
  O      2.002438    1.164503   -2.256268
  H      0.206782    1.530865    1.388116
  H     -0.840634    2.051445    0.063368
  H      3.098077    1.993728   -0.814176
  H      3.182259   -0.492929   -0.605006
  H      2.556551    0.200054    0.902345
  H     -0.901158   -0.458764    0.405505
  H     -0.246662   -1.318948   -1.836826
  H      1.059066   -0.166804   -3.447866
  H      0.023748    1.146605   -2.873215

 Total Charge           Charge          ....    0
 Multiplicity           Mult            ....    1
 Number of Electrons    NEL             ....   68
 Basis Dimension        Dim             ....  333

ORBITAL ENERGIES
----------------

  NO   OCC          E(Eh)            E(eV)
   0   2.0000     -20.564062      -559.5766
   1   2.0000     -20.559364      -559.4487
   2   2.0000     -15.569063      -423.6557
   3   2.0000     -11.334079      -308.4160
   4   2.0000     -11.290428      -307.2282
   5   2.0000     -11.286135      -307.1113
   6   2.0000     -11.269198      -306.6505
   7   2.0000     -11.267331      -306.5997
   8   2.0000     -11.258242      -306.3523
   9   2.0000      -1.423890       -38.7460
  10   2.0000      -1.349971       -36.7346
  11   2.0000      -1.279647       -34.8210
  12   2.0000      -1.059627       -28.8339
  13   2.0000      -0.981367       -26.7043
  14   2.0000      -0.944320       -25.6963
  15   2.0000      -0.899969       -24.4894
  16   2.0000      -0.797732       -21.7074
  17   2.0000      -0.739383       -20.1196
  18   2.0000      -0.725455       -19.7406
  19   2.0000      -0.690703       -18.7950
  20   2.0000      -0.655717       -17.8430
  21   2.0000      -0.643350       -17.5064
  22   2.0000      -0.629321       -17.1247
  23   2.0000      -0.609889       -16.5959
  24   2.0000      -0.597137       -16.2489
  25   2.0000      -0.575528       -15.6609
  26   2.0000      -0.548237       -14.9183
  27   2.0000      -0.528655       -14.3854
  28   2.0000      -0.491592       -13.3769
  29   2.0000      -0.469128       -12.7656
  30   2.0000      -0.454748       -12.3743
  31   2.0000      -0.444070       -12.0838
  32   2.0000      -0.426586       -11.6080
  33   2.0000      -0.361844        -9.8463
  34   0.0000       0.132825         3.6144
  35   0.0000       0.163538         4.4501
  36   0.0000       0.169713         4.6181
  37   0.0000       0.176548         4.8041
  38   0.0000       0.190664         5.1882

MULLIKEN ATOMIC CHARGES
-----------------------
   0 C :   -0.041935
   1 O :   -0.314496
   2 C :    0.203482
   3 C :   -0.170891
   4 N :   -0.227318
   5 C :   -0.080007
   6 C :   -0.095221
   7 C :   -0.043870
   8 O :   -0.300881
   9 H :    0.106219
  10 H :    0.122132
  11 H :    0.113534
  12 H :    0.128870
  13 H :    0.123794
  14 H :    0.123833
  15 H :    0.126896
  16 H :    0.122593
  17 H :    0.103268
Sum of atomic charges:   -0.0000000

LOEWDIN ATOMIC CHARGES
----------------------
   0 C :   -0.292809
   1 O :    0.180661
   2 C :   -0.410349
   3 C :   -0.264048
   4 N :    0.125962
   5 C :   -0.244878
   6 C :   -0.231010
   7 C :   -0.289819
   8 O :    0.176526
   9 H :    0.129944
  10 H :    0.136079
  11 H :    0.141625
  12 H :    0.142814
  13 H :    0.140061
  14 H :    0.146885
  15 H :    0.148307
  16 H :    0.133865
  17 H :    0.130184

  Mayer bond orders larger than 0.1
B(  0-C ,  1-O ) :   0.9301 B(  0-C ,  5-C ) :   0.9456 B(  0-C ,  9-H ) :   0.9239
B(  0-C , 10-H ) :   0.9233 B(  1-O ,  2-C ) :   0.9629 B(  2-C ,  3-C ) :   0.9484
B(  2-C ,  8-O ) :   0.9629 B(  2-C , 11-H ) :   0.9228 B(  3-C ,  4-N ) :   0.9414
B(  3-C , 12-H ) :   0.9271 B(  3-C , 13-H ) :   0.9299 B(  4-N ,  5-C ) :   0.8960
B(  4-N ,  6-C ) :   0.8969 B(  5-C ,  6-C ) :   0.9399 B(  5-C , 14-H ) :   0.9068
B(  6-C ,  7-C ) :   0.9425 B(  6-C , 15-H ) :   0.9158 B(  7-C ,  8-O ) :   0.9368
B(  7-C , 16-H ) :   0.9252 B(  7-C , 17-H ) :   0.9261

MP2 TOTAL ENERGY:     -438.341747171 Eh
FINAL SINGLE POINT ENERGY      -438.341747171398

DIPOLE MOMENT
-------------
                                X             Y             Z
Electronic contribution:      1.32917       1.03400      -0.75249
Nuclear contribution   :     -1.79093      -1.26135       0.96271
                        -----------------------------------------
Total Dipole Moment    :     -0.46176      -0.22734       0.21022
                        -----------------------------------------
Magnitude (a.u.)       :      0.55597
Magnitude (Debye)      :      1.41316

                             ****ORCA TERMINATED NORMALLY****
TOTAL RUN TIME: 0 days 0 hours 17 minutes 20 seconds 964 msec
