                         Program Version 3.0.3 - RELEASE   -
|  1> ! RI-MP2 RIJK def2-TZVP def2-TZVP/C def2-TZVP/JK TIGHTSCF
|  2> % maxcore 2000
|  3> % mp2 density relaxed end
|  4> *xyz 0 1
|  5>  O       -0.0776184313    -0.0260552801    -0.0004738972
|  6>  C       -0.0008018993     1.1853094802     0.0098266172
|  7>  N        1.1645698407     1.8919632973     0.0027678189
|  8>  C        1.2728736129     3.3616891503     0.0138720117
|  9>  C        2.7949830244     3.6087573951    -0.0012270712
| 10>  C        3.3949290226     4.7766448681    -0.7518685195
| 11>  C        3.4119268598     4.7639658785     0.7552354160
| 12>  C        3.4025670809     2.2494665652    -0.0195112115
| 13>  C        2.4461110522     1.3188932979    -0.0165371829
| 14>  H       -0.8855634916     1.8514535491     0.0245424419
| 15>  H        0.7768326611     3.7896435964    -0.8644642883
| 16>  H        0.7968602389     3.7747452617     0.9102384580
| 17>  H        4.3276830212     4.6146717013    -1.2816359507
| 18>  H        2.7116775167     5.4581620393    -1.2494576641
| 19>  H        2.7402010551     5.4368872842     1.2795013046
| 20>  H        4.3563597018     4.5932772722     1.2610320455
| 21>  H        4.4665706313     2.0623421405    -0.0330840382
| 22>  H        2.5113845127     0.2420306929    -0.0263223401
| 23> *
| 24>
| 25>                          ****END OF INPUT****

CARTESIAN COORDINATES (ANGSTROEM)
---------------------------------
  O     -0.077618   -0.026055   -0.000474
  C     -0.000802    1.185309    0.009827
  N      1.164570    1.891963    0.002768
  C      1.272874    3.361689    0.013872
  C      2.794983    3.608757   -0.001227
  C      3.394929    4.776645   -0.751869
  C      3.411927    4.763966    0.755235
  C      3.402567    2.249467   -0.019511
  C      2.446111    1.318893   -0.016537
  H     -0.885563    1.851454    0.024542
  H      0.776833    3.789644   -0.864464
  H      0.796860    3.774745    0.910238
  H      4.327683    4.614672   -1.281636
  H      2.711678    5.458162   -1.249458
  H      2.740201    5.436887    1.279501
  H      4.356360    4.593277    1.261032
  H      4.466571    2.062342   -0.033084
  H      2.511385    0.242031   -0.026322

 Total Charge           Charge          ....    0
 Multiplicity           Mult            ....    1
 Number of Electrons    NEL             ....   66
 Basis Dimension        Dim             ....  333

ORBITAL ENERGIES
----------------

  NO   OCC          E(Eh)            E(eV)
   0   2.0000     -20.525224      -558.5197
   1   2.0000     -15.600391      -424.5082
   2   2.0000     -11.351728      -308.8962
   3   2.0000     -11.285566      -307.0959
   4   2.0000     -11.272776      -306.7478
   5   2.0000     -11.260584      -306.4161
   6   2.0000     -11.239248      -305.8355
   7   2.0000     -11.238591      -305.8176
   8   2.0000     -11.231284      -305.6188
   9   2.0000      -1.386585       -37.7309
  10   2.0000      -1.281129       -34.8613
  11   2.0000      -1.160953       -31.5911
  12   2.0000      -1.047928       -28.5156
  13   2.0000      -0.981529       -26.7088
  14   2.0000      -0.869056       -23.6482
  15   2.0000      -0.838718       -22.8227
  16   2.0000      -0.786840       -21.4110
  17   2.0000      -0.748351       -20.3637
  18   2.0000      -0.718843       -19.5607
  19   2.0000      -0.660680       -17.9780
  20   2.0000      -0.654848       -17.8193
  21   2.0000      -0.648160       -17.6373
  22   2.0000      -0.615519       -16.7491
  23   2.0000      -0.596181       -16.2229
  24   2.0000      -0.565176       -15.3792
  25   2.0000      -0.555758       -15.1230
  26   2.0000      -0.528962       -14.3938
  27   2.0000      -0.502419       -13.6715
  28   2.0000      -0.469795       -12.7838
  29   2.0000      -0.446786       -12.1577
  30   2.0000      -0.440804       -11.9949
  31   2.0000      -0.428303       -11.6547
  32   2.0000      -0.306053        -8.3281
  33   0.0000       0.129308         3.5186
  34   0.0000       0.134826         3.6688
  35   0.0000       0.152672         4.1544
  36   0.0000       0.165097         4.4925
  37   0.0000       0.168199         4.5769

MULLIKEN ATOMIC CHARGES
-----------------------
   0 O :   -0.356241
   1 C :    0.140176
   2 N :   -0.026419
   3 C :   -0.193954
   4 C :    0.144092
   5 C :   -0.300906
   6 C :   -0.300910
   7 C :   -0.165008
   8 C :   -0.144300
   9 H :    0.085461
  10 H :    0.133004
  11 H :    0.133010
  12 H :    0.134738
  13 H :    0.135392
  14 H :    0.135390
  15 H :    0.134737
  16 H :    0.142079
  17 H :    0.169658
Sum of atomic charges:   -0.0000000

LOEWDIN ATOMIC CHARGES
----------------------
   0 O :    0.062560
   1 C :   -0.405745
   2 N :    0.200288
   3 C :   -0.164891
   4 C :   -0.221476
   5 C :   -0.200545
   6 C :   -0.200546
   7 C :   -0.135408
   8 C :   -0.160895
   9 H :    0.114250
  10 H :    0.137440
  11 H :    0.137442
  12 H :    0.135654
  13 H :    0.134556
  14 H :    0.134556
  15 H :    0.135653
  16 H :    0.146467
  17 H :    0.150641

  Mayer bond orders larger than 0.1
B(  0-O ,  1-C ) :   1.8945 B(  1-C ,  2-N ) :   1.0995 B(  1-C ,  9-H ) :   0.9309
B(  2-N ,  3-C ) :   0.8878 B(  2-N ,  8-C ) :   0.9777 B(  3-C ,  4-C ) :   0.9152
B(  3-C , 10-H ) :   0.9152 B(  3-C , 11-H ) :   0.9152 B(  4-C ,  5-C ) :   0.8501
B(  4-C ,  6-C ) :   0.8501 B(  4-C ,  7-C ) :   0.9345 B(  5-C ,  6-C ) :   0.9036
B(  5-C , 12-H ) :   0.9276 B(  5-C , 13-H ) :   0.9248 B(  6-C , 14-H ) :   0.9248
B(  6-C , 15-H ) :   0.9276 B(  7-C ,  8-C ) :   1.7209 B(  7-C , 16-H ) :   0.9179
B(  8-C , 17-H ) :   0.9291

MP2 TOTAL ENERGY:     -401.264615429 Eh
FINAL SINGLE POINT ENERGY      -401.264615428636

DIPOLE MOMENT
-------------
                                X             Y             Z
Electronic contribution:     -3.50495      -6.78696      -0.01740
Nuclear contribution   :      4.10949       8.31542       0.02397
                        -----------------------------------------
Total Dipole Moment    :      0.60453       1.52846       0.00658
                        -----------------------------------------
Magnitude (a.u.)       :      1.64369
Magnitude (Debye)      :      4.17792

                             ****ORCA TERMINATED NORMALLY****
TOTAL RUN TIME: 0 days 0 hours 17 minutes 13 seconds 405 msec
