                         Program Version 3.0.3 - RELEASE   -
|  1> ! RI-MP2 RIJK def2-TZVP def2-TZVP/C def2-TZVP/JK TIGHTSCF
|  2> % maxcore 2000
|  3> % mp2 density relaxed end
|  4> *xyz 0 1
|  5>  C       -0.0145855385     1.5430646873    -0.0965814163
|  6>  C       -0.0086940628     0.0883884100    -0.0402575831
|  7>  C       -0.0132314809    -1.1149506987     0.0133626756
|  8>  C       -0.0112504130    -2.5641001424     0.0737949149
|  9>  C        0.3080750266    -3.2834982775     1.4475682078
| 10>  C       -1.0316886079    -4.0279458527     1.3295333604
| 11>  C       -1.3314785804    -5.4177688668     1.7968893281
| 12>  N       -2.0595982678    -2.9564113499     1.3236402975
| 13>  C       -1.3600206890    -3.3117168496     0.0656213666
| 14>  H        1.0038565494     1.9478024691    -0.1071580396
| 15>  H       -0.5217032620     1.9057470877    -0.9979549174
| 16>  H       -0.5322792909     1.9728978891     0.7683046534
| 17>  H        0.6400044939    -2.9741059877    -0.7052924108
| 18>  H        1.1833635713    -3.9328403433     1.3754170640
| 19>  H        0.3970397012    -2.6265307597     2.3143179545
| 20>  H       -1.4022014699    -5.4611581844     2.8903743822
| 21>  H       -2.2822381244    -5.7756456241     1.3861654052
| 22>  H       -0.5473049484    -6.1170355789     1.4869319138
| 23>  H       -2.9702393953    -3.4159384113     1.2885660895
| 24>  H       -1.9172099312    -3.6320669660    -0.8072597364
| 25> *
| 26>
| 27>                          ****END OF INPUT****

CARTESIAN COORDINATES (ANGSTROEM)
---------------------------------
  C     -0.014586    1.543065   -0.096581
  C     -0.008694    0.088388   -0.040258
  C     -0.013231   -1.114951    0.013363
  C     -0.011250   -2.564100    0.073795
  C      0.308075   -3.283498    1.447568
  C     -1.031689   -4.027946    1.329533
  C     -1.331479   -5.417769    1.796889
  N     -2.059598   -2.956411    1.323640
  C     -1.360021   -3.311717    0.065621
  H      1.003857    1.947802   -0.107158
  H     -0.521703    1.905747   -0.997955
  H     -0.532279    1.972898    0.768305
  H      0.640004   -2.974106   -0.705292
  H      1.183364   -3.932840    1.375417
  H      0.397040   -2.626531    2.314318
  H     -1.402201   -5.461158    2.890374
  H     -2.282238   -5.775646    1.386165
  H     -0.547305   -6.117036    1.486932
  H     -2.970239   -3.415938    1.288566
  H     -1.917210   -3.632067   -0.807260

 Total Charge           Charge          ....    0
 Multiplicity           Mult            ....    1
 Number of Electrons    NEL             ....   66
 Basis Dimension        Dim             ....  345

ORBITAL ENERGIES
----------------

  NO   OCC          E(Eh)            E(eV)
   0   2.0000     -15.553624      -423.2356
   1   2.0000     -11.264740      -306.5292
   2   2.0000     -11.259326      -306.3818
   3   2.0000     -11.251457      -306.1677
   4   2.0000     -11.236875      -305.7709
   5   2.0000     -11.230071      -305.5858
   6   2.0000     -11.227938      -305.5277
   7   2.0000     -11.210136      -305.0433
   8   2.0000     -11.204255      -304.8833
   9   2.0000      -1.279604       -34.8198
  10   2.0000      -1.072339       -29.1798
  11   2.0000      -1.031794       -28.0765
  12   2.0000      -0.999268       -27.1915
  13   2.0000      -0.945882       -25.7388
  14   2.0000      -0.883846       -24.0507
  15   2.0000      -0.836452       -22.7610
  16   2.0000      -0.739851       -20.1324
  17   2.0000      -0.683386       -18.5959
  18   2.0000      -0.658671       -17.9234
  19   2.0000      -0.612778       -16.6745
  20   2.0000      -0.606961       -16.5162
  21   2.0000      -0.583734       -15.8842
  22   2.0000      -0.577225       -15.7071
  23   2.0000      -0.576111       -15.6768
  24   2.0000      -0.564730       -15.3671
  25   2.0000      -0.536145       -14.5892
  26   2.0000      -0.521553       -14.1922
  27   2.0000      -0.481802       -13.1105
  28   2.0000      -0.465377       -12.6636
  29   2.0000      -0.442325       -12.0363
  30   2.0000      -0.364158        -9.9092
  31   2.0000      -0.351969        -9.5776
  32   2.0000      -0.345795        -9.4096
  33   0.0000       0.129244         3.5169
  34   0.0000       0.147597         4.0163
  35   0.0000       0.165493         4.5033
  36   0.0000       0.167443         4.5564
  37   0.0000       0.183210         4.9854

MULLIKEN ATOMIC CHARGES
-----------------------
   0 C :   -0.492991
   1 C :   -0.001049
   2 C :   -0.032923
   3 C :   -0.067799
   4 C :   -0.203045
   5 C :    0.107452
   6 C :   -0.397970
   7 N :   -0.383421
   8 C :   -0.110185
   9 H :    0.158689
  10 H :    0.158689
  11 H :    0.163791
  12 H :    0.119546
  13 H :    0.117310
  14 H :    0.117960
  15 H :    0.144176
  16 H :    0.123534
  17 H :    0.134058
  18 H :    0.208922
  19 H :    0.135254
Sum of atomic charges:    0.0000000

LOEWDIN ATOMIC CHARGES
----------------------
   0 C :   -0.298040
   1 C :   -0.101409
   2 C :   -0.065113
   3 C :   -0.194842
   4 C :   -0.151553
   5 C :   -0.289216
   6 C :   -0.281519
   7 N :    0.025509
   8 C :   -0.190691
   9 H :    0.138988
  10 H :    0.139338
  11 H :    0.140471
  12 H :    0.165846
  13 H :    0.133818
  14 H :    0.137095
  15 H :    0.131438
  16 H :    0.129034
  17 H :    0.131281
  18 H :    0.170292
  19 H :    0.129274

  Mayer bond orders larger than 0.1
B(  0-C ,  1-C ) :   0.8546 B(  0-C ,  9-H ) :   0.9521 B(  0-C , 10-H ) :   0.9495
B(  0-C , 11-H ) :   0.9472 B(  1-C ,  2-C ) :   2.6581 B(  2-C ,  3-C ) :   1.0830
B(  3-C ,  4-C ) :   0.9570 B(  3-C ,  7-N ) :  -0.1019 B(  3-C ,  8-C ) :   0.8802
B(  3-C , 12-H ) :   0.9215 B(  4-C ,  5-C ) :   0.9575 B(  4-C , 13-H ) :   0.9311
B(  4-C , 14-H ) :   0.8994 B(  5-C ,  6-C ) :   0.8940 B(  5-C ,  7-N ) :   0.9026
B(  5-C ,  8-C ) :   0.8552 B(  6-C , 15-H ) :   0.9457 B(  6-C , 16-H ) :   0.9270
B(  6-C , 17-H ) :   0.9309 B(  7-N ,  8-C ) :   1.0153 B(  7-N , 18-H ) :   0.8696
B(  8-C , 19-H ) :   0.9157

MP2 TOTAL ENERGY:     -365.275295336 Eh
FINAL SINGLE POINT ENERGY      -365.275295336489

DIPOLE MOMENT
-------------
                                X             Y             Z
Electronic contribution:     -0.12814       1.30142      -1.52710
Nuclear contribution   :      0.06816      -1.93294       1.30912
                        -----------------------------------------
Total Dipole Moment    :     -0.05998      -0.63152      -0.21798
                        -----------------------------------------
Magnitude (a.u.)       :      0.67077
Magnitude (Debye)      :      1.70497

                             ****ORCA TERMINATED NORMALLY****
TOTAL RUN TIME: 0 days 0 hours 20 minutes 4 seconds 918 msec
