                         Program Version 3.0.3 - RELEASE   -
|  1> ! RI-MP2 RIJK def2-TZVP def2-TZVP/C def2-TZVP/JK TIGHTSCF
|  2> % maxcore 2000
|  3> % mp2 density relaxed end
|  4> *xyz 0 1
|  5>  C       -0.0145298089     1.5247560566     0.0107011586
|  6>  C        1.3359767861     0.8083684719    -0.0066733472
|  7>  C        0.0596003700     0.0434801571     0.0018103017
|  8>  C       -0.5600056127    -1.0342911243     0.9054409531
|  9>  O       -1.7523160563    -1.0270476240     0.0139145944
| 10>  C       -0.5779575851    -1.0243348589    -0.9011517104
| 11>  C        0.0553595639    -2.1045113390    -0.0099847784
| 12>  C        1.3286820090    -2.8743300664    -0.0268861358
| 13>  C       -0.0246621704    -3.5854908337    -0.0173518607
| 14>  H       -0.3119383632     2.0238871705     0.9272747929
| 15>  H       -0.3300642135     2.0339290694    -0.8942134751
| 16>  H        1.9165106019     0.8425345911    -0.9231191899
| 17>  H        1.9346360386     0.8325208620     0.8983585204
| 18>  H       -0.7277102697    -1.0398775068     1.9834411490
| 19>  H       -0.7670527475    -1.0180583622    -1.9756025098
| 20>  H        1.9091000375    -2.9007440384    -0.9436616250
| 21>  H        1.9272186286    -2.9107903811     0.8778148004
| 22>  H       -0.3240786522    -4.0934672266     0.8936916766
| 23>  H       -0.3421922059    -4.0834417772    -0.9277962948
| 24> *
| 25>
| 26>                          ****END OF INPUT****

CARTESIAN COORDINATES (ANGSTROEM)
---------------------------------
  C     -0.014530    1.524756    0.010701
  C      1.335977    0.808368   -0.006673
  C      0.059600    0.043480    0.001810
  C     -0.560006   -1.034291    0.905441
  O     -1.752316   -1.027048    0.013915
  C     -0.577958   -1.024335   -0.901152
  C      0.055360   -2.104511   -0.009985
  C      1.328682   -2.874330   -0.026886
  C     -0.024662   -3.585491   -0.017352
  H     -0.311938    2.023887    0.927275
  H     -0.330064    2.033929   -0.894213
  H      1.916511    0.842535   -0.923119
  H      1.934636    0.832521    0.898359
  H     -0.727710   -1.039878    1.983441
  H     -0.767053   -1.018058   -1.975603
  H      1.909100   -2.900744   -0.943662
  H      1.927219   -2.910790    0.877815
  H     -0.324079   -4.093467    0.893692
  H     -0.342192   -4.083442   -0.927796

 Total Charge           Charge          ....    0
 Multiplicity           Mult            ....    1
 Number of Electrons    NEL             ....   66
 Basis Dimension        Dim             ....  339

ORBITAL ENERGIES
----------------

  NO   OCC          E(Eh)            E(eV)
   0   2.0000     -20.543989      -559.0304
   1   2.0000     -11.299491      -307.4748
   2   2.0000     -11.299428      -307.4731
   3   2.0000     -11.248466      -306.0863
   4   2.0000     -11.248456      -306.0861
   5   2.0000     -11.230501      -305.5975
   6   2.0000     -11.230500      -305.5974
   7   2.0000     -11.226838      -305.4978
   8   2.0000     -11.226836      -305.4977
   9   2.0000      -1.389643       -37.8141
  10   2.0000      -1.151182       -31.3252
  11   2.0000      -1.134576       -30.8734
  12   2.0000      -1.004218       -27.3262
  13   2.0000      -0.888256       -24.1707
  14   2.0000      -0.831650       -22.6304
  15   2.0000      -0.831178       -22.6175
  16   2.0000      -0.793931       -21.6040
  17   2.0000      -0.709534       -19.3074
  18   2.0000      -0.696802       -18.9610
  19   2.0000      -0.653139       -17.7728
  20   2.0000      -0.651092       -17.7171
  21   2.0000      -0.643784       -17.5182
  22   2.0000      -0.570476       -15.5235
  23   2.0000      -0.536461       -14.5978
  24   2.0000      -0.518982       -14.1222
  25   2.0000      -0.518967       -14.1218
  26   2.0000      -0.474711       -12.9176
  27   2.0000      -0.459021       -12.4906
  28   2.0000      -0.453023       -12.3274
  29   2.0000      -0.448644       -12.2082
  30   2.0000      -0.412001       -11.2111
  31   2.0000      -0.401596       -10.9280
  32   2.0000      -0.384552       -10.4642
  33   0.0000       0.139186         3.7874
  34   0.0000       0.159490         4.3399
  35   0.0000       0.159880         4.3506
  36   0.0000       0.169661         4.6167
  37   0.0000       0.187110         5.0915

MULLIKEN ATOMIC CHARGES
-----------------------
   0 C :   -0.274570
   1 C :   -0.262938
   2 C :    0.063209
   3 C :   -0.026512
   4 O :   -0.296748
   5 C :   -0.026517
   6 C :    0.063210
   7 C :   -0.262935
   8 C :   -0.274574
   9 H :    0.128543
  10 H :    0.128544
  11 H :    0.126246
  12 H :    0.126247
  13 H :    0.139608
  14 H :    0.139607
  15 H :    0.126246
  16 H :    0.126247
  17 H :    0.128543
  18 H :    0.128544
Sum of atomic charges:    0.0000000

LOEWDIN ATOMIC CHARGES
----------------------
   0 C :   -0.197704
   1 C :   -0.201368
   2 C :   -0.196772
   3 C :   -0.143855
   4 O :    0.137815
   5 C :   -0.143856
   6 C :   -0.196772
   7 C :   -0.201369
   8 C :   -0.197703
   9 H :    0.136115
  10 H :    0.136114
  11 H :    0.134546
  12 H :    0.134546
  13 H :    0.129471
  14 H :    0.129471
  15 H :    0.134547
  16 H :    0.134546
  17 H :    0.136114
  18 H :    0.136114

  Mayer bond orders larger than 0.1
B(  0-C ,  1-C ) :   0.9502 B(  0-C ,  2-C ) :   0.8780 B(  0-C ,  9-H ) :   0.9152
B(  0-C , 10-H ) :   0.9152 B(  1-C ,  2-C ) :   0.8545 B(  1-C , 11-H ) :   0.9115
B(  1-C , 12-H ) :   0.9115 B(  2-C ,  3-C ) :   0.9196 B(  2-C ,  5-C ) :   0.9196
B(  3-C ,  4-O ) :   0.9343 B(  3-C ,  5-C ) :   0.1546 B(  3-C ,  6-C ) :   0.9196
B(  3-C , 13-H ) :   0.8638 B(  4-O ,  5-C ) :   0.9343 B(  5-C ,  6-C ) :   0.9196
B(  5-C , 14-H ) :   0.8638 B(  6-C ,  7-C ) :   0.8545 B(  6-C ,  8-C ) :   0.8780
B(  7-C ,  8-C ) :   0.9502 B(  7-C , 15-H ) :   0.9115 B(  7-C , 16-H ) :   0.9115
B(  8-C , 17-H ) :   0.9152 B(  8-C , 18-H ) :   0.9152

MP2 TOTAL ENERGY:     -385.084036832 Eh
FINAL SINGLE POINT ENERGY      -385.084036832033

DIPOLE MOMENT
-------------
                                X             Y             Z
Electronic contribution:     -4.03844       0.00778       0.04020
Nuclear contribution   :      4.85379      -0.00935      -0.04831
                        -----------------------------------------
Total Dipole Moment    :      0.81535      -0.00156      -0.00811
                        -----------------------------------------
Magnitude (a.u.)       :      0.81539
Magnitude (Debye)      :      2.07256

                             ****ORCA TERMINATED NORMALLY****
TOTAL RUN TIME: 0 days 0 hours 16 minutes 47 seconds 192 msec
