                         Program Version 3.0.3 - RELEASE   -
|  1> ! RI-MP2 RIJK def2-TZVP def2-TZVP/C def2-TZVP/JK TIGHTSCF
|  2> % maxcore 2000
|  3> % mp2 density relaxed end
|  4> *xyz 0 1
|  5>  C        0.0634275249     1.5703298640     0.0085682069
|  6>  C       -0.0001088805     0.0357371134     0.0636375175
|  7>  C        0.8700024020    -0.4941473948     1.2135267244
|  8>  C       -1.4665880726    -0.4926876323     0.0671874015
|  9>  C       -2.2829517061    -0.0038228988     1.2671475474
| 10>  O       -2.1517696556     0.0277186942    -1.0828226425
| 11>  C       -1.4904320355    -2.0410633795    -0.0046231921
| 12>  C       -2.8829247295    -2.6172331580    -0.1662821363
| 13>  O       -3.3032861428    -3.5530885939     0.4669678706
| 14>  H        1.0791040314     1.8980596873    -0.2340021281
| 15>  H       -0.6190559515     1.9683074387    -0.7453941108
| 16>  H       -0.1995301195     2.0163029531     0.9733944802
| 17>  H        0.4362288512    -0.3447959568    -0.8747013438
| 18>  H        0.9466519363    -1.5844688170     1.2175032168
| 19>  H        1.8857538890    -0.0955929722     1.1260832975
| 20>  H        0.4811230237    -0.1783969073     2.1874870844
| 21>  H       -2.3075047476     1.0870253990     1.3017116253
| 22>  H       -3.3150539207    -0.3571039444     1.1895924223
| 23>  H       -1.8681753223    -0.3788560318     2.2059951113
| 24>  H       -1.6161076936    -0.1669749239    -1.8604881516
| 25>  H       -0.9063001554    -2.3552176697    -0.8840829501
| 26>  H       -1.0371185214    -2.5047371509     0.8741300758
| 27>  H       -3.5048759337    -2.1150615183    -0.9362824967
| 28> *
| 29>
| 30>                          ****END OF INPUT****

CARTESIAN COORDINATES (ANGSTROEM)
---------------------------------
  C      0.063428    1.570330    0.008568
  C     -0.000109    0.035737    0.063638
  C      0.870002   -0.494147    1.213527
  C     -1.466588   -0.492688    0.067187
  C     -2.282952   -0.003823    1.267148
  O     -2.151770    0.027719   -1.082823
  C     -1.490432   -2.041063   -0.004623
  C     -2.882925   -2.617233   -0.166282
  O     -3.303286   -3.553089    0.466968
  H      1.079104    1.898060   -0.234002
  H     -0.619056    1.968307   -0.745394
  H     -0.199530    2.016303    0.973394
  H      0.436229   -0.344796   -0.874701
  H      0.946652   -1.584469    1.217503
  H      1.885754   -0.095593    1.126083
  H      0.481123   -0.178397    2.187487
  H     -2.307505    1.087025    1.301712
  H     -3.315054   -0.357104    1.189592
  H     -1.868175   -0.378856    2.205995
  H     -1.616108   -0.166975   -1.860488
  H     -0.906300   -2.355218   -0.884083
  H     -1.037119   -2.504737    0.874130
  H     -3.504876   -2.115062   -0.936282

 Total Charge           Charge          ....    0
 Multiplicity           Mult            ....    1
 Number of Electrons    NEL             ....   72
 Basis Dimension        Dim             ....  363

ORBITAL ENERGIES
----------------

  NO   OCC          E(Eh)            E(eV)
   0   2.0000     -20.566080      -559.6315
   1   2.0000     -20.552016      -559.2488
   2   2.0000     -11.326059      -308.1977
   3   2.0000     -11.304587      -307.6134
   4   2.0000     -11.244369      -305.9748
   5   2.0000     -11.240530      -305.8704
   6   2.0000     -11.225946      -305.4735
   7   2.0000     -11.221793      -305.3605
   8   2.0000     -11.218888      -305.2815
   9   2.0000      -1.390636       -37.8411
  10   2.0000      -1.375160       -37.4200
  11   2.0000      -1.105083       -30.0708
  12   2.0000      -1.039578       -28.2883
  13   2.0000      -0.975144       -26.5350
  14   2.0000      -0.938191       -25.5295
  15   2.0000      -0.868825       -23.6419
  16   2.0000      -0.792070       -21.5533
  17   2.0000      -0.770714       -20.9722
  18   2.0000      -0.687303       -18.7025
  19   2.0000      -0.674305       -18.3488
  20   2.0000      -0.645159       -17.5557
  21   2.0000      -0.634794       -17.2736
  22   2.0000      -0.618172       -16.8213
  23   2.0000      -0.605094       -16.4654
  24   2.0000      -0.569015       -15.4837
  25   2.0000      -0.558477       -15.1969
  26   2.0000      -0.554850       -15.0982
  27   2.0000      -0.541573       -14.7370
  28   2.0000      -0.532263       -14.4836
  29   2.0000      -0.526335       -14.3223
  30   2.0000      -0.508954       -13.8493
  31   2.0000      -0.494639       -13.4598
  32   2.0000      -0.483424       -13.1546
  33   2.0000      -0.461468       -12.5572
  34   2.0000      -0.451630       -12.2895
  35   2.0000      -0.406115       -11.0510
  36   0.0000       0.115437         3.1412
  37   0.0000       0.139916         3.8073
  38   0.0000       0.143082         3.8935
  39   0.0000       0.162764         4.4290
  40   0.0000       0.165476         4.5028

MULLIKEN ATOMIC CHARGES
-----------------------
   0 C :   -0.415508
   1 C :   -0.032470
   2 C :   -0.448675
   3 C :    0.196350
   4 C :   -0.452701
   5 O :   -0.466915
   6 C :   -0.188370
   7 C :    0.071823
   8 O :   -0.266721
   9 H :    0.135056
  10 H :    0.146536
  11 H :    0.130247
  12 H :    0.076632
  13 H :    0.142248
  14 H :    0.140049
  15 H :    0.134620
  16 H :    0.148877
  17 H :    0.149637
  18 H :    0.137472
  19 H :    0.311708
  20 H :    0.127835
  21 H :    0.122604
  22 H :    0.099666
Sum of atomic charges:    0.0000000

LOEWDIN ATOMIC CHARGES
----------------------
   0 C :   -0.294154
   1 C :   -0.279521
   2 C :   -0.289616
   3 C :   -0.375100
   4 C :   -0.258555
   5 O :    0.009636
   6 C :   -0.233158
   7 C :   -0.294760
   8 O :    0.126600
   9 H :    0.123942
  10 H :    0.126549
  11 H :    0.123738
  12 H :    0.150262
  13 H :    0.122509
  14 H :    0.127650
  15 H :    0.125116
  16 H :    0.131386
  17 H :    0.133562
  18 H :    0.130831
  19 H :    0.173644
  20 H :    0.153841
  21 H :    0.150402
  22 H :    0.115195

  Mayer bond orders larger than 0.1
B(  0-C ,  1-C ) :   0.9177 B(  0-C ,  9-H ) :   0.9386 B(  0-C , 10-H ) :   0.9338
B(  0-C , 11-H ) :   0.9338 B(  1-C ,  2-C ) :   0.9068 B(  1-C ,  3-C ) :   0.9054
B(  1-C , 12-H ) :   0.9084 B(  2-C , 13-H ) :   0.9394 B(  2-C , 14-H ) :   0.9353
B(  2-C , 15-H ) :   0.9340 B(  3-C ,  4-C ) :   0.8898 B(  3-C ,  5-O ) :   0.8959
B(  3-C ,  6-C ) :   0.8964 B(  4-C , 16-H ) :   0.9414 B(  4-C , 17-H ) :   0.9285
B(  4-C , 18-H ) :   0.9339 B(  5-O , 19-H ) :   0.8382 B(  6-C ,  7-C ) :   0.8732
B(  6-C , 20-H ) :   0.9019 B(  6-C , 21-H ) :   0.9025 B(  7-C ,  8-O ) :   2.0055
B(  7-C , 22-H ) :   0.9455

MP2 TOTAL ENERGY:     -424.742252104 Eh
FINAL SINGLE POINT ENERGY      -424.742252104369

DIPOLE MOMENT
-------------
                                X             Y             Z
Electronic contribution:     -7.56693      -7.30750      -3.05290
Nuclear contribution   :      8.65797       7.95920       2.64629
                        -----------------------------------------
Total Dipole Moment    :      1.09103       0.65169      -0.40661
                        -----------------------------------------
Magnitude (a.u.)       :      1.33431
Magnitude (Debye)      :      3.39155

                             ****ORCA TERMINATED NORMALLY****
TOTAL RUN TIME: 0 days 0 hours 24 minutes 56 seconds 746 msec
