                         Program Version 3.0.3 - RELEASE   -
|  1> ! RI-MP2 RIJK def2-TZVP def2-TZVP/C def2-TZVP/JK TIGHTSCF
|  2> % maxcore 2000
|  3> % mp2 density relaxed end
|  4> *xyz 0 1
|  5>  C       -0.0768426911     1.6612119388     0.0746164758
|  6>  C       -0.1014533649     0.1365114593     0.1036411856
|  7>  C       -1.4814539772    -0.4406101809     0.4192152728
|  8>  O       -2.5040422087     0.0997717585    -0.4035315784
|  9>  C       -2.7358300047    -0.5113748883    -1.5909096048
| 10>  N       -3.5742363597    -0.0115440514    -2.3880379127
| 11>  O        0.2776921595    -0.4035441889    -1.1720359179
| 12>  C        1.5944417052    -0.5284660496    -1.4290681890
| 13>  N        1.9818520822    -0.9273587037    -2.5611765339
| 14>  H        0.9264478561     2.0258619228    -0.1624629503
| 15>  H       -0.7748789393     2.0350471231    -0.6768530499
| 16>  H       -0.3657334378     2.0646501321     1.0501771146
| 17>  H        0.5902981086    -0.2425940112     0.8710437858
| 18>  H       -1.4459312813    -1.5336477615     0.3317486702
| 19>  H       -1.7529741911    -0.1833218645     1.4469997241
| 20>  H       -2.1466518584    -1.4237491404    -1.7360240994
| 21>  H       -3.6479989747    -0.5938834774    -3.2196298057
| 22>  H        2.2334648367    -0.2709484536    -0.5724034918
| 23>  H        2.9976760109    -0.9868255730    -2.5808735750
| 24> *
| 25>
| 26>                          ****END OF INPUT****

CARTESIAN COORDINATES (ANGSTROEM)
---------------------------------
  C     -0.076843    1.661212    0.074616
  C     -0.101453    0.136511    0.103641
  C     -1.481454   -0.440610    0.419215
  O     -2.504042    0.099772   -0.403532
  C     -2.735830   -0.511375   -1.590910
  N     -3.574236   -0.011544   -2.388038
  O      0.277692   -0.403544   -1.172036
  C      1.594442   -0.528466   -1.429068
  N      1.981852   -0.927359   -2.561177
  H      0.926448    2.025862   -0.162463
  H     -0.774879    2.035047   -0.676853
  H     -0.365733    2.064650    1.050177
  H      0.590298   -0.242594    0.871044
  H     -1.445931   -1.533648    0.331749
  H     -1.752974   -0.183322    1.447000
  H     -2.146652   -1.423749   -1.736024
  H     -3.647999   -0.593883   -3.219630
  H      2.233465   -0.270948   -0.572403
  H      2.997676   -0.986826   -2.580874

 Total Charge           Charge          ....    0
 Multiplicity           Mult            ....    1
 Number of Electrons    NEL             ....   70
 Basis Dimension        Dim             ....  339

ORBITAL ENERGIES
----------------

  NO   OCC          E(Eh)            E(eV)
   0   2.0000     -20.601009      -560.5819
   1   2.0000     -20.592617      -560.3536
   2   2.0000     -15.547732      -423.0753
   3   2.0000     -15.532954      -422.6732
   4   2.0000     -11.347426      -308.7792
   5   2.0000     -11.331643      -308.3497
   6   2.0000     -11.315847      -307.9199
   7   2.0000     -11.305993      -307.6517
   8   2.0000     -11.233897      -305.6899
   9   2.0000      -1.442618       -39.2556
  10   2.0000      -1.423579       -38.7376
  11   2.0000      -1.208768       -32.8922
  12   2.0000      -1.193500       -32.4768
  13   2.0000      -1.070599       -29.1325
  14   2.0000      -0.964581       -26.2476
  15   2.0000      -0.880308       -23.9544
  16   2.0000      -0.829599       -22.5745
  17   2.0000      -0.811077       -22.0705
  18   2.0000      -0.740128       -20.1399
  19   2.0000      -0.705834       -19.2067
  20   2.0000      -0.688438       -18.7334
  21   2.0000      -0.671048       -18.2601
  22   2.0000      -0.652602       -17.7582
  23   2.0000      -0.631968       -17.1967
  24   2.0000      -0.604396       -16.4464
  25   2.0000      -0.572507       -15.5787
  26   2.0000      -0.569089       -15.4857
  27   2.0000      -0.539286       -14.6747
  28   2.0000      -0.531654       -14.4670
  29   2.0000      -0.505075       -13.7438
  30   2.0000      -0.503875       -13.7111
  31   2.0000      -0.445551       -12.1241
  32   2.0000      -0.431494       -11.7415
  33   2.0000      -0.410216       -11.1625
  34   2.0000      -0.397053       -10.8044
  35   0.0000       0.121235         3.2990
  36   0.0000       0.141827         3.8593
  37   0.0000       0.149140         4.0583
  38   0.0000       0.156049         4.2463
  39   0.0000       0.168791         4.5930

MULLIKEN ATOMIC CHARGES
-----------------------
   0 C :   -0.399726
   1 C :    0.051618
   2 C :   -0.083063
   3 O :   -0.232474
   4 C :    0.074802
   5 N :   -0.347249
   6 O :   -0.224568
   7 C :    0.057363
   8 N :   -0.345698
   9 H :    0.133893
  10 H :    0.174743
  11 H :    0.132751
  12 H :    0.096140
  13 H :    0.133501
  14 H :    0.137120
  15 H :    0.099994
  16 H :    0.227736
  17 H :    0.086822
  18 H :    0.226296
Sum of atomic charges:   -0.0000000

LOEWDIN ATOMIC CHARGES
----------------------
   0 C :   -0.286524
   1 C :   -0.338091
   2 C :   -0.287971
   3 O :    0.242773
   4 C :   -0.395776
   5 N :   -0.081206
   6 O :    0.259809
   7 C :   -0.402604
   8 N :   -0.079977
   9 H :    0.125544
  10 H :    0.138623
  11 H :    0.131444
  12 H :    0.142804
  13 H :    0.132977
  14 H :    0.140021
  15 H :    0.111290
  16 H :    0.169534
  17 H :    0.108626
  18 H :    0.168705

  Mayer bond orders larger than 0.1
B(  0-C ,  1-C ) :   0.9331 B(  0-C ,  9-H ) :   0.9274 B(  0-C , 10-H ) :   0.9265
B(  0-C , 11-H ) :   0.9283 B(  1-C ,  2-C ) :   0.9315 B(  1-C ,  6-O ) :   0.8407
B(  1-C , 12-H ) :   0.9277 B(  2-C ,  3-O ) :   0.8941 B(  2-C , 13-H ) :   0.9435
B(  2-C , 14-H ) :   0.9225 B(  3-O ,  4-C ) :   1.0226 B(  4-C ,  5-N ) :   1.9616
B(  4-C , 15-H ) :   0.9242 B(  5-N , 16-H ) :   0.8514 B(  6-O ,  7-C ) :   1.0562
B(  7-C ,  8-N ) :   1.9542 B(  7-C , 17-H ) :   0.9249 B(  8-N , 18-H ) :   0.8497

MP2 TOTAL ENERGY:     -455.594719008 Eh
FINAL SINGLE POINT ENERGY      -455.594719008180

DIPOLE MOMENT
-------------
                                X             Y             Z
Electronic contribution:     -2.30505      -2.27112      -2.94306
Nuclear contribution   :      3.65784       1.78896       4.35902
                        -----------------------------------------
Total Dipole Moment    :      1.35280      -0.48216       1.41597
                        -----------------------------------------
Magnitude (a.u.)       :      2.01681
Magnitude (Debye)      :      5.12631

                             ****ORCA TERMINATED NORMALLY****
TOTAL RUN TIME: 0 days 0 hours 15 minutes 36 seconds 514 msec
