                         Program Version 3.0.3 - RELEASE   -
|  1> ! RI-MP2 RIJK def2-TZVP def2-TZVP/C def2-TZVP/JK TIGHTSCF
|  2> % maxcore 2000
|  3> % mp2 density relaxed end
|  4> *xyz 0 1
|  5>  C       -0.0767346441     1.6783409928    -0.0339345698
|  6>  C        0.1102103857     0.1600435590    -0.0974294214
|  7>  C        0.7242540903    -0.4270205277     1.1788174905
|  8>  C        0.9193181474    -1.9474063377     1.1090599140
|  9>  C        1.4036816775    -2.6079243789     2.4043937861
| 10>  C        2.7901219381    -2.1126572506     2.8267942013
| 11>  C        0.3921608128    -2.6035920634     3.6000871367
| 12>  C        0.6725162791    -4.1133506062     3.8233328672
| 13>  C        1.3302563570    -4.1710520135     2.4189741267
| 14>  H        0.8806802727     2.1891425416     0.1188528840
| 15>  H       -0.5171209257     2.0672768220    -0.9575386440
| 16>  H       -0.7361767374     1.9617434070     0.7941661878
| 17>  H       -0.8584904923    -0.3211978414    -0.2871848985
| 18>  H        0.7462712250    -0.0953566498    -0.9555878806
| 19>  H        1.6847659791     0.0677975285     1.3706066095
| 20>  H        0.0798117872    -0.1808294053     2.0344627148
| 21>  H       -0.0359610015    -2.4095898663     0.8235688281
| 22>  H        1.6242453890    -2.1867955695     0.2992733558
| 23>  H        2.7856274739    -1.0426778238     3.0585475744
| 24>  H        3.1430038982    -2.6385833879     3.7204005404
| 25>  H        3.5253175674    -2.2824766275     2.0311392188
| 26>  H        0.6079915134    -1.9243694698     4.4297968338
| 27>  H       -0.6334356766    -2.4206819808     3.2644200009
| 28>  H        1.3892818663    -4.2909271221     4.6294536028
| 29>  H       -0.1924982120    -4.7586730364     3.9926753907
| 30>  H        0.6436550072    -4.5522234360     1.6567807746
| 31>  H        2.2782037124    -4.7095064165     2.3280926952
| 32> *
| 33>
| 34>                          ****END OF INPUT****

CARTESIAN COORDINATES (ANGSTROEM)
---------------------------------
  C     -0.076735    1.678341   -0.033935
  C      0.110210    0.160044   -0.097429
  C      0.724254   -0.427021    1.178817
  C      0.919318   -1.947406    1.109060
  C      1.403682   -2.607924    2.404394
  C      2.790122   -2.112657    2.826794
  C      0.392161   -2.603592    3.600087
  C      0.672516   -4.113351    3.823333
  C      1.330256   -4.171052    2.418974
  H      0.880680    2.189143    0.118853
  H     -0.517121    2.067277   -0.957539
  H     -0.736177    1.961743    0.794166
  H     -0.858490   -0.321198   -0.287185
  H      0.746271   -0.095357   -0.955588
  H      1.684766    0.067798    1.370607
  H      0.079812   -0.180829    2.034463
  H     -0.035961   -2.409590    0.823569
  H      1.624245   -2.186796    0.299273
  H      2.785627   -1.042678    3.058548
  H      3.143004   -2.638583    3.720401
  H      3.525318   -2.282477    2.031139
  H      0.607992   -1.924369    4.429797
  H     -0.633436   -2.420682    3.264420
  H      1.389282   -4.290927    4.629454
  H     -0.192498   -4.758673    3.992675
  H      0.643655   -4.552223    1.656781
  H      2.278204   -4.709506    2.328093

 Total Charge           Charge          ....    0
 Multiplicity           Mult            ....    1
 Number of Electrons    NEL             ....   72
 Basis Dimension        Dim             ....  387

ORBITAL ENERGIES
----------------

  NO   OCC          E(Eh)            E(eV)
   0   2.0000     -11.226430      -305.4867
   1   2.0000     -11.215189      -305.1808
   2   2.0000     -11.213881      -305.1452
   3   2.0000     -11.212271      -305.1014
   4   2.0000     -11.211523      -305.0810
   5   2.0000     -11.210952      -305.0655
   6   2.0000     -11.210929      -305.0649
   7   2.0000     -11.209378      -305.0227
   8   2.0000     -11.208334      -304.9943
   9   2.0000      -1.135450       -30.8972
  10   2.0000      -1.065184       -28.9851
  11   2.0000      -0.997788       -27.1512
  12   2.0000      -0.951318       -25.8867
  13   2.0000      -0.893669       -24.3180
  14   2.0000      -0.877142       -23.8683
  15   2.0000      -0.816319       -22.2132
  16   2.0000      -0.784501       -21.3474
  17   2.0000      -0.708067       -19.2675
  18   2.0000      -0.642004       -17.4698
  19   2.0000      -0.635643       -17.2967
  20   2.0000      -0.624067       -16.9817
  21   2.0000      -0.590574       -16.0703
  22   2.0000      -0.574396       -15.6301
  23   2.0000      -0.565143       -15.3783
  24   2.0000      -0.543113       -14.7789
  25   2.0000      -0.534547       -14.5458
  26   2.0000      -0.525123       -14.2893
  27   2.0000      -0.504247       -13.7213
  28   2.0000      -0.488874       -13.3029
  29   2.0000      -0.482953       -13.1418
  30   2.0000      -0.466750       -12.7009
  31   2.0000      -0.460288       -12.5251
  32   2.0000      -0.455200       -12.3866
  33   2.0000      -0.436267       -11.8714
  34   2.0000      -0.414103       -11.2683
  35   2.0000      -0.404959       -11.0195
  36   0.0000       0.130945         3.5632
  37   0.0000       0.148206         4.0329
  38   0.0000       0.160335         4.3629
  39   0.0000       0.166289         4.5250
  40   0.0000       0.173607         4.7241

MULLIKEN ATOMIC CHARGES
-----------------------
   0 C :   -0.383562
   1 C :   -0.176569
   2 C :   -0.262661
   3 C :   -0.274064
   4 C :    0.247903
   5 C :   -0.470401
   6 C :   -0.284037
   7 C :   -0.224696
   8 C :   -0.264743
   9 H :    0.120667
  10 H :    0.132113
  11 H :    0.121065
  12 H :    0.104516
  13 H :    0.103850
  14 H :    0.110831
  15 H :    0.113863
  16 H :    0.108008
  17 H :    0.110813
  18 H :    0.134821
  19 H :    0.134357
  20 H :    0.127879
  21 H :    0.113342
  22 H :    0.109723
  23 H :    0.115573
  24 H :    0.110757
  25 H :    0.109338
  26 H :    0.111315
Sum of atomic charges:   -0.0000000

LOEWDIN ATOMIC CHARGES
----------------------
   0 C :   -0.323008
   1 C :   -0.297583
   2 C :   -0.267618
   3 C :   -0.235923
   4 C :   -0.280104
   5 C :   -0.271067
   6 C :   -0.206285
   7 C :   -0.245169
   8 C :   -0.203049
   9 H :    0.119557
  10 H :    0.119645
  11 H :    0.119685
  12 H :    0.133585
  13 H :    0.134107
  14 H :    0.136103
  15 H :    0.138447
  16 H :    0.140654
  17 H :    0.140965
  18 H :    0.123592
  19 H :    0.127733
  20 H :    0.125742
  21 H :    0.125281
  22 H :    0.134085
  23 H :    0.130300
  24 H :    0.122003
  25 H :    0.133229
  26 H :    0.125092

  Mayer bond orders larger than 0.1
B(  0-C ,  1-C ) :   0.9212 B(  0-C ,  9-H ) :   0.9400 B(  0-C , 10-H ) :   0.9434
B(  0-C , 11-H ) :   0.9398 B(  1-C ,  2-C ) :   0.9354 B(  1-C , 12-H ) :   0.9354
B(  1-C , 13-H ) :   0.9332 B(  2-C ,  3-C ) :   0.9255 B(  2-C , 14-H ) :   0.9306
B(  2-C , 15-H ) :   0.9313 B(  3-C ,  4-C ) :   0.8955 B(  3-C , 16-H ) :   0.9259
B(  3-C , 17-H ) :   0.9313 B(  4-C ,  5-C ) :   0.8933 B(  4-C ,  6-C ) :   0.8923
B(  4-C ,  8-C ) :   0.8922 B(  5-C , 18-H ) :   0.9429 B(  5-C , 19-H ) :   0.9322
B(  5-C , 20-H ) :   0.9391 B(  6-C ,  7-C ) :   0.9582 B(  6-C , 21-H ) :   0.9287
B(  6-C , 22-H ) :   0.9178 B(  7-C ,  8-C ) :   0.9565 B(  7-C , 23-H ) :   0.9268
B(  7-C , 24-H ) :   0.9249 B(  8-C , 25-H ) :   0.9146 B(  8-C , 26-H ) :   0.9305

MP2 TOTAL ENERGY:     -352.910787731 Eh
FINAL SINGLE POINT ENERGY      -352.910787730823

DIPOLE MOMENT
-------------
                                X             Y             Z
Electronic contribution:      0.09514      -3.80900       1.66668
Nuclear contribution   :     -0.09351       3.82495      -1.69365
                        -----------------------------------------
Total Dipole Moment    :      0.00164       0.01594      -0.02697
                        -----------------------------------------
Magnitude (a.u.)       :      0.03138
Magnitude (Debye)      :      0.07976

                             ****ORCA TERMINATED NORMALLY****
TOTAL RUN TIME: 0 days 0 hours 19 minutes 49 seconds 305 msec
