                         Program Version 3.0.3 - RELEASE   -
|  1> ! RI-MP2 RIJK def2-TZVP def2-TZVP/C def2-TZVP/JK TIGHTSCF
|  2> % maxcore 2000
|  3> % mp2 density relaxed end
|  4> *xyz 0 1
|  5>  C        0.2393478355     1.4245929720     0.1217218990
|  6>  C       -0.0294594407    -0.0876661754    -0.0167156853
|  7>  C       -1.5339589383    -0.4332243221    -0.0240155548
|  8>  C       -2.1844921219    -0.0928503747     1.2342487453
|  9>  C       -2.6994888059     0.1899253363     2.2826953090
| 10>  C        0.6326902823    -0.6255400621    -1.2701585741
| 11>  O        0.0592029358    -1.1185681484    -2.2082177203
| 12>  C        2.1107224264    -0.5081355687    -1.2913868217
| 13>  N        3.2638397856    -0.4219388124    -1.2951329176
| 14>  H        1.3103256394     1.6398707450     0.1567905329
| 15>  H       -0.1977456806     1.9751783741    -0.7175213049
| 16>  H       -0.2171438544     1.7864552550     1.0453755050
| 17>  H        0.4523258879    -0.5924364122     0.8322361125
| 18>  H       -2.0189059787     0.0917008607    -0.8554914657
| 19>  H       -1.6595085557    -1.5011033389    -0.2336564760
| 20>  H       -3.1718682467     0.4320367018     3.2025460068
| 21> *
| 22>
| 23>                          ****END OF INPUT****

CARTESIAN COORDINATES (ANGSTROEM)
---------------------------------
  C      0.239348    1.424593    0.121722
  C     -0.029459   -0.087666   -0.016716
  C     -1.533959   -0.433224   -0.024016
  C     -2.184492   -0.092850    1.234249
  C     -2.699489    0.189925    2.282695
  C      0.632690   -0.625540   -1.270159
  O      0.059203   -1.118568   -2.208218
  C      2.110722   -0.508136   -1.291387
  N      3.263840   -0.421939   -1.295133
  H      1.310326    1.639871    0.156791
  H     -0.197746    1.975178   -0.717521
  H     -0.217144    1.786455    1.045376
  H      0.452326   -0.592436    0.832236
  H     -2.018906    0.091701   -0.855491
  H     -1.659509   -1.501103   -0.233656
  H     -3.171868    0.432037    3.202546

 Total Charge           Charge          ....    0
 Multiplicity           Mult            ....    1
 Number of Electrons    NEL             ....   64
 Basis Dimension        Dim             ....  321

ORBITAL ENERGIES
----------------

  NO   OCC          E(Eh)            E(eV)
   0   2.0000     -20.606780      -560.7390
   1   2.0000     -15.613259      -424.8584
   2   2.0000     -11.401814      -310.2591
   3   2.0000     -11.301251      -307.5227
   4   2.0000     -11.287623      -307.1518
   5   2.0000     -11.276341      -306.8448
   6   2.0000     -11.251342      -306.1646
   7   2.0000     -11.250118      -306.1313
   8   2.0000     -11.237552      -305.7893
   9   2.0000      -1.450278       -39.4641
  10   2.0000      -1.249777       -34.0082
  11   2.0000      -1.140011       -31.0213
  12   2.0000      -1.055191       -28.7132
  13   2.0000      -0.976158       -26.5626
  14   2.0000      -0.955975       -26.0134
  15   2.0000      -0.853843       -23.2342
  16   2.0000      -0.747046       -20.3282
  17   2.0000      -0.727053       -19.7841
  18   2.0000      -0.695893       -18.9362
  19   2.0000      -0.665506       -18.1093
  20   2.0000      -0.635193       -17.2845
  21   2.0000      -0.604116       -16.4388
  22   2.0000      -0.598719       -16.2920
  23   2.0000      -0.595303       -16.1990
  24   2.0000      -0.570388       -15.5210
  25   2.0000      -0.535652       -14.5758
  26   2.0000      -0.522596       -14.2206
  27   2.0000      -0.502579       -13.6759
  28   2.0000      -0.492942       -13.4136
  29   2.0000      -0.479437       -13.0461
  30   2.0000      -0.403765       -10.9870
  31   2.0000      -0.402343       -10.9483
  32   0.0000       0.057094         1.5536
  33   0.0000       0.120885         3.2894
  34   0.0000       0.151839         4.1317
  35   0.0000       0.155178         4.2226
  36   0.0000       0.157645         4.2897

MULLIKEN ATOMIC CHARGES
-----------------------
   0 C :   -0.439325
   1 C :   -0.052813
   2 C :   -0.359816
   3 C :   -0.025343
   4 C :   -0.123089
   5 C :    0.318159
   6 O :   -0.234443
   7 C :   -0.177909
   8 N :   -0.029410
   9 H :    0.162683
  10 H :    0.140070
  11 H :    0.166265
  12 H :    0.136703
  13 H :    0.157471
  14 H :    0.165244
  15 H :    0.195555
Sum of atomic charges:    0.0000000

LOEWDIN ATOMIC CHARGES
----------------------
   0 C :   -0.265036
   1 C :   -0.232033
   2 C :   -0.217191
   3 C :   -0.111801
   4 C :   -0.097886
   5 C :   -0.298419
   6 O :    0.214523
   7 C :   -0.134379
   8 N :    0.101055
   9 H :    0.133439
  10 H :    0.131507
  11 H :    0.138333
  12 H :    0.177960
  13 H :    0.165454
  14 H :    0.166092
  15 H :    0.128383

  Mayer bond orders larger than 0.1
B(  0-C ,  1-C ) :   0.8870 B(  0-C ,  9-H ) :   0.9286 B(  0-C , 10-H ) :   0.9256
B(  0-C , 11-H ) :   0.9281 B(  1-C ,  2-C ) :   0.9163 B(  1-C ,  5-C ) :   0.8941
B(  1-C , 12-H ) :   0.9018 B(  2-C ,  3-C ) :   1.0784 B(  2-C ,  4-C ) :  -0.1078
B(  2-C , 13-H ) :   0.9209 B(  2-C , 14-H ) :   0.9322 B(  3-C ,  4-C ) :   2.6241
B(  4-C , 15-H ) :   0.8930 B(  5-C ,  6-O ) :   1.9493 B(  5-C ,  7-C ) :   0.9102
B(  7-C ,  8-N ) :   2.8048

MP2 TOTAL ENERGY:     -400.034803805 Eh
FINAL SINGLE POINT ENERGY      -400.034803804677

DIPOLE MOMENT
-------------
                                X             Y             Z
Electronic contribution:      4.25518      -4.33075      -4.42718
Nuclear contribution   :     -5.11649       4.74729       5.22117
                        -----------------------------------------
Total Dipole Moment    :     -0.86131       0.41653       0.79399
                        -----------------------------------------
Magnitude (a.u.)       :      1.24329
Magnitude (Debye)      :      3.16019

                             ****ORCA TERMINATED NORMALLY****
TOTAL RUN TIME: 0 days 0 hours 15 minutes 58 seconds 165 msec
