                         Program Version 3.0.3 - RELEASE   -
|  1> ! RI-MP2 RIJK def2-TZVP def2-TZVP/C def2-TZVP/JK TIGHTSCF
|  2> % maxcore 2000
|  3> % mp2 density relaxed end
|  4> *xyz 0 1
|  5>  N       -0.1380899344     1.4647688973     0.1850010677
|  6>  C       -0.1392371721     0.0208113903     0.0048427342
|  7>  C       -1.5296349845    -0.4640235230    -0.1045650925
|  8>  N       -2.6055992488    -0.8693395095    -0.2138003731
|  9>  C        0.6539557326    -0.5198461440    -1.2037440017
| 10>  O        0.8821944137     0.3851183947    -2.2712371922
| 11>  C        2.0270080592    -0.0784688606    -1.5272574233
| 12>  C        2.7792250072     0.8664901387    -0.7445652332
| 13>  C        3.4856065534     1.6030097066    -0.1075764189
| 14>  H        0.7903867663     1.7638230262     0.4635670905
| 15>  H       -0.3280880517     1.9092379949    -0.7090254098
| 16>  H        0.2824964819    -0.4384418580     0.9084235585
| 17>  H        0.3771441999    -1.5294111604    -1.5110379441
| 18>  H        2.6462557503    -0.7806487464    -2.0850680960
| 19>  H        4.1026969071     2.2643403531     0.4505952739
| 20> *
| 21>
| 22>                          ****END OF INPUT****

CARTESIAN COORDINATES (ANGSTROEM)
---------------------------------
  N     -0.138090    1.464769    0.185001
  C     -0.139237    0.020811    0.004843
  C     -1.529635   -0.464024   -0.104565
  N     -2.605599   -0.869340   -0.213800
  C      0.653956   -0.519846   -1.203744
  O      0.882194    0.385118   -2.271237
  C      2.027008   -0.078469   -1.527257
  C      2.779225    0.866490   -0.744565
  C      3.485607    1.603010   -0.107576
  H      0.790387    1.763823    0.463567
  H     -0.328088    1.909238   -0.709025
  H      0.282496   -0.438442    0.908424
  H      0.377144   -1.529411   -1.511038
  H      2.646256   -0.780649   -2.085068
  H      4.102697    2.264340    0.450595

 Total Charge           Charge          ....    0
 Multiplicity           Mult            ....    1
 Number of Electrons    NEL             ....   64
 Basis Dimension        Dim             ....  315

ORBITAL ENERGIES
----------------

  NO   OCC          E(Eh)            E(eV)
   0   2.0000     -20.610200      -560.8320
   1   2.0000     -15.576058      -423.8461
   2   2.0000     -15.569954      -423.6800
   3   2.0000     -11.344340      -308.6952
   4   2.0000     -11.333371      -308.3967
   5   2.0000     -11.332023      -308.3600
   6   2.0000     -11.276339      -306.8448
   7   2.0000     -11.270996      -306.6994
   8   2.0000     -11.264905      -306.5337
   9   2.0000      -1.456016       -39.6202
  10   2.0000      -1.240147       -33.7461
  11   2.0000      -1.206211       -32.8227
  12   2.0000      -1.082767       -29.4636
  13   2.0000      -1.027839       -27.9689
  14   2.0000      -0.964658       -26.2497
  15   2.0000      -0.879405       -23.9298
  16   2.0000      -0.775306       -21.0971
  17   2.0000      -0.749243       -20.3879
  18   2.0000      -0.729229       -19.8433
  19   2.0000      -0.708450       -19.2779
  20   2.0000      -0.656373       -17.8608
  21   2.0000      -0.629233       -17.1223
  22   2.0000      -0.600322       -16.3356
  23   2.0000      -0.584769       -15.9124
  24   2.0000      -0.560788       -15.2598
  25   2.0000      -0.517338       -14.0775
  26   2.0000      -0.504821       -13.7369
  27   2.0000      -0.471155       -12.8208
  28   2.0000      -0.468255       -12.7419
  29   2.0000      -0.445642       -12.1265
  30   2.0000      -0.421576       -11.4717
  31   2.0000      -0.408094       -11.1048
  32   0.0000       0.122309         3.3282
  33   0.0000       0.124570         3.3897
  34   0.0000       0.130687         3.5562
  35   0.0000       0.147995         4.0271
  36   0.0000       0.154696         4.2095

MULLIKEN ATOMIC CHARGES
-----------------------
   0 N :   -0.510239
   1 C :    0.162064
   2 C :   -0.169580
   3 N :   -0.048738
   4 C :   -0.047813
   5 O :   -0.301752
   6 C :   -0.084342
   7 C :   -0.061801
   8 C :   -0.074910
   9 H :    0.247259
  10 H :    0.249029
  11 H :    0.143510
  12 H :    0.145593
  13 H :    0.145519
  14 H :    0.206199
Sum of atomic charges:    0.0000000

LOEWDIN ATOMIC CHARGES
----------------------
   0 N :   -0.103060
   1 C :   -0.303841
   2 C :   -0.163224
   3 N :    0.071112
   4 C :   -0.233114
   5 O :    0.191090
   6 C :   -0.244324
   7 C :   -0.100633
   8 C :   -0.067680
   9 H :    0.161670
  10 H :    0.167300
  11 H :    0.179772
  12 H :    0.150998
  13 H :    0.160759
  14 H :    0.133172

  Mayer bond orders larger than 0.1
B(  0-N ,  1-C ) :   0.9769 B(  0-N ,  4-C ) :   0.1100 B(  0-N ,  9-H ) :   0.8929
B(  0-N , 10-H ) :   0.8831 B(  1-C ,  2-C ) :   0.9250 B(  1-C ,  4-C ) :   0.9218
B(  1-C , 11-H ) :   0.8951 B(  2-C ,  3-N ) :   2.8651 B(  4-C ,  5-O ) :   0.9316
B(  4-C ,  6-C ) :   0.9840 B(  4-C , 12-H ) :   0.9161 B(  5-O ,  6-C ) :   0.9094
B(  6-C ,  7-C ) :   1.1026 B(  6-C ,  8-C ) :  -0.1278 B(  6-C , 13-H ) :   0.9336
B(  7-C ,  8-C ) :   2.5759 B(  8-C , 14-H ) :   0.8885

MP2 TOTAL ENERGY:     -416.033459563 Eh
FINAL SINGLE POINT ENERGY      -416.033459562786

DIPOLE MOMENT
-------------
                                X             Y             Z
Electronic contribution:     -2.02647      -1.31410      -1.29029
Nuclear contribution   :      4.09376       1.38625       1.50249
                        -----------------------------------------
Total Dipole Moment    :      2.06729       0.07215       0.21220
                        -----------------------------------------
Magnitude (a.u.)       :      2.07940
Magnitude (Debye)      :      5.28542

                             ****ORCA TERMINATED NORMALLY****
TOTAL RUN TIME: 0 days 0 hours 15 minutes 4 seconds 475 msec
