                         Program Version 3.0.3 - RELEASE   -
|  1> ! RI-MP2 RIJK def2-TZVP def2-TZVP/C def2-TZVP/JK TIGHTSCF
|  2> % maxcore 2000
|  3> % mp2 density relaxed end
|  4> *xyz 0 1
|  5>  C        0.1450486901     1.5850016307    -0.3161909501
|  6>  C        0.0001207163     0.0860860054    -0.0094201947
|  7>  C        0.4587876700    -0.8024089710    -1.1923835724
|  8>  C        1.9392546101    -1.0796777245    -0.9456136996
|  9>  O        2.7997064137     0.0497392245    -1.2492496280
| 10>  C        3.2089721810     0.1657120501     0.1303331449
| 11>  C        2.1976087176    -0.9100286522     0.5750621662
| 12>  C        0.8521488107    -0.4573087270     1.1823154929
| 13>  C        0.9595527706     0.4459539989     2.4116603604
| 14>  H        1.1543867387     1.8409203352    -0.6458165048
| 15>  H       -0.5373388359     1.8614201663    -1.1273782451
| 16>  H       -0.1115135745     2.2041986342     0.5489955582
| 17>  H       -1.0579488444    -0.0996686602     0.2090245339
| 18>  H       -0.0790168695    -1.7588200713    -1.1831187214
| 19>  H        0.2908973618    -0.3402778588    -2.1701538188
| 20>  H        2.3042633851    -1.9891030268    -1.4363963939
| 21>  H        4.2605225445    -0.1209967075     0.2620997700
| 22>  H        3.0706430508     1.1813734870     0.5186429443
| 23>  H        2.6340658917    -1.7501349992     1.1181112840
| 24>  H        0.3534942680    -1.3826451895     1.5039117161
| 25>  H        1.4791284728     1.3833044163     2.1917887101
| 26>  H       -0.0319956504     0.7022403790     2.7997894520
| 27>  H        1.5086730515    -0.0554034398     3.2160908157
| 28> *
| 29>
| 30>                          ****END OF INPUT****

CARTESIAN COORDINATES (ANGSTROEM)
---------------------------------
  C      0.145049    1.585002   -0.316191
  C      0.000121    0.086086   -0.009420
  C      0.458788   -0.802409   -1.192384
  C      1.939255   -1.079678   -0.945614
  O      2.799706    0.049739   -1.249250
  C      3.208972    0.165712    0.130333
  C      2.197609   -0.910029    0.575062
  C      0.852149   -0.457309    1.182315
  C      0.959553    0.445954    2.411660
  H      1.154387    1.840920   -0.645817
  H     -0.537339    1.861420   -1.127378
  H     -0.111514    2.204199    0.548996
  H     -1.057949   -0.099669    0.209025
  H     -0.079017   -1.758820   -1.183119
  H      0.290897   -0.340278   -2.170154
  H      2.304263   -1.989103   -1.436396
  H      4.260523   -0.120997    0.262100
  H      3.070643    1.181373    0.518643
  H      2.634066   -1.750135    1.118111
  H      0.353494   -1.382645    1.503912
  H      1.479128    1.383304    2.191789
  H     -0.031996    0.702240    2.799789
  H      1.508673   -0.055403    3.216091

 Total Charge           Charge          ....    0
 Multiplicity           Mult            ....    1
 Number of Electrons    NEL             ....   70
 Basis Dimension        Dim             ....  363

ORBITAL ENERGIES
----------------

  NO   OCC          E(Eh)            E(eV)
   0   2.0000     -20.539493      -558.9080
   1   2.0000     -11.273871      -306.7776
   2   2.0000     -11.271583      -306.7154
   3   2.0000     -11.228594      -305.5456
   4   2.0000     -11.226256      -305.4820
   5   2.0000     -11.224487      -305.4338
   6   2.0000     -11.215817      -305.1979
   7   2.0000     -11.215577      -305.1914
   8   2.0000     -11.204487      -304.8896
   9   2.0000      -1.370589       -37.2956
  10   2.0000      -1.119069       -30.4514
  11   2.0000      -1.017808       -27.6960
  12   2.0000      -0.990881       -26.9633
  13   2.0000      -0.950425       -25.8624
  14   2.0000      -0.873754       -23.7761
  15   2.0000      -0.864735       -23.5306
  16   2.0000      -0.752531       -20.4774
  17   2.0000      -0.719447       -19.5772
  18   2.0000      -0.700892       -19.0723
  19   2.0000      -0.635216       -17.2851
  20   2.0000      -0.621303       -16.9065
  21   2.0000      -0.601114       -16.3572
  22   2.0000      -0.595218       -16.1967
  23   2.0000      -0.573080       -15.5943
  24   2.0000      -0.559857       -15.2345
  25   2.0000      -0.542352       -14.7582
  26   2.0000      -0.532097       -14.4791
  27   2.0000      -0.515182       -14.0188
  28   2.0000      -0.499676       -13.5969
  29   2.0000      -0.465974       -12.6798
  30   2.0000      -0.454644       -12.3715
  31   2.0000      -0.442591       -12.0435
  32   2.0000      -0.430341       -11.7102
  33   2.0000      -0.428146       -11.6505
  34   2.0000      -0.404678       -11.0119
  35   0.0000       0.127289         3.4637
  36   0.0000       0.150946         4.1074
  37   0.0000       0.162925         4.4334
  38   0.0000       0.170939         4.6515
  39   0.0000       0.189702         5.1621

MULLIKEN ATOMIC CHARGES
-----------------------
   0 C :   -0.480061
   1 C :   -0.022829
   2 C :   -0.217588
   3 C :    0.053830
   4 O :   -0.346254
   5 C :   -0.053332
   6 C :   -0.111771
   7 C :   -0.054882
   8 C :   -0.431249
   9 H :    0.157701
  10 H :    0.129313
  11 H :    0.132175
  12 H :    0.098208
  13 H :    0.115530
  14 H :    0.123233
  15 H :    0.092584
  16 H :    0.102581
  17 H :    0.099956
  18 H :    0.118213
  19 H :    0.089781
  20 H :    0.131311
  21 H :    0.137930
  22 H :    0.135620
Sum of atomic charges:   -0.0000000

LOEWDIN ATOMIC CHARGES
----------------------
   0 C :   -0.295483
   1 C :   -0.240466
   2 C :   -0.217672
   3 C :   -0.245236
   4 O :    0.127817
   5 C :   -0.257822
   6 C :   -0.187539
   7 C :   -0.233976
   8 C :   -0.293724
   9 H :    0.128701
  10 H :    0.124349
  11 H :    0.120949
  12 H :    0.148032
  13 H :    0.143040
  14 H :    0.143779
  15 H :    0.130238
  16 H :    0.117520
  17 H :    0.114675
  18 H :    0.141966
  19 H :    0.158135
  20 H :    0.121814
  21 H :    0.125889
  22 H :    0.125015

  Mayer bond orders larger than 0.1
B(  0-C ,  1-C ) :   0.8975 B(  0-C ,  9-H ) :   0.9318 B(  0-C , 10-H ) :   0.9374
B(  0-C , 11-H ) :   0.9373 B(  1-C ,  2-C ) :   0.9081 B(  1-C ,  7-C ) :   0.8987
B(  1-C , 12-H ) :   0.9283 B(  2-C ,  3-C ) :   0.9410 B(  2-C , 13-H ) :   0.9159
B(  2-C , 14-H ) :   0.9197 B(  3-C ,  4-O ) :   0.9515 B(  3-C ,  6-C ) :   0.9309
B(  3-C , 15-H ) :   0.9312 B(  4-O ,  5-C ) :   0.9195 B(  5-C ,  6-C ) :   0.9561
B(  5-C , 16-H ) :   0.9159 B(  5-C , 17-H ) :   0.9151 B(  6-C ,  7-C ) :   0.9520
B(  6-C , 18-H ) :   0.9170 B(  7-C ,  8-C ) :   0.8891 B(  7-C , 19-H ) :   0.9236
B(  8-C , 20-H ) :   0.9366 B(  8-C , 21-H ) :   0.9418 B(  8-C , 22-H ) :   0.9395

MP2 TOTAL ENERGY:     -387.619289073 Eh
FINAL SINGLE POINT ENERGY      -387.619289072766

DIPOLE MOMENT
-------------
                                X             Y             Z
Electronic contribution:      3.86467      -2.90424      -3.99633
Nuclear contribution   :     -4.14634       2.52429       4.60353
                        -----------------------------------------
Total Dipole Moment    :     -0.28167      -0.37995       0.60720
                        -----------------------------------------
Magnitude (a.u.)       :      0.76967
Magnitude (Debye)      :      1.95634

                             ****ORCA TERMINATED NORMALLY****
TOTAL RUN TIME: 0 days 0 hours 22 minutes 14 seconds 262 msec
