                         Program Version 3.0.3 - RELEASE   -
|  1> ! RI-MP2 RIJK def2-TZVP def2-TZVP/C def2-TZVP/JK TIGHTSCF
|  2> % maxcore 2000
|  3> % mp2 density relaxed end
|  4> *xyz 0 1
|  5>  C       -0.0429332342     1.4610089487     0.0103854548
|  6>  O        1.1682066305     0.7002633477    -0.0055159437
|  7>  C       -0.0801797574    -0.0031599738     0.0028300381
|  8>  C       -0.3801751354    -0.8542320767     1.2433714678
|  9>  C       -0.6032001468    -2.2284509975     0.6623123764
| 10>  C       -0.6161707580    -2.2212473569    -0.6703618001
| 11>  C       -0.4043531815    -0.8408041850    -1.2407634674
| 12>  H       -0.2434675018     2.0042514956     0.9340664790
| 13>  H       -0.2613482289     2.0141888485    -0.9032884248
| 14>  H        0.4609569231    -0.8068067472     1.9446020294
| 15>  H       -1.2661101868    -0.4944059358     1.7843850342
| 16>  H       -0.7468843398    -3.1049476411     1.2838859921
| 17>  H       -0.7720178119    -3.0909886022    -1.2984598345
| 18>  H       -1.3006126388    -0.4752443793    -1.7605101034
| 19>  H        0.4229755379    -0.7857139949    -1.9576797879
| 20> *
| 21>
| 22>                          ****END OF INPUT****

CARTESIAN COORDINATES (ANGSTROEM)
---------------------------------
  C     -0.042933    1.461009    0.010385
  O      1.168207    0.700263   -0.005516
  C     -0.080180   -0.003160    0.002830
  C     -0.380175   -0.854232    1.243371
  C     -0.603200   -2.228451    0.662312
  C     -0.616171   -2.221247   -0.670362
  C     -0.404353   -0.840804   -1.240763
  H     -0.243468    2.004251    0.934066
  H     -0.261348    2.014189   -0.903288
  H      0.460957   -0.806807    1.944602
  H     -1.266110   -0.494406    1.784385
  H     -0.746884   -3.104948    1.283886
  H     -0.772018   -3.090989   -1.298460
  H     -1.300613   -0.475244   -1.760510
  H      0.422976   -0.785714   -1.957680

 Total Charge           Charge          ....    0
 Multiplicity           Mult            ....    1
 Number of Electrons    NEL             ....   52
 Basis Dimension        Dim             ....  265

ORBITAL ENERGIES
----------------

  NO   OCC          E(Eh)            E(eV)
   0   2.0000     -20.560399      -559.4769
   1   2.0000     -11.290067      -307.2184
   2   2.0000     -11.278227      -306.8962
   3   2.0000     -11.231304      -305.6193
   4   2.0000     -11.231260      -305.6181
   5   2.0000     -11.230227      -305.5900
   6   2.0000     -11.228562      -305.5447
   7   2.0000      -1.405898       -38.2564
   8   2.0000      -1.130025       -30.7496
   9   2.0000      -0.972797       -26.4711
  10   2.0000      -0.953386       -25.9429
  11   2.0000      -0.896049       -24.3827
  12   2.0000      -0.767118       -20.8744
  13   2.0000      -0.748674       -20.3725
  14   2.0000      -0.688764       -18.7422
  15   2.0000      -0.651167       -17.7192
  16   2.0000      -0.620529       -16.8854
  17   2.0000      -0.596355       -16.2277
  18   2.0000      -0.563624       -15.3370
  19   2.0000      -0.544294       -14.8110
  20   2.0000      -0.515385       -14.0243
  21   2.0000      -0.504545       -13.7294
  22   2.0000      -0.490356       -13.3433
  23   2.0000      -0.432550       -11.7703
  24   2.0000      -0.429942       -11.6993
  25   2.0000      -0.351811        -9.5733
  26   0.0000       0.142876         3.8878
  27   0.0000       0.158187         4.3045
  28   0.0000       0.170088         4.6283
  29   0.0000       0.173977         4.7341
  30   0.0000       0.186070         5.0632

MULLIKEN ATOMIC CHARGES
-----------------------
   0 C :   -0.083262
   1 O :   -0.340185
   2 C :    0.138801
   3 C :   -0.170889
   4 C :   -0.183550
   5 C :   -0.183550
   6 C :   -0.170889
   7 H :    0.114816
   8 H :    0.114816
   9 H :    0.132300
  10 H :    0.120186
  11 H :    0.129460
  12 H :    0.129460
  13 H :    0.120186
  14 H :    0.132300
Sum of atomic charges:    0.0000000

LOEWDIN ATOMIC CHARGES
----------------------
   0 C :   -0.250005
   1 O :    0.157036
   2 C :   -0.288811
   3 C :   -0.202045
   4 C :   -0.159350
   5 C :   -0.159350
   6 C :   -0.202045
   7 H :    0.120607
   8 H :    0.120607
   9 H :    0.149625
  10 H :    0.145259
  11 H :    0.136794
  12 H :    0.136794
  13 H :    0.145259
  14 H :    0.149625

  Mayer bond orders larger than 0.1
B(  0-C ,  1-O ) :   0.8920 B(  0-C ,  2-C ) :   0.9680 B(  0-C ,  7-H ) :   0.9132
B(  0-C ,  8-H ) :   0.9132 B(  1-O ,  2-C ) :   0.9042 B(  2-C ,  3-C ) :   0.9232
B(  2-C ,  6-C ) :   0.9232 B(  3-C ,  4-C ) :   0.9461 B(  3-C ,  9-H ) :   0.9141
B(  3-C , 10-H ) :   0.9096 B(  4-C ,  5-C ) :   1.7882 B(  4-C , 11-H ) :   0.9280
B(  5-C ,  6-C ) :   0.9461 B(  5-C , 12-H ) :   0.9280 B(  6-C , 13-H ) :   0.9096
B(  6-C , 14-H ) :   0.9141

MP2 TOTAL ENERGY:     -307.965393878 Eh
FINAL SINGLE POINT ENERGY      -307.965393877770

DIPOLE MOMENT
-------------
                                X             Y             Z
Electronic contribution:      1.89264       0.50193      -0.01571
Nuclear contribution   :     -2.63134      -0.53508       0.02272
                        -----------------------------------------
Total Dipole Moment    :     -0.73871      -0.03315       0.00701
                        -----------------------------------------
Magnitude (a.u.)       :      0.73948
Magnitude (Debye)      :      1.87962

                             ****ORCA TERMINATED NORMALLY****
TOTAL RUN TIME: 0 days 0 hours 7 minutes 44 seconds 955 msec
