                         Program Version 3.0.3 - RELEASE   -
|  1> ! RI-MP2 RIJK def2-TZVP def2-TZVP/C def2-TZVP/JK TIGHTSCF
|  2> % maxcore 2000
|  3> % mp2 density relaxed end
|  4> *xyz 0 1
|  5>  O       -0.6601510278     0.6267768141     0.5618351959
|  6>  C        0.0817071488     1.0160923230    -0.3065615449
|  7>  C        1.2292659842     1.9686865889    -0.1354737368
|  8>  C        1.2165862525     3.3746974797    -0.8028852898
|  9>  C       -0.1601591374     4.0426532225    -0.6895165736
| 10>  C       -0.4706529582     4.3354095681     0.8022070113
| 11>  C        0.2276163369     3.3513058414     1.7788195676
| 12>  C        1.5044690485     2.8126648141     1.1280748456
| 13>  O        2.0733298067     3.8539589711     0.2686144864
| 14>  H       -0.0402863627     0.6536938808    -1.3552423954
| 15>  H        2.1408064632     1.4473606250    -0.4520758387
| 16>  H        1.6818182570     3.4847549432    -1.7856584556
| 17>  H       -0.1690500897     4.9779907843    -1.2579266678
| 18>  H       -0.9186580087     3.3946594297    -1.1459439154
| 19>  H       -0.1045071930     5.3407868376     1.0211468863
| 20>  H       -1.5501096355     4.3504340051     0.9743230473
| 21>  H        0.4816876311     3.8777704975     2.7041911073
| 22>  H       -0.4160580774     2.5098941148     2.0443569087
| 23>  H        2.2365277916     2.4322514090     1.8439779717
| 24> *
| 25>
| 26>                          ****END OF INPUT****

CARTESIAN COORDINATES (ANGSTROEM)
---------------------------------
  O     -0.660151    0.626777    0.561835
  C      0.081707    1.016092   -0.306562
  C      1.229266    1.968687   -0.135474
  C      1.216586    3.374697   -0.802885
  C     -0.160159    4.042653   -0.689517
  C     -0.470653    4.335410    0.802207
  C      0.227616    3.351306    1.778820
  C      1.504469    2.812665    1.128075
  O      2.073330    3.853959    0.268614
  H     -0.040286    0.653694   -1.355242
  H      2.140806    1.447361   -0.452076
  H      1.681818    3.484755   -1.785658
  H     -0.169050    4.977991   -1.257927
  H     -0.918658    3.394659   -1.145944
  H     -0.104507    5.340787    1.021147
  H     -1.550110    4.350434    0.974323
  H      0.481688    3.877770    2.704191
  H     -0.416058    2.509894    2.044357
  H      2.236528    2.432251    1.843978

 Total Charge           Charge          ....    0
 Multiplicity           Mult            ....    1
 Number of Electrons    NEL             ....   68
 Basis Dimension        Dim             ....  339

ORBITAL ENERGIES
----------------

  NO   OCC          E(Eh)            E(eV)
   0   2.0000     -20.566088      -559.6317
   1   2.0000     -20.553676      -559.2940
   2   2.0000     -11.341767      -308.6252
   3   2.0000     -11.299991      -307.4884
   4   2.0000     -11.292783      -307.2922
   5   2.0000     -11.251264      -306.1625
   6   2.0000     -11.232294      -305.6463
   7   2.0000     -11.225028      -305.4485
   8   2.0000     -11.219943      -305.3102
   9   2.0000      -1.405086       -38.2343
  10   2.0000      -1.388036       -37.7704
  11   2.0000      -1.087221       -29.5848
  12   2.0000      -1.031900       -28.0794
  13   2.0000      -1.014132       -27.5959
  14   2.0000      -0.878192       -23.8968
  15   2.0000      -0.841638       -22.9021
  16   2.0000      -0.816787       -22.2259
  17   2.0000      -0.722154       -19.6508
  18   2.0000      -0.717562       -19.5259
  19   2.0000      -0.675304       -18.3760
  20   2.0000      -0.655422       -17.8349
  21   2.0000      -0.632507       -17.2114
  22   2.0000      -0.612851       -16.6765
  23   2.0000      -0.578834       -15.7509
  24   2.0000      -0.552523       -15.0349
  25   2.0000      -0.541722       -14.7410
  26   2.0000      -0.534728       -14.5507
  27   2.0000      -0.514307       -13.9950
  28   2.0000      -0.510495       -13.8913
  29   2.0000      -0.496457       -13.5093
  30   2.0000      -0.468357       -12.7446
  31   2.0000      -0.437948       -11.9172
  32   2.0000      -0.417819       -11.3694
  33   2.0000      -0.407575       -11.0907
  34   0.0000       0.119509         3.2520
  35   0.0000       0.133058         3.6207
  36   0.0000       0.149814         4.0766
  37   0.0000       0.164283         4.4704
  38   0.0000       0.174989         4.7617

MULLIKEN ATOMIC CHARGES
-----------------------
   0 O :   -0.268628
   1 C :    0.079082
   2 C :   -0.113092
   3 C :    0.060874
   4 C :   -0.231342
   5 C :   -0.245016
   6 C :   -0.251632
   7 C :    0.095297
   8 O :   -0.334010
   9 H :    0.085282
  10 H :    0.131091
  11 H :    0.121675
  12 H :    0.124758
  13 H :    0.114702
  14 H :    0.120650
  15 H :    0.123069
  16 H :    0.118386
  17 H :    0.144340
  18 H :    0.124515
Sum of atomic charges:    0.0000000

LOEWDIN ATOMIC CHARGES
----------------------
   0 O :    0.135809
   1 C :   -0.278733
   2 C :   -0.205188
   3 C :   -0.244761
   4 C :   -0.240658
   5 C :   -0.246096
   6 C :   -0.240160
   7 C :   -0.232975
   8 O :    0.156367
   9 H :    0.114722
  10 H :    0.170150
  11 H :    0.133579
  12 H :    0.140239
  13 H :    0.139725
  14 H :    0.141594
  15 H :    0.136287
  16 H :    0.139083
  17 H :    0.145206
  18 H :    0.135810

  Mayer bond orders larger than 0.1
B(  0-O ,  1-C ) :   1.9747 B(  1-C ,  2-C ) :   0.8704 B(  1-C ,  9-H ) :   0.9397
B(  2-C ,  3-C ) :   0.9371 B(  2-C ,  7-C ) :   0.9307 B(  2-C , 10-H ) :   0.8933
B(  3-C ,  4-C ) :   0.9167 B(  3-C ,  8-O ) :   0.9504 B(  3-C , 11-H ) :   0.9175
B(  4-C ,  5-C ) :   0.9512 B(  4-C , 12-H ) :   0.9239 B(  4-C , 13-H ) :   0.9129
B(  5-C ,  6-C ) :   0.9489 B(  5-C , 14-H ) :   0.9265 B(  5-C , 15-H ) :   0.9329
B(  6-C ,  7-C ) :   0.9256 B(  6-C , 16-H ) :   0.9209 B(  6-C , 17-H ) :   0.9138
B(  7-C ,  8-O ) :   0.9244 B(  7-C , 18-H ) :   0.9131

MP2 TOTAL ENERGY:     -422.316343728 Eh
FINAL SINGLE POINT ENERGY      -422.316343728227

DIPOLE MOMENT
-------------
                                X             Y             Z
Electronic contribution:      2.13684      -3.96422      -0.23390
Nuclear contribution   :     -2.03315       4.01031      -0.33296
                        -----------------------------------------
Total Dipole Moment    :      0.10369       0.04609      -0.56686
                        -----------------------------------------
Magnitude (a.u.)       :      0.57810
Magnitude (Debye)      :      1.46942

                             ****ORCA TERMINATED NORMALLY****
TOTAL RUN TIME: 0 days 0 hours 21 minutes 11 seconds 912 msec
