                         Program Version 3.0.3 - RELEASE   -
|  1> ! RI-MP2 RIJK def2-TZVP def2-TZVP/C def2-TZVP/JK TIGHTSCF
|  2> % maxcore 2000
|  3> % mp2 density relaxed end
|  4> *xyz 0 1
|  5>  C       -0.0385872036    -1.2307670818    -0.3239603684
|  6>  C       -0.0155253348    -0.0427052116    -0.1427145629
|  7>  C       -0.0026751646     1.4009593880     0.0684348024
|  8>  C       -0.6824098999     1.8286750905     1.4122694385
|  9>  C        0.3369935031     2.0009070085     2.5641277583
| 10>  C        1.6895914851     2.4299641240     1.9967113354
| 11>  C        1.5542779398     3.3156926699     0.7373800316
| 12>  C        1.4472753022     1.9383623593     0.0511261823
| 13>  O        2.1684298695     1.3389782022     1.1555588298
| 14>  H       -0.0495406876    -2.2807488478    -0.4806671939
| 15>  H       -0.5523415839     1.8715398327    -0.7583323314
| 16>  H       -1.1884421408     2.7833260169     1.2394497752
| 17>  H       -1.4609063543     1.1114690089     1.6801701016
| 18>  H       -0.0374310483     2.7319186787     3.2901590615
| 19>  H        0.4913333022     1.0576095347     3.0978483727
| 20>  H        2.4165937688     2.7066962505     2.7647577398
| 21>  H        0.7211818292     4.0177260033     0.6631733543
| 22>  H        2.4920961382     3.8142891153     0.4893557732
| 23>  H        1.9403541398     1.7700576876    -0.9092582199
| 24> *
| 25>
| 26>                          ****END OF INPUT****

CARTESIAN COORDINATES (ANGSTROEM)
---------------------------------
  C     -0.038587   -1.230767   -0.323960
  C     -0.015525   -0.042705   -0.142715
  C     -0.002675    1.400959    0.068435
  C     -0.682410    1.828675    1.412269
  C      0.336994    2.000907    2.564128
  C      1.689591    2.429964    1.996711
  C      1.554278    3.315693    0.737380
  C      1.447275    1.938362    0.051126
  O      2.168430    1.338978    1.155559
  H     -0.049541   -2.280749   -0.480667
  H     -0.552342    1.871540   -0.758332
  H     -1.188442    2.783326    1.239450
  H     -1.460906    1.111469    1.680170
  H     -0.037431    2.731919    3.290159
  H      0.491333    1.057610    3.097848
  H      2.416594    2.706696    2.764758
  H      0.721182    4.017726    0.663173
  H      2.492096    3.814289    0.489356
  H      1.940354    1.770058   -0.909258

 Total Charge           Charge          ....    0
 Multiplicity           Mult            ....    1
 Number of Electrons    NEL             ....   66
 Basis Dimension        Dim             ....  339

ORBITAL ENERGIES
----------------

  NO   OCC          E(Eh)            E(eV)
   0   2.0000     -20.544194      -559.0360
   1   2.0000     -11.290428      -307.2282
   2   2.0000     -11.285348      -307.0899
   3   2.0000     -11.258213      -306.3516
   4   2.0000     -11.234385      -305.7032
   5   2.0000     -11.232860      -305.6616
   6   2.0000     -11.226360      -305.4848
   7   2.0000     -11.226209      -305.4807
   8   2.0000     -11.213897      -305.1457
   9   2.0000      -1.383530       -37.6478
  10   2.0000      -1.104735       -30.0614
  11   2.0000      -1.043516       -28.3955
  12   2.0000      -1.000093       -27.2139
  13   2.0000      -0.981933       -26.7198
  14   2.0000      -0.859937       -23.4001
  15   2.0000      -0.844659       -22.9843
  16   2.0000      -0.741157       -20.1679
  17   2.0000      -0.707187       -19.2435
  18   2.0000      -0.704416       -19.1681
  19   2.0000      -0.660740       -17.9797
  20   2.0000      -0.633870       -17.2485
  21   2.0000      -0.623437       -16.9646
  22   2.0000      -0.562385       -15.3033
  23   2.0000      -0.552933       -15.0461
  24   2.0000      -0.548460       -14.9243
  25   2.0000      -0.530344       -14.4314
  26   2.0000      -0.514364       -13.9965
  27   2.0000      -0.494097       -13.4451
  28   2.0000      -0.457549       -12.4505
  29   2.0000      -0.445832       -12.1317
  30   2.0000      -0.410901       -11.1812
  31   2.0000      -0.377900       -10.2832
  32   2.0000      -0.373230       -10.1561
  33   0.0000       0.128901         3.5076
  34   0.0000       0.153371         4.1734
  35   0.0000       0.162297         4.4163
  36   0.0000       0.170217         4.6318
  37   0.0000       0.177383         4.8268

MULLIKEN ATOMIC CHARGES
-----------------------
   0 C :   -0.172726
   1 C :   -0.080681
   2 C :   -0.134056
   3 C :   -0.241621
   4 C :   -0.272119
   5 C :    0.088362
   6 C :   -0.267951
   7 C :    0.110633
   8 O :   -0.332010
   9 H :    0.187273
  10 H :    0.114539
  11 H :    0.128312
  12 H :    0.143988
  13 H :    0.112803
  14 H :    0.123859
  15 H :    0.116887
  16 H :    0.125050
  17 H :    0.127840
  18 H :    0.121618
Sum of atomic charges:   -0.0000000

LOEWDIN ATOMIC CHARGES
----------------------
   0 C :   -0.099562
   1 C :   -0.086682
   2 C :   -0.219931
   3 C :   -0.211048
   4 C :   -0.241614
   5 C :   -0.268319
   6 C :   -0.201455
   7 C :   -0.241740
   8 O :    0.167015
   9 H :    0.125796
  10 H :    0.171559
  11 H :    0.137622
  12 H :    0.143508
  13 H :    0.139096
  14 H :    0.146547
  15 H :    0.131975
  16 H :    0.130446
  17 H :    0.139485
  18 H :    0.137302

  Mayer bond orders larger than 0.1
B(  0-C ,  1-C ) :   2.6024 B(  0-C ,  9-H ) :   0.8899 B(  1-C ,  2-C ) :   1.1706
B(  2-C ,  3-C ) :   0.8601 B(  2-C ,  7-C ) :   0.9104 B(  2-C , 10-H ) :   0.9043
B(  3-C ,  4-C ) :   0.9446 B(  3-C , 11-H ) :   0.9310 B(  3-C , 12-H ) :   0.9338
B(  4-C ,  5-C ) :   0.9363 B(  4-C , 13-H ) :   0.9197 B(  4-C , 14-H ) :   0.9196
B(  5-C ,  6-C ) :   0.9499 B(  5-C ,  8-O ) :   0.9094 B(  5-C , 15-H ) :   0.9227
B(  6-C ,  7-C ) :   0.9328 B(  6-C , 16-H ) :   0.9299 B(  6-C , 17-H ) :   0.9267
B(  7-C ,  8-O ) :   0.9347 B(  7-C , 18-H ) :   0.9245

MP2 TOTAL ENERGY:     -385.167511235 Eh
FINAL SINGLE POINT ENERGY      -385.167511234620

DIPOLE MOMENT
-------------
                                X             Y             Z
Electronic contribution:      2.08754      -3.68527      -2.18371
Nuclear contribution   :     -2.49084       4.47244       2.24946
                        -----------------------------------------
Total Dipole Moment    :     -0.40330       0.78717       0.06575
                        -----------------------------------------
Magnitude (a.u.)       :      0.88691
Magnitude (Debye)      :      2.25435

                             ****ORCA TERMINATED NORMALLY****
TOTAL RUN TIME: 0 days 0 hours 21 minutes 22 seconds 117 msec
