                         Program Version 3.0.3 - RELEASE   -
|  1> ! RI-MP2 RIJK def2-TZVP def2-TZVP/C def2-TZVP/JK TIGHTSCF
|  2> % maxcore 2000
|  3> % mp2 density relaxed end
|  4> *xyz 0 1
|  5>  C        0.0598550569     1.2822028608    -0.4163079360
|  6>  C       -0.0014369896    -0.1859933808    -0.0066128392
|  7>  O        0.6853006609    -0.4451519879     1.2150933846
|  8>  C       -1.4363374106    -0.6828034283     0.1232917052
|  9>  O       -2.2571693452    -0.4652435317    -1.0628536551
| 10>  C       -2.6543072753    -1.8488303432    -1.1052590261
| 11>  C       -1.7185198947    -2.7128273883    -1.9589142897
| 12>  O       -0.8254730274    -2.9111994297    -0.8299559853
| 13>  C       -1.7065065717    -2.1991934877     0.0580527624
| 14>  H        1.0999050959     1.6031448825    -0.5197860378
| 15>  H       -0.4588733962     1.4370460424    -1.3660070875
| 16>  H       -0.4242605471     1.9185634625     0.3363337313
| 17>  H        0.5048621238    -0.8054580671    -0.7529771537
| 18>  H        0.3809712524     0.1987123981     1.8646380392
| 19>  H       -1.9148215870    -0.2138639153     0.9985792023
| 20>  H       -3.7350987936    -1.9864397011    -1.1588193490
| 21>  H       -2.1436884791    -3.6669346465    -2.2953466230
| 22>  H       -1.2393073951    -2.1951958652    -2.7962851559
| 23>  H       -1.9297801872    -2.7494489734     0.9723678932
| 24> *
| 25>
| 26>                          ****END OF INPUT****

CARTESIAN COORDINATES (ANGSTROEM)
---------------------------------
  C      0.059855    1.282203   -0.416308
  C     -0.001437   -0.185993   -0.006613
  O      0.685301   -0.445152    1.215093
  C     -1.436337   -0.682803    0.123292
  O     -2.257169   -0.465244   -1.062854
  C     -2.654307   -1.848830   -1.105259
  C     -1.718520   -2.712827   -1.958914
  O     -0.825473   -2.911199   -0.829956
  C     -1.706507   -2.199193    0.058053
  H      1.099905    1.603145   -0.519786
  H     -0.458873    1.437046   -1.366007
  H     -0.424261    1.918563    0.336334
  H      0.504862   -0.805458   -0.752977
  H      0.380971    0.198712    1.864638
  H     -1.914822   -0.213864    0.998579
  H     -3.735099   -1.986440   -1.158819
  H     -2.143688   -3.666935   -2.295347
  H     -1.239307   -2.195196   -2.796285
  H     -1.929780   -2.749449    0.972368

 Total Charge           Charge          ....    0
 Multiplicity           Mult            ....    1
 Number of Electrons    NEL             ....   70
 Basis Dimension        Dim             ....  339

ORBITAL ENERGIES
----------------

  NO   OCC          E(Eh)            E(eV)
   0   2.0000     -20.561457      -559.5057
   1   2.0000     -20.558774      -559.4327
   2   2.0000     -20.557916      -559.4093
   3   2.0000     -11.294679      -307.3438
   4   2.0000     -11.292658      -307.2888
   5   2.0000     -11.288946      -307.1878
   6   2.0000     -11.286265      -307.1149
   7   2.0000     -11.279448      -306.9294
   8   2.0000     -11.217731      -305.2500
   9   2.0000      -1.420145       -38.6441
  10   2.0000      -1.363803       -37.1110
  11   2.0000      -1.354204       -36.8498
  12   2.0000      -1.042224       -28.3603
  13   2.0000      -0.991495       -26.9800
  14   2.0000      -0.979362       -26.6498
  15   2.0000      -0.896238       -24.3879
  16   2.0000      -0.822632       -22.3849
  17   2.0000      -0.742542       -20.2056
  18   2.0000      -0.728246       -19.8166
  19   2.0000      -0.690824       -18.7983
  20   2.0000      -0.671971       -18.2853
  21   2.0000      -0.640652       -17.4330
  22   2.0000      -0.633710       -17.2441
  23   2.0000      -0.593725       -16.1561
  24   2.0000      -0.587899       -15.9976
  25   2.0000      -0.566919       -15.4266
  26   2.0000      -0.546064       -14.8592
  27   2.0000      -0.540992       -14.7211
  28   2.0000      -0.526563       -14.3285
  29   2.0000      -0.510606       -13.8943
  30   2.0000      -0.484015       -13.1707
  31   2.0000      -0.464545       -12.6409
  32   2.0000      -0.440716       -11.9925
  33   2.0000      -0.416176       -11.3247
  34   2.0000      -0.408936       -11.1277
  35   0.0000       0.132271         3.5993
  36   0.0000       0.155564         4.2331
  37   0.0000       0.158033         4.3003
  38   0.0000       0.170379         4.6363
  39   0.0000       0.188798         5.1375

MULLIKEN ATOMIC CHARGES
-----------------------
   0 C :   -0.401382
   1 C :    0.077948
   2 O :   -0.470691
   3 C :    0.022083
   4 O :   -0.335335
   5 C :   -0.010455
   6 C :   -0.030357
   7 O :   -0.350719
   8 C :    0.120462
   9 H :    0.148913
  10 H :    0.148946
  11 H :    0.108775
  12 H :    0.112805
  13 H :    0.309760
  14 H :    0.085347
  15 H :    0.119233
  16 H :    0.106628
  17 H :    0.110276
  18 H :    0.127762
Sum of atomic charges:   -0.0000000

LOEWDIN ATOMIC CHARGES
----------------------
   0 C :   -0.300574
   1 C :   -0.358284
   2 O :   -0.013468
   3 C :   -0.248908
   4 O :    0.156720
   5 C :   -0.251634
   6 C :   -0.247212
   7 O :    0.141060
   8 C :   -0.226934
   9 H :    0.127098
  10 H :    0.133613
  11 H :    0.121018
  12 H :    0.152035
  13 H :    0.173021
  14 H :    0.138626
  15 H :    0.128429
  16 H :    0.121626
  17 H :    0.123021
  18 H :    0.130746

  Mayer bond orders larger than 0.1
B(  0-C ,  1-C ) :   0.9392 B(  0-C ,  9-H ) :   0.9419 B(  0-C , 10-H ) :   0.9293
B(  0-C , 11-H ) :   0.9159 B(  1-C ,  2-O ) :   0.9095 B(  1-C ,  3-C ) :   0.9353
B(  1-C , 12-H ) :   0.9154 B(  2-O , 13-H ) :   0.8425 B(  3-C ,  4-O ) :   0.8893
B(  3-C ,  8-C ) :   0.9229 B(  3-C , 14-H ) :   0.8830 B(  4-O ,  5-C ) :   0.9648
B(  5-C ,  6-C ) :   0.9551 B(  5-C ,  8-C ) :   0.9536 B(  5-C , 15-H ) :   0.9194
B(  6-C ,  7-O ) :   0.9141 B(  6-C , 16-H ) :   0.9123 B(  6-C , 17-H ) :   0.9081
B(  7-O ,  8-C ) :   0.9232 B(  8-C , 18-H ) :   0.9138

MP2 TOTAL ENERGY:     -459.379251067 Eh
FINAL SINGLE POINT ENERGY      -459.379251067384

DIPOLE MOMENT
-------------
                                X             Y             Z
Electronic contribution:     -1.51479      -4.06843       0.54273
Nuclear contribution   :      0.69933       4.30497      -0.43013
                        -----------------------------------------
Total Dipole Moment    :     -0.81545       0.23654       0.11260
                        -----------------------------------------
Magnitude (a.u.)       :      0.85650
Magnitude (Debye)      :      2.17706

                             ****ORCA TERMINATED NORMALLY****
TOTAL RUN TIME: 0 days 0 hours 17 minutes 22 seconds 638 msec
