                         Program Version 3.0.3 - RELEASE   -
|  1> ! RI-MP2 RIJK def2-TZVP def2-TZVP/C def2-TZVP/JK TIGHTSCF
|  2> % maxcore 2000
|  3> % mp2 density relaxed end
|  4> *xyz 0 1
|  5>  O       -0.1667968506     1.3998551683    -0.0776126246
|  6>  C        0.0081958138    -0.0022814132     0.0248538383
|  7>  C        0.1882801541    -0.4754832084     1.4931410826
|  8>  C       -1.3549295695    -0.5763981123     1.5660944572
|  9>  O       -2.1528422380    -0.5055580662     2.4503513341
| 10>  C       -1.4385733353    -0.5995017056     0.0127039695
| 11>  O       -2.4405632633     0.0574818095    -0.6823807428
| 12>  H        0.6532822947     1.8390173980     0.1669039828
| 13>  H        0.7149388436    -0.3836765475    -0.7188305807
| 14>  H        0.6711551618    -1.4545460835     1.5749838985
| 15>  H        0.6617033683     0.2223357747     2.1870833846
| 16>  H       -1.4141197527    -1.6441303948    -0.3212891551
| 17>  H       -2.3119200468     1.0013252209    -0.5227823643
| 18> *
| 19>
| 20>                          ****END OF INPUT****

CARTESIAN COORDINATES (ANGSTROEM)
---------------------------------
  O     -0.166797    1.399855   -0.077613
  C      0.008196   -0.002281    0.024854
  C      0.188280   -0.475483    1.493141
  C     -1.354930   -0.576398    1.566094
  O     -2.152842   -0.505558    2.450351
  C     -1.438573   -0.599502    0.012704
  O     -2.440563    0.057482   -0.682381
  H      0.653282    1.839017    0.166904
  H      0.714939   -0.383677   -0.718831
  H      0.671155   -1.454546    1.574984
  H      0.661703    0.222336    2.187083
  H     -1.414120   -1.644130   -0.321289
  H     -2.311920    1.001325   -0.522782

 Total Charge           Charge          ....    0
 Multiplicity           Mult            ....    1
 Number of Electrons    NEL             ....   54
 Basis Dimension        Dim             ....  253

ORBITAL ENERGIES
----------------

  NO   OCC          E(Eh)            E(eV)
   0   2.0000     -20.589749      -560.2755
   1   2.0000     -20.570631      -559.7553
   2   2.0000     -20.562054      -559.5219
   3   2.0000     -11.338880      -308.5466
   4   2.0000     -11.311084      -307.7903
   5   2.0000     -11.303712      -307.5896
   6   2.0000     -11.254421      -306.2484
   7   2.0000      -1.413323       -38.4585
   8   2.0000      -1.397883       -38.0383
   9   2.0000      -1.373686       -37.3799
  10   2.0000      -1.127479       -30.6803
  11   2.0000      -0.927415       -25.2363
  12   2.0000      -0.869921       -23.6717
  13   2.0000      -0.784085       -21.3360
  14   2.0000      -0.718893       -19.5621
  15   2.0000      -0.694978       -18.9113
  16   2.0000      -0.671177       -18.2637
  17   2.0000      -0.644075       -17.5262
  18   2.0000      -0.620823       -16.8934
  19   2.0000      -0.600763       -16.3476
  20   2.0000      -0.583029       -15.8650
  21   2.0000      -0.563096       -15.3226
  22   2.0000      -0.533495       -14.5171
  23   2.0000      -0.512320       -13.9409
  24   2.0000      -0.467660       -12.7257
  25   2.0000      -0.462639       -12.5890
  26   2.0000      -0.393009       -10.6943
  27   0.0000       0.109655         2.9839
  28   0.0000       0.128062         3.4847
  29   0.0000       0.148621         4.0442
  30   0.0000       0.173862         4.7310
  31   0.0000       0.183936         5.0052

MULLIKEN ATOMIC CHARGES
-----------------------
   0 O :   -0.492716
   1 C :    0.006320
   2 C :   -0.238465
   3 C :    0.098402
   4 O :   -0.232250
   5 C :    0.134562
   6 O :   -0.457911
   7 H :    0.330411
   8 H :    0.114602
   9 H :    0.141973
  10 H :    0.133161
  11 H :    0.122839
  12 H :    0.339074
Sum of atomic charges:    0.0000000

LOEWDIN ATOMIC CHARGES
----------------------
   0 O :   -0.015690
   1 C :   -0.310589
   2 C :   -0.207864
   3 C :   -0.300594
   4 O :    0.177480
   5 C :   -0.303311
   6 O :    0.017220
   7 H :    0.182022
   8 H :    0.124494
   9 H :    0.149725
  10 H :    0.139719
  11 H :    0.157231
  12 H :    0.190159

  Mayer bond orders larger than 0.1
B(  0-O ,  1-C ) :   0.9859 B(  0-O ,  7-H ) :   0.8394 B(  1-C ,  2-C ) :   0.9175
B(  1-C ,  5-C ) :   0.8848 B(  1-C ,  8-H ) :   0.9520 B(  2-C ,  3-C ) :   0.8443
B(  2-C ,  9-H ) :   0.8973 B(  2-C , 10-H ) :   0.9048 B(  3-C ,  4-O ) :   2.0540
B(  3-C ,  5-C ) :   0.8152 B(  5-C ,  6-O ) :   1.0045 B(  5-C , 11-H ) :   0.9122
B(  6-O , 12-H ) :   0.8211

MP2 TOTAL ENERGY:     -380.994048269 Eh
FINAL SINGLE POINT ENERGY      -380.994048268755

DIPOLE MOMENT
-------------
                                X             Y             Z
Electronic contribution:     -3.31185       0.21028       1.18852
Nuclear contribution   :      4.99130      -0.09858      -1.45776
                        -----------------------------------------
Total Dipole Moment    :      1.67945       0.11170      -0.26924
                        -----------------------------------------
Magnitude (a.u.)       :      1.70456
Magnitude (Debye)      :      4.33265

                             ****ORCA TERMINATED NORMALLY****
TOTAL RUN TIME: 0 days 0 hours 7 minutes 3 seconds 584 msec
