                         Program Version 3.0.3 - RELEASE   -
|  1> ! RI-MP2 RIJK def2-TZVP def2-TZVP/C def2-TZVP/JK TIGHTSCF
|  2> % maxcore 2000
|  3> % mp2 density relaxed end
|  4> *xyz 0 1
|  5>  C        0.0806765522    -1.1554589194     0.0309776148
|  6>  C        0.0147966296     0.0435605403    -0.0062377994
|  7>  C       -0.0946330245     1.4789656733    -0.0340480530
|  8>  C       -0.9998665246     2.1370506263     1.0128012182
|  9>  O       -1.0521143596     3.5092217430     0.6158790254
| 10>  C       -0.5997889303     3.5832726858    -0.7135964588
| 11>  C        0.7858329112     3.0389384402    -1.0143301023
| 12>  O        1.1964922302     2.1860402571     0.0542428952
| 13>  C       -0.4443702807     2.2347485534    -1.3511128408
| 14>  H        0.1485669132    -2.2152241380     0.0613843562
| 15>  H       -2.0039424785     1.6888249446     1.0161603257
| 16>  H       -0.5597982527     2.0694292003     2.0110195218
| 17>  H       -0.9835717682     4.4339909639    -1.2635492548
| 18>  H        1.5526072289     3.5059326763    -1.6211540453
| 19>  H       -0.8755770561     1.8322580527    -2.2565471029
| 20> *
| 21>
| 22>                          ****END OF INPUT****

CARTESIAN COORDINATES (ANGSTROEM)
---------------------------------
  C      0.080677   -1.155459    0.030978
  C      0.014797    0.043561   -0.006238
  C     -0.094633    1.478966   -0.034048
  C     -0.999867    2.137051    1.012801
  O     -1.052114    3.509222    0.615879
  C     -0.599789    3.583273   -0.713596
  C      0.785833    3.038938   -1.014330
  O      1.196492    2.186040    0.054243
  C     -0.444370    2.234749   -1.351113
  H      0.148567   -2.215224    0.061384
  H     -2.003942    1.688825    1.016160
  H     -0.559798    2.069429    2.011020
  H     -0.983572    4.433991   -1.263549
  H      1.552607    3.505933   -1.621154
  H     -0.875577    1.832258   -2.256547

 Total Charge           Charge          ....    0
 Multiplicity           Mult            ....    1
 Number of Electrons    NEL             ....   64
 Basis Dimension        Dim             ....  315

ORBITAL ENERGIES
----------------

  NO   OCC          E(Eh)            E(eV)
   0   2.0000     -20.569325      -559.7198
   1   2.0000     -20.568858      -559.7071
   2   2.0000     -11.332462      -308.3720
   3   2.0000     -11.301540      -307.5306
   4   2.0000     -11.299439      -307.4734
   5   2.0000     -11.290120      -307.2198
   6   2.0000     -11.253009      -306.2099
   7   2.0000     -11.249221      -306.1069
   8   2.0000     -11.244776      -305.9859
   9   2.0000      -1.433921       -39.0190
  10   2.0000      -1.367232       -37.2043
  11   2.0000      -1.123447       -30.5705
  12   2.0000      -1.080150       -29.3924
  13   2.0000      -1.004960       -27.3464
  14   2.0000      -0.888644       -24.1812
  15   2.0000      -0.824003       -22.4223
  16   2.0000      -0.798907       -21.7394
  17   2.0000      -0.755447       -20.5568
  18   2.0000      -0.718219       -19.5437
  19   2.0000      -0.691990       -18.8300
  20   2.0000      -0.658321       -17.9138
  21   2.0000      -0.630236       -17.1496
  22   2.0000      -0.607851       -16.5405
  23   2.0000      -0.576202       -15.6793
  24   2.0000      -0.554883       -15.0991
  25   2.0000      -0.519582       -14.1385
  26   2.0000      -0.514521       -14.0008
  27   2.0000      -0.485563       -13.2128
  28   2.0000      -0.423097       -11.5130
  29   2.0000      -0.405678       -11.0390
  30   2.0000      -0.397406       -10.8140
  31   2.0000      -0.376318       -10.2401
  32   0.0000       0.143552         3.9063
  33   0.0000       0.146180         3.9778
  34   0.0000       0.156399         4.2558
  35   0.0000       0.161413         4.3923
  36   0.0000       0.167414         4.5556

MULLIKEN ATOMIC CHARGES
-----------------------
   0 C :   -0.064224
   1 C :   -0.030510
   2 C :    0.038563
   3 C :   -0.014109
   4 O :   -0.311270
   5 C :    0.031714
   6 C :    0.022770
   7 O :   -0.305763
   8 C :   -0.219884
   9 H :    0.201188
  10 H :    0.097529
  11 H :    0.124054
  12 H :    0.133237
  13 H :    0.138827
  14 H :    0.157879
Sum of atomic charges:    0.0000000

LOEWDIN ATOMIC CHARGES
----------------------
   0 C :   -0.055874
   1 C :   -0.054255
   2 C :   -0.264908
   3 C :   -0.229038
   4 O :    0.185821
   5 C :   -0.259161
   6 C :   -0.220865
   7 O :    0.200696
   8 C :   -0.121422
   9 H :    0.131080
  10 H :    0.129692
  11 H :    0.138658
  12 H :    0.146226
  13 H :    0.132745
  14 H :    0.140605

  Mayer bond orders larger than 0.1
B(  0-C ,  1-C ) :   2.5997 B(  0-C ,  2-C ) :  -0.1794 B(  0-C ,  9-H ) :   0.8666
B(  1-C ,  2-C ) :   1.2525 B(  2-C ,  3-C ) :   0.9960 B(  2-C ,  7-O ) :   0.8463
B(  2-C ,  8-C ) :   0.8506 B(  3-C ,  4-O ) :   0.9520 B(  3-C , 10-H ) :   0.9106
B(  3-C , 11-H ) :   0.9022 B(  4-O ,  5-C ) :   0.9696 B(  5-C ,  6-C ) :   0.8503
B(  5-C ,  8-C ) :   0.8916 B(  5-C , 12-H ) :   0.9314 B(  6-C ,  7-O ) :   0.9479
B(  6-C ,  8-C ) :   0.9039 B(  6-C , 13-H ) :   0.9135 B(  8-C , 14-H ) :   0.9039

MP2 TOTAL ENERGY:     -419.816175656 Eh
FINAL SINGLE POINT ENERGY      -419.816175656163

DIPOLE MOMENT
-------------
                                X             Y             Z
Electronic contribution:      1.42559      -0.03949       0.45630
Nuclear contribution   :     -1.83146      -0.37348      -1.16166
                        -----------------------------------------
Total Dipole Moment    :     -0.40587      -0.41297      -0.70536
                        -----------------------------------------
Magnitude (a.u.)       :      0.91258
Magnitude (Debye)      :      2.31960

                             ****ORCA TERMINATED NORMALLY****
TOTAL RUN TIME: 0 days 0 hours 16 minutes 32 seconds 561 msec
