                         Program Version 3.0.3 - RELEASE   -
|  1> ! RI-MP2 RIJK def2-TZVP def2-TZVP/C def2-TZVP/JK TIGHTSCF
|  2> % maxcore 2000
|  3> % mp2 density relaxed end
|  4> *xyz 0 1
|  5>  C       -0.2123451387     1.3610314205     0.0868373485
|  6>  C        0.0683267898    -0.1064296487     0.0229687569
|  7>  C        0.4949976307    -0.9908415694    -1.1804689657
|  8>  C        0.1072320553    -1.9050300083     0.0064026393
|  9>  C        0.9285441084    -1.0009109418     0.9569099383
| 10>  O       -1.0776352878    -1.0452767869     0.2509747495
| 11>  C       -0.0560307667    -3.4007253725     0.0328108326
| 12>  N       -1.3272326216    -3.7959228831     0.2969874253
| 13>  O        0.8829751058    -4.1469506879    -0.1669176350
| 14>  H        0.7056026406     1.9277997065    -0.0972997110
| 15>  H       -0.9520052401     1.6436495465    -0.6681900774
| 16>  H       -0.5977645308     1.6356626210     1.0732790442
| 17>  H       -0.2025268828    -1.0048973739    -2.0189758561
| 18>  H        1.5423346182    -0.9761015873    -1.4875103356
| 19>  H        2.0127828823    -0.9871170756     0.8317241155
| 20>  H        0.6127793320    -1.0239856684     2.0007503635
| 21>  H       -2.0510878802    -3.1140404082     0.4499373358
| 22>  H       -1.5375519941    -4.7793129826     0.3353506915
| 23> *
| 24>
| 25>                          ****END OF INPUT****

CARTESIAN COORDINATES (ANGSTROEM)
---------------------------------
  C     -0.212345    1.361031    0.086837
  C      0.068327   -0.106430    0.022969
  C      0.494998   -0.990842   -1.180469
  C      0.107232   -1.905030    0.006403
  C      0.928544   -1.000911    0.956910
  O     -1.077635   -1.045277    0.250975
  C     -0.056031   -3.400725    0.032811
  N     -1.327233   -3.795923    0.296987
  O      0.882975   -4.146951   -0.166918
  H      0.705603    1.927800   -0.097300
  H     -0.952005    1.643650   -0.668190
  H     -0.597765    1.635663    1.073279
  H     -0.202527   -1.004897   -2.018976
  H      1.542335   -0.976102   -1.487510
  H      2.012783   -0.987117    0.831724
  H      0.612779   -1.023986    2.000750
  H     -2.051088   -3.114040    0.449937
  H     -1.537552   -4.779313    0.335351

 Total Charge           Charge          ....    0
 Multiplicity           Mult            ....    1
 Number of Electrons    NEL             ....   68
 Basis Dimension        Dim             ....  333

ORBITAL ENERGIES
----------------

  NO   OCC          E(Eh)            E(eV)
   0   2.0000     -20.558689      -559.4304
   1   2.0000     -20.519628      -558.3675
   2   2.0000     -15.583066      -424.0368
   3   2.0000     -11.354693      -308.9769
   4   2.0000     -11.317654      -307.9690
   5   2.0000     -11.315205      -307.9024
   6   2.0000     -11.247186      -306.0515
   7   2.0000     -11.247109      -306.0494
   8   2.0000     -11.234721      -305.7123
   9   2.0000      -1.409289       -38.3487
  10   2.0000      -1.379480       -37.5376
  11   2.0000      -1.213585       -33.0233
  12   2.0000      -1.092378       -29.7251
  13   2.0000      -1.016935       -27.6722
  14   2.0000      -0.937023       -25.4977
  15   2.0000      -0.914368       -24.8812
  16   2.0000      -0.779657       -21.2156
  17   2.0000      -0.753489       -20.5035
  18   2.0000      -0.721890       -19.6436
  19   2.0000      -0.681114       -18.5341
  20   2.0000      -0.641759       -17.4632
  21   2.0000      -0.638340       -17.3701
  22   2.0000      -0.615392       -16.7457
  23   2.0000      -0.601158       -16.3583
  24   2.0000      -0.596595       -16.2342
  25   2.0000      -0.566511       -15.4156
  26   2.0000      -0.532580       -14.4922
  27   2.0000      -0.510880       -13.9017
  28   2.0000      -0.494740       -13.4626
  29   2.0000      -0.485187       -13.2026
  30   2.0000      -0.460556       -12.5324
  31   2.0000      -0.425674       -11.5832
  32   2.0000      -0.416562       -11.3352
  33   2.0000      -0.412623       -11.2281
  34   0.0000       0.133521         3.6333
  35   0.0000       0.143884         3.9153
  36   0.0000       0.163346         4.4449
  37   0.0000       0.172289         4.6882
  38   0.0000       0.184979         5.0335

MULLIKEN ATOMIC CHARGES
-----------------------
   0 C :   -0.419922
   1 C :    0.039554
   2 C :   -0.100070
   3 C :    0.093222
   4 C :   -0.099943
   5 O :   -0.347117
   6 C :    0.186764
   7 N :   -0.464862
   8 O :   -0.344731
   9 H :    0.142881
  10 H :    0.146551
  11 H :    0.146510
  12 H :    0.112071
  13 H :    0.128741
  14 H :    0.128738
  15 H :    0.111955
  16 H :    0.281516
  17 H :    0.258144
Sum of atomic charges:    0.0000000

LOEWDIN ATOMIC CHARGES
----------------------
   0 C :   -0.271001
   1 C :   -0.283164
   2 C :   -0.142674
   3 C :   -0.239699
   4 C :   -0.142681
   5 O :    0.137414
   6 C :   -0.461135
   7 N :    0.006163
   8 O :    0.089339
   9 H :    0.136598
  10 H :    0.135713
  11 H :    0.135690
  12 H :    0.136038
  13 H :    0.136255
  14 H :    0.136235
  15 H :    0.136008
  16 H :    0.180436
  17 H :    0.174466

  Mayer bond orders larger than 0.1
B(  0-C ,  1-C ) :   0.8347 B(  0-C ,  9-H ) :   0.9376 B(  0-C , 10-H ) :   0.9433
B(  0-C , 11-H ) :   0.9433 B(  1-C ,  2-C ) :   0.8966 B(  1-C ,  4-C ) :   0.8967
B(  1-C ,  5-O ) :   0.8929 B(  2-C ,  3-C ) :   0.8883 B(  2-C , 12-H ) :   0.9104
B(  2-C , 13-H ) :   0.9096 B(  3-C ,  4-C ) :   0.8882 B(  3-C ,  5-O ) :   0.9032
B(  3-C ,  6-C ) :   0.8068 B(  4-C , 14-H ) :   0.9096 B(  4-C , 15-H ) :   0.9104
B(  6-C ,  7-N ) :   1.2313 B(  6-C ,  8-O ) :   2.0609 B(  7-N , 16-H ) :   0.8523
B(  7-N , 17-H ) :   0.8611

MP2 TOTAL ENERGY:     -438.346931463 Eh
FINAL SINGLE POINT ENERGY      -438.346931463352

DIPOLE MOMENT
-------------
                                X             Y             Z
Electronic contribution:     -0.50604      -7.11887       0.06058
Nuclear contribution   :     -0.03575       8.01124       0.06048
                        -----------------------------------------
Total Dipole Moment    :     -0.54180       0.89236       0.12106
                        -----------------------------------------
Magnitude (a.u.)       :      1.05096
Magnitude (Debye)      :      2.67133

                             ****ORCA TERMINATED NORMALLY****
TOTAL RUN TIME: 0 days 0 hours 17 minutes 58 seconds 194 msec
