                         Program Version 3.0.3 - RELEASE   -
|  1> ! RI-MP2 RIJK def2-TZVP def2-TZVP/C def2-TZVP/JK TIGHTSCF
|  2> % maxcore 2000
|  3> % mp2 density relaxed end
|  4> *xyz 0 1
|  5>  O       -0.9485783160     1.0839156893     0.6181837017
|  6>  C       -0.1084446758     0.0904226275     0.0443828025
|  7>  C        0.5507994212    -0.8505120038     1.0912151549
|  8>  C       -0.6207145516    -1.8484429382     0.9024779889
|  9>  O       -0.1768869005    -3.1772978019     0.7797316385
| 10>  C       -1.7053965800    -1.7177687852     1.9784661928
| 11>  C       -2.9136149327    -2.5876912688     1.7413001308
| 12>  O       -2.9785483631    -3.4705002454     0.9154541805
| 13>  C       -0.9809754236    -1.0941504748    -0.4226099632
| 14>  H       -0.3865144252     1.7112525687     1.0848692717
| 15>  H        0.5613788320     0.5343846435    -0.7017456175
| 16>  H        1.4757211584    -1.2976463656     0.7188234112
| 17>  H        0.7196742126    -0.4402823302     2.0915589810
| 18>  H       -0.9633818021    -3.7027990696     0.5736977834
| 19>  H       -1.3010818339    -2.0035588720     2.9623718296
| 20>  H       -2.0339818341    -0.6758890201     2.0745020722
| 21>  H       -3.7835500807    -2.3800423638     2.4025466845
| 22>  H       -2.0286063042    -0.8625716614    -0.6257963689
| 23>  H       -0.5426211005    -1.6137315480    -1.2768721448
| 24> *
| 25>
| 26>                          ****END OF INPUT****

CARTESIAN COORDINATES (ANGSTROEM)
---------------------------------
  O     -0.948578    1.083916    0.618184
  C     -0.108445    0.090423    0.044383
  C      0.550799   -0.850512    1.091215
  C     -0.620715   -1.848443    0.902478
  O     -0.176887   -3.177298    0.779732
  C     -1.705397   -1.717769    1.978466
  C     -2.913615   -2.587691    1.741300
  O     -2.978548   -3.470500    0.915454
  C     -0.980975   -1.094150   -0.422610
  H     -0.386514    1.711253    1.084869
  H      0.561379    0.534385   -0.701746
  H      1.475721   -1.297646    0.718823
  H      0.719674   -0.440282    2.091559
  H     -0.963382   -3.702799    0.573698
  H     -1.301082   -2.003559    2.962372
  H     -2.033982   -0.675889    2.074502
  H     -3.783550   -2.380042    2.402547
  H     -2.028606   -0.862572   -0.625796
  H     -0.542621   -1.613732   -1.276872

 Total Charge           Charge          ....    0
 Multiplicity           Mult            ....    1
 Number of Electrons    NEL             ....   70
 Basis Dimension        Dim             ....  339

ORBITAL ENERGIES
----------------

  NO   OCC          E(Eh)            E(eV)
   0   2.0000     -20.568716      -559.7032
   1   2.0000     -20.565168      -559.6067
   2   2.0000     -20.545235      -559.0643
   3   2.0000     -11.345123      -308.7165
   4   2.0000     -11.292811      -307.2930
   5   2.0000     -11.286263      -307.1148
   6   2.0000     -11.243476      -305.9505
   7   2.0000     -11.225488      -305.4610
   8   2.0000     -11.221245      -305.3456
   9   2.0000      -1.409301       -38.3490
  10   2.0000      -1.372059       -37.3356
  11   2.0000      -1.358148       -36.9571
  12   2.0000      -1.123181       -30.5633
  13   2.0000      -1.028857       -27.9966
  14   2.0000      -0.917605       -24.9693
  15   2.0000      -0.870645       -23.6915
  16   2.0000      -0.806191       -21.9376
  17   2.0000      -0.748121       -20.3574
  18   2.0000      -0.709853       -19.3161
  19   2.0000      -0.694575       -18.9003
  20   2.0000      -0.678582       -18.4651
  21   2.0000      -0.645607       -17.5679
  22   2.0000      -0.634589       -17.2680
  23   2.0000      -0.615444       -16.7471
  24   2.0000      -0.599952       -16.3255
  25   2.0000      -0.576163       -15.6782
  26   2.0000      -0.547570       -14.9001
  27   2.0000      -0.538306       -14.6480
  28   2.0000      -0.519219       -14.1287
  29   2.0000      -0.508467       -13.8361
  30   2.0000      -0.488163       -13.2836
  31   2.0000      -0.461446       -12.5566
  32   2.0000      -0.444336       -12.0910
  33   2.0000      -0.417916       -11.3721
  34   2.0000      -0.405958       -11.0467
  35   0.0000       0.122206         3.3254
  36   0.0000       0.129501         3.5239
  37   0.0000       0.150152         4.0858
  38   0.0000       0.168974         4.5980
  39   0.0000       0.176313         4.7977

MULLIKEN ATOMIC CHARGES
-----------------------
   0 O :   -0.474797
   1 C :    0.046336
   2 C :   -0.299069
   3 C :    0.323207
   4 O :   -0.476684
   5 C :   -0.326737
   6 C :    0.120670
   7 O :   -0.314950
   8 C :   -0.268928
   9 H :    0.317029
  10 H :    0.102722
  11 H :    0.130152
  12 H :    0.120112
  13 H :    0.333648
  14 H :    0.143550
  15 H :    0.170877
  16 H :    0.100702
  17 H :    0.123013
  18 H :    0.129148
Sum of atomic charges:   -0.0000000

LOEWDIN ATOMIC CHARGES
----------------------
   0 O :   -0.025980
   1 C :   -0.319289
   2 C :   -0.189770
   3 C :   -0.360659
   4 O :    0.011820
   5 C :   -0.239996
   6 C :   -0.278064
   7 O :    0.116400
   8 C :   -0.184268
   9 H :    0.174853
  10 H :    0.121446
  11 H :    0.146671
  12 H :    0.128334
  13 H :    0.177234
  14 H :    0.162402
  15 H :    0.163446
  16 H :    0.116250
  17 H :    0.135126
  18 H :    0.144042

  Mayer bond orders larger than 0.1
B(  0-O ,  1-C ) :   0.9876 B(  0-O ,  9-H ) :   0.8446 B(  1-C ,  2-C ) :   0.9157
B(  1-C ,  8-C ) :   0.9091 B(  1-C , 10-H ) :   0.9484 B(  2-C ,  3-C ) :   0.8445
B(  2-C , 11-H ) :   0.9059 B(  2-C , 12-H ) :   0.9297 B(  3-C ,  4-O ) :   1.0209
B(  3-C ,  5-C ) :   0.8895 B(  3-C ,  8-C ) :   0.9066 B(  4-O , 13-H ) :   0.8123
B(  5-C ,  6-C ) :   0.9074 B(  5-C , 14-H ) :   0.8960 B(  5-C , 15-H ) :   0.8975
B(  6-C ,  7-O ) :   1.8963 B(  6-C , 16-H ) :   0.9434 B(  8-C , 17-H ) :   0.9199
B(  8-C , 18-H ) :   0.9185

MP2 TOTAL ENERGY:     -459.430157212 Eh
FINAL SINGLE POINT ENERGY      -459.430157212285

DIPOLE MOMENT
-------------
                                X             Y             Z
Electronic contribution:     -2.36014      -3.09587      -0.14123
Nuclear contribution   :      2.55569       4.04773       0.76162
                        -----------------------------------------
Total Dipole Moment    :      0.19556       0.95186       0.62039
                        -----------------------------------------
Magnitude (a.u.)       :      1.15289
Magnitude (Debye)      :      2.93042

                             ****ORCA TERMINATED NORMALLY****
TOTAL RUN TIME: 0 days 0 hours 17 minutes 32 seconds 580 msec
