                         Program Version 3.0.3 - RELEASE   -
|  1> ! RI-MP2 RIJK def2-TZVP def2-TZVP/C def2-TZVP/JK TIGHTSCF
|  2> % maxcore 2000
|  3> % mp2 density relaxed end
|  4> *xyz 0 1
|  5>  C       -0.2338621600     1.3482320776    -0.0444765649
|  6>  O       -0.2168577208    -0.0517881053    -0.1658665606
|  7>  C        0.8266002709    -0.5150098321    -1.0019002856
|  8>  C        0.7937303320    -2.0193093129    -1.0173077240
|  9>  C       -0.1336475693    -2.7600385953    -1.9507032180
| 10>  C        1.3587436163    -2.8398233528    -2.1575505875
| 11>  C        2.0200837313    -2.2358378289    -3.3789718932
| 12>  H        0.7039592114     1.7358112379     0.3863815650
| 13>  H       -0.3897557989     1.8443323572    -1.0166459951
| 14>  H       -1.0609597165     1.6109957623     0.6199296839
| 15>  H        0.7066939607    -0.1042827076    -2.0177544530
| 16>  H        1.7988732986    -0.1522010617    -0.6231891490
| 17>  H        0.9142347589    -2.4486075719    -0.0264375358
| 18>  H       -0.6661227174    -3.6282808649    -1.5786233849
| 19>  H       -0.7021994021    -2.1609162768    -2.6560085723
| 20>  H        1.8186988148    -3.7726692406    -1.8404404388
| 21>  H        1.5077020604    -1.3324009723    -3.7213380686
| 22>  H        3.0658008796    -1.9724460587    -3.1832446014
| 23>  H        2.0094931101    -2.9486843732    -4.2110201364
| 24> *
| 25>
| 26>                          ****END OF INPUT****

CARTESIAN COORDINATES (ANGSTROEM)
---------------------------------
  C     -0.233862    1.348232   -0.044477
  O     -0.216858   -0.051788   -0.165867
  C      0.826600   -0.515010   -1.001900
  C      0.793730   -2.019309   -1.017308
  C     -0.133648   -2.760039   -1.950703
  C      1.358744   -2.839823   -2.157551
  C      2.020084   -2.235838   -3.378972
  H      0.703959    1.735811    0.386382
  H     -0.389756    1.844332   -1.016646
  H     -1.060960    1.610996    0.619930
  H      0.706694   -0.104283   -2.017754
  H      1.798873   -0.152201   -0.623189
  H      0.914235   -2.448608   -0.026438
  H     -0.666123   -3.628281   -1.578623
  H     -0.702199   -2.160916   -2.656009
  H      1.818699   -3.772669   -1.840440
  H      1.507702   -1.332401   -3.721338
  H      3.065801   -1.972446   -3.183245
  H      2.009493   -2.948684   -4.211020

 Total Charge           Charge          ....    0
 Multiplicity           Mult            ....    1
 Number of Electrons    NEL             ....   56
 Basis Dimension        Dim             ....  289

ORBITAL ENERGIES
----------------

  NO   OCC          E(Eh)            E(eV)
   0   2.0000     -20.549995      -559.1938
   1   2.0000     -11.272628      -306.7438
   2   2.0000     -11.267115      -306.5938
   3   2.0000     -11.229785      -305.5780
   4   2.0000     -11.223341      -305.4026
   5   2.0000     -11.217559      -305.2453
   6   2.0000     -11.216664      -305.2210
   7   2.0000      -1.371092       -37.3093
   8   2.0000      -1.145343       -31.1664
   9   2.0000      -0.985055       -26.8047
  10   2.0000      -0.952355       -25.9149
  11   2.0000      -0.882388       -24.0110
  12   2.0000      -0.797767       -21.7083
  13   2.0000      -0.756774       -20.5929
  14   2.0000      -0.682673       -18.5765
  15   2.0000      -0.650938       -17.7129
  16   2.0000      -0.636432       -17.3182
  17   2.0000      -0.630152       -17.1473
  18   2.0000      -0.574048       -15.6206
  19   2.0000      -0.565417       -15.3858
  20   2.0000      -0.551140       -14.9973
  21   2.0000      -0.537287       -14.6203
  22   2.0000      -0.501751       -13.6533
  23   2.0000      -0.491140       -13.3646
  24   2.0000      -0.469113       -12.7652
  25   2.0000      -0.424665       -11.5557
  26   2.0000      -0.400226       -10.8907
  27   2.0000      -0.398530       -10.8445
  28   0.0000       0.139991         3.8093
  29   0.0000       0.155233         4.2241
  30   0.0000       0.167370         4.5544
  31   0.0000       0.184254         5.0138
  32   0.0000       0.191715         5.2168

MULLIKEN ATOMIC CHARGES
-----------------------
   0 C :   -0.216485
   1 O :   -0.296172
   2 C :   -0.078177
   3 C :   -0.043186
   4 C :   -0.288788
   5 C :   -0.083645
   6 C :   -0.396662
   7 H :    0.108625
   8 H :    0.106967
   9 H :    0.138399
  10 H :    0.084455
  11 H :    0.093873
  12 H :    0.118496
  13 H :    0.130530
  14 H :    0.122022
  15 H :    0.115032
  16 H :    0.119953
  17 H :    0.130307
  18 H :    0.134457
Sum of atomic charges:   -0.0000000

LOEWDIN ATOMIC CHARGES
----------------------
   0 C :   -0.366771
   1 O :    0.137119
   2 C :   -0.310127
   3 C :   -0.213615
   4 C :   -0.207250
   5 C :   -0.233414
   6 C :   -0.297882
   7 H :    0.100007
   8 H :    0.099733
   9 H :    0.113046
  10 H :    0.120955
  11 H :    0.121808
  12 H :    0.150410
  13 H :    0.130565
  14 H :    0.135847
  15 H :    0.147213
  16 H :    0.121879
  17 H :    0.124302
  18 H :    0.126176

  Mayer bond orders larger than 0.1
B(  0-C ,  1-O ) :   0.9269 B(  0-C ,  7-H ) :   0.9378 B(  0-C ,  8-H ) :   0.9359
B(  0-C ,  9-H ) :   0.9396 B(  1-O ,  2-C ) :   0.9631 B(  2-C ,  3-C ) :   0.9556
B(  2-C , 10-H ) :   0.9167 B(  2-C , 11-H ) :   0.9262 B(  3-C ,  4-C ) :   0.8755
B(  3-C ,  5-C ) :   0.8567 B(  3-C , 12-H ) :   0.9288 B(  4-C ,  5-C ) :   0.9008
B(  4-C , 13-H ) :   0.9275 B(  4-C , 14-H ) :   0.9270 B(  5-C ,  6-C ) :   0.9136
B(  5-C , 15-H ) :   0.9287 B(  6-C , 16-H ) :   0.9366 B(  6-C , 17-H ) :   0.9391
B(  6-C , 18-H ) :   0.9373

MP2 TOTAL ENERGY:     -310.355280398 Eh
FINAL SINGLE POINT ENERGY      -310.355280398234

DIPOLE MOMENT
-------------
                                X             Y             Z
Electronic contribution:     -1.79629      -1.07758       2.94385
Nuclear contribution   :      2.13132       1.29516      -3.17877
                        -----------------------------------------
Total Dipole Moment    :      0.33502       0.21757      -0.23492
                        -----------------------------------------
Magnitude (a.u.)       :      0.46343
Magnitude (Debye)      :      1.17795

                             ****ORCA TERMINATED NORMALLY****
TOTAL RUN TIME: 0 days 0 hours 8 minutes 14 seconds 901 msec
