                         Program Version 3.0.3 - RELEASE   -
|  1> ! RI-MP2 RIJK def2-TZVP def2-TZVP/C def2-TZVP/JK TIGHTSCF
|  2> % maxcore 2000
|  3> % mp2 density relaxed end
|  4> *xyz 0 1
|  5>  C       -0.1475558525     1.5078978928     0.0347202063
|  6>  C        0.0743922150    -0.0037296030     0.0585697593
|  7>  C        1.0040030639    -0.5635372684    -1.0830296479
|  8>  C        2.0356078672    -1.3217836490    -0.2288508238
|  9>  C        1.1265885912    -2.0196594338     0.8286580618
| 10>  C        0.8556886149    -0.5500833840     1.2748883079
| 11>  C        2.3407077847    -0.2609711944     0.8762387455
| 12>  O        3.3376118217    -0.5630787755     1.8229234361
| 13>  H        0.7931323435     2.0638172145     0.1038741415
| 14>  H       -0.6411360239     1.8134299820    -0.8942573018
| 15>  H       -0.7834173152     1.8265439437     0.8681007449
| 16>  H       -0.9055679382    -0.4927014603     0.0130391342
| 17>  H        0.4703941847    -1.2168410212    -1.7790401737
| 18>  H        1.4649711624     0.2410329623    -1.6659193684
| 19>  H        2.8395248361    -1.8478181786    -0.7453683927
| 20>  H        0.2764054280    -2.6065058479     0.4678579038
| 21>  H        1.6770682775    -2.6174771034     1.5602545620
| 22>  H        0.4777809179    -0.3022637041     2.2683866912
| 23>  H        2.5792866928     0.7474204185     0.5285804889
| 24>  H        3.1620166283    -1.4298615301     2.2018943447
| 25> *
| 26>
| 27>                          ****END OF INPUT****

CARTESIAN COORDINATES (ANGSTROEM)
---------------------------------
  C     -0.147556    1.507898    0.034720
  C      0.074392   -0.003730    0.058570
  C      1.004003   -0.563537   -1.083030
  C      2.035608   -1.321784   -0.228851
  C      1.126589   -2.019659    0.828658
  C      0.855689   -0.550083    1.274888
  C      2.340708   -0.260971    0.876239
  O      3.337612   -0.563079    1.822923
  H      0.793132    2.063817    0.103874
  H     -0.641136    1.813430   -0.894257
  H     -0.783417    1.826544    0.868101
  H     -0.905568   -0.492701    0.013039
  H      0.470394   -1.216841   -1.779040
  H      1.464971    0.241033   -1.665919
  H      2.839525   -1.847818   -0.745368
  H      0.276405   -2.606506    0.467858
  H      1.677068   -2.617477    1.560255
  H      0.477781   -0.302264    2.268387
  H      2.579287    0.747420    0.528580
  H      3.162017   -1.429862    2.201894

 Total Charge           Charge          ....    0
 Multiplicity           Mult            ....    1
 Number of Electrons    NEL             ....   62
 Basis Dimension        Dim             ....  320

ORBITAL ENERGIES
----------------

  NO   OCC          E(Eh)            E(eV)
   0   2.0000     -20.553397      -559.2864
   1   2.0000     -11.276223      -306.8416
   2   2.0000     -11.230299      -305.5920
   3   2.0000     -11.229413      -305.5679
   4   2.0000     -11.228964      -305.5556
   5   2.0000     -11.228082      -305.5316
   6   2.0000     -11.221681      -305.3575
   7   2.0000     -11.213567      -305.1367
   8   2.0000      -1.362781       -37.0832
   9   2.0000      -1.177601       -32.0442
  10   2.0000      -1.018060       -27.7028
  11   2.0000      -0.951179       -25.8829
  12   2.0000      -0.898048       -24.4371
  13   2.0000      -0.883150       -24.0317
  14   2.0000      -0.760656       -20.6985
  15   2.0000      -0.748003       -20.3542
  16   2.0000      -0.689623       -18.7656
  17   2.0000      -0.656247       -17.8574
  18   2.0000      -0.638668       -17.3791
  19   2.0000      -0.583387       -15.8748
  20   2.0000      -0.569503       -15.4970
  21   2.0000      -0.561191       -15.2708
  22   2.0000      -0.550579       -14.9820
  23   2.0000      -0.538441       -14.6517
  24   2.0000      -0.502797       -13.6818
  25   2.0000      -0.497844       -13.5470
  26   2.0000      -0.473843       -12.8939
  27   2.0000      -0.445929       -12.1344
  28   2.0000      -0.436373       -11.8743
  29   2.0000      -0.430087       -11.7033
  30   2.0000      -0.391161       -10.6440
  31   0.0000       0.137470         3.7408
  32   0.0000       0.145426         3.9572
  33   0.0000       0.163329         4.4444
  34   0.0000       0.164784         4.4840
  35   0.0000       0.190859         5.1935

MULLIKEN ATOMIC CHARGES
-----------------------
   0 C :   -0.414189
   1 C :   -0.091136
   2 C :   -0.289989
   3 C :    0.002210
   4 C :   -0.319577
   5 C :   -0.023492
   6 C :   -0.022889
   7 O :   -0.451328
   8 H :    0.124288
   9 H :    0.135456
  10 H :    0.130831
  11 H :    0.095025
  12 H :    0.120641
  13 H :    0.120360
  14 H :    0.121390
  15 H :    0.113353
  16 H :    0.111012
  17 H :    0.120252
  18 H :    0.104776
  19 H :    0.313006
Sum of atomic charges:    0.0000000

LOEWDIN ATOMIC CHARGES
----------------------
   0 C :   -0.296893
   1 C :   -0.239828
   2 C :   -0.203052
   3 C :   -0.200768
   4 C :   -0.206606
   5 C :   -0.183765
   6 C :   -0.278726
   7 O :   -0.008020
   8 H :    0.121620
   9 H :    0.124643
  10 H :    0.123809
  11 H :    0.147960
  12 H :    0.132645
  13 H :    0.137230
  14 H :    0.132598
  15 H :    0.129160
  16 H :    0.125490
  17 H :    0.134446
  18 H :    0.135487
  19 H :    0.172570

  Mayer bond orders larger than 0.1
B(  0-C ,  1-C ) :   0.9168 B(  0-C ,  8-H ) :   0.9305 B(  0-C ,  9-H ) :   0.9421
B(  0-C , 10-H ) :   0.9413 B(  1-C ,  2-C ) :   0.9326 B(  1-C ,  5-C ) :   0.8759
B(  1-C , 11-H ) :   0.9166 B(  2-C ,  3-C ) :   0.8969 B(  2-C , 12-H ) :   0.9175
B(  2-C , 13-H ) :   0.9308 B(  3-C ,  4-C ) :   0.8793 B(  3-C ,  6-C ) :   0.8673
B(  3-C , 14-H ) :   0.9194 B(  4-C ,  5-C ) :   0.8815 B(  4-C , 15-H ) :   0.9152
B(  4-C , 16-H ) :   0.9344 B(  5-C ,  6-C ) :   0.8810 B(  5-C , 17-H ) :   0.9180
B(  6-C ,  7-O ) :   0.9734 B(  6-C , 18-H ) :   0.9488 B(  7-O , 19-H ) :   0.8371

MP2 TOTAL ENERGY:     -348.396399548 Eh
FINAL SINGLE POINT ENERGY      -348.396399548101

DIPOLE MOMENT
-------------
                                X             Y             Z
Electronic contribution:      4.02762      -1.95195       2.41223
Nuclear contribution   :     -4.56668       1.57606      -2.58002
                        -----------------------------------------
Total Dipole Moment    :     -0.53906      -0.37589      -0.16779
                        -----------------------------------------
Magnitude (a.u.)       :      0.67826
Magnitude (Debye)      :      1.72400

                             ****ORCA TERMINATED NORMALLY****
TOTAL RUN TIME: 0 days 0 hours 14 minutes 43 seconds 390 msec
