                         Program Version 3.0.3 - RELEASE   -
|  1> ! RI-MP2 RIJK def2-TZVP def2-TZVP/C def2-TZVP/JK TIGHTSCF
|  2> % maxcore 2000
|  3> % mp2 density relaxed end
|  4> *xyz 0 1
|  5>  O        0.1124436614     1.4215411033     0.0225104876
|  6>  C        0.0344039180     0.0024971293     0.0369134497
|  7>  C       -1.4338884786    -0.3957019004     0.0549373919
|  8>  N       -2.1100426943    -0.0800873761    -1.1881793230
|  9>  C       -2.4449774847     1.3381674073    -1.4795103035
| 10>  C       -3.8355765473     0.8617589529    -1.9125640114
| 11>  O       -4.7680633268     1.3466586939    -2.4784412932
| 12>  C       -3.5166172951    -0.5224562729    -1.3247635911
| 13>  H        1.0282520364     1.6744433837    -0.1232968451
| 14>  H        0.5098098383    -0.4340903050    -0.8531715693
| 15>  H        0.5283084899    -0.4121080950     0.9299077685
| 16>  H       -1.4895437537    -1.4801324176     0.2054576675
| 17>  H       -1.9182596241     0.0828245226     0.9292299120
| 18>  H       -2.4905178954     1.9853540940    -0.5904732193
| 19>  H       -1.8174211417     1.8259060045    -2.2305581260
| 20>  H       -3.6776920025    -1.3968813026    -1.9645706463
| 21>  H       -4.0442600798    -0.6779312120    -0.3682282990
| 22> *
| 23>
| 24>                          ****END OF INPUT****

CARTESIAN COORDINATES (ANGSTROEM)
---------------------------------
  O      0.112444    1.421541    0.022510
  C      0.034404    0.002497    0.036913
  C     -1.433888   -0.395702    0.054937
  N     -2.110043   -0.080087   -1.188179
  C     -2.444977    1.338167   -1.479510
  C     -3.835577    0.861759   -1.912564
  O     -4.768063    1.346659   -2.478441
  C     -3.516617   -0.522456   -1.324764
  H      1.028252    1.674443   -0.123297
  H      0.509810   -0.434090   -0.853172
  H      0.528308   -0.412108    0.929908
  H     -1.489544   -1.480132    0.205458
  H     -1.918260    0.082825    0.929230
  H     -2.490518    1.985354   -0.590473
  H     -1.817421    1.825906   -2.230558
  H     -3.677692   -1.396881   -1.964571
  H     -4.044260   -0.677931   -0.368228

 Total Charge           Charge          ....    0
 Multiplicity           Mult            ....    1
 Number of Electrons    NEL             ....   62
 Basis Dimension        Dim             ....  302

ORBITAL ENERGIES
----------------

  NO   OCC          E(Eh)            E(eV)
   0   2.0000     -20.566175      -559.6341
   1   2.0000     -20.554964      -559.3290
   2   2.0000     -15.561078      -423.4385
   3   2.0000     -11.333456      -308.3990
   4   2.0000     -11.285060      -307.0821
   5   2.0000     -11.267370      -306.6007
   6   2.0000     -11.261760      -306.4481
   7   2.0000     -11.261488      -306.4407
   8   2.0000      -1.399132       -38.0723
   9   2.0000      -1.371409       -37.3179
  10   2.0000      -1.259727       -34.2789
  11   2.0000      -1.049486       -28.5580
  12   2.0000      -0.945128       -25.7182
  13   2.0000      -0.923679       -25.1346
  14   2.0000      -0.809565       -22.0294
  15   2.0000      -0.735562       -20.0156
  16   2.0000      -0.716898       -19.5078
  17   2.0000      -0.684269       -18.6199
  18   2.0000      -0.664159       -18.0727
  19   2.0000      -0.642866       -17.4933
  20   2.0000      -0.630966       -17.1695
  21   2.0000      -0.583330       -15.8732
  22   2.0000      -0.577164       -15.7054
  23   2.0000      -0.568265       -15.4633
  24   2.0000      -0.550607       -14.9828
  25   2.0000      -0.522089       -14.2068
  26   2.0000      -0.499697       -13.5975
  27   2.0000      -0.484433       -13.1821
  28   2.0000      -0.457574       -12.4512
  29   2.0000      -0.401189       -10.9169
  30   2.0000      -0.375467       -10.2170
  31   0.0000       0.124820         3.3965
  32   0.0000       0.137138         3.7317
  33   0.0000       0.144225         3.9246
  34   0.0000       0.165618         4.5067
  35   0.0000       0.184360         5.0167

MULLIKEN ATOMIC CHARGES
-----------------------
   0 O :   -0.481139
   1 C :   -0.036787
   2 C :   -0.161045
   3 N :   -0.152477
   4 C :   -0.163660
   5 C :    0.162613
   6 O :   -0.249449
   7 C :   -0.166491
   8 H :    0.319200
   9 H :    0.101771
  10 H :    0.098184
  11 H :    0.124396
  12 H :    0.098307
  13 H :    0.130064
  14 H :    0.128026
  15 H :    0.133042
  16 H :    0.115446
Sum of atomic charges:    0.0000000

LOEWDIN ATOMIC CHARGES
----------------------
   0 O :   -0.045885
   1 C :   -0.348837
   2 C :   -0.310023
   3 N :    0.089744
   4 C :   -0.224083
   5 C :   -0.311828
   6 O :    0.165911
   7 C :   -0.227749
   8 H :    0.173817
   9 H :    0.119590
  10 H :    0.117489
  11 H :    0.140556
  12 H :    0.125242
  13 H :    0.138346
  14 H :    0.132626
  15 H :    0.131409
  16 H :    0.133675

  Mayer bond orders larger than 0.1
B(  0-O ,  1-C ) :   0.9804 B(  0-O ,  8-H ) :   0.8468 B(  1-C ,  2-C ) :   0.9427
B(  1-C ,  9-H ) :   0.9264 B(  1-C , 10-H ) :   0.9262 B(  2-C ,  3-N ) :   0.9294
B(  2-C , 11-H ) :   0.9218 B(  2-C , 12-H ) :   0.9160 B(  3-N ,  4-C ) :   0.9354
B(  3-N ,  7-C ) :   0.9357 B(  4-C ,  5-C ) :   0.8997 B(  4-C , 13-H ) :   0.9021
B(  4-C , 14-H ) :   0.9067 B(  5-C ,  6-O ) :   2.0461 B(  5-C ,  7-C ) :   0.9028
B(  7-C , 15-H ) :   0.9011 B(  7-C , 16-H ) :   0.8988

MP2 TOTAL ENERGY:     -400.324848739 Eh
FINAL SINGLE POINT ENERGY      -400.324848738612

DIPOLE MOMENT
-------------
                                X             Y             Z
Electronic contribution:     -4.70677       2.65903      -3.94389
Nuclear contribution   :      5.93306      -3.26584       4.65476
                        -----------------------------------------
Total Dipole Moment    :      1.22629      -0.60681       0.71087
                        -----------------------------------------
Magnitude (a.u.)       :      1.54186
Magnitude (Debye)      :      3.91910

                             ****ORCA TERMINATED NORMALLY****
TOTAL RUN TIME: 0 days 0 hours 11 minutes 23 seconds 177 msec
