                         Program Version 3.0.3 - RELEASE   -
|  1> ! RI-MP2 RIJK def2-TZVP def2-TZVP/C def2-TZVP/JK TIGHTSCF
|  2> % maxcore 2000
|  3> % mp2 density relaxed end
|  4> *xyz 0 1
|  5>  C        0.0454277696     1.5336635898    -0.0838633670
|  6>  C        0.0813171166     0.0131733695    -0.0066270117
|  7>  C        0.6723995429    -0.5228275083     1.2949795442
|  8>  O       -0.0355631823    -0.0787502642     2.4360965354
|  9>  O       -1.2773498856    -0.5143088655    -0.0373006415
| 10>  C       -1.8483954154    -0.7004636146    -1.2437494798
| 11>  O       -1.3107385310    -0.4655463537    -2.2967348141
| 12>  C       -3.2645805609    -1.2538183718    -1.0952911554
| 13>  N       -3.9728727406    -1.4851769837    -2.3403249460
| 14>  H        1.0667891793     1.9273686249    -0.0882128654
| 15>  H       -0.4487422285     1.8581275113    -1.0018696309
| 16>  H       -0.4767715995     1.9455984287     0.7826722429
| 17>  H        0.6207951513    -0.4012665839    -0.8631316124
| 18>  H        0.7080099685    -1.6219434259     1.2459076659
| 19>  H        1.6997899806    -0.1591874523     1.3999649453
| 20>  H       -0.9489042785    -0.3633650455     2.3191850688
| 21>  H       -3.2018968425    -2.1864532396    -0.5219950395
| 22>  H       -3.8324960697    -0.5587680585    -0.4655880267
| 23>  H       -4.0153514509    -0.6150637921    -2.8638778095
| 24>  H       -3.4222266532    -2.1097605245    -2.9232205524
| 25> *
| 26>
| 27>                          ****END OF INPUT****

CARTESIAN COORDINATES (ANGSTROEM)
---------------------------------
  C      0.045428    1.533664   -0.083863
  C      0.081317    0.013173   -0.006627
  C      0.672400   -0.522828    1.294980
  O     -0.035563   -0.078750    2.436097
  O     -1.277350   -0.514309   -0.037301
  C     -1.848395   -0.700464   -1.243749
  O     -1.310739   -0.465546   -2.296735
  C     -3.264581   -1.253818   -1.095291
  N     -3.972873   -1.485177   -2.340325
  H      1.066789    1.927369   -0.088213
  H     -0.448742    1.858128   -1.001870
  H     -0.476772    1.945598    0.782672
  H      0.620795   -0.401267   -0.863132
  H      0.708010   -1.621943    1.245908
  H      1.699790   -0.159187    1.399965
  H     -0.948904   -0.363365    2.319185
  H     -3.201897   -2.186453   -0.521995
  H     -3.832496   -0.558768   -0.465588
  H     -4.015351   -0.615064   -2.863878
  H     -3.422227   -2.109761   -2.923221

 Total Charge           Charge          ....    0
 Multiplicity           Mult            ....    1
 Number of Electrons    NEL             ....   72
 Basis Dimension        Dim             ....  345

ORBITAL ENERGIES
----------------

  NO   OCC          E(Eh)            E(eV)
   0   2.0000     -20.609019      -560.7999
   1   2.0000     -20.561762      -559.5140
   2   2.0000     -20.551857      -559.2445
   3   2.0000     -15.552174      -423.1962
   4   2.0000     -11.384307      -309.7828
   5   2.0000     -11.300570      -307.5042
   6   2.0000     -11.285607      -307.0970
   7   2.0000     -11.277696      -306.8817
   8   2.0000     -11.223159      -305.3977
   9   2.0000      -1.467302       -39.9273
  10   2.0000      -1.376917       -37.4678
  11   2.0000      -1.360677       -37.0259
  12   2.0000      -1.195053       -32.5190
  13   2.0000      -1.068731       -29.0816
  14   2.0000      -0.963935       -26.2300
  15   2.0000      -0.939825       -25.5739
  16   2.0000      -0.843955       -22.9652
  17   2.0000      -0.772023       -21.0078
  18   2.0000      -0.722026       -19.6473
  19   2.0000      -0.702059       -19.1040
  20   2.0000      -0.689628       -18.7657
  21   2.0000      -0.678223       -18.4554
  22   2.0000      -0.645157       -17.5556
  23   2.0000      -0.638641       -17.3783
  24   2.0000      -0.607657       -16.5352
  25   2.0000      -0.584763       -15.9122
  26   2.0000      -0.575178       -15.6514
  27   2.0000      -0.556079       -15.1317
  28   2.0000      -0.545549       -14.8452
  29   2.0000      -0.527672       -14.3587
  30   2.0000      -0.519630       -14.1399
  31   2.0000      -0.490784       -13.3549
  32   2.0000      -0.475594       -12.9416
  33   2.0000      -0.467429       -12.7194
  34   2.0000      -0.446490       -12.1496
  35   2.0000      -0.412880       -11.2350
  36   0.0000       0.122841         3.3427
  37   0.0000       0.148654         4.0451
  38   0.0000       0.156009         4.2452
  39   0.0000       0.160160         4.3582
  40   0.0000       0.172478         4.6934

MULLIKEN ATOMIC CHARGES
-----------------------
   0 C :   -0.411592
   1 C :    0.032363
   2 C :    0.015073
   3 O :   -0.477311
   4 O :   -0.283803
   5 C :    0.254431
   6 O :   -0.335976
   7 C :   -0.123547
   8 N :   -0.512033
   9 H :    0.131372
  10 H :    0.155021
  11 H :    0.141064
  12 H :    0.115034
  13 H :    0.111506
  14 H :    0.111668
  15 H :    0.325753
  16 H :    0.143977
  17 H :    0.144957
  18 H :    0.230656
  19 H :    0.231387
Sum of atomic charges:    0.0000000

LOEWDIN ATOMIC CHARGES
----------------------
   0 C :   -0.290837
   1 C :   -0.314676
   2 C :   -0.331178
   3 O :   -0.040431
   4 O :    0.254011
   5 C :   -0.493742
   6 O :    0.115684
   7 C :   -0.318318
   8 N :   -0.164582
   9 H :    0.131561
  10 H :    0.129743
  11 H :    0.129479
  12 H :    0.149744
  13 H :    0.122157
  14 H :    0.135398
  15 H :    0.176860
  16 H :    0.146690
  17 H :    0.146792
  18 H :    0.157775
  19 H :    0.157871

  Mayer bond orders larger than 0.1
B(  0-C ,  1-C ) :   0.9369 B(  0-C ,  9-H ) :   0.9309 B(  0-C , 10-H ) :   0.9354
B(  0-C , 11-H ) :   0.9259 B(  1-C ,  2-C ) :   0.9289 B(  1-C ,  4-O ) :   0.7766
B(  1-C , 12-H ) :   0.9286 B(  2-C ,  3-O ) :   0.9260 B(  2-C , 13-H ) :   0.9282
B(  2-C , 14-H ) :   0.9247 B(  3-O , 15-H ) :   0.8355 B(  4-O ,  5-C ) :   1.1144
B(  5-C ,  6-O ) :   1.9447 B(  5-C ,  7-C ) :   0.9355 B(  7-C ,  8-N ) :   0.9880
B(  7-C , 16-H ) :   0.9141 B(  7-C , 17-H ) :   0.9176 B(  8-N , 18-H ) :   0.8942
B(  8-N , 19-H ) :   0.8938

MP2 TOTAL ENERGY:     -476.706345388 Eh
FINAL SINGLE POINT ENERGY      -476.706345387692

DIPOLE MOMENT
-------------
                                X             Y             Z
Electronic contribution:     -0.84440      -1.89754      -0.91428
Nuclear contribution   :      1.04603       1.82153       0.91386
                        -----------------------------------------
Total Dipole Moment    :      0.20163      -0.07601      -0.00042
                        -----------------------------------------
Magnitude (a.u.)       :      0.21548
Magnitude (Debye)      :      0.54771

                             ****ORCA TERMINATED NORMALLY****
TOTAL RUN TIME: 0 days 0 hours 15 minutes 13 seconds 265 msec
