                         Program Version 3.0.3 - RELEASE   -
|  1> ! RI-MP2 RIJK def2-TZVP def2-TZVP/C def2-TZVP/JK TIGHTSCF
|  2> % maxcore 2000
|  3> % mp2 density relaxed end
|  4> *xyz 0 1
|  5>  C       -0.1464056589     1.6395708168     1.5425230794
|  6>  C       -0.2820970923     0.1470194149     1.7954760093
|  7>  O        0.7595517020    -0.5138909827     1.0914045441
|  8>  C        0.8780120869    -1.8884261164     1.3535248046
|  9>  C       -0.2161472897    -2.7599355538     0.7617975710
| 10>  C       -0.3308710178    -2.6143206676    -0.7594315491
| 11>  C        2.2955831617    -2.3758162634     1.3489854984
| 12>  C        1.5337151950    -2.2748698998     2.6573866827
| 13>  H       -0.2159242538     1.8551888583     0.4724199771
| 14>  H       -0.9397718205     2.1882444699     2.0591395820
| 15>  H        0.8205424480     2.0038852446     1.9011976380
| 16>  H       -0.2092183999    -0.0744698386     2.8711144659
| 17>  H       -1.2676926618    -0.2066062569     1.4564226437
| 18>  H       -0.0081809828    -3.8028577770     1.0272941170
| 19>  H       -1.1775345003    -2.5168089151     1.2322606888
| 20>  H       -0.5137705768    -1.5721135829    -1.0351757467
| 21>  H        0.5942521768    -2.9275532415    -1.2544269556
| 22>  H       -1.1494879033    -3.2234307303    -1.1545110425
| 23>  H        2.5019335393    -3.3597085617     0.9414151525
| 24>  H        3.0630669753    -1.6333820927     1.1645284529
| 25>  H        1.8151865128    -1.4712168397     3.3286966829
| 26>  H        1.2205036902    -3.1888287344     3.1510033834
| 27> *
| 28>
| 29>                          ****END OF INPUT****

CARTESIAN COORDINATES (ANGSTROEM)
---------------------------------
  C     -0.146406    1.639571    1.542523
  C     -0.282097    0.147019    1.795476
  O      0.759552   -0.513891    1.091405
  C      0.878012   -1.888426    1.353525
  C     -0.216147   -2.759936    0.761798
  C     -0.330871   -2.614321   -0.759432
  C      2.295583   -2.375816    1.348985
  C      1.533715   -2.274870    2.657387
  H     -0.215924    1.855189    0.472420
  H     -0.939772    2.188244    2.059140
  H      0.820542    2.003885    1.901198
  H     -0.209218   -0.074470    2.871114
  H     -1.267693   -0.206606    1.456423
  H     -0.008181   -3.802858    1.027294
  H     -1.177535   -2.516809    1.232261
  H     -0.513771   -1.572114   -1.035176
  H      0.594252   -2.927553   -1.254427
  H     -1.149488   -3.223431   -1.154511
  H      2.501934   -3.359709    0.941415
  H      3.063067   -1.633382    1.164528
  H      1.815187   -1.471217    3.328697
  H      1.220504   -3.188829    3.151003

 Total Charge           Charge          ....    0
 Multiplicity           Mult            ....    1
 Number of Electrons    NEL             ....   64
 Basis Dimension        Dim             ....  332

ORBITAL ENERGIES
----------------

  NO   OCC          E(Eh)            E(eV)
   0   2.0000     -20.550895      -559.2183
   1   2.0000     -11.279505      -306.9309
   2   2.0000     -11.270962      -306.6985
   3   2.0000     -11.222216      -305.3720
   4   2.0000     -11.220406      -305.3228
   5   2.0000     -11.217989      -305.2570
   6   2.0000     -11.212405      -305.1051
   7   2.0000     -11.208263      -304.9923
   8   2.0000      -1.375410       -37.4268
   9   2.0000      -1.133099       -30.8332
  10   2.0000      -1.022436       -27.8219
  11   2.0000      -1.007530       -27.4163
  12   2.0000      -0.866745       -23.5853
  13   2.0000      -0.848374       -23.0854
  14   2.0000      -0.816986       -22.2313
  15   2.0000      -0.753406       -20.5012
  16   2.0000      -0.674952       -18.3664
  17   2.0000      -0.667018       -18.1505
  18   2.0000      -0.626055       -17.0358
  19   2.0000      -0.606581       -16.5059
  20   2.0000      -0.587439       -15.9850
  21   2.0000      -0.578914       -15.7530
  22   2.0000      -0.535324       -14.5669
  23   2.0000      -0.525304       -14.2942
  24   2.0000      -0.523687       -14.2503
  25   2.0000      -0.512039       -13.9333
  26   2.0000      -0.503229       -13.6936
  27   2.0000      -0.490464       -13.3462
  28   2.0000      -0.471553       -12.8316
  29   2.0000      -0.447920       -12.1885
  30   2.0000      -0.400613       -10.9012
  31   2.0000      -0.385542       -10.4911
  32   0.0000       0.134912         3.6712
  33   0.0000       0.154371         4.2007
  34   0.0000       0.161319         4.3897
  35   0.0000       0.170876         4.6498
  36   0.0000       0.188976         5.1423

MULLIKEN ATOMIC CHARGES
-----------------------
   0 C :   -0.364571
   1 C :   -0.055045
   2 O :   -0.311018
   3 C :    0.238022
   4 C :   -0.227063
   5 C :   -0.407583
   6 C :   -0.281968
   7 C :   -0.302766
   8 H :    0.130234
   9 H :    0.121411
  10 H :    0.127304
  11 H :    0.099857
  12 H :    0.095002
  13 H :    0.110007
  14 H :    0.116860
  15 H :    0.136987
  16 H :    0.126285
  17 H :    0.130855
  18 H :    0.126581
  19 H :    0.130889
  20 H :    0.133573
  21 H :    0.126148
Sum of atomic charges:   -0.0000000

LOEWDIN ATOMIC CHARGES
----------------------
   0 C :   -0.317844
   1 C :   -0.340961
   2 O :    0.211134
   3 C :   -0.353370
   4 C :   -0.257062
   5 C :   -0.311176
   6 C :   -0.205326
   7 C :   -0.217069
   8 H :    0.123898
   9 H :    0.123607
  10 H :    0.122952
  11 H :    0.118900
  12 H :    0.116910
  13 H :    0.143974
  14 H :    0.137805
  15 H :    0.124460
  16 H :    0.122564
  17 H :    0.119152
  18 H :    0.132958
  19 H :    0.137823
  20 H :    0.135655
  21 H :    0.131016

  Mayer bond orders larger than 0.1
B(  0-C ,  1-C ) :   0.9512 B(  0-C ,  8-H ) :   0.9362 B(  0-C ,  9-H ) :   0.9336
B(  0-C , 10-H ) :   0.9372 B(  1-C ,  2-O ) :   0.8894 B(  1-C , 11-H ) :   0.9235
B(  1-C , 12-H ) :   0.9220 B(  2-O ,  3-C ) :   0.9539 B(  3-C ,  4-C ) :   0.9193
B(  3-C ,  6-C ) :   0.8704 B(  3-C ,  7-C ) :   0.8864 B(  4-C ,  5-C ) :   0.9237
B(  4-C , 13-H ) :   0.9209 B(  4-C , 14-H ) :   0.9319 B(  5-C , 15-H ) :   0.9363
B(  5-C , 16-H ) :   0.9386 B(  5-C , 17-H ) :   0.9395 B(  6-C ,  7-C ) :   0.9250
B(  6-C , 18-H ) :   0.9255 B(  6-C , 19-H ) :   0.9195 B(  7-C , 20-H ) :   0.9210
B(  7-C , 21-H ) :   0.9169

MP2 TOTAL ENERGY:     -349.581832831 Eh
FINAL SINGLE POINT ENERGY      -349.581832831173

DIPOLE MOMENT
-------------
                                X             Y             Z
Electronic contribution:      2.50801      -0.35965       1.01889
Nuclear contribution   :     -2.82232       0.20574      -0.74184
                        -----------------------------------------
Total Dipole Moment    :     -0.31431      -0.15392       0.27704
                        -----------------------------------------
Magnitude (a.u.)       :      0.44635
Magnitude (Debye)      :      1.13454

                             ****ORCA TERMINATED NORMALLY****
TOTAL RUN TIME: 0 days 0 hours 14 minutes 48 seconds 782 msec
