                         Program Version 3.0.3 - RELEASE   -
|  1> ! RI-MP2 RIJK def2-TZVP def2-TZVP/C def2-TZVP/JK TIGHTSCF
|  2> % maxcore 2000
|  3> % mp2 density relaxed end
|  4> *xyz 0 1
|  5>  C       -0.0351531375     1.4830194040     0.0734775367
|  6>  C        0.1501852758    -0.0074805443     0.2712431724
|  7>  O        1.2511627634    -0.4775650258     0.4889304799
|  8>  C       -1.1007558513    -0.8571707028     0.1658083846
|  9>  C       -1.4859535354    -1.4464258806    -1.2502710400
| 10>  C       -1.6232508574    -2.8311745694    -0.6076181216
| 11>  C       -0.3036906268    -3.2509390999    -0.0384947468
| 12>  O        0.8983457602    -2.9477614625    -0.6644596507
| 13>  C       -1.1252603353    -2.2739621389     0.7510073720
| 14>  H        0.9329934607     1.9821023471     0.0250712894
| 15>  H       -0.6074828356     1.6809436193    -0.8396605571
| 16>  H       -0.6178106127     1.8951897609     0.9059719498
| 17>  H       -1.9501247120    -0.2733138294     0.5327187373
| 18>  H       -2.4163628665    -1.0261334902    -1.6328490323
| 19>  H       -0.7080325230    -1.3851577702    -2.0152433203
| 20>  H       -2.4262305027    -3.5295319067    -0.8092884593
| 21>  H       -0.3260964215    -4.2504266988     0.3980672818
| 22>  H        1.3113973803    -2.2287542573    -0.1583247660
| 23>  H       -1.4651599229    -2.4969328942     1.7561066004
| 24> *
| 25>
| 26>                          ****END OF INPUT****

CARTESIAN COORDINATES (ANGSTROEM)
---------------------------------
  C     -0.035153    1.483019    0.073478
  C      0.150185   -0.007481    0.271243
  O      1.251163   -0.477565    0.488930
  C     -1.100756   -0.857171    0.165808
  C     -1.485954   -1.446426   -1.250271
  C     -1.623251   -2.831175   -0.607618
  C     -0.303691   -3.250939   -0.038495
  O      0.898346   -2.947761   -0.664460
  C     -1.125260   -2.273962    0.751007
  H      0.932993    1.982102    0.025071
  H     -0.607483    1.680944   -0.839661
  H     -0.617811    1.895190    0.905972
  H     -1.950125   -0.273314    0.532719
  H     -2.416363   -1.026133   -1.632849
  H     -0.708033   -1.385158   -2.015243
  H     -2.426231   -3.529532   -0.809288
  H     -0.326096   -4.250427    0.398067
  H      1.311397   -2.228754   -0.158325
  H     -1.465160   -2.496933    1.756107

 Total Charge           Charge          ....    0
 Multiplicity           Mult            ....    1
 Number of Electrons    NEL             ....   68
 Basis Dimension        Dim             ....  339

ORBITAL ENERGIES
----------------

  NO   OCC          E(Eh)            E(eV)
   0   2.0000     -20.556932      -559.3826
   1   2.0000     -20.535576      -558.8014
   2   2.0000     -11.342095      -308.6341
   3   2.0000     -11.280529      -306.9588
   4   2.0000     -11.254662      -306.2549
   5   2.0000     -11.243349      -305.9471
   6   2.0000     -11.242726      -305.9301
   7   2.0000     -11.241107      -305.8861
   8   2.0000     -11.236622      -305.7640
   9   2.0000      -1.401260       -38.1302
  10   2.0000      -1.352828       -36.8123
  11   2.0000      -1.185786       -32.2669
  12   2.0000      -1.041737       -28.3471
  13   2.0000      -0.985776       -26.8243
  14   2.0000      -0.920578       -25.0502
  15   2.0000      -0.817870       -22.2554
  16   2.0000      -0.767534       -20.8857
  17   2.0000      -0.723181       -19.6788
  18   2.0000      -0.710477       -19.3331
  19   2.0000      -0.696669       -18.9573
  20   2.0000      -0.649025       -17.6609
  21   2.0000      -0.624848       -17.0030
  22   2.0000      -0.611143       -16.6301
  23   2.0000      -0.587889       -15.9973
  24   2.0000      -0.579682       -15.7739
  25   2.0000      -0.570666       -15.5286
  26   2.0000      -0.540151       -14.6982
  27   2.0000      -0.524354       -14.2684
  28   2.0000      -0.493542       -13.4300
  29   2.0000      -0.475759       -12.9461
  30   2.0000      -0.465595       -12.6695
  31   2.0000      -0.434506       -11.8235
  32   2.0000      -0.398110       -10.8331
  33   2.0000      -0.377102       -10.2615
  34   0.0000       0.119327         3.2471
  35   0.0000       0.128540         3.4978
  36   0.0000       0.155394         4.2285
  37   0.0000       0.165260         4.4970
  38   0.0000       0.180646         4.9156

MULLIKEN ATOMIC CHARGES
-----------------------
   0 C :   -0.429663
   1 C :    0.255644
   2 O :   -0.349344
   3 C :   -0.128941
   4 C :   -0.227368
   5 C :   -0.113732
   6 C :    0.041801
   7 O :   -0.488624
   8 C :   -0.134155
   9 H :    0.157219
  10 H :    0.152048
  11 H :    0.152819
  12 H :    0.121924
  13 H :    0.129833
  14 H :    0.133826
  15 H :    0.137795
  16 H :    0.110214
  17 H :    0.348080
  18 H :    0.130623
Sum of atomic charges:    0.0000000

LOEWDIN ATOMIC CHARGES
----------------------
   0 C :   -0.274391
   1 C :   -0.318772
   2 O :    0.137121
   3 C :   -0.182144
   4 C :   -0.177575
   5 C :   -0.161360
   6 C :   -0.314381
   7 O :   -0.000165
   8 C :   -0.148608
   9 H :    0.134063
  10 H :    0.138756
  11 H :    0.140386
  12 H :    0.163366
  13 H :    0.133512
  14 H :    0.138894
  15 H :    0.134372
  16 H :    0.145528
  17 H :    0.175374
  18 H :    0.136023

  Mayer bond orders larger than 0.1
B(  0-C ,  1-C ) :   0.9273 B(  0-C ,  9-H ) :   0.9382 B(  0-C , 10-H ) :   0.9179
B(  0-C , 11-H ) :   0.9155 B(  1-C ,  2-O ) :   1.8549 B(  1-C ,  3-C ) :   0.8913
B(  3-C ,  4-C ) :   0.9524 B(  3-C ,  8-C ) :   0.9081 B(  3-C , 12-H ) :   0.9051
B(  4-C ,  5-C ) :   0.9407 B(  4-C , 13-H ) :   0.9256 B(  4-C , 14-H ) :   0.9036
B(  5-C ,  6-C ) :   0.8494 B(  5-C ,  8-C ) :   0.8110 B(  5-C , 15-H ) :   0.9197
B(  6-C ,  7-O ) :   1.0300 B(  6-C ,  8-C ) :   0.9103 B(  6-C , 16-H ) :   0.9679
B(  7-O , 17-H ) :   0.7913 B(  8-C , 18-H ) :   0.9228

MP2 TOTAL ENERGY:     -422.304854450 Eh
FINAL SINGLE POINT ENERGY      -422.304854449665

DIPOLE MOMENT
-------------
                                X             Y             Z
Electronic contribution:      3.46365      -3.10465       1.07999
Nuclear contribution   :     -4.72349       3.95475      -0.80991
                        -----------------------------------------
Total Dipole Moment    :     -1.25983       0.85010       0.27008
                        -----------------------------------------
Magnitude (a.u.)       :      1.54363
Magnitude (Debye)      :      3.92360

                             ****ORCA TERMINATED NORMALLY****
TOTAL RUN TIME: 0 days 0 hours 17 minutes 42 seconds 917 msec
