                         Program Version 3.0.3 - RELEASE   -
|  1> ! RI-MP2 RIJK def2-TZVP def2-TZVP/C def2-TZVP/JK TIGHTSCF
|  2> % maxcore 2000
|  3> % mp2 density relaxed end
|  4> *xyz 0 1
|  5>  O       -0.0741344645     1.4362443793     0.0124076530
|  6>  C        0.0385050172     0.0237129294     0.0036982659
|  7>  C       -1.3769065728    -0.5345822184     0.1136577703
|  8>  C       -1.4084238039    -2.0418422358     0.0472199735
|  9>  N       -2.2836084354    -2.6968790585     0.6985525211
| 10>  N       -0.4367051512    -2.6189873760    -0.7796252306
| 11>  C        0.6212580350    -2.0002075348    -1.4333225808
| 12>  O        1.4147066203    -2.6506485330    -2.0763833539
| 13>  C        0.6871314372    -0.4900789883    -1.2863012145
| 14>  H        0.8123243323     1.8116908052     0.0073193121
| 15>  H        0.6289116205    -0.3207497938     0.8682192591
| 16>  H       -1.8603808824    -0.2225847898     1.0393251702
| 17>  H       -1.9665620635    -0.1278728388    -0.7185010026
| 18>  H       -2.2033006301    -3.7037605713     0.5387503677
| 19>  H       -0.4449644300    -3.6261002835    -0.8851593795
| 20>  H        0.1606650782    -0.0419250377    -2.1388498330
| 21>  H        1.7390407231    -0.2039141242    -1.3690413681
| 22> *
| 23>
| 24>                          ****END OF INPUT****

CARTESIAN COORDINATES (ANGSTROEM)
---------------------------------
  O     -0.074134    1.436244    0.012408
  C      0.038505    0.023713    0.003698
  C     -1.376907   -0.534582    0.113658
  C     -1.408424   -2.041842    0.047220
  N     -2.283608   -2.696879    0.698553
  N     -0.436705   -2.618987   -0.779625
  C      0.621258   -2.000208   -1.433323
  O      1.414707   -2.650649   -2.076383
  C      0.687131   -0.490079   -1.286301
  H      0.812324    1.811691    0.007319
  H      0.628912   -0.320750    0.868219
  H     -1.860381   -0.222585    1.039325
  H     -1.966562   -0.127873   -0.718501
  H     -2.203301   -3.703761    0.538750
  H     -0.444964   -3.626100   -0.885159
  H      0.160665   -0.041925   -2.138850
  H      1.739041   -0.203914   -1.369041

 Total Charge           Charge          ....    0
 Multiplicity           Mult            ....    1
 Number of Electrons    NEL             ....   68
 Basis Dimension        Dim             ....  327

ORBITAL ENERGIES
----------------

  NO   OCC          E(Eh)            E(eV)
   0   2.0000     -20.581752      -560.0579
   1   2.0000     -20.545681      -559.0764
   2   2.0000     -15.618892      -425.0116
   3   2.0000     -15.547376      -423.0656
   4   2.0000     -11.379010      -309.6386
   5   2.0000     -11.341850      -308.6274
   6   2.0000     -11.314090      -307.8720
   7   2.0000     -11.259748      -306.3933
   8   2.0000     -11.250177      -306.1329
   9   2.0000      -1.412754       -38.4430
  10   2.0000      -1.389792       -37.8182
  11   2.0000      -1.297349       -35.3027
  12   2.0000      -1.183698       -32.2101
  13   2.0000      -1.093875       -29.7659
  14   2.0000      -1.008548       -27.4440
  15   2.0000      -0.877640       -23.8818
  16   2.0000      -0.855943       -23.2914
  17   2.0000      -0.781721       -21.2717
  18   2.0000      -0.737741       -20.0750
  19   2.0000      -0.709294       -19.3009
  20   2.0000      -0.703609       -19.1462
  21   2.0000      -0.646265       -17.5858
  22   2.0000      -0.628814       -17.1109
  23   2.0000      -0.626695       -17.0532
  24   2.0000      -0.605133       -16.4665
  25   2.0000      -0.577035       -15.7019
  26   2.0000      -0.563962       -15.3462
  27   2.0000      -0.547001       -14.8847
  28   2.0000      -0.505442       -13.7538
  29   2.0000      -0.489314       -13.3149
  30   2.0000      -0.479436       -13.0461
  31   2.0000      -0.460413       -12.5285
  32   2.0000      -0.431199       -11.7335
  33   2.0000      -0.390893       -10.6367
  34   0.0000       0.114354         3.1117
  35   0.0000       0.134159         3.6507
  36   0.0000       0.135286         3.6813
  37   0.0000       0.149846         4.0775
  38   0.0000       0.164388         4.4732

MULLIKEN ATOMIC CHARGES
-----------------------
   0 O :   -0.446740
   1 C :    0.053444
   2 C :   -0.113843
   3 C :    0.031978
   4 N :   -0.330942
   5 N :   -0.266803
   6 C :    0.189716
   7 O :   -0.314182
   8 C :   -0.240172
   9 H :    0.319051
  10 H :    0.099031
  11 H :    0.155000
  12 H :    0.137859
  13 H :    0.199358
  14 H :    0.235854
  15 H :    0.147901
  16 H :    0.143490
Sum of atomic charges:   -0.0000000

LOEWDIN ATOMIC CHARGES
----------------------
   0 O :   -0.007360
   1 C :   -0.347981
   2 C :   -0.190992
   3 C :   -0.354686
   4 N :   -0.051452
   5 N :    0.162597
   6 C :   -0.422335
   7 O :    0.111138
   8 C :   -0.212380
   9 H :    0.177971
  10 H :    0.140695
  11 H :    0.160784
  12 H :    0.161421
  13 H :    0.157543
  14 H :    0.198779
  15 H :    0.162872
  16 H :    0.153386

  Mayer bond orders larger than 0.1
B(  0-O ,  1-C ) :   1.0006 B(  0-O ,  9-H ) :   0.8435 B(  1-C ,  2-C ) :   0.8795
B(  1-C ,  8-C ) :   0.8890 B(  1-C , 10-H ) :   0.9402 B(  2-C ,  3-C ) :   0.8990
B(  2-C , 11-H ) :   0.9171 B(  2-C , 12-H ) :   0.9142 B(  3-C ,  4-N ) :   2.0835
B(  3-C ,  5-N ) :   1.0205 B(  4-N , 13-H ) :   0.8598 B(  5-N ,  6-C ) :   1.0755
B(  5-N , 14-H ) :   0.8514 B(  6-C ,  7-O ) :   2.0009 B(  6-C ,  8-C ) :   0.9291
B(  8-C , 15-H ) :   0.8994 B(  8-C , 16-H ) :   0.9157

MP2 TOTAL ENERGY:     -454.470835154 Eh
FINAL SINGLE POINT ENERGY      -454.470835153658

DIPOLE MOMENT
-------------
                                X             Y             Z
Electronic contribution:      1.16212      -3.14140      -1.36019
Nuclear contribution   :     -0.75119       3.39402       1.45216
                        -----------------------------------------
Total Dipole Moment    :      0.41093       0.25262       0.09196
                        -----------------------------------------
Magnitude (a.u.)       :      0.49105
Magnitude (Debye)      :      1.24815

                             ****ORCA TERMINATED NORMALLY****
TOTAL RUN TIME: 0 days 0 hours 15 minutes 22 seconds 935 msec
