                         Program Version 3.0.3 - RELEASE   -
|  1> ! RI-MP2 RIJK def2-TZVP def2-TZVP/C def2-TZVP/JK TIGHTSCF
|  2> % maxcore 2000
|  3> % mp2 density relaxed end
|  4> *xyz 0 1
|  5>  O        0.3706291517     1.1812814108     0.6044743571
|  6>  C        0.0655486900    -0.0891695253     0.1141024276
|  7>  C       -1.4330818097    -0.4465911714     0.0584864085
|  8>  C       -1.5172493437    -1.6004212012    -0.9760792560
|  9>  C       -2.3376232767    -1.3313753704    -2.2555116064
| 10>  O       -1.1416495475    -1.0327447967    -3.0180805832
| 11>  C       -0.2988528742    -1.4351980160    -1.9197254606
| 12>  C        0.5095652901    -0.2762200180    -1.3346451896
| 13>  O        1.2815897626     0.4602548740    -1.8936712530
| 14>  H        0.9728932914     1.5754170972    -0.0461247739
| 15>  H        0.5846946188    -0.8722952128     0.7014548108
| 16>  H       -1.8291865809    -0.7231804259     1.0369672111
| 17>  H       -1.9849342236     0.4339750226    -0.2873432237
| 18>  H       -1.6617509790    -2.5769465619    -0.5147182630
| 19>  H       -2.8571179819    -2.2073461810    -2.6620005553
| 20>  H       -3.0285996848    -0.4814446297    -2.2246090822
| 21>  H        0.3219823576    -2.3058716742    -2.1622436283
| 22> *
| 23>
| 24>                          ****END OF INPUT****

CARTESIAN COORDINATES (ANGSTROEM)
---------------------------------
  O      0.370629    1.181281    0.604474
  C      0.065549   -0.089170    0.114102
  C     -1.433082   -0.446591    0.058486
  C     -1.517249   -1.600421   -0.976079
  C     -2.337623   -1.331375   -2.255512
  O     -1.141650   -1.032745   -3.018081
  C     -0.298853   -1.435198   -1.919725
  C      0.509565   -0.276220   -1.334645
  O      1.281590    0.460255   -1.893671
  H      0.972893    1.575417   -0.046125
  H      0.584695   -0.872295    0.701455
  H     -1.829187   -0.723180    1.036967
  H     -1.984934    0.433975   -0.287343
  H     -1.661751   -2.576947   -0.514718
  H     -2.857118   -2.207346   -2.662001
  H     -3.028600   -0.481445   -2.224609
  H      0.321982   -2.305872   -2.162244

 Total Charge           Charge          ....    0
 Multiplicity           Mult            ....    1
 Number of Electrons    NEL             ....   68
 Basis Dimension        Dim             ....  327

ORBITAL ENERGIES
----------------

  NO   OCC          E(Eh)            E(eV)
   0   2.0000     -20.572352      -559.8022
   1   2.0000     -20.571889      -559.7896
   2   2.0000     -20.566862      -559.6528
   3   2.0000     -11.342465      -308.6442
   4   2.0000     -11.309392      -307.7442
   5   2.0000     -11.303001      -307.5703
   6   2.0000     -11.298014      -307.4346
   7   2.0000     -11.260465      -306.4128
   8   2.0000     -11.248888      -306.0978
   9   2.0000      -1.423559       -38.7370
  10   2.0000      -1.397238       -38.0208
  11   2.0000      -1.372677       -37.3524
  12   2.0000      -1.122563       -30.5465
  13   2.0000      -0.999058       -27.1858
  14   2.0000      -0.967550       -26.3284
  15   2.0000      -0.896003       -24.3815
  16   2.0000      -0.794883       -21.6299
  17   2.0000      -0.769431       -20.9373
  18   2.0000      -0.717698       -19.5295
  19   2.0000      -0.700273       -19.0554
  20   2.0000      -0.690367       -18.7858
  21   2.0000      -0.652523       -17.7561
  22   2.0000      -0.638089       -17.3633
  23   2.0000      -0.615007       -16.7352
  24   2.0000      -0.580490       -15.7959
  25   2.0000      -0.575926       -15.6717
  26   2.0000      -0.551643       -15.0110
  27   2.0000      -0.539456       -14.6793
  28   2.0000      -0.524942       -14.2844
  29   2.0000      -0.494906       -13.4671
  30   2.0000      -0.477855       -13.0031
  31   2.0000      -0.455238       -12.3877
  32   2.0000      -0.448051       -12.1921
  33   2.0000      -0.404665       -11.0115
  34   0.0000       0.104107         2.8329
  35   0.0000       0.135926         3.6987
  36   0.0000       0.149617         4.0713
  37   0.0000       0.163549         4.4504
  38   0.0000       0.166167         4.5216

MULLIKEN ATOMIC CHARGES
-----------------------
   0 O :   -0.471234
   1 C :    0.080594
   2 C :   -0.212095
   3 C :   -0.121070
   4 C :   -0.038476
   5 O :   -0.323388
   6 C :    0.113015
   7 C :    0.088951
   8 O :   -0.276196
   9 H :    0.334586
  10 H :    0.104670
  11 H :    0.139389
  12 H :    0.115262
  13 H :    0.135278
  14 H :    0.105040
  15 H :    0.105337
  16 H :    0.120335
Sum of atomic charges:    0.0000000

LOEWDIN ATOMIC CHARGES
----------------------
   0 O :   -0.000345
   1 C :   -0.331798
   2 C :   -0.202671
   3 C :   -0.194157
   4 C :   -0.241311
   5 O :    0.147921
   6 C :   -0.219196
   7 C :   -0.284943
   8 O :    0.170013
   9 H :    0.187414
  10 H :    0.154581
  11 H :    0.139040
  12 H :    0.148011
  13 H :    0.144152
  14 H :    0.120367
  15 H :    0.120342
  16 H :    0.142580

  Mayer bond orders larger than 0.1
B(  0-O ,  1-C ) :   1.0851 B(  0-O ,  2-C ) :  -0.1121 B(  0-O ,  9-H ) :   0.8104
B(  1-C ,  2-C ) :   0.8756 B(  1-C ,  7-C ) :   0.8929 B(  1-C , 10-H ) :   0.9150
B(  2-C ,  3-C ) :   0.8894 B(  2-C , 11-H ) :   0.9246 B(  2-C , 12-H ) :   0.9043
B(  3-C ,  4-C ) :   0.9705 B(  3-C ,  6-C ) :   0.9215 B(  3-C , 13-H ) :   0.9168
B(  4-C ,  5-O ) :   0.9374 B(  4-C , 14-H ) :   0.9203 B(  4-C , 15-H ) :   0.9034
B(  5-O ,  6-C ) :   0.9583 B(  6-C ,  7-C ) :   0.8587 B(  6-C , 16-H ) :   0.9043
B(  7-C ,  8-O ) :   1.9818

MP2 TOTAL ENERGY:     -458.223087415 Eh
FINAL SINGLE POINT ENERGY      -458.223087415282

DIPOLE MOMENT
-------------
                                X             Y             Z
Electronic contribution:      4.55848       2.09193      -2.50205
Nuclear contribution   :     -5.25943      -3.18960       3.05303
                        -----------------------------------------
Total Dipole Moment    :     -0.70095      -1.09768       0.55098
                        -----------------------------------------
Magnitude (a.u.)       :      1.41414
Magnitude (Debye)      :      3.59446

                             ****ORCA TERMINATED NORMALLY****
TOTAL RUN TIME: 0 days 0 hours 16 minutes 22 seconds 958 msec
