                         Program Version 3.0.3 - RELEASE   -
|  1> ! RI-MP2 RIJK def2-TZVP def2-TZVP/C def2-TZVP/JK TIGHTSCF
|  2> % maxcore 2000
|  3> % mp2 density relaxed end
|  4> *xyz 0 1
|  5>  N       -0.0863012074     1.5329617946    -0.0356553406
|  6>  C       -0.0541208371     0.0958443796    -0.0036410381
|  7>  C        0.3834709464    -0.6671426925     1.2898663214
|  8>  O        0.1595707067     0.1421409843     2.4173732719
|  9>  C       -0.8027527290    -1.6555434140     1.0799294121
| 10>  O       -1.5113964638    -1.9920873945     2.2438206415
| 11>  C       -1.4445453118    -0.6429120889     0.0588803459
| 12>  C       -2.5194070188     0.1127189569     0.6718221138
| 13>  N       -3.3862432742     0.6345299628     1.2345236121
| 14>  H       -0.3189193935     1.8789161899     0.8920879856
| 15>  H        0.8297000303     1.9027949713    -0.2676157814
| 16>  H        0.4912542482    -0.2777228846    -0.8740796489
| 17>  H        1.3929808482    -1.0978646072     1.2986621179
| 18>  H       -0.3149283176    -0.4112303923     3.0546499692
| 19>  H       -0.5002588636    -2.5759094214     0.5730431848
| 20>  H       -2.2996289107    -1.4356579732     2.3088797669
| 21>  H       -1.7969869120    -1.0695048709    -0.8824365540
| 22> *
| 23>
| 24>                          ****END OF INPUT****

CARTESIAN COORDINATES (ANGSTROEM)
---------------------------------
  N     -0.086301    1.532962   -0.035655
  C     -0.054121    0.095844   -0.003641
  C      0.383471   -0.667143    1.289866
  O      0.159571    0.142141    2.417373
  C     -0.802753   -1.655543    1.079929
  O     -1.511396   -1.992087    2.243821
  C     -1.444545   -0.642912    0.058880
  C     -2.519407    0.112719    0.671822
  N     -3.386243    0.634530    1.234524
  H     -0.318919    1.878916    0.892088
  H      0.829700    1.902795   -0.267616
  H      0.491254   -0.277723   -0.874080
  H      1.392981   -1.097865    1.298662
  H     -0.314928   -0.411230    3.054650
  H     -0.500259   -2.575909    0.573043
  H     -2.299629   -1.435658    2.308880
  H     -1.796987   -1.069505   -0.882437

 Total Charge           Charge          ....    0
 Multiplicity           Mult            ....    1
 Number of Electrons    NEL             ....   68
 Basis Dimension        Dim             ....  327

ORBITAL ENERGIES
----------------

  NO   OCC          E(Eh)            E(eV)
   0   2.0000     -20.589223      -560.2612
   1   2.0000     -20.573209      -559.8255
   2   2.0000     -15.581512      -423.9945
   3   2.0000     -15.556060      -423.3019
   4   2.0000     -11.319083      -308.0079
   5   2.0000     -11.297387      -307.4175
   6   2.0000     -11.292101      -307.2737
   7   2.0000     -11.290883      -307.2405
   8   2.0000     -11.285044      -307.0817
   9   2.0000      -1.410844       -38.3910
  10   2.0000      -1.375045       -37.4169
  11   2.0000      -1.234941       -33.6045
  12   2.0000      -1.209407       -32.9096
  13   2.0000      -1.118124       -30.4257
  14   2.0000      -0.966867       -26.3098
  15   2.0000      -0.897904       -24.4332
  16   2.0000      -0.817362       -22.2416
  17   2.0000      -0.745040       -20.2736
  18   2.0000      -0.727680       -19.8012
  19   2.0000      -0.711295       -19.3553
  20   2.0000      -0.676448       -18.4071
  21   2.0000      -0.654587       -17.8122
  22   2.0000      -0.627969       -17.0879
  23   2.0000      -0.606568       -16.5055
  24   2.0000      -0.578659       -15.7461
  25   2.0000      -0.569394       -15.4940
  26   2.0000      -0.547846       -14.9076
  27   2.0000      -0.541288       -14.7292
  28   2.0000      -0.520768       -14.1708
  29   2.0000      -0.490470       -13.3464
  30   2.0000      -0.482928       -13.1411
  31   2.0000      -0.451856       -12.2956
  32   2.0000      -0.434323       -11.8185
  33   2.0000      -0.397555       -10.8180
  34   0.0000       0.113065         3.0767
  35   0.0000       0.137135         3.7316
  36   0.0000       0.143854         3.9145
  37   0.0000       0.160290         4.3617
  38   0.0000       0.174441         4.7468

MULLIKEN ATOMIC CHARGES
-----------------------
   0 N :   -0.527943
   1 C :   -0.038076
   2 C :    0.051246
   3 O :   -0.487154
   4 C :   -0.011168
   5 O :   -0.484629
   6 C :    0.160242
   7 C :   -0.307906
   8 N :   -0.041451
   9 H :    0.265292
  10 H :    0.231463
  11 H :    0.123779
  12 H :    0.103268
  13 H :    0.338894
  14 H :    0.118491
  15 H :    0.350244
  16 H :    0.155409
Sum of atomic charges:   -0.0000000

LOEWDIN ATOMIC CHARGES
----------------------
   0 N :   -0.128067
   1 C :   -0.266801
   2 C :   -0.304062
   3 O :   -0.004338
   4 C :   -0.278571
   5 O :   -0.000315
   6 C :   -0.181314
   7 C :   -0.189021
   8 N :    0.064897
   9 H :    0.168723
  10 H :    0.161092
  11 H :    0.150669
  12 H :    0.122959
  13 H :    0.183151
  14 H :    0.144346
  15 H :    0.187905
  16 H :    0.168747

  Mayer bond orders larger than 0.1
B(  0-N ,  1-C ) :   1.0742 B(  0-N ,  9-H ) :   0.8692 B(  0-N , 10-H ) :   0.8891
B(  1-C ,  2-C ) :   0.9004 B(  1-C ,  6-C ) :   0.8129 B(  1-C , 11-H ) :   0.9157
B(  2-C ,  3-O ) :   1.0350 B(  2-C ,  4-C ) :   0.8909 B(  2-C , 12-H ) :   0.9453
B(  3-O , 13-H ) :   0.8115 B(  4-C ,  5-O ) :   0.9923 B(  4-C ,  6-C ) :   0.8545
B(  4-C , 14-H ) :   0.9483 B(  5-O , 15-H ) :   0.8081 B(  6-C ,  7-C ) :   0.9174
B(  6-C , 16-H ) :   0.8953 B(  7-C ,  8-N ) :   2.8175

MP2 TOTAL ENERGY:     -454.411135221 Eh
FINAL SINGLE POINT ENERGY      -454.411135221143

DIPOLE MOMENT
-------------
                                X             Y             Z
Electronic contribution:     -3.87339       0.01350       1.46694
Nuclear contribution   :      5.02619      -0.82229      -2.13237
                        -----------------------------------------
Total Dipole Moment    :      1.15280      -0.80880      -0.66542
                        -----------------------------------------
Magnitude (a.u.)       :      1.55752
Magnitude (Debye)      :      3.95891

                             ****ORCA TERMINATED NORMALLY****
TOTAL RUN TIME: 0 days 0 hours 15 minutes 54 seconds 621 msec
