                         Program Version 3.0.3 - RELEASE   -
|  1> ! RI-MP2 RIJK def2-TZVP def2-TZVP/C def2-TZVP/JK TIGHTSCF
|  2> % maxcore 2000
|  3> % mp2 density relaxed end
|  4> *xyz 0 1
|  5>  C       -0.0190405969     1.4881893244     0.0116464945
|  6>  N        0.0134210593     0.0387113724    -0.0179231241
|  7>  C        0.0007721765    -0.7785813649    -1.1359835686
|  8>  C        0.0490462167    -2.0674894788    -0.6659768586
|  9>  N        0.0907110176    -2.0663273497     0.7291174915
| 10>  C        0.0681044191    -0.8040072513     1.0504513690
| 11>  O        0.0929797946    -0.2947692394     2.2940632234
| 12>  C        0.0563199353    -3.2577912915    -1.4290046431
| 13>  C        0.0621118930    -4.2668467779    -2.0862698476
| 14>  H        0.8640475017     1.9068265522    -0.4808160331
| 15>  H       -0.9163903539     1.8637225899    -0.4890757772
| 16>  H       -0.0315938767     1.8139436132     1.0514755542
| 17>  H       -0.0404175191    -0.3771126472    -2.1340535045
| 18>  H        0.1275850523    -1.0513215120     2.8930027254
| 19>  H        0.0672949004    -5.1589158394    -2.6613767814
| 20> *
| 21>
| 22>                          ****END OF INPUT****

CARTESIAN COORDINATES (ANGSTROEM)
---------------------------------
  C     -0.019041    1.488189    0.011646
  N      0.013421    0.038711   -0.017923
  C      0.000772   -0.778581   -1.135984
  C      0.049046   -2.067489   -0.665977
  N      0.090711   -2.066327    0.729117
  C      0.068104   -0.804007    1.050451
  O      0.092980   -0.294769    2.294063
  C      0.056320   -3.257791   -1.429005
  C      0.062112   -4.266847   -2.086270
  H      0.864048    1.906827   -0.480816
  H     -0.916390    1.863723   -0.489076
  H     -0.031594    1.813944    1.051476
  H     -0.040418   -0.377113   -2.134054
  H      0.127585   -1.051322    2.893003
  H      0.067295   -5.158916   -2.661377

 Total Charge           Charge          ....    0
 Multiplicity           Mult            ....    1
 Number of Electrons    NEL             ....   64
 Basis Dimension        Dim             ....  315

ORBITAL ENERGIES
----------------

  NO   OCC          E(Eh)            E(eV)
   0   2.0000     -20.616638      -561.0073
   1   2.0000     -15.626338      -425.2143
   2   2.0000     -15.545521      -423.0151
   3   2.0000     -11.365737      -309.2774
   4   2.0000     -11.285848      -307.1035
   5   2.0000     -11.272914      -306.7516
   6   2.0000     -11.268276      -306.6254
   7   2.0000     -11.231329      -305.6200
   8   2.0000     -11.220565      -305.3271
   9   2.0000      -1.452987       -39.5378
  10   2.0000      -1.338824       -36.4313
  11   2.0000      -1.200439       -32.6656
  12   2.0000      -1.052423       -28.6379
  13   2.0000      -1.004607       -27.3367
  14   2.0000      -0.967446       -26.3255
  15   2.0000      -0.865761       -23.5585
  16   2.0000      -0.803238       -21.8572
  17   2.0000      -0.751447       -20.4479
  18   2.0000      -0.718624       -19.5548
  19   2.0000      -0.684091       -18.6151
  20   2.0000      -0.676083       -18.3972
  21   2.0000      -0.650263       -17.6946
  22   2.0000      -0.617525       -16.8037
  23   2.0000      -0.605777       -16.4840
  24   2.0000      -0.585375       -15.9289
  25   2.0000      -0.570725       -15.5302
  26   2.0000      -0.539640       -14.6844
  27   2.0000      -0.454259       -12.3610
  28   2.0000      -0.437128       -11.8948
  29   2.0000      -0.390724       -10.6321
  30   2.0000      -0.382992       -10.4217
  31   2.0000      -0.298590        -8.1250
  32   0.0000       0.125467         3.4141
  33   0.0000       0.128707         3.5023
  34   0.0000       0.148327         4.0362
  35   0.0000       0.168074         4.5735
  36   0.0000       0.180879         4.9220

MULLIKEN ATOMIC CHARGES
-----------------------
   0 C :   -0.347519
   1 N :   -0.049849
   2 C :   -0.124864
   3 C :   -0.118260
   4 N :   -0.310600
   5 C :    0.301283
   6 O :   -0.443334
   7 C :    0.031110
   8 C :   -0.130515
   9 H :    0.155755
  10 H :    0.155694
  11 H :    0.178082
  12 H :    0.156301
  13 H :    0.357614
  14 H :    0.189102
Sum of atomic charges:    0.0000000

LOEWDIN ATOMIC CHARGES
----------------------
   0 C :   -0.264852
   1 N :    0.235870
   2 C :   -0.170487
   3 C :   -0.251725
   4 N :    0.116812
   5 C :   -0.454140
   6 O :    0.078807
   7 C :   -0.071702
   8 C :   -0.084026
   9 H :    0.125354
  10 H :    0.125663
  11 H :    0.135521
  12 H :    0.142163
  13 H :    0.210604
  14 H :    0.126137

  Mayer bond orders larger than 0.1
B(  0-C ,  1-N ) :   0.8577 B(  0-C ,  9-H ) :   0.9301 B(  0-C , 10-H ) :   0.9305
B(  0-C , 11-H ) :   0.9273 B(  1-N ,  2-C ) :   1.0797 B(  1-N ,  5-C ) :   1.1882
B(  2-C ,  3-C ) :   1.4984 B(  2-C , 12-H ) :   0.9053 B(  3-C ,  4-N ) :   1.2326
B(  3-C ,  7-C ) :   1.2165 B(  3-C ,  8-C ) :  -0.1755 B(  4-N ,  5-C ) :   1.5817
B(  5-C ,  6-O ) :   1.0922 B(  6-O , 13-H ) :   0.8103 B(  7-C ,  8-C ) :   2.6159
B(  8-C , 14-H ) :   0.8736

MP2 TOTAL ENERGY:     -416.103065150 Eh
FINAL SINGLE POINT ENERGY      -416.103065149871

DIPOLE MOMENT
-------------
                                X             Y             Z
Electronic contribution:      0.15551      -4.70394       1.32943
Nuclear contribution   :     -0.19245       6.01097      -1.37967
                        -----------------------------------------
Total Dipole Moment    :     -0.03694       1.30702      -0.05024
                        -----------------------------------------
Magnitude (a.u.)       :      1.30851
Magnitude (Debye)      :      3.32597

                             ****ORCA TERMINATED NORMALLY****
TOTAL RUN TIME: 0 days 0 hours 15 minutes 12 seconds 567 msec
