                         Program Version 3.0.3 - RELEASE   -
|  1> ! RI-MP2 RIJK def2-TZVP def2-TZVP/C def2-TZVP/JK TIGHTSCF
|  2> % maxcore 2000
|  3> % mp2 density relaxed end
|  4> *xyz 0 1
|  5>  N        0.0789415197    -1.1376088764    -0.0044143002
|  6>  C        0.0111219776     0.0174543492     0.0026440493
|  7>  C       -0.0971282865     1.4288168121     0.0117764057
|  8>  C       -1.1774142769     2.2601077629     0.0310515317
|  9>  C       -0.5872687736     3.5491009688     0.0297779799
| 10>  N        0.7230833027     3.4912172728     0.0121700461
| 11>  O        1.0456799944     2.1493733091     0.0005217915
| 12>  H       -2.2191243436     1.9890935107     0.0437053803
| 13>  H       -1.0722599137     4.5144501508     0.0414618857
| 14> *
| 15>
| 16>                          ****END OF INPUT****

CARTESIAN COORDINATES (ANGSTROEM)
---------------------------------
  N      0.078942   -1.137609   -0.004414
  C      0.011122    0.017454    0.002644
  C     -0.097128    1.428817    0.011776
  C     -1.177414    2.260108    0.031052
  C     -0.587269    3.549101    0.029778
  N      0.723083    3.491217    0.012170
  O      1.045680    2.149373    0.000522
  H     -2.219124    1.989094    0.043705
  H     -1.072260    4.514450    0.041462

 Total Charge           Charge          ....    0
 Multiplicity           Mult            ....    1
 Number of Electrons    NEL             ....   48
 Basis Dimension        Dim             ....  229

ORBITAL ENERGIES
----------------

  NO   OCC          E(Eh)            E(eV)
   0   2.0000     -20.685482      -562.8806
   1   2.0000     -15.663928      -426.2372
   2   2.0000     -15.611861      -424.8203
   3   2.0000     -11.374509      -309.5161
   4   2.0000     -11.313306      -307.8507
   5   2.0000     -11.309141      -307.7374
   6   2.0000     -11.289423      -307.2008
   7   2.0000      -1.536994       -41.8237
   8   2.0000      -1.253161       -34.1002
   9   2.0000      -1.200615       -32.6704
  10   2.0000      -1.126103       -30.6428
  11   2.0000      -0.925764       -25.1913
  12   2.0000      -0.866391       -23.5757
  13   2.0000      -0.807298       -21.9677
  14   2.0000      -0.700507       -19.0618
  15   2.0000      -0.678391       -18.4600
  16   2.0000      -0.647619       -17.6226
  17   2.0000      -0.607746       -16.5376
  18   2.0000      -0.590946       -16.0805
  19   2.0000      -0.529612       -14.4115
  20   2.0000      -0.529596       -14.4110
  21   2.0000      -0.493005       -13.4153
  22   2.0000      -0.460813       -12.5394
  23   2.0000      -0.394991       -10.7483
  24   0.0000       0.050078         1.3627
  25   0.0000       0.138782         3.7765
  26   0.0000       0.143241         3.8978
  27   0.0000       0.154607         4.2071
  28   0.0000       0.161823         4.4034

MULLIKEN ATOMIC CHARGES
-----------------------
   0 N :   -0.032955
   1 C :   -0.170734
   2 C :    0.295902
   3 C :   -0.181607
   4 C :   -0.069994
   5 N :   -0.096943
   6 O :   -0.084658
   7 H :    0.175703
   8 H :    0.165285
Sum of atomic charges:    0.0000000

LOEWDIN ATOMIC CHARGES
----------------------
   0 N :    0.107373
   1 C :   -0.142557
   2 C :   -0.272647
   3 C :   -0.128774
   4 C :   -0.244141
   5 N :    0.053698
   6 O :    0.320852
   7 H :    0.157446
   8 H :    0.148750

  Mayer bond orders larger than 0.1
B(  0-N ,  1-C ) :   2.8054 B(  1-C ,  2-C ) :   0.9128 B(  2-C ,  3-C ) :   1.4552
B(  2-C ,  6-O ) :   1.1000 B(  3-C ,  4-C ) :   1.2509 B(  3-C ,  7-H ) :   0.9074
B(  4-C ,  5-N ) :   1.5575 B(  4-C ,  8-H ) :   0.9217 B(  5-N ,  6-O ) :   0.9046

MP2 TOTAL ENERGY:     -337.661965046 Eh
FINAL SINGLE POINT ENERGY      -337.661965045956

DIPOLE MOMENT
-------------
                                X             Y             Z
Electronic contribution:      1.96104      -1.89548      -0.03678
Nuclear contribution   :     -3.11690       2.88967       0.05758
                        -----------------------------------------
Total Dipole Moment    :     -1.15586       0.99419       0.02079
                        -----------------------------------------
Magnitude (a.u.)       :      1.52475
Magnitude (Debye)      :      3.87560

                             ****ORCA TERMINATED NORMALLY****
TOTAL RUN TIME: 0 days 0 hours 5 minutes 30 seconds 553 msec
