                         Program Version 3.0.3 - RELEASE   -
|  1> ! RI-MP2 RIJK def2-TZVP def2-TZVP/C def2-TZVP/JK TIGHTSCF
|  2> % maxcore 2000
|  3> % mp2 density relaxed end
|  4> *xyz 0 1
|  5>  C        0.0232359669     1.5247618558    -0.0316368067
|  6>  C        0.0779628069    -0.0039220807     0.0948643573
|  7>  C        0.7381780717    -0.4267663304     1.4140955449
|  8>  C       -1.3210551206    -0.6126176382    -0.0351039447
|  9>  C       -2.0801266455    -0.5243401427    -1.4057370689
| 10>  C       -2.2779149101    -2.0497317990    -1.3842367782
| 11>  C       -3.5374709816    -2.7493343804    -1.8070786786
| 12>  C       -0.9312233982    -2.7159426028    -1.3570905218
| 13>  C       -1.4832789163    -2.1408105393    -0.0760134232
| 14>  H        1.0256726591     1.9628722217     0.0186406509
| 15>  H       -0.4303878232     1.8350909201    -0.9784965515
| 16>  H       -0.5703195829     1.9625783142     0.7803011024
| 17>  H        0.6955498259    -0.3875871729    -0.7293115354
| 18>  H        0.1617374157    -0.0633047049     2.2738885969
| 19>  H        0.8065199408    -1.5162749201     1.4941794376
| 20>  H        1.7511417423    -0.0194119858     1.5000987054
| 21>  H       -1.9553289012    -0.1958337120     0.7569084672
| 22>  H       -3.0163150009     0.0354284992    -1.3344296217
| 23>  H       -1.5092227866    -0.1341388839    -2.2564649393
| 24>  H       -3.6679306109    -2.7123387793    -2.8960234496
| 25>  H       -3.5229219935    -3.8045350728    -1.5141053887
| 26>  H       -4.4233898167    -2.2886092672    -1.3540323635
| 27>  H       -0.9511383848    -3.8004863435    -1.4128833096
| 28>  H       -0.0728686448    -2.2684692982    -1.8534378545
| 29>  H       -1.6707651115    -2.7734542968     0.7847466233
| 30> *
| 31>
| 32>                          ****END OF INPUT****

CARTESIAN COORDINATES (ANGSTROEM)
---------------------------------
  C      0.023236    1.524762   -0.031637
  C      0.077963   -0.003922    0.094864
  C      0.738178   -0.426766    1.414096
  C     -1.321055   -0.612618   -0.035104
  C     -2.080127   -0.524340   -1.405737
  C     -2.277915   -2.049732   -1.384237
  C     -3.537471   -2.749334   -1.807079
  C     -0.931223   -2.715943   -1.357091
  C     -1.483279   -2.140811   -0.076013
  H      1.025673    1.962872    0.018641
  H     -0.430388    1.835091   -0.978497
  H     -0.570320    1.962578    0.780301
  H      0.695550   -0.387587   -0.729312
  H      0.161737   -0.063305    2.273889
  H      0.806520   -1.516275    1.494179
  H      1.751142   -0.019412    1.500099
  H     -1.955329   -0.195834    0.756908
  H     -3.016315    0.035428   -1.334430
  H     -1.509223   -0.134139   -2.256465
  H     -3.667931   -2.712339   -2.896023
  H     -3.522922   -3.804535   -1.514105
  H     -4.423390   -2.288609   -1.354032
  H     -0.951138   -3.800486   -1.412883
  H     -0.072869   -2.268469   -1.853438
  H     -1.670765   -2.773454    0.784747

 Total Charge           Charge          ....    0
 Multiplicity           Mult            ....    1
 Number of Electrons    NEL             ....   70
 Basis Dimension        Dim             ....  375

ORBITAL ENERGIES
----------------

  NO   OCC          E(Eh)            E(eV)
   0   2.0000     -11.230575      -305.5995
   1   2.0000     -11.222448      -305.3783
   2   2.0000     -11.220778      -305.3329
   3   2.0000     -11.218402      -305.2682
   4   2.0000     -11.218039      -305.2584
   5   2.0000     -11.216475      -305.2158
   6   2.0000     -11.214849      -305.1715
   7   2.0000     -11.207090      -304.9604
   8   2.0000     -11.206071      -304.9327
   9   2.0000      -1.186322       -32.2815
  10   2.0000      -1.069425       -29.1005
  11   2.0000      -0.975489       -26.5444
  12   2.0000      -0.962001       -26.1774
  13   2.0000      -0.922622       -25.1058
  14   2.0000      -0.867799       -23.6140
  15   2.0000      -0.809806       -22.0359
  16   2.0000      -0.746082       -20.3019
  17   2.0000      -0.704921       -19.1819
  18   2.0000      -0.665693       -18.1144
  19   2.0000      -0.615286       -16.7428
  20   2.0000      -0.601997       -16.3812
  21   2.0000      -0.597528       -16.2596
  22   2.0000      -0.568390       -15.4667
  23   2.0000      -0.553738       -15.0680
  24   2.0000      -0.545807       -14.8522
  25   2.0000      -0.528599       -14.3839
  26   2.0000      -0.526219       -14.3191
  27   2.0000      -0.520703       -14.1691
  28   2.0000      -0.495201       -13.4751
  29   2.0000      -0.485172       -13.2022
  30   2.0000      -0.458642       -12.4803
  31   2.0000      -0.434119       -11.8130
  32   2.0000      -0.432153       -11.7595
  33   2.0000      -0.393655       -10.7119
  34   2.0000      -0.357907        -9.7392
  35   0.0000       0.136951         3.7266
  36   0.0000       0.148225         4.0334
  37   0.0000       0.159643         4.3441
  38   0.0000       0.170073         4.6279
  39   0.0000       0.188422         5.1272

MULLIKEN ATOMIC CHARGES
-----------------------
   0 C :   -0.394359
   1 C :   -0.027019
   2 C :   -0.413538
   3 C :   -0.093345
   4 C :   -0.249328
   5 C :    0.101170
   6 C :   -0.419768
   7 C :   -0.302428
   8 C :   -0.121174
   9 H :    0.130005
  10 H :    0.130763
  11 H :    0.119196
  12 H :    0.067191
  13 H :    0.118699
  14 H :    0.137713
  15 H :    0.129559
  16 H :    0.091823
  17 H :    0.118737
  18 H :    0.111259
  19 H :    0.132698
  20 H :    0.126801
  21 H :    0.126626
  22 H :    0.125741
  23 H :    0.126541
  24 H :    0.126439
Sum of atomic charges:   -0.0000000

LOEWDIN ATOMIC CHARGES
----------------------
   0 C :   -0.292969
   1 C :   -0.293581
   2 C :   -0.291756
   3 C :   -0.190421
   4 C :   -0.169718
   5 C :   -0.228185
   6 C :   -0.277946
   7 C :   -0.192466
   8 C :   -0.151164
   9 H :    0.122104
  10 H :    0.122458
  11 H :    0.122654
  12 H :    0.149467
  13 H :    0.122630
  14 H :    0.124799
  15 H :    0.121901
  16 H :    0.153796
  17 H :    0.134137
  18 H :    0.130003
  19 H :    0.127993
  20 H :    0.128703
  21 H :    0.125808
  22 H :    0.139375
  23 H :    0.128822
  24 H :    0.133556

  Mayer bond orders larger than 0.1
B(  0-C ,  1-C ) :   0.9147 B(  0-C ,  9-H ) :   0.9406 B(  0-C , 10-H ) :   0.9398
B(  0-C , 11-H ) :   0.9325 B(  1-C ,  2-C ) :   0.9193 B(  1-C ,  3-C ) :   0.9152
B(  1-C , 12-H ) :   0.9160 B(  2-C , 13-H ) :   0.9323 B(  2-C , 14-H ) :   0.9396
B(  2-C , 15-H ) :   0.9407 B(  3-C ,  4-C ) :   0.9725 B(  3-C ,  8-C ) :   0.9385
B(  3-C , 16-H ) :   0.9172 B(  4-C ,  5-C ) :   0.9272 B(  4-C , 17-H ) :   0.9258
B(  4-C , 18-H ) :   0.9103 B(  5-C ,  6-C ) :   0.8983 B(  5-C ,  7-C ) :   0.8948
B(  5-C ,  8-C ) :   0.8091 B(  6-C , 19-H ) :   0.9405 B(  6-C , 20-H ) :   0.9383
B(  6-C , 21-H ) :   0.9416 B(  7-C ,  8-C ) :   0.8636 B(  7-C , 22-H ) :   0.9303
B(  7-C , 23-H ) :   0.9147 B(  8-C , 24-H ) :   0.9221

MP2 TOTAL ENERGY:     -351.692111678 Eh
FINAL SINGLE POINT ENERGY      -351.692111677838

DIPOLE MOMENT
-------------
                                X             Y             Z
Electronic contribution:     -1.60571      -2.55916      -1.18588
Nuclear contribution   :      1.49827       2.50927       1.17224
                        -----------------------------------------
Total Dipole Moment    :     -0.10745      -0.04989      -0.01363
                        -----------------------------------------
Magnitude (a.u.)       :      0.11925
Magnitude (Debye)      :      0.30311

                             ****ORCA TERMINATED NORMALLY****
TOTAL RUN TIME: 0 days 0 hours 25 minutes 27 seconds 197 msec
