                         Program Version 3.0.3 - RELEASE   -
|  1> ! RI-MP2 RIJK def2-TZVP def2-TZVP/C def2-TZVP/JK TIGHTSCF
|  2> % maxcore 2000
|  3> % mp2 density relaxed end
|  4> *xyz 0 1
|  5>  C       -1.3383381592     0.9217325475     0.4240001316
|  6>  C       -0.1169597267     0.1806382168    -0.0423751050
|  7>  N        0.9177047280    -0.0597435459     0.6670591577
|  8>  O        0.7973737836     0.4377544636     1.9662535260
|  9>  C       -0.0940895055    -0.3096214019    -1.4791036636
| 10>  O       -0.2542158721     0.7797049814    -2.3767476682
| 11>  C        1.1529291555    -1.1542976049    -1.8114994351
| 12>  C        1.1277940276    -1.6428359671    -3.1874799541
| 13>  N        1.1135235878    -2.0436467294    -4.2707995657
| 14>  H       -1.9748081809     0.2627482275     1.0262653474
| 15>  H       -1.0575025605     1.7632915265     1.0610255725
| 16>  H       -1.9126848872     1.2815573239    -0.4307128362
| 17>  H        1.6442097706     0.1999677175     2.3595282005
| 18>  H       -0.9859705348    -0.9262272571    -1.6456268982
| 19>  H        0.4881826044     1.3826078542    -2.2500286085
| 20>  H        2.0582308372    -0.5598140734    -1.6512938831
| 21>  H        1.2211070723    -2.0035120792    -1.1254791879
| 22> *
| 23>
| 24>                          ****END OF INPUT****

CARTESIAN COORDINATES (ANGSTROEM)
---------------------------------
  C     -1.338338    0.921733    0.424000
  C     -0.116960    0.180638   -0.042375
  N      0.917705   -0.059744    0.667059
  O      0.797374    0.437754    1.966254
  C     -0.094090   -0.309621   -1.479104
  O     -0.254216    0.779705   -2.376748
  C      1.152929   -1.154298   -1.811499
  C      1.127794   -1.642836   -3.187480
  N      1.113524   -2.043647   -4.270800
  H     -1.974808    0.262748    1.026265
  H     -1.057503    1.763292    1.061026
  H     -1.912685    1.281557   -0.430713
  H      1.644210    0.199968    2.359528
  H     -0.985971   -0.926227   -1.645627
  H      0.488183    1.382608   -2.250029
  H      2.058231   -0.559814   -1.651294
  H      1.221107   -2.003512   -1.125479

 Total Charge           Charge          ....    0
 Multiplicity           Mult            ....    1
 Number of Electrons    NEL             ....   68
 Basis Dimension        Dim             ....  327

ORBITAL ENERGIES
----------------

  NO   OCC          E(Eh)            E(eV)
   0   2.0000     -20.613284      -560.9160
   1   2.0000     -20.587121      -560.2040
   2   2.0000     -15.639468      -425.5716
   3   2.0000     -15.566837      -423.5952
   4   2.0000     -11.327311      -308.2318
   5   2.0000     -11.301592      -307.5320
   6   2.0000     -11.285669      -307.0987
   7   2.0000     -11.271531      -306.7140
   8   2.0000     -11.243561      -305.9529
   9   2.0000      -1.444175       -39.2980
  10   2.0000      -1.396272       -37.9945
  11   2.0000      -1.216524       -33.1033
  12   2.0000      -1.192148       -32.4400
  13   2.0000      -1.069947       -29.1147
  14   2.0000      -1.006159       -27.3790
  15   2.0000      -0.924168       -25.1479
  16   2.0000      -0.788466       -21.4553
  17   2.0000      -0.727487       -19.7959
  18   2.0000      -0.703925       -19.1548
  19   2.0000      -0.685497       -18.6533
  20   2.0000      -0.678775       -18.4704
  21   2.0000      -0.667314       -18.1585
  22   2.0000      -0.626834       -17.0570
  23   2.0000      -0.604701       -16.4547
  24   2.0000      -0.588123       -16.0036
  25   2.0000      -0.571239       -15.5442
  26   2.0000      -0.561680       -15.2841
  27   2.0000      -0.551954       -15.0194
  28   2.0000      -0.525200       -14.2914
  29   2.0000      -0.499658       -13.5964
  30   2.0000      -0.466973       -12.7070
  31   2.0000      -0.457404       -12.4466
  32   2.0000      -0.442337       -12.0366
  33   2.0000      -0.408110       -11.1052
  34   0.0000       0.109378         2.9763
  35   0.0000       0.132127         3.5954
  36   0.0000       0.143827         3.9137
  37   0.0000       0.149726         4.0743
  38   0.0000       0.158142         4.3033

MULLIKEN ATOMIC CHARGES
-----------------------
   0 C :   -0.427313
   1 C :    0.044461
   2 N :   -0.107981
   3 O :   -0.369068
   4 C :    0.087916
   5 O :   -0.451993
   6 C :   -0.174011
   7 C :   -0.147767
   8 N :   -0.051351
   9 H :    0.154883
  10 H :    0.161255
  11 H :    0.166638
  12 H :    0.341043
  13 H :    0.123191
  14 H :    0.319920
  15 H :    0.163149
  16 H :    0.167028
Sum of atomic charges:    0.0000000

LOEWDIN ATOMIC CHARGES
----------------------
   0 C :   -0.279738
   1 C :   -0.293048
   2 N :    0.025103
   3 O :   -0.060507
   4 C :   -0.305772
   5 O :    0.006376
   6 C :   -0.235044
   7 C :   -0.192597
   8 N :    0.058819
   9 H :    0.142253
  10 H :    0.139055
  11 H :    0.139430
  12 H :    0.173386
  13 H :    0.162278
  14 H :    0.182600
  15 H :    0.166132
  16 H :    0.171274

  Mayer bond orders larger than 0.1
B(  0-C ,  1-C ) :   0.9310 B(  0-C ,  9-H ) :   0.9157 B(  0-C , 10-H ) :   0.9227
B(  0-C , 11-H ) :   0.9302 B(  1-C ,  2-N ) :   1.7811 B(  1-C ,  4-C ) :   0.9713
B(  2-N ,  3-O ) :   0.8239 B(  3-O , 12-H ) :   0.8426 B(  4-C ,  5-O ) :   0.8668
B(  4-C ,  6-C ) :   0.9118 B(  4-C , 13-H ) :   0.9216 B(  5-O , 14-H ) :   0.8377
B(  6-C ,  7-C ) :   0.9216 B(  6-C , 15-H ) :   0.8992 B(  6-C , 16-H ) :   0.9063
B(  7-C ,  8-N ) :   2.8878

MP2 TOTAL ENERGY:     -454.382835721 Eh
FINAL SINGLE POINT ENERGY      -454.382835721106

DIPOLE MOMENT
-------------
                                X             Y             Z
Electronic contribution:      3.35453      -2.58364      -3.44525
Nuclear contribution   :     -3.14178       3.24312       5.31163
                        -----------------------------------------
Total Dipole Moment    :      0.21275       0.65948       1.86638
                        -----------------------------------------
Magnitude (a.u.)       :      1.99086
Magnitude (Debye)      :      5.06037

                             ****ORCA TERMINATED NORMALLY****
TOTAL RUN TIME: 0 days 0 hours 14 minutes 15 seconds 692 msec
