                         Program Version 3.0.3 - RELEASE   -
|  1> ! RI-MP2 RIJK def2-TZVP def2-TZVP/C def2-TZVP/JK TIGHTSCF
|  2> % maxcore 2000
|  3> % mp2 density relaxed end
|  4> *xyz 0 1
|  5>  C       -0.0352923054    -1.2390948979    -0.0894191640
|  6>  C       -0.0433481266    -0.0386196984    -0.0260923484
|  7>  C       -0.0176392941     1.4169458133     0.0502336110
|  8>  C        1.4098071707     1.9994447441    -0.0190178675
|  9>  C        1.4409574265     3.5277960810     0.0482778384
| 10>  C        0.9260824298     4.1395442621     1.3836361539
| 11>  C        1.8052883080     5.3521420701     1.5762630689
| 12>  C        2.8495634143     5.3490414635     0.7501661916
| 13>  C        2.8599053430     4.1332540553    -0.1443927049
| 14>  H       -0.0410233844    -2.2992262227    -0.1442513049
| 15>  H       -0.6204664300     1.8364002917    -0.7665519097
| 16>  H       -0.5034910311     1.7389783485     0.9800539962
| 17>  H        2.0060671594     1.5811958082     0.8014840350
| 18>  H        1.8814276320     1.6588535794    -0.9482086063
| 19>  H        0.8067134743     3.9212353285    -0.7569804424
| 20>  H       -0.1411377856     4.3868720658     1.3486654826
| 21>  H        1.0493662736     3.4358611104     2.2215468287
| 22>  H        1.6062335061     6.1029506566     2.3332618765
| 23>  H        3.6347947061     6.0969362660     0.7295111546
| 24>  H        3.6436195012     3.4276392521     0.1710415597
| 25>  H        3.0691799721     4.3696032923    -1.1941480991
| 26> *
| 27>
| 28>                          ****END OF INPUT****

CARTESIAN COORDINATES (ANGSTROEM)
---------------------------------
  C     -0.035292   -1.239095   -0.089419
  C     -0.043348   -0.038620   -0.026092
  C     -0.017639    1.416946    0.050234
  C      1.409807    1.999445   -0.019018
  C      1.440957    3.527796    0.048278
  C      0.926082    4.139544    1.383636
  C      1.805288    5.352142    1.576263
  C      2.849563    5.349041    0.750166
  C      2.859905    4.133254   -0.144393
  H     -0.041023   -2.299226   -0.144251
  H     -0.620466    1.836400   -0.766552
  H     -0.503491    1.738978    0.980054
  H      2.006067    1.581196    0.801484
  H      1.881428    1.658854   -0.948209
  H      0.806713    3.921235   -0.756980
  H     -0.141138    4.386872    1.348665
  H      1.049366    3.435861    2.221547
  H      1.606234    6.102951    2.333262
  H      3.634795    6.096936    0.729511
  H      3.643620    3.427639    0.171042
  H      3.069180    4.369603   -1.194148

 Total Charge           Charge          ....    0
 Multiplicity           Mult            ....    1
 Number of Electrons    NEL             ....   66
 Basis Dimension        Dim             ....  351

ORBITAL ENERGIES
----------------

  NO   OCC          E(Eh)            E(eV)
   0   2.0000     -11.250053      -306.1295
   1   2.0000     -11.231070      -305.6129
   2   2.0000     -11.230305      -305.5921
   3   2.0000     -11.228674      -305.5478
   4   2.0000     -11.225279      -305.4554
   5   2.0000     -11.224377      -305.4308
   6   2.0000     -11.223597      -305.4096
   7   2.0000     -11.221920      -305.3640
   8   2.0000     -11.216118      -305.2061
   9   2.0000      -1.140083       -31.0232
  10   2.0000      -1.080806       -29.4102
  11   2.0000      -1.012901       -27.5624
  12   2.0000      -0.960329       -26.1319
  13   2.0000      -0.950670       -25.8691
  14   2.0000      -0.862432       -23.4680
  15   2.0000      -0.768688       -20.9171
  16   2.0000      -0.731420       -19.9030
  17   2.0000      -0.714705       -19.4481
  18   2.0000      -0.676358       -18.4046
  19   2.0000      -0.645620       -17.5682
  20   2.0000      -0.623879       -16.9766
  21   2.0000      -0.607058       -16.5189
  22   2.0000      -0.553439       -15.0599
  23   2.0000      -0.547484       -14.8978
  24   2.0000      -0.535617       -14.5749
  25   2.0000      -0.523169       -14.2361
  26   2.0000      -0.492935       -13.4134
  27   2.0000      -0.478113       -13.0101
  28   2.0000      -0.469929       -12.7874
  29   2.0000      -0.455750       -12.4016
  30   2.0000      -0.382136       -10.3985
  31   2.0000      -0.380511       -10.3542
  32   2.0000      -0.345108        -9.3909
  33   0.0000       0.132005         3.5920
  34   0.0000       0.156350         4.2545
  35   0.0000       0.158998         4.3266
  36   0.0000       0.161819         4.4033
  37   0.0000       0.167274         4.5518

MULLIKEN ATOMIC CHARGES
-----------------------
   0 C :   -0.122015
   1 C :   -0.005246
   2 C :   -0.395504
   3 C :   -0.248886
   4 C :   -0.036945
   5 C :   -0.219405
   6 C :   -0.165892
   7 C :   -0.178389
   8 C :   -0.169193
   9 H :    0.188532
  10 H :    0.140266
  11 H :    0.148521
  12 H :    0.123365
  13 H :    0.127399
  14 H :    0.090733
  15 H :    0.124468
  16 H :    0.113691
  17 H :    0.125806
  18 H :    0.125190
  19 H :    0.112371
  20 H :    0.121131
Sum of atomic charges:    0.0000000

LOEWDIN ATOMIC CHARGES
----------------------
   0 C :   -0.111609
   1 C :   -0.112376
   2 C :   -0.247391
   3 C :   -0.235929
   4 C :   -0.226307
   5 C :   -0.224941
   6 C :   -0.165137
   7 C :   -0.164724
   8 C :   -0.220172
   9 H :    0.125303
  10 H :    0.156552
  11 H :    0.157181
  12 H :    0.143134
  13 H :    0.144545
  14 H :    0.154014
  15 H :    0.135828
  16 H :    0.142189
  17 H :    0.135341
  18 H :    0.135326
  19 H :    0.142597
  20 H :    0.136576

  Mayer bond orders larger than 0.1
B(  0-C ,  1-C ) :   2.6107 B(  0-C ,  2-C ) :  -0.1252 B(  0-C ,  9-H ) :   0.8952
B(  1-C ,  2-C ) :   1.1296 B(  2-C ,  3-C ) :   0.9304 B(  2-C , 10-H ) :   0.9181
B(  2-C , 11-H ) :   0.9274 B(  3-C ,  4-C ) :   0.9273 B(  3-C , 12-H ) :   0.9184
B(  3-C , 13-H ) :   0.9344 B(  4-C ,  5-C ) :   0.9175 B(  4-C ,  8-C ) :   0.9324
B(  4-C , 14-H ) :   0.9292 B(  5-C ,  6-C ) :   0.9357 B(  5-C , 15-H ) :   0.9249
B(  5-C , 16-H ) :   0.9065 B(  6-C ,  7-C ) :   1.7971 B(  6-C , 17-H ) :   0.9301
B(  7-C ,  8-C ) :   0.9461 B(  7-C , 18-H ) :   0.9300 B(  8-C , 19-H ) :   0.9093
B(  8-C , 20-H ) :   0.9227

MP2 TOTAL ENERGY:     -349.275001010 Eh
FINAL SINGLE POINT ENERGY      -349.275001010212

DIPOLE MOMENT
-------------
                                X             Y             Z
Electronic contribution:     -1.16805      -2.61824      -0.06897
Nuclear contribution   :      1.23542       2.87163       0.05840
                        -----------------------------------------
Total Dipole Moment    :      0.06737       0.25338      -0.01057
                        -----------------------------------------
Magnitude (a.u.)       :      0.26240
Magnitude (Debye)      :      0.66696

                             ****ORCA TERMINATED NORMALLY****
TOTAL RUN TIME: 0 days 0 hours 15 minutes 39 seconds 120 msec
