                         Program Version 3.0.3 - RELEASE   -
|  1> ! RI-MP2 RIJK def2-TZVP def2-TZVP/C def2-TZVP/JK TIGHTSCF
|  2> % maxcore 2000
|  3> % mp2 density relaxed end
|  4> *xyz 0 1
|  5>  N       -0.1045591248    -1.1552774805     0.0357057648
|  6>  C       -0.0608126013     0.0013004838     0.0318470503
|  7>  C       -0.0008406867     1.4351320489     0.0264421016
|  8>  C        0.5002898949     2.1677539521     1.2648976702
|  9>  C        1.3550955908     2.1433740338     0.0340429170
| 10>  C        2.6297262110     1.3666344248    -0.0130826167
| 11>  C        3.4627643392     1.3537379672    -1.2708912532
| 12>  C        3.9522671215     2.0940824656    -0.0518231624
| 13>  H       -0.7988148487     1.9059686092    -0.5374038848
| 14>  H       -0.0174856305     3.0804411248     1.5363209062
| 15>  H        0.8066362846     1.5527018316     2.1035173871
| 16>  H        1.3660689565     3.0570306262    -0.5551162142
| 17>  H        2.6083160080     0.4397158600     0.5524957577
| 18>  H        3.9529207775     0.4278294197    -1.5486725685
| 19>  H        3.1147993192     1.9413473106    -2.1142013517
| 20>  H        3.9338602307     3.1788134432    -0.0754422617
| 21>  H        4.7807859381     1.6780428790     0.5101603884
| 22> *
| 23>
| 24>                          ****END OF INPUT****

CARTESIAN COORDINATES (ANGSTROEM)
---------------------------------
  N     -0.104559   -1.155277    0.035706
  C     -0.060813    0.001300    0.031847
  C     -0.000841    1.435132    0.026442
  C      0.500290    2.167754    1.264898
  C      1.355096    2.143374    0.034043
  C      2.629726    1.366634   -0.013083
  C      3.462764    1.353738   -1.270891
  C      3.952267    2.094082   -0.051823
  H     -0.798815    1.905969   -0.537404
  H     -0.017486    3.080441    1.536321
  H      0.806636    1.552702    2.103517
  H      1.366069    3.057031   -0.555116
  H      2.608316    0.439716    0.552496
  H      3.952921    0.427829   -1.548673
  H      3.114799    1.941347   -2.114201
  H      3.933860    3.178813   -0.075442
  H      4.780786    1.678043    0.510160

 Total Charge           Charge          ....    0
 Multiplicity           Mult            ....    1
 Number of Electrons    NEL             ....   58
 Basis Dimension        Dim             ....  302

ORBITAL ENERGIES
----------------

  NO   OCC          E(Eh)            E(eV)
   0   2.0000     -15.562467      -423.4762
   1   2.0000     -11.281974      -306.9981
   2   2.0000     -11.269873      -306.6688
   3   2.0000     -11.268937      -306.6434
   4   2.0000     -11.258849      -306.3688
   5   2.0000     -11.246317      -306.0278
   6   2.0000     -11.235192      -305.7251
   7   2.0000     -11.233507      -305.6793
   8   2.0000      -1.219832       -33.1933
   9   2.0000      -1.183579       -32.2068
  10   2.0000      -1.136373       -30.9223
  11   2.0000      -0.922943       -25.1146
  12   2.0000      -0.883061       -24.0293
  13   2.0000      -0.831155       -22.6169
  14   2.0000      -0.799756       -21.7625
  15   2.0000      -0.710760       -19.3408
  16   2.0000      -0.701694       -19.0941
  17   2.0000      -0.643025       -17.4976
  18   2.0000      -0.621698       -16.9173
  19   2.0000      -0.575331       -15.6556
  20   2.0000      -0.548456       -14.9243
  21   2.0000      -0.530719       -14.4416
  22   2.0000      -0.522690       -14.2231
  23   2.0000      -0.516288       -14.0489
  24   2.0000      -0.506098       -13.7716
  25   2.0000      -0.456094       -12.4110
  26   2.0000      -0.441414       -12.0115
  27   2.0000      -0.411282       -11.1916
  28   2.0000      -0.390187       -10.6175
  29   0.0000       0.130148         3.5415
  30   0.0000       0.146922         3.9980
  31   0.0000       0.155087         4.2201
  32   0.0000       0.157038         4.2732
  33   0.0000       0.179117         4.8740

MULLIKEN ATOMIC CHARGES
-----------------------
   0 N :   -0.063092
   1 C :   -0.219554
   2 C :   -0.003647
   3 C :   -0.245125
   4 C :   -0.103322
   5 C :   -0.092141
   6 C :   -0.258651
   7 C :   -0.262988
   8 H :    0.156636
   9 H :    0.147354
  10 H :    0.147684
  11 H :    0.130562
  12 H :    0.138991
  13 H :    0.137703
  14 H :    0.127861
  15 H :    0.127015
  16 H :    0.134715
Sum of atomic charges:   -0.0000000

LOEWDIN ATOMIC CHARGES
----------------------
   0 N :    0.056792
   1 C :   -0.181186
   2 C :   -0.189676
   3 C :   -0.168839
   4 C :   -0.171153
   5 C :   -0.208491
   6 C :   -0.219081
   7 C :   -0.221545
   8 H :    0.168439
   9 H :    0.137562
  10 H :    0.145694
  11 H :    0.158747
  12 H :    0.158938
  13 H :    0.134339
  14 H :    0.133473
  15 H :    0.133176
  16 H :    0.132812

  Mayer bond orders larger than 0.1
B(  0-N ,  1-C ) :   2.8522 B(  1-C ,  2-C ) :   0.9770 B(  2-C ,  3-C ) :   0.8523
B(  2-C ,  4-C ) :   0.8351 B(  2-C ,  8-H ) :   0.9089 B(  3-C ,  4-C ) :   0.8862
B(  3-C ,  9-H ) :   0.9262 B(  3-C , 10-H ) :   0.9240 B(  4-C ,  5-C ) :   0.9463
B(  4-C , 11-H ) :   0.9102 B(  5-C ,  6-C ) :   0.8884 B(  5-C ,  7-C ) :   0.8843
B(  5-C , 12-H ) :   0.9063 B(  6-C ,  7-C ) :   0.9082 B(  6-C , 13-H ) :   0.9276
B(  6-C , 14-H ) :   0.9297 B(  7-C , 15-H ) :   0.9264 B(  7-C , 16-H ) :   0.9270

MP2 TOTAL ENERGY:     -326.118892620 Eh
FINAL SINGLE POINT ENERGY      -326.118892620343

DIPOLE MOMENT
-------------
                                X             Y             Z
Electronic contribution:     -5.49944      -4.49860       0.23134
Nuclear contribution   :      5.86003       6.08954      -0.16974
                        -----------------------------------------
Total Dipole Moment    :      0.36059       1.59094       0.06160
                        -----------------------------------------
Magnitude (a.u.)       :      1.63246
Magnitude (Debye)      :      4.14938

                             ****ORCA TERMINATED NORMALLY****
TOTAL RUN TIME: 0 days 0 hours 12 minutes 53 seconds 515 msec
