                         Program Version 3.0.3 - RELEASE   -
|  1> ! RI-MP2 RIJK def2-TZVP def2-TZVP/C def2-TZVP/JK TIGHTSCF
|  2> % maxcore 2000
|  3> % mp2 density relaxed end
|  4> *xyz 0 1
|  5>  N        0.1156634800    -1.1863295567    -0.1321846956
|  6>  C        0.0346263064    -0.0387835103    -0.0240175963
|  7>  C       -0.0314266245     1.4151966512     0.1094701419
|  8>  C        1.3607914540     2.0482344037     0.0252211092
|  9>  C        2.1397040581     2.0013839243    -1.3149845774
| 10>  C        2.6157561787     3.4543485068    -1.0582056540
| 11>  C        1.4787493381     3.6171521241     0.0084771941
| 12>  C        0.2963541785     4.2958590375    -0.4991201801
| 13>  N       -0.6525246206     4.8141597701    -0.9105728742
| 14>  H       -0.6810590004     1.8161111401    -0.6764996165
| 15>  H       -0.5081191884     1.6598371247     1.0661140931
| 16>  H        1.9824892510     1.6702479117     0.8410404637
| 17>  H        2.9006096292     1.2274824936    -1.4209033577
| 18>  H        1.4606718317     1.9454143731    -2.1706693216
| 19>  H        3.5957657342     3.4986461193    -0.5789277852
| 20>  H        2.5960822596     4.1501804918    -1.8968545806
| 21>  H        1.7677787642     4.0769599549     0.9564691573
| 22> *
| 23>
| 24>                          ****END OF INPUT****

CARTESIAN COORDINATES (ANGSTROEM)
---------------------------------
  N      0.115663   -1.186330   -0.132185
  C      0.034626   -0.038784   -0.024018
  C     -0.031427    1.415197    0.109470
  C      1.360791    2.048234    0.025221
  C      2.139704    2.001384   -1.314985
  C      2.615756    3.454349   -1.058206
  C      1.478749    3.617152    0.008477
  C      0.296354    4.295859   -0.499120
  N     -0.652525    4.814160   -0.910573
  H     -0.681059    1.816111   -0.676500
  H     -0.508119    1.659837    1.066114
  H      1.982489    1.670248    0.841040
  H      2.900610    1.227482   -1.420903
  H      1.460672    1.945414   -2.170669
  H      3.595766    3.498646   -0.578928
  H      2.596082    4.150180   -1.896855
  H      1.767779    4.076960    0.956469

 Total Charge           Charge          ....    0
 Multiplicity           Mult            ....    1
 Number of Electrons    NEL             ....   64
 Basis Dimension        Dim             ....  327

ORBITAL ENERGIES
----------------

  NO   OCC          E(Eh)            E(eV)
   0   2.0000     -15.583126      -424.0384
   1   2.0000     -15.576743      -423.8647
   2   2.0000     -11.301465      -307.5285
   3   2.0000     -11.294108      -307.3283
   4   2.0000     -11.286838      -307.1305
   5   2.0000     -11.286031      -307.1085
   6   2.0000     -11.281146      -306.9756
   7   2.0000     -11.267245      -306.5973
   8   2.0000     -11.256859      -306.3147
   9   2.0000      -1.237117       -33.6637
  10   2.0000      -1.226635       -33.3784
  11   2.0000      -1.182427       -32.1755
  12   2.0000      -1.065174       -28.9849
  13   2.0000      -0.980597       -26.6834
  14   2.0000      -0.910964       -24.7886
  15   2.0000      -0.824736       -22.4422
  16   2.0000      -0.729939       -19.8627
  17   2.0000      -0.699975       -19.0473
  18   2.0000      -0.695702       -18.9310
  19   2.0000      -0.647140       -17.6096
  20   2.0000      -0.627256       -17.0685
  21   2.0000      -0.575849       -15.6696
  22   2.0000      -0.572252       -15.5718
  23   2.0000      -0.569667       -15.5014
  24   2.0000      -0.550415       -14.9775
  25   2.0000      -0.519195       -14.1280
  26   2.0000      -0.515416       -14.0252
  27   2.0000      -0.497386       -13.5346
  28   2.0000      -0.474269       -12.9055
  29   2.0000      -0.466836       -12.7033
  30   2.0000      -0.453478       -12.3398
  31   2.0000      -0.447228       -12.1697
  32   0.0000       0.105217         2.8631
  33   0.0000       0.124957         3.4003
  34   0.0000       0.135806         3.6955
  35   0.0000       0.145373         3.9558
  36   0.0000       0.160292         4.3618

MULLIKEN ATOMIC CHARGES
-----------------------
   0 N :   -0.053822
   1 C :   -0.168390
   2 C :   -0.168219
   3 C :   -0.101499
   4 C :   -0.273822
   5 C :   -0.232074
   6 C :    0.113575
   7 C :   -0.273505
   8 N :   -0.046614
   9 H :    0.180495
  10 H :    0.166725
  11 H :    0.133059
  12 H :    0.144734
  13 H :    0.138749
  14 H :    0.136826
  15 H :    0.147452
  16 H :    0.156331
Sum of atomic charges:    0.0000000

LOEWDIN ATOMIC CHARGES
----------------------
   0 N :    0.061473
   1 C :   -0.187780
   2 C :   -0.224496
   3 C :   -0.182114
   4 C :   -0.205553
   5 C :   -0.189953
   6 C :   -0.187908
   7 C :   -0.178306
   8 N :    0.065236
   9 H :    0.173254
  10 H :    0.170065
  11 H :    0.162833
  12 H :    0.133257
  13 H :    0.145472
  14 H :    0.140925
  15 H :    0.136298
  16 H :    0.167296

  Mayer bond orders larger than 0.1
B(  0-N ,  1-C ) :   2.8703 B(  1-C ,  2-C ) :   0.9287 B(  2-C ,  3-C ) :   0.9092
B(  2-C ,  9-H ) :   0.9052 B(  2-C , 10-H ) :   0.9074 B(  3-C ,  4-C ) :   0.9470
B(  3-C ,  6-C ) :   0.8684 B(  3-C , 11-H ) :   0.9190 B(  4-C ,  5-C ) :   0.9336
B(  4-C , 12-H ) :   0.9317 B(  4-C , 13-H ) :   0.9203 B(  5-C ,  6-C ) :   0.8549
B(  5-C , 14-H ) :   0.9278 B(  5-C , 15-H ) :   0.9234 B(  6-C ,  7-C ) :   0.9282
B(  6-C , 16-H ) :   0.9016 B(  7-C ,  8-N ) :   2.8496

MP2 TOTAL ENERGY:     -380.215287103 Eh
FINAL SINGLE POINT ENERGY      -380.215287103210

DIPOLE MOMENT
-------------
                                X             Y             Z
Electronic contribution:     -4.70415      -1.03543       0.92638
Nuclear contribution   :      6.01231       1.76496      -0.41910
                        -----------------------------------------
Total Dipole Moment    :      1.30815       0.72954       0.50727
                        -----------------------------------------
Magnitude (a.u.)       :      1.58140
Magnitude (Debye)      :      4.01959

                             ****ORCA TERMINATED NORMALLY****
TOTAL RUN TIME: 0 days 0 hours 16 minutes 20 seconds 456 msec
