                         Program Version 3.0.3 - RELEASE   -
|  1> ! RI-MP2 RIJK def2-TZVP def2-TZVP/C def2-TZVP/JK TIGHTSCF
|  2> % maxcore 2000
|  3> % mp2 density relaxed end
|  4> *xyz 0 1
|  5>  C        0.8918667794     0.3297128666     0.0231050543
|  6>  C       -0.5110595000     0.1485180124    -0.5205966562
|  7>  O       -1.1193498409     1.0385893486    -1.0624245645
|  8>  C       -1.1646146964    -1.2296074582    -0.3149309389
|  9>  C       -0.2531393664    -2.4083625302    -0.5477431413
| 10>  N        0.0532706521    -3.1216388839     0.4798636208
| 11>  O        0.9026937558    -4.1704240895     0.1682975181
| 12>  C        0.2163016020    -2.6532635298    -1.8703400027
| 13>  C        0.5846855754    -2.8059869174    -3.0062294972
| 14>  H        1.5991996371    -0.2304096441    -0.5994712288
| 15>  H        1.1578713792     1.3869534074     0.0077224262
| 16>  H        0.9768268012    -0.0743166742     1.0370442337
| 17>  H       -1.5073133737    -1.2780106024     0.7254744292
| 18>  H       -2.0377879432    -1.2731362894    -0.9708264265
| 19>  H        1.0176929079    -4.6059749598     1.0206696173
| 20>  H        0.9153710805    -2.9547949662    -4.0049811934
| 21> *
| 22>
| 23>                          ****END OF INPUT****

CARTESIAN COORDINATES (ANGSTROEM)
---------------------------------
  C      0.891867    0.329713    0.023105
  C     -0.511059    0.148518   -0.520597
  O     -1.119350    1.038589   -1.062425
  C     -1.164615   -1.229607   -0.314931
  C     -0.253139   -2.408363   -0.547743
  N      0.053271   -3.121639    0.479864
  O      0.902694   -4.170424    0.168298
  C      0.216302   -2.653264   -1.870340
  C      0.584686   -2.805987   -3.006229
  H      1.599200   -0.230410   -0.599471
  H      1.157871    1.386953    0.007722
  H      0.976827   -0.074317    1.037044
  H     -1.507313   -1.278011    0.725474
  H     -2.037788   -1.273136   -0.970826
  H      1.017693   -4.605975    1.020670
  H      0.915371   -2.954795   -4.004981

 Total Charge           Charge          ....    0
 Multiplicity           Mult            ....    1
 Number of Electrons    NEL             ....   66
 Basis Dimension        Dim             ....  321

ORBITAL ENERGIES
----------------

  NO   OCC          E(Eh)            E(eV)
   0   2.0000     -20.614515      -560.9495
   1   2.0000     -20.551017      -559.2216
   2   2.0000     -15.649682      -425.8495
   3   2.0000     -11.340216      -308.5830
   4   2.0000     -11.318534      -307.9930
   5   2.0000     -11.260380      -306.4105
   6   2.0000     -11.258545      -306.3606
   7   2.0000     -11.256067      -306.2932
   8   2.0000     -11.236765      -305.7679
   9   2.0000      -1.449843       -39.4522
  10   2.0000      -1.396121       -37.9904
  11   2.0000      -1.198052       -32.6006
  12   2.0000      -1.056577       -28.7509
  13   2.0000      -1.043631       -28.3986
  14   2.0000      -0.983569       -26.7643
  15   2.0000      -0.868158       -23.6238
  16   2.0000      -0.773165       -21.0389
  17   2.0000      -0.731781       -19.9128
  18   2.0000      -0.723273       -19.6813
  19   2.0000      -0.692571       -18.8458
  20   2.0000      -0.657425       -17.8894
  21   2.0000      -0.644687       -17.5428
  22   2.0000      -0.622967       -16.9518
  23   2.0000      -0.612674       -16.6717
  24   2.0000      -0.578469       -15.7410
  25   2.0000      -0.566472       -15.4145
  26   2.0000      -0.547819       -14.9069
  27   2.0000      -0.497374       -13.5342
  28   2.0000      -0.475984       -12.9522
  29   2.0000      -0.469626       -12.7792
  30   2.0000      -0.421537       -11.4706
  31   2.0000      -0.417956       -11.3732
  32   2.0000      -0.374150       -10.1811
  33   0.0000       0.082278         2.2389
  34   0.0000       0.131334         3.5738
  35   0.0000       0.142014         3.8644
  36   0.0000       0.147453         4.0124
  37   0.0000       0.154691         4.2094

MULLIKEN ATOMIC CHARGES
-----------------------
   0 C :   -0.403133
   1 C :    0.175564
   2 O :   -0.271849
   3 C :   -0.206340
   4 C :   -0.083997
   5 N :   -0.066815
   6 O :   -0.345715
   7 C :    0.033841
   8 C :   -0.128240
   9 H :    0.155227
  10 H :    0.155207
  11 H :    0.148369
  12 H :    0.149858
  13 H :    0.145299
  14 H :    0.341400
  15 H :    0.201324
Sum of atomic charges:    0.0000000

LOEWDIN ATOMIC CHARGES
----------------------
   0 C :   -0.276598
   1 C :   -0.342028
   2 O :    0.156205
   3 C :   -0.185174
   4 C :   -0.285037
   5 N :    0.041928
   6 O :   -0.040863
   7 C :   -0.076084
   8 C :   -0.043126
   9 H :    0.144614
  10 H :    0.134159
  11 H :    0.138229
  12 H :    0.165677
  13 H :    0.160189
  14 H :    0.175826
  15 H :    0.132085

  Mayer bond orders larger than 0.1
B(  0-C ,  1-C ) :   0.9226 B(  0-C ,  9-H ) :   0.8986 B(  0-C , 10-H ) :   0.9301
B(  0-C , 11-H ) :   0.9175 B(  1-C ,  2-O ) :   2.0105 B(  1-C ,  3-C ) :   0.8852
B(  3-C ,  4-C ) :   0.9116 B(  3-C , 12-H ) :   0.9071 B(  3-C , 13-H ) :   0.9154
B(  4-C ,  5-N ) :   1.8037 B(  4-C ,  7-C ) :   1.1597 B(  5-N ,  6-O ) :   0.8431
B(  6-O , 14-H ) :   0.8409 B(  7-C ,  8-C ) :   2.5874 B(  8-C , 15-H ) :   0.8849

MP2 TOTAL ENERGY:     -437.091203721 Eh
FINAL SINGLE POINT ENERGY      -437.091203721141

DIPOLE MOMENT
-------------
                                X             Y             Z
Electronic contribution:     -1.58670      -3.10586      -1.52304
Nuclear contribution   :      2.16798       2.35867       1.87803
                        -----------------------------------------
Total Dipole Moment    :      0.58128      -0.74719       0.35498
                        -----------------------------------------
Magnitude (a.u.)       :      1.01104
Magnitude (Debye)      :      2.56985

                             ****ORCA TERMINATED NORMALLY****
TOTAL RUN TIME: 0 days 0 hours 15 minutes 59 seconds 156 msec
