                         Program Version 3.0.3 - RELEASE   -
|  1> ! RI-MP2 RIJK def2-TZVP def2-TZVP/C def2-TZVP/JK TIGHTSCF
|  2> % maxcore 2000
|  3> % mp2 density relaxed end
|  4> *xyz 0 1
|  5>  C       -0.0518779459     1.5799098203     0.0121430572
|  6>  C        0.0882350714     0.0721017352     0.0573734356
|  7>  N        1.1096747812    -0.5655246447    -0.8378416288
|  8>  C        2.3796066223    -0.6290634649    -0.0244432757
|  9>  C        2.1552424262    -0.0417076000     1.3667173216
| 10>  C        0.7323907680    -0.6669683711     1.2705371898
| 11>  C       -0.0185901111    -1.0044989786     2.4483407623
| 12>  N       -0.6392044593    -1.2792582315     3.3854773967
| 13>  C        1.3162567771    -1.6412703991     0.1583873295
| 14>  H        0.8949652891     2.0960981146     0.1859444919
| 15>  H       -0.4185770749     1.8816502529    -0.9738040522
| 16>  H       -0.7749492925     1.9183176876     0.7615898759
| 17>  H       -0.8675111705    -0.4042739797    -0.1810512883
| 18>  H        3.3009395423    -0.7012131571    -0.5852597282
| 19>  H        2.7603031354    -0.5705729978     2.1061306190
| 20>  H        2.2269426371     1.0360159761     1.5297873937
| 21>  H        1.2226447741    -2.7025174723    -0.0269818900
| 22> *
| 23>
| 24>                          ****END OF INPUT****

CARTESIAN COORDINATES (ANGSTROEM)
---------------------------------
  C     -0.051878    1.579910    0.012143
  C      0.088235    0.072102    0.057373
  N      1.109675   -0.565525   -0.837842
  C      2.379607   -0.629063   -0.024443
  C      2.155242   -0.041708    1.366717
  C      0.732391   -0.666968    1.270537
  C     -0.018590   -1.004499    2.448341
  N     -0.639204   -1.279258    3.385477
  C      1.316257   -1.641270    0.158387
  H      0.894965    2.096098    0.185944
  H     -0.418577    1.881650   -0.973804
  H     -0.774949    1.918318    0.761590
  H     -0.867511   -0.404274   -0.181051
  H      3.300940   -0.701213   -0.585260
  H      2.760303   -0.570573    2.106131
  H      2.226943    1.036016    1.529787
  H      1.222645   -2.702517   -0.026982

 Total Charge           Charge          ....    0
 Multiplicity           Mult            ....    1
 Number of Electrons    NEL             ....   64
 Basis Dimension        Dim             ....  327

ORBITAL ENERGIES
----------------

  NO   OCC          E(Eh)            E(eV)
   0   2.0000     -15.585197      -424.0948
   1   2.0000     -15.577120      -423.8750
   2   2.0000     -11.299786      -307.4828
   3   2.0000     -11.293087      -307.3005
   4   2.0000     -11.290208      -307.2222
   5   2.0000     -11.286619      -307.1245
   6   2.0000     -11.278437      -306.9019
   7   2.0000     -11.264624      -306.5260
   8   2.0000     -11.231829      -305.6336
   9   2.0000      -1.345093       -36.6018
  10   2.0000      -1.222720       -33.2719
  11   2.0000      -1.070800       -29.1379
  12   2.0000      -1.058251       -28.7965
  13   2.0000      -0.965930       -26.2843
  14   2.0000      -0.886935       -24.1347
  15   2.0000      -0.816465       -22.2171
  16   2.0000      -0.780773       -21.2459
  17   2.0000      -0.752931       -20.4883
  18   2.0000      -0.664720       -18.0880
  19   2.0000      -0.637434       -17.3455
  20   2.0000      -0.618546       -16.8315
  21   2.0000      -0.581475       -15.8227
  22   2.0000      -0.569158       -15.4876
  23   2.0000      -0.557643       -15.1743
  24   2.0000      -0.540971       -14.7206
  25   2.0000      -0.523388       -14.2421
  26   2.0000      -0.517091       -14.0708
  27   2.0000      -0.483942       -13.1687
  28   2.0000      -0.456319       -12.4171
  29   2.0000      -0.448904       -12.2153
  30   2.0000      -0.430298       -11.7090
  31   2.0000      -0.392314       -10.6754
  32   0.0000       0.126145         3.4326
  33   0.0000       0.142164         3.8685
  34   0.0000       0.145084         3.9479
  35   0.0000       0.160950         4.3797
  36   0.0000       0.169905         4.6233

MULLIKEN ATOMIC CHARGES
-----------------------
   0 C :   -0.427864
   1 C :    0.014112
   2 N :   -0.223835
   3 C :   -0.116357
   4 C :   -0.221627
   5 C :    0.194882
   6 C :   -0.225596
   7 N :   -0.036120
   8 C :   -0.100433
   9 H :    0.132637
  10 H :    0.151719
  11 H :    0.147115
  12 H :    0.123516
  13 H :    0.147858
  14 H :    0.142127
  15 H :    0.131269
  16 H :    0.166597
Sum of atomic charges:   -0.0000000

LOEWDIN ATOMIC CHARGES
----------------------
   0 C :   -0.285385
   1 C :   -0.227190
   2 N :    0.151786
   3 C :   -0.197605
   4 C :   -0.161857
   5 C :   -0.183899
   6 C :   -0.156764
   7 N :    0.072990
   8 C :   -0.127500
   9 H :    0.125864
  10 H :    0.135247
  11 H :    0.134780
  12 H :    0.159382
  13 H :    0.139351
  14 H :    0.152893
  15 H :    0.130069
  16 H :    0.137839

  Mayer bond orders larger than 0.1
B(  0-C ,  1-C ) :   0.9166 B(  0-C ,  9-H ) :   0.9375 B(  0-C , 10-H ) :   0.9341
B(  0-C , 11-H ) :   0.9273 B(  1-C ,  2-N ) :   0.9151 B(  1-C ,  5-C ) :   0.9049
B(  1-C , 12-H ) :   0.9178 B(  2-N ,  3-C ) :   0.8930 B(  2-N ,  8-C ) :   0.8908
B(  3-C ,  4-C ) :   0.8978 B(  3-C ,  8-C ) :   0.8811 B(  3-C , 13-H ) :   0.9382
B(  4-C ,  5-C ) :   0.8948 B(  4-C , 14-H ) :   0.9113 B(  4-C , 15-H ) :   0.9179
B(  5-C ,  6-C ) :   0.8686 B(  5-C ,  8-C ) :   0.9075 B(  6-C ,  7-N ) :   2.8867
B(  8-C , 16-H ) :   0.8835

MP2 TOTAL ENERGY:     -380.145715146 Eh
FINAL SINGLE POINT ENERGY      -380.145715145692

DIPOLE MOMENT
-------------
                                X             Y             Z
Electronic contribution:     -1.09327      -5.18269       3.06804
Nuclear contribution   :      1.93309       5.59270      -3.72761
                        -----------------------------------------
Total Dipole Moment    :      0.83982       0.41001      -0.65957
                        -----------------------------------------
Magnitude (a.u.)       :      1.14387
Magnitude (Debye)      :      2.90748

                             ****ORCA TERMINATED NORMALLY****
TOTAL RUN TIME: 0 days 0 hours 18 minutes 26 seconds 465 msec
