                         Program Version 3.0.3 - RELEASE   -
|  1> ! RI-MP2 RIJK def2-TZVP def2-TZVP/C def2-TZVP/JK TIGHTSCF
|  2> % maxcore 2000
|  3> % mp2 density relaxed end
|  4> *xyz 0 1
|  5>  O       -0.0094017108     0.0085966204     0.5218797636
|  6>  C       -0.0159872004     1.1697058710     0.2266244002
|  7>  C       -1.2259825196     2.0494577609    -0.0573206374
|  8>  C       -0.6744639946     3.5023320807    -0.0676423430
|  9>  N        0.7756079812     3.3112442695    -0.1533540457
| 10>  C        1.2464613480     2.0462694277     0.0563828233
| 11>  O        2.3965649088     1.6830907551     0.0987452191
| 12>  C       -1.1887565501     4.3278060916    -1.1565774156
| 13>  C       -1.6138322028     5.0177595600    -2.0430994997
| 14>  H       -1.6212995447     1.7850242696    -1.0429110697
| 15>  H       -2.0209015715     1.8987432985     0.6743175639
| 16>  H       -0.9280681466     3.9913786007     0.8832795581
| 17>  H        1.4035025886     4.0907642620    -0.2780817905
| 18>  H       -1.9901112854     5.6240889822    -2.8303853765
| 19> *
| 20>
| 21>                          ****END OF INPUT****

CARTESIAN COORDINATES (ANGSTROEM)
---------------------------------
  O     -0.009402    0.008597    0.521880
  C     -0.015987    1.169706    0.226624
  C     -1.225983    2.049458   -0.057321
  C     -0.674464    3.502332   -0.067642
  N      0.775608    3.311244   -0.153354
  C      1.246461    2.046269    0.056383
  O      2.396565    1.683091    0.098745
  C     -1.188757    4.327806   -1.156577
  C     -1.613832    5.017760   -2.043099
  H     -1.621300    1.785024   -1.042911
  H     -2.020902    1.898743    0.674318
  H     -0.928068    3.991379    0.883280
  H      1.403503    4.090764   -0.278082
  H     -1.990111    5.624089   -2.830385

 Total Charge           Charge          ....    0
 Multiplicity           Mult            ....    1
 Number of Electrons    NEL             ....   64
 Basis Dimension        Dim             ....  309

ORBITAL ENERGIES
----------------

  NO   OCC          E(Eh)            E(eV)
   0   2.0000     -20.583501      -560.1055
   1   2.0000     -20.544521      -559.0448
   2   2.0000     -15.617721      -424.9798
   3   2.0000     -11.371950      -309.4465
   4   2.0000     -11.360180      -309.1262
   5   2.0000     -11.339870      -308.5736
   6   2.0000     -11.277284      -306.8705
   7   2.0000     -11.263796      -306.5035
   8   2.0000     -11.258046      -306.3470
   9   2.0000      -1.430548       -38.9272
  10   2.0000      -1.398221       -38.0475
  11   2.0000      -1.286370       -35.0039
  12   2.0000      -1.096142       -29.8275
  13   2.0000      -1.053410       -28.6647
  14   2.0000      -0.979688       -26.6587
  15   2.0000      -0.875994       -23.8370
  16   2.0000      -0.775408       -21.0999
  17   2.0000      -0.765713       -20.8361
  18   2.0000      -0.723580       -19.6896
  19   2.0000      -0.711807       -19.3692
  20   2.0000      -0.683785       -18.6067
  21   2.0000      -0.641879       -17.4664
  22   2.0000      -0.633913       -17.2496
  23   2.0000      -0.606454       -16.5024
  24   2.0000      -0.591422       -16.0934
  25   2.0000      -0.588836       -16.0230
  26   2.0000      -0.514399       -13.9975
  27   2.0000      -0.505209       -13.7474
  28   2.0000      -0.435786       -11.8583
  29   2.0000      -0.428186       -11.6515
  30   2.0000      -0.415126       -11.2961
  31   2.0000      -0.407758       -11.0957
  32   0.0000       0.071107         1.9349
  33   0.0000       0.114126         3.1055
  34   0.0000       0.136476         3.7137
  35   0.0000       0.148335         4.0364
  36   0.0000       0.154662         4.2086

MULLIKEN ATOMIC CHARGES
-----------------------
   0 O :   -0.230096
   1 C :    0.168510
   2 C :   -0.209817
   3 C :   -0.066335
   4 N :   -0.275974
   5 C :    0.180437
   6 O :   -0.303185
   7 C :   -0.073335
   8 C :   -0.112530
   9 H :    0.163298
  10 H :    0.157366
  11 H :    0.145494
  12 H :    0.251903
  13 H :    0.204262
Sum of atomic charges:   -0.0000000

LOEWDIN ATOMIC CHARGES
----------------------
   0 O :    0.199388
   1 C :   -0.281644
   2 C :   -0.173833
   3 C :   -0.247795
   4 N :    0.165270
   5 C :   -0.433075
   6 O :    0.123386
   7 C :   -0.094073
   8 C :   -0.070760
   9 H :    0.167677
  10 H :    0.154840
  11 H :    0.165739
  12 H :    0.192871
  13 H :    0.132007

  Mayer bond orders larger than 0.1
B(  0-O ,  1-C ) :   2.0227 B(  1-C ,  2-C ) :   0.8815 B(  1-C ,  5-C ) :   0.8648
B(  2-C ,  3-C ) :   0.9179 B(  2-C ,  9-H ) :   0.8985 B(  2-C , 10-H ) :   0.9074
B(  3-C ,  4-N ) :   0.8329 B(  3-C ,  7-C ) :   1.0926 B(  3-C , 11-H ) :   0.9365
B(  4-N ,  5-C ) :   1.1544 B(  4-N , 12-H ) :   0.8564 B(  5-C ,  6-O ) :   1.9979
B(  7-C ,  8-C ) :   2.6092 B(  8-C , 13-H ) :   0.8889

MP2 TOTAL ENERGY:     -435.964470066 Eh
FINAL SINGLE POINT ENERGY      -435.964470065721

DIPOLE MOMENT
-------------
                                X             Y             Z
Electronic contribution:      3.50122      -2.76516       0.89715
Nuclear contribution   :     -4.88099       4.51417      -1.22101
                        -----------------------------------------
Total Dipole Moment    :     -1.37976       1.74901      -0.32386
                        -----------------------------------------
Magnitude (a.u.)       :      2.25115
Magnitude (Debye)      :      5.72197

                             ****ORCA TERMINATED NORMALLY****
TOTAL RUN TIME: 0 days 0 hours 14 minutes 5 seconds 325 msec
