                         Program Version 3.0.3 - RELEASE   -
|  1> ! RI-MP2 RIJK def2-TZVP def2-TZVP/C def2-TZVP/JK TIGHTSCF
|  2> % maxcore 2000
|  3> % mp2 density relaxed end
|  4> *xyz 0 1
|  5>  C       -0.0637782916     1.4972166512    -0.3155651912
|  6>  C       -0.0651451434     0.0423265949     0.1564803712
|  7>  N       -1.3852766730    -0.5635395534     0.1085224151
|  8>  C       -1.9176622226    -1.3104432971    -0.8964077955
|  9>  C       -3.2240356192    -1.5766371583    -0.5274158844
| 10>  O       -4.0922709473    -2.3129587934    -1.2656553197
| 11>  C       -5.3789671824    -2.4767020241    -0.7004929926
| 12>  C       -3.3872806470    -0.9379469556     0.7210867224
| 13>  N       -2.2607386291    -0.3221127318     1.0932613435
| 14>  H        0.9439058820     1.9174581832    -0.2405300755
| 15>  H       -0.3922635468     1.5725645827    -1.3564461802
| 16>  H       -0.7376381238     2.0944710108     0.3036688734
| 17>  H        0.6003069769    -0.5700464161    -0.4591911529
| 18>  H        0.2783354139    -0.0244413364     1.1919458009
| 19>  H       -1.3530965560    -1.5999516457    -1.7669960124
| 20>  H       -5.9538682408    -3.0809812954    -1.4042187400
| 21>  H       -5.3301943075    -2.9955153576     0.2664788341
| 22>  H       -5.8815216804    -1.5103168789    -0.5585923723
| 23>  H       -4.2539512020    -0.9051201889     1.3623925359
| 24> *
| 25>
| 26>                          ****END OF INPUT****

CARTESIAN COORDINATES (ANGSTROEM)
---------------------------------
  C     -0.063778    1.497217   -0.315565
  C     -0.065145    0.042327    0.156480
  N     -1.385277   -0.563540    0.108522
  C     -1.917662   -1.310443   -0.896408
  C     -3.224036   -1.576637   -0.527416
  O     -4.092271   -2.312959   -1.265655
  C     -5.378967   -2.476702   -0.700493
  C     -3.387281   -0.937947    0.721087
  N     -2.260739   -0.322113    1.093261
  H      0.943906    1.917458   -0.240530
  H     -0.392264    1.572565   -1.356446
  H     -0.737638    2.094471    0.303669
  H      0.600307   -0.570046   -0.459191
  H      0.278335   -0.024441    1.191946
  H     -1.353097   -1.599952   -1.766996
  H     -5.953868   -3.080981   -1.404219
  H     -5.330194   -2.995515    0.266479
  H     -5.881522   -1.510317   -0.558592
  H     -4.253951   -0.905120    1.362393

 Total Charge           Charge          ....    0
 Multiplicity           Mult            ....    1
 Number of Electrons    NEL             ....   68
 Basis Dimension        Dim             ....  339

ORBITAL ENERGIES
----------------

  NO   OCC          E(Eh)            E(eV)
   0   2.0000     -20.577827      -559.9511
   1   2.0000     -15.634183      -425.4277
   2   2.0000     -15.580873      -423.9771
   3   2.0000     -11.281265      -306.9788
   4   2.0000     -11.276290      -306.8435
   5   2.0000     -11.274382      -306.7915
   6   2.0000     -11.257454      -306.3309
   7   2.0000     -11.243983      -305.9643
   8   2.0000     -11.223202      -305.3989
   9   2.0000      -1.406442       -38.2712
  10   2.0000      -1.371342       -37.3161
  11   2.0000      -1.124283       -30.5933
  12   2.0000      -1.054887       -28.7049
  13   2.0000      -1.000604       -27.2278
  14   2.0000      -0.940374       -25.5889
  15   2.0000      -0.875325       -23.8188
  16   2.0000      -0.792147       -21.5554
  17   2.0000      -0.774418       -21.0730
  18   2.0000      -0.719508       -19.5788
  19   2.0000      -0.661245       -17.9934
  20   2.0000      -0.656006       -17.8508
  21   2.0000      -0.640367       -17.4253
  22   2.0000      -0.626339       -17.0436
  23   2.0000      -0.606685       -16.5087
  24   2.0000      -0.586357       -15.9556
  25   2.0000      -0.554489       -15.0884
  26   2.0000      -0.537441       -14.6245
  27   2.0000      -0.523959       -14.2576
  28   2.0000      -0.512551       -13.9472
  29   2.0000      -0.506624       -13.7859
  30   2.0000      -0.487360       -13.2617
  31   2.0000      -0.447440       -12.1754
  32   2.0000      -0.347880        -9.4663
  33   2.0000      -0.310035        -8.4365
  34   0.0000       0.135811         3.6956
  35   0.0000       0.146788         3.9943
  36   0.0000       0.149855         4.0778
  37   0.0000       0.172050         4.6817
  38   0.0000       0.188804         5.1376

MULLIKEN ATOMIC CHARGES
-----------------------
   0 C :   -0.386951
   1 C :   -0.152379
   2 N :    0.151191
   3 C :   -0.206625
   4 C :    0.211266
   5 O :   -0.300210
   6 C :   -0.229017
   7 C :   -0.194611
   8 N :   -0.270954
   9 H :    0.130223
  10 H :    0.130390
  11 H :    0.150679
  12 H :    0.129562
  13 H :    0.142638
  14 H :    0.152223
  15 H :    0.146830
  16 H :    0.128957
  17 H :    0.128392
  18 H :    0.138396
Sum of atomic charges:   -0.0000000

LOEWDIN ATOMIC CHARGES
----------------------
   0 C :   -0.310827
   1 C :   -0.272262
   2 N :    0.191529
   3 C :   -0.204472
   4 C :   -0.312385
   5 O :    0.216594
   6 C :   -0.330108
   7 C :   -0.280541
   8 N :    0.036879
   9 H :    0.125061
  10 H :    0.123249
  11 H :    0.129144
  12 H :    0.138185
  13 H :    0.142890
  14 H :    0.140158
  15 H :    0.115650
  16 H :    0.108603
  17 H :    0.108529
  18 H :    0.134125

  Mayer bond orders larger than 0.1
B(  0-C ,  1-C ) :   0.9269 B(  0-C ,  9-H ) :   0.9316 B(  0-C , 10-H ) :   0.9329
B(  0-C , 11-H ) :   0.9339 B(  1-C ,  2-N ) :   0.8593 B(  1-C , 12-H ) :   0.9297
B(  1-C , 13-H ) :   0.9282 B(  2-N ,  3-C ) :   1.1886 B(  2-N ,  8-N ) :   1.0482
B(  3-C ,  4-C ) :   1.3996 B(  3-C ,  8-N ) :   0.1154 B(  3-C , 14-H ) :   0.8995
B(  4-C ,  5-O ) :   1.0569 B(  4-C ,  7-C ) :   1.2658 B(  5-O ,  6-C ) :   0.8781
B(  6-C , 15-H ) :   0.9395 B(  6-C , 16-H ) :   0.9344 B(  6-C , 17-H ) :   0.9339
B(  7-C ,  8-N ) :   1.4278 B(  7-C , 18-H ) :   0.9357

MP2 TOTAL ENERGY:     -418.504572610 Eh
FINAL SINGLE POINT ENERGY      -418.504572610385

DIPOLE MOMENT
-------------
                                X             Y             Z
Electronic contribution:     -1.87768      -3.52433       0.29571
Nuclear contribution   :      2.12669       3.50768      -0.65499
                        -----------------------------------------
Total Dipole Moment    :      0.24901      -0.01666      -0.35928
                        -----------------------------------------
Magnitude (a.u.)       :      0.43746
Magnitude (Debye)      :      1.11193

                             ****ORCA TERMINATED NORMALLY****
TOTAL RUN TIME: 0 days 0 hours 17 minutes 42 seconds 457 msec
