                         Program Version 3.0.3 - RELEASE   -
|  1> ! RI-MP2 RIJK def2-TZVP def2-TZVP/C def2-TZVP/JK TIGHTSCF
|  2> % maxcore 2000
|  3> % mp2 density relaxed end
|  4> *xyz 0 1
|  5>  O       -0.1191470191     1.3712585625     0.0377713234
|  6>  C        0.0422964050    -0.0209322329     0.0338991974
|  7>  C        0.7348101974    -0.7038122849    -1.1895216263
|  8>  C        0.5338067877    -2.1274847989    -0.5963545358
|  9>  C        1.1176033885    -1.9161004160     0.7927389882
| 10>  C        0.8221663259    -0.6702959760     1.1699427800
| 11>  C       -1.0354037653    -2.0996567664    -0.4790087293
| 12>  O       -1.5764413834    -1.8296898355     0.8176954638
| 13>  C       -1.3487144033    -0.7331938513    -0.0702322160
| 14>  H        0.7554324461     1.7737802559     0.0306074547
| 15>  H        0.1884437574    -0.5389705923    -2.1244025421
| 16>  H        1.7854789346    -0.4217274086    -1.3090567381
| 17>  H        0.9198345705    -2.9705702148    -1.1679924064
| 18>  H        1.5758144780    -2.6931281777     1.3904005504
| 19>  H        0.9727844962    -0.2066942675     2.1365138684
| 20>  H       -1.6463175122    -2.7138174766    -1.1330380650
| 21>  H       -2.2124356639    -0.1482157990    -0.3694850171
| 22> *
| 23>
| 24>                          ****END OF INPUT****

CARTESIAN COORDINATES (ANGSTROEM)
---------------------------------
  O     -0.119147    1.371259    0.037771
  C      0.042296   -0.020932    0.033899
  C      0.734810   -0.703812   -1.189522
  C      0.533807   -2.127485   -0.596355
  C      1.117603   -1.916100    0.792739
  C      0.822166   -0.670296    1.169943
  C     -1.035404   -2.099657   -0.479009
  O     -1.576441   -1.829690    0.817695
  C     -1.348714   -0.733194   -0.070232
  H      0.755432    1.773780    0.030607
  H      0.188444   -0.538971   -2.124403
  H      1.785479   -0.421727   -1.309057
  H      0.919835   -2.970570   -1.167992
  H      1.575814   -2.693128    1.390401
  H      0.972784   -0.206694    2.136514
  H     -1.646318   -2.713817   -1.133038
  H     -2.212436   -0.148216   -0.369485

 Total Charge           Charge          ....    0
 Multiplicity           Mult            ....    1
 Number of Electrons    NEL             ....   66
 Basis Dimension        Dim             ....  327

ORBITAL ENERGIES
----------------

  NO   OCC          E(Eh)            E(eV)
   0   2.0000     -20.568872      -559.7075
   1   2.0000     -20.565960      -559.6282
   2   2.0000     -11.301342      -307.5252
   3   2.0000     -11.285381      -307.0908
   4   2.0000     -11.281182      -306.9766
   5   2.0000     -11.249790      -306.1224
   6   2.0000     -11.235193      -305.7251
   7   2.0000     -11.231982      -305.6378
   8   2.0000     -11.226498      -305.4886
   9   2.0000      -1.415540       -38.5188
  10   2.0000      -1.377655       -37.4879
  11   2.0000      -1.162149       -31.6237
  12   2.0000      -0.999282       -27.1918
  13   2.0000      -0.966986       -26.3130
  14   2.0000      -0.908500       -24.7215
  15   2.0000      -0.814697       -22.1690
  16   2.0000      -0.792721       -21.5710
  17   2.0000      -0.741073       -20.1656
  18   2.0000      -0.725984       -19.7550
  19   2.0000      -0.679228       -18.4827
  20   2.0000      -0.649347       -17.6696
  21   2.0000      -0.634073       -17.2540
  22   2.0000      -0.586100       -15.9486
  23   2.0000      -0.562051       -15.2942
  24   2.0000      -0.559181       -15.2161
  25   2.0000      -0.549193       -14.9443
  26   2.0000      -0.534247       -14.5376
  27   2.0000      -0.503821       -13.7097
  28   2.0000      -0.472681       -12.8623
  29   2.0000      -0.440213       -11.9788
  30   2.0000      -0.426726       -11.6118
  31   2.0000      -0.415127       -11.2962
  32   2.0000      -0.351558        -9.5664
  33   0.0000       0.131010         3.5650
  34   0.0000       0.145973         3.9721
  35   0.0000       0.146303         3.9811
  36   0.0000       0.174730         4.7547
  37   0.0000       0.184373         5.0170

MULLIKEN ATOMIC CHARGES
-----------------------
   0 O :   -0.458951
   1 C :    0.334449
   2 C :   -0.298890
   3 C :    0.040877
   4 C :   -0.207553
   5 C :   -0.247547
   6 C :   -0.046186
   7 O :   -0.306903
   8 C :   -0.047545
   9 H :    0.322700
  10 H :    0.121073
  11 H :    0.116513
  12 H :    0.139030
  13 H :    0.135922
  14 H :    0.139722
  15 H :    0.128459
  16 H :    0.134830
Sum of atomic charges:    0.0000000

LOEWDIN ATOMIC CHARGES
----------------------
   0 O :    0.020883
   1 C :   -0.334375
   2 C :   -0.173991
   3 C :   -0.187929
   4 C :   -0.116602
   5 C :   -0.114305
   6 C :   -0.224293
   7 O :    0.187838
   8 C :   -0.207494
   9 H :    0.181716
  10 H :    0.138775
  11 H :    0.133560
  12 H :    0.143742
  13 H :    0.136942
  14 H :    0.139727
  15 H :    0.134803
  16 H :    0.141002

  Mayer bond orders larger than 0.1
B(  0-O ,  1-C ) :   0.9707 B(  0-O ,  9-H ) :   0.8370 B(  1-C ,  2-C ) :   0.9350
B(  1-C ,  5-C ) :   0.9162 B(  1-C ,  8-C ) :   0.8109 B(  2-C ,  3-C ) :   0.9016
B(  2-C , 10-H ) :   0.9187 B(  2-C , 11-H ) :   0.9108 B(  3-C ,  4-C ) :   0.9221
B(  3-C ,  6-C ) :   0.8036 B(  3-C , 12-H ) :   0.9090 B(  4-C ,  5-C ) :   1.7401
B(  4-C , 13-H ) :   0.9120 B(  5-C , 14-H ) :   0.9195 B(  6-C ,  7-O ) :   0.9617
B(  6-C ,  8-C ) :   0.9928 B(  6-C , 15-H ) :   0.9263 B(  7-O ,  8-C ) :   0.9488
B(  8-C , 16-H ) :   0.9325

MP2 TOTAL ENERGY:     -421.091086832 Eh
FINAL SINGLE POINT ENERGY      -421.091086831553

DIPOLE MOMENT
-------------
                                X             Y             Z
Electronic contribution:     -2.29498       0.41564       2.18166
Nuclear contribution   :      3.04108      -0.47653      -2.80451
                        -----------------------------------------
Total Dipole Moment    :      0.74609      -0.06089      -0.62285
                        -----------------------------------------
Magnitude (a.u.)       :      0.97381
Magnitude (Debye)      :      2.47522

                             ****ORCA TERMINATED NORMALLY****
TOTAL RUN TIME: 0 days 0 hours 18 minutes 9 seconds 616 msec
