                         Program Version 3.0.3 - RELEASE   -
|  1> ! RI-MP2 RIJK def2-TZVP def2-TZVP/C def2-TZVP/JK TIGHTSCF
|  2> % maxcore 2000
|  3> % mp2 density relaxed end
|  4> *xyz 0 1
|  5>  C        0.2820454190     1.3370301509    -0.4062939144
|  6>  C        0.5162891221    -0.1563426395    -0.1721800066
|  7>  C       -0.0902889412    -1.0257511348    -1.2928308503
|  8>  C        0.1216437919    -2.4546771256    -1.0964636988
|  9>  C        0.3127545664    -3.6285974862    -0.9049755494
| 10>  C        0.5507796481    -5.0520591202    -0.6960658618
| 11>  O        1.8017594853    -5.5079425511    -1.2286429319
| 12>  C        1.8801925582    -5.5686165220    -2.5748015104
| 13>  N        2.9541490116    -5.9382277427    -3.1235659978
| 14>  H        0.7326821502     1.6673814625    -1.3488280596
| 15>  H       -0.7877014876     1.5702149064    -0.4510198896
| 16>  H        0.7193164908     1.9349276338     0.3986398007
| 17>  H        1.5895054567    -0.3654082032    -0.1053775264
| 18>  H        0.0819220855    -0.4615490719     0.7862510088
| 19>  H       -1.1675577035    -0.8250743516    -1.3690269115
| 20>  H        0.3385684772    -0.7266177842    -2.2587729865
| 21>  H        0.6047779600    -5.2839803701     0.3712170143
| 22>  H       -0.2724252556    -5.6456953806    -1.1180184611
| 23>  H        0.9511285794    -5.2787554405    -3.0835189861
| 24>  H        2.8419980556    -5.9424472795    -4.1352924216
| 25> *
| 26>
| 27>                          ****END OF INPUT****

CARTESIAN COORDINATES (ANGSTROEM)
---------------------------------
  C      0.282045    1.337030   -0.406294
  C      0.516289   -0.156343   -0.172180
  C     -0.090289   -1.025751   -1.292831
  C      0.121644   -2.454677   -1.096464
  C      0.312755   -3.628597   -0.904976
  C      0.550780   -5.052059   -0.696066
  O      1.801759   -5.507943   -1.228643
  C      1.880193   -5.568617   -2.574802
  N      2.954149   -5.938228   -3.123566
  H      0.732682    1.667381   -1.348828
  H     -0.787701    1.570215   -0.451020
  H      0.719316    1.934928    0.398640
  H      1.589505   -0.365408   -0.105378
  H      0.081922   -0.461549    0.786251
  H     -1.167558   -0.825074   -1.369027
  H      0.338568   -0.726618   -2.258773
  H      0.604778   -5.283980    0.371217
  H     -0.272425   -5.645695   -1.118018
  H      0.951129   -5.278755   -3.083519
  H      2.841998   -5.942447   -4.135292

 Total Charge           Charge          ....    0
 Multiplicity           Mult            ....    1
 Number of Electrons    NEL             ....   68
 Basis Dimension        Dim             ....  345

ORBITAL ENERGIES
----------------

  NO   OCC          E(Eh)            E(eV)
   0   2.0000     -20.594567      -560.4067
   1   2.0000     -15.537764      -422.8041
   2   2.0000     -11.335693      -308.4599
   3   2.0000     -11.322611      -308.1039
   4   2.0000     -11.257109      -306.3215
   5   2.0000     -11.240721      -305.8756
   6   2.0000     -11.235409      -305.7310
   7   2.0000     -11.229605      -305.5731
   8   2.0000     -11.223617      -305.4102
   9   2.0000      -1.428330       -38.8668
  10   2.0000      -1.197103       -32.5748
  11   2.0000      -1.099317       -29.9139
  12   2.0000      -1.049810       -28.5668
  13   2.0000      -0.986739       -26.8505
  14   2.0000      -0.930041       -25.3077
  15   2.0000      -0.831940       -22.6382
  16   2.0000      -0.823236       -22.4014
  17   2.0000      -0.734451       -19.9854
  18   2.0000      -0.701883       -19.0992
  19   2.0000      -0.668305       -18.1855
  20   2.0000      -0.652526       -17.7561
  21   2.0000      -0.649010       -17.6604
  22   2.0000      -0.608129       -16.5480
  23   2.0000      -0.583277       -15.8718
  24   2.0000      -0.563067       -15.3218
  25   2.0000      -0.557084       -15.1590
  26   2.0000      -0.539258       -14.6740
  27   2.0000      -0.517825       -14.0907
  28   2.0000      -0.500139       -13.6095
  29   2.0000      -0.489179       -13.3112
  30   2.0000      -0.436103       -11.8670
  31   2.0000      -0.404781       -11.0146
  32   2.0000      -0.389406       -10.5963
  33   2.0000      -0.380879       -10.3643
  34   0.0000       0.125267         3.4087
  35   0.0000       0.135452         3.6858
  36   0.0000       0.155041         4.2189
  37   0.0000       0.161074         4.3830
  38   0.0000       0.164499         4.4762

MULLIKEN ATOMIC CHARGES
-----------------------
   0 C :   -0.396498
   1 C :   -0.158011
   2 C :   -0.401151
   3 C :    0.029770
   4 C :    0.033105
   5 C :   -0.183674
   6 O :   -0.208338
   7 C :    0.078198
   8 N :   -0.340814
   9 H :    0.125438
  10 H :    0.123955
  11 H :    0.139555
  12 H :    0.121780
  13 H :    0.114805
  14 H :    0.143694
  15 H :    0.144014
  16 H :    0.157443
  17 H :    0.164727
  18 H :    0.087504
  19 H :    0.224496
Sum of atomic charges:    0.0000000

LOEWDIN ATOMIC CHARGES
----------------------
   0 C :   -0.319217
   1 C :   -0.278195
   2 C :   -0.252077
   3 C :   -0.062684
   4 C :   -0.091000
   5 C :   -0.290626
   6 O :    0.240361
   7 C :   -0.396478
   8 N :   -0.080406
   9 H :    0.121484
  10 H :    0.120989
  11 H :    0.123685
  12 H :    0.140043
  13 H :    0.138405
  14 H :    0.156401
  15 H :    0.157169
  16 H :    0.151279
  17 H :    0.141660
  18 H :    0.111405
  19 H :    0.167802

  Mayer bond orders larger than 0.1
B(  0-C ,  1-C ) :   0.9182 B(  0-C ,  9-H ) :   0.9378 B(  0-C , 10-H ) :   0.9378
B(  0-C , 11-H ) :   0.9418 B(  1-C ,  2-C ) :   0.9457 B(  1-C , 12-H ) :   0.9309
B(  1-C , 13-H ) :   0.9309 B(  2-C ,  3-C ) :   1.0338 B(  2-C ,  4-C ) :  -0.1228
B(  2-C , 14-H ) :   0.9306 B(  2-C , 15-H ) :   0.9206 B(  3-C ,  4-C ) :   2.6975
B(  4-C ,  5-C ) :   0.8595 B(  5-C ,  6-O ) :   0.9135 B(  5-C , 16-H ) :   0.9171
B(  5-C , 17-H ) :   1.0107 B(  6-O ,  7-C ) :   1.0456 B(  7-C ,  8-N ) :   1.9454
B(  7-C , 18-H ) :   0.9263 B(  8-N , 19-H ) :   0.8506

MP2 TOTAL ENERGY:     -402.411792800 Eh
FINAL SINGLE POINT ENERGY      -402.411792799868

DIPOLE MOMENT
-------------
                                X             Y             Z
Electronic contribution:      3.13333     -13.08495      -1.94964
Nuclear contribution   :     -4.48723      13.90836       1.76366
                        -----------------------------------------
Total Dipole Moment    :     -1.35391       0.82341      -0.18598
                        -----------------------------------------
Magnitude (a.u.)       :      1.59551
Magnitude (Debye)      :      4.05547

                             ****ORCA TERMINATED NORMALLY****
TOTAL RUN TIME: 0 days 0 hours 14 minutes 13 seconds 591 msec
