                         Program Version 3.0.3 - RELEASE   -
|  1> ! RI-MP2 RIJK def2-TZVP def2-TZVP/C def2-TZVP/JK TIGHTSCF
|  2> % maxcore 2000
|  3> % mp2 density relaxed end
|  4> *xyz 0 1
|  5>  C       -0.0386962865     1.4945848169     0.0102517291
|  6>  C        0.0028683818     0.0406718159     0.0026135047
|  7>  C        0.0397172838    -1.1652807440    -0.0037295736
|  8>  C        0.0594670445    -2.5785099836    -0.0110015559
|  9>  C        1.1637455065    -3.4198813330    -0.0221127005
| 10>  N        0.6828224731    -4.6825484051    -0.0255243673
| 11>  N       -0.6639717204    -4.7435884746    -0.0174613373
| 12>  C       -1.0466258432    -3.4746212845    -0.0086457385
| 13>  H        0.9713951481     1.9191442051     0.0027409166
| 14>  H       -0.5672150809     1.8850221729    -0.8670311084
| 15>  H       -0.5503922174     1.8762601446     0.9012606333
| 16>  H        2.2196031773    -3.2033327486    -0.0275720550
| 17>  H        1.2083662303    -5.5400878645    -0.0331460987
| 18>  H       -2.0959781570    -3.2213259275    -0.0008331884
| 19> *
| 20>
| 21>                          ****END OF INPUT****

CARTESIAN COORDINATES (ANGSTROEM)
---------------------------------
  C     -0.038696    1.494585    0.010252
  C      0.002868    0.040672    0.002614
  C      0.039717   -1.165281   -0.003730
  C      0.059467   -2.578510   -0.011002
  C      1.163746   -3.419881   -0.022113
  N      0.682822   -4.682548   -0.025524
  N     -0.663972   -4.743588   -0.017461
  C     -1.046626   -3.474621   -0.008646
  H      0.971395    1.919144    0.002741
  H     -0.567215    1.885022   -0.867031
  H     -0.550392    1.876260    0.901261
  H      2.219603   -3.203333   -0.027572
  H      1.208366   -5.540088   -0.033146
  H     -2.095978   -3.221326   -0.000833

 Total Charge           Charge          ....    0
 Multiplicity           Mult            ....    1
 Number of Electrons    NEL             ....   56
 Basis Dimension        Dim             ....  284

ORBITAL ENERGIES
----------------

  NO   OCC          E(Eh)            E(eV)
   0   2.0000     -15.645040      -425.7232
   1   2.0000     -15.592014      -424.2803
   2   2.0000     -11.286847      -307.1307
   3   2.0000     -11.259306      -306.3813
   4   2.0000     -11.246701      -306.0383
   5   2.0000     -11.245404      -306.0030
   6   2.0000     -11.226418      -305.4864
   7   2.0000     -11.221931      -305.3643
   8   2.0000      -1.381273       -37.5864
   9   2.0000      -1.106218       -30.1017
  10   2.0000      -1.090266       -29.6677
  11   2.0000      -1.041134       -28.3307
  12   2.0000      -0.954530       -25.9741
  13   2.0000      -0.843352       -22.9488
  14   2.0000      -0.815345       -22.1867
  15   2.0000      -0.758208       -20.6319
  16   2.0000      -0.664850       -18.0915
  17   2.0000      -0.619180       -16.8487
  18   2.0000      -0.616741       -16.7824
  19   2.0000      -0.614855       -16.7310
  20   2.0000      -0.587205       -15.9787
  21   2.0000      -0.585909       -15.9434
  22   2.0000      -0.573506       -15.6059
  23   2.0000      -0.472482       -12.8569
  24   2.0000      -0.437932       -11.9167
  25   2.0000      -0.373538       -10.1645
  26   2.0000      -0.367965       -10.0128
  27   2.0000      -0.312392        -8.5006
  28   0.0000       0.131268         3.5720
  29   0.0000       0.135544         3.6883
  30   0.0000       0.139557         3.7975
  31   0.0000       0.168952         4.5974
  32   0.0000       0.175259         4.7690

MULLIKEN ATOMIC CHARGES
-----------------------
   0 C :   -0.465748
   1 C :    0.006013
   2 C :    0.050592
   3 C :   -0.087882
   4 C :   -0.115518
   5 N :   -0.097910
   6 N :   -0.207102
   7 C :   -0.123317
   8 H :    0.161165
   9 H :    0.162682
  10 H :    0.162678
  11 H :    0.159399
  12 H :    0.256607
  13 H :    0.138341
Sum of atomic charges:   -0.0000000

LOEWDIN ATOMIC CHARGES
----------------------
   0 C :   -0.295087
   1 C :   -0.085533
   2 C :   -0.052943
   3 C :   -0.197775
   4 C :   -0.195575
   5 N :    0.133777
   6 N :    0.025816
   7 C :   -0.227579
   8 H :    0.141470
   9 H :    0.141366
  10 H :    0.141360
  11 H :    0.141572
  12 H :    0.189946
  13 H :    0.139185

  Mayer bond orders larger than 0.1
B(  0-C ,  1-C ) :   0.8700 B(  0-C ,  8-H ) :   0.9458 B(  0-C ,  9-H ) :   0.9432
B(  0-C , 10-H ) :   0.9432 B(  1-C ,  2-C ) :   2.6112 B(  1-C ,  3-C ) :  -0.1690
B(  2-C ,  3-C ) :   1.1026 B(  3-C ,  4-C ) :   1.3727 B(  3-C ,  7-C ) :   1.2649
B(  4-C ,  5-N ) :   1.2187 B(  4-C ,  6-N ) :   0.1158 B(  4-C , 11-H ) :   0.9006
B(  5-N ,  6-N ) :   1.0705 B(  5-N , 12-H ) :   0.8761 B(  6-N ,  7-C ) :   1.5423
B(  7-C , 13-H ) :   0.9329

MP2 TOTAL ENERGY:     -340.967183702 Eh
FINAL SINGLE POINT ENERGY      -340.967183702317

DIPOLE MOMENT
-------------
                                X             Y             Z
Electronic contribution:     -0.05051      -6.95865      -0.03495
Nuclear contribution   :      0.91982       7.21624       0.03084
                        -----------------------------------------
Total Dipole Moment    :      0.86931       0.25758      -0.00410
                        -----------------------------------------
Magnitude (a.u.)       :      0.90668
Magnitude (Debye)      :      2.30459

                             ****ORCA TERMINATED NORMALLY****
TOTAL RUN TIME: 0 days 0 hours 9 minutes 40 seconds 670 msec
