                         Program Version 3.0.3 - RELEASE   -
|  1> ! RI-MP2 RIJK def2-TZVP def2-TZVP/C def2-TZVP/JK TIGHTSCF
|  2> % maxcore 2000
|  3> % mp2 density relaxed end
|  4> *xyz 0 1
|  5>  C       -0.1908432690     1.5950733752    -0.1332700386
|  6>  C       -0.0432577126     0.0664754974    -0.0464063117
|  7>  C        0.7414567267    -0.4000125212     1.2013256923
|  8>  C        2.2092508502     0.0447023165     1.2253990296
|  9>  C        2.9650779531    -0.5047152643     2.4489388591
| 10>  C        4.4333601995    -0.1469679519     2.4059726390
| 11>  O        5.0217308494     0.4657540896     3.2584645737
| 12>  C       -1.4221761890    -0.5652947311    -0.0031574275
| 13>  O       -1.8283295519    -1.4029259129    -0.7654954696
| 14>  H        0.7830575188     2.0857932672    -0.2011629590
| 15>  H       -0.7681880573     1.8834195386    -1.0169415324
| 16>  H       -0.7051710098     1.9915791019     0.7497088990
| 17>  H        0.4500256971    -0.3161766096    -0.9470075332
| 18>  H        0.2349026387    -0.0362370656     2.1058476930
| 19>  H        0.7061181863    -1.4960385318     1.2479859212
| 20>  H        2.7064847944    -0.2935271270     0.3066032470
| 21>  H        2.2756212734     1.1382231586     1.2303787060
| 22>  H        2.5416095416    -0.1301682144     3.3855179564
| 23>  H        2.8907554307    -1.6021157722     2.4544251096
| 24>  H        4.9603872740    -0.4962265063     1.4859766010
| 25>  H       -2.0646238644    -0.1887114868     0.8301296249
| 26> *
| 27>
| 28>                          ****END OF INPUT****

CARTESIAN COORDINATES (ANGSTROEM)
---------------------------------
  C     -0.190843    1.595073   -0.133270
  C     -0.043258    0.066475   -0.046406
  C      0.741457   -0.400013    1.201326
  C      2.209251    0.044702    1.225399
  C      2.965078   -0.504715    2.448939
  C      4.433360   -0.146968    2.405973
  O      5.021731    0.465754    3.258465
  C     -1.422176   -0.565295   -0.003157
  O     -1.828330   -1.402926   -0.765495
  H      0.783058    2.085793   -0.201163
  H     -0.768188    1.883420   -1.016942
  H     -0.705171    1.991579    0.749709
  H      0.450026   -0.316177   -0.947008
  H      0.234903   -0.036237    2.105848
  H      0.706118   -1.496039    1.247986
  H      2.706485   -0.293527    0.306603
  H      2.275621    1.138223    1.230379
  H      2.541610   -0.130168    3.385518
  H      2.890755   -1.602116    2.454425
  H      4.960387   -0.496227    1.485977
  H     -2.064624   -0.188711    0.830130

 Total Charge           Charge          ....    0
 Multiplicity           Mult            ....    1
 Number of Electrons    NEL             ....   70
 Basis Dimension        Dim             ....  351

ORBITAL ENERGIES
----------------

  NO   OCC          E(Eh)            E(eV)
   0   2.0000     -20.562603      -559.5369
   1   2.0000     -20.562294      -559.5285
   2   2.0000     -11.337361      -308.5053
   3   2.0000     -11.334797      -308.4355
   4   2.0000     -11.255106      -306.2670
   5   2.0000     -11.253849      -306.2328
   6   2.0000     -11.251986      -306.1821
   7   2.0000     -11.250476      -306.1410
   8   2.0000     -11.240711      -305.8753
   9   2.0000      -1.401358       -38.1329
  10   2.0000      -1.401167       -38.1277
  11   2.0000      -1.124374       -30.5958
  12   2.0000      -1.069875       -29.1128
  13   2.0000      -0.973154       -26.4809
  14   2.0000      -0.911202       -24.7951
  15   2.0000      -0.835842       -22.7444
  16   2.0000      -0.802206       -21.8291
  17   2.0000      -0.787880       -21.4393
  18   2.0000      -0.690473       -18.7887
  19   2.0000      -0.668244       -18.1838
  20   2.0000      -0.658166       -17.9096
  21   2.0000      -0.642819       -17.4920
  22   2.0000      -0.640442       -17.4273
  23   2.0000      -0.607098       -16.5200
  24   2.0000      -0.590590       -16.0708
  25   2.0000      -0.567451       -15.4411
  26   2.0000      -0.557394       -15.1675
  27   2.0000      -0.536975       -14.6118
  28   2.0000      -0.522042       -14.2055
  29   2.0000      -0.517398       -14.0791
  30   2.0000      -0.507106       -13.7991
  31   2.0000      -0.494515       -13.4564
  32   2.0000      -0.482263       -13.1230
  33   2.0000      -0.429080       -11.6759
  34   2.0000      -0.413820       -11.2606
  35   0.0000       0.115138         3.1331
  36   0.0000       0.128907         3.5077
  37   0.0000       0.134131         3.6499
  38   0.0000       0.141249         3.8436
  39   0.0000       0.151280         4.1165

MULLIKEN ATOMIC CHARGES
-----------------------
   0 C :   -0.444987
   1 C :    0.067566
   2 C :   -0.278083
   3 C :   -0.298370
   4 C :   -0.131749
   5 C :    0.093744
   6 O :   -0.261269
   7 C :    0.084477
   8 O :   -0.257730
   9 H :    0.145802
  10 H :    0.151340
  11 H :    0.131475
  12 H :    0.094033
  13 H :    0.121580
  14 H :    0.135256
  15 H :    0.123287
  16 H :    0.133535
  17 H :    0.123056
  18 H :    0.126928
  19 H :    0.070982
  20 H :    0.069125
Sum of atomic charges:   -0.0000000

LOEWDIN ATOMIC CHARGES
----------------------
   0 C :   -0.286446
   1 C :   -0.279242
   2 C :   -0.240526
   3 C :   -0.259725
   4 C :   -0.261326
   5 C :   -0.297681
   6 O :    0.132814
   7 C :   -0.275755
   8 O :    0.136423
   9 H :    0.126439
  10 H :    0.129714
  11 H :    0.127052
  12 H :    0.157582
  13 H :    0.142979
  14 H :    0.146173
  15 H :    0.141414
  16 H :    0.141125
  17 H :    0.145592
  18 H :    0.151546
  19 H :    0.109351
  20 H :    0.112498

  Mayer bond orders larger than 0.1
B(  0-C ,  1-C ) :   0.8945 B(  0-C ,  9-H ) :   0.9362 B(  0-C , 10-H ) :   0.9371
B(  0-C , 11-H ) :   0.9245 B(  1-C ,  2-C ) :   0.9113 B(  1-C ,  7-C ) :   0.8555
B(  1-C , 12-H ) :   0.9011 B(  2-C ,  3-C ) :   0.9186 B(  2-C , 13-H ) :   0.9234
B(  2-C , 14-H ) :   0.9300 B(  3-C ,  4-C ) :   0.9093 B(  3-C , 15-H ) :   0.9304
B(  3-C , 16-H ) :   0.9306 B(  4-C ,  5-C ) :   0.8755 B(  4-C , 17-H ) :   0.9033
B(  4-C , 18-H ) :   0.9171 B(  5-C ,  6-O ) :   2.0085 B(  5-C , 19-H ) :   0.9397
B(  7-C ,  8-O ) :   2.0113 B(  7-C , 20-H ) :   0.9323

MP2 TOTAL ENERGY:     -423.536096927 Eh
FINAL SINGLE POINT ENERGY      -423.536096926750

DIPOLE MOMENT
-------------
                                X             Y             Z
Electronic contribution:      1.60528      -3.11795       0.99618
Nuclear contribution   :     -1.74639       3.36952      -1.10485
                        -----------------------------------------
Total Dipole Moment    :     -0.14111       0.25156      -0.10866
                        -----------------------------------------
Magnitude (a.u.)       :      0.30823
Magnitude (Debye)      :      0.78346

                             ****ORCA TERMINATED NORMALLY****
TOTAL RUN TIME: 0 days 0 hours 16 minutes 43 seconds 901 msec
