                         Program Version 3.0.3 - RELEASE   -
|  1> ! RI-MP2 RIJK def2-TZVP def2-TZVP/C def2-TZVP/JK TIGHTSCF
|  2> % maxcore 2000
|  3> % mp2 density relaxed end
|  4> *xyz 0 1
|  5>  O       -0.1063016761    -0.0021849960     0.0003169767
|  6>  C       -0.0160793086     1.1981121771     0.0095236967
|  7>  C        1.2550355341     1.9425004880     0.0007673525
|  8>  C        1.4181722198     3.2999641024     0.0104154854
|  9>  O        2.7380521270     3.5750319125    -0.0031776719
| 10>  C        3.3336515212     2.3422550386    -0.0203133915
| 11>  N        2.5083127462     1.3474440260    -0.0191967167
| 12>  C        4.7530561463     2.3084517663    -0.0375807766
| 13>  N        5.9088604089     2.2906967492    -0.0515743554
| 14>  H       -0.9123361336     1.8562251738     0.0257602939
| 15>  H        0.7456956448     4.1416587220     0.0254690968
| 16> *
| 17>
| 18>                          ****END OF INPUT****

CARTESIAN COORDINATES (ANGSTROEM)
---------------------------------
  O     -0.106302   -0.002185    0.000317
  C     -0.016079    1.198112    0.009524
  C      1.255036    1.942500    0.000767
  C      1.418172    3.299964    0.010415
  O      2.738052    3.575032   -0.003178
  C      3.333652    2.342255   -0.020313
  N      2.508313    1.347444   -0.019197
  C      4.753056    2.308452   -0.037581
  N      5.908860    2.290697   -0.051574
  H     -0.912336    1.856225    0.025760
  H      0.745696    4.141659    0.025469

 Total Charge           Charge          ....    0
 Multiplicity           Mult            ....    1
 Number of Electrons    NEL             ....   62
 Basis Dimension        Dim             ....  291

ORBITAL ENERGIES
----------------

  NO   OCC          E(Eh)            E(eV)
   0   2.0000     -20.701809      -563.3249
   1   2.0000     -20.580311      -560.0187
   2   2.0000     -15.631798      -425.3629
   3   2.0000     -15.620706      -425.0610
   4   2.0000     -11.411714      -310.5285
   5   2.0000     -11.366351      -309.2941
   6   2.0000     -11.363798      -309.2247
   7   2.0000     -11.316037      -307.9250
   8   2.0000     -11.315905      -307.9214
   9   2.0000      -1.551811       -42.2269
  10   2.0000      -1.419332       -38.6220
  11   2.0000      -1.299369       -35.3576
  12   2.0000      -1.257717       -34.2242
  13   2.0000      -1.116910       -30.3927
  14   2.0000      -0.971320       -26.4310
  15   2.0000      -0.919949       -25.0331
  16   2.0000      -0.852829       -23.2067
  17   2.0000      -0.802475       -21.8365
  18   2.0000      -0.725466       -19.7409
  19   2.0000      -0.721859       -19.6428
  20   2.0000      -0.686231       -18.6733
  21   2.0000      -0.674824       -18.3629
  22   2.0000      -0.632609       -17.2142
  23   2.0000      -0.599729       -16.3195
  24   2.0000      -0.571724       -15.5574
  25   2.0000      -0.542636       -14.7659
  26   2.0000      -0.522264       -14.2115
  27   2.0000      -0.511596       -13.9212
  28   2.0000      -0.489383       -13.3168
  29   2.0000      -0.459969       -12.5164
  30   2.0000      -0.390305       -10.6207
  31   0.0000       0.049236         1.3398
  32   0.0000       0.067051         1.8246
  33   0.0000       0.126446         3.4408
  34   0.0000       0.141023         3.8374
  35   0.0000       0.152438         4.1481

MULLIKEN ATOMIC CHARGES
-----------------------
   0 O :   -0.230525
   1 C :    0.024148
   2 C :    0.103391
   3 C :   -0.004574
   4 O :   -0.173670
   5 C :    0.428810
   6 N :   -0.229469
   7 C :   -0.176929
   8 N :   -0.020855
   9 H :    0.092430
  10 H :    0.187245
Sum of atomic charges:   -0.0000000

LOEWDIN ATOMIC CHARGES
----------------------
   0 O :    0.164459
   1 C :   -0.272971
   2 C :   -0.247323
   3 C :   -0.178114
   4 O :    0.387026
   5 C :   -0.319018
   6 N :    0.209244
   7 C :   -0.132002
   8 N :    0.120367
   9 H :    0.120394
  10 H :    0.147937

  Mayer bond orders larger than 0.1
B(  0-O ,  1-C ) :   2.0406 B(  1-C ,  2-C ) :   0.8053 B(  1-C ,  9-H ) :   0.9870
B(  2-C ,  3-C ) :   1.4879 B(  2-C ,  6-N ) :   1.1913 B(  2-C ,  9-H ) :  -0.1078
B(  3-C ,  4-O ) :   1.0812 B(  3-C , 10-H ) :   0.9091 B(  4-O ,  5-C ) :   1.0274
B(  5-C ,  6-N ) :   1.5660 B(  5-C ,  7-C ) :   0.9187 B(  7-C ,  8-N ) :   2.8076

MP2 TOTAL ENERGY:     -450.835330417 Eh
FINAL SINGLE POINT ENERGY      -450.835330417294

DIPOLE MOMENT
-------------
                                X             Y             Z
Electronic contribution:      3.35122      -0.18236      -0.04113
Nuclear contribution   :     -4.60707       1.81552       0.07012
                        -----------------------------------------
Total Dipole Moment    :     -1.25585       1.63316       0.02899
                        -----------------------------------------
Magnitude (a.u.)       :      2.06039
Magnitude (Debye)      :      5.23710

                             ****ORCA TERMINATED NORMALLY****
TOTAL RUN TIME: 0 days 0 hours 11 minutes 20 seconds 548 msec
