                         Program Version 3.0.3 - RELEASE   -
|  1> ! RI-MP2 RIJK def2-TZVP def2-TZVP/C def2-TZVP/JK TIGHTSCF
|  2> % maxcore 2000
|  3> % mp2 density relaxed end
|  4> *xyz 0 1
|  5>  N       -0.0331629075     1.1495005944     0.5473984248
|  6>  C       -0.0037936348    -0.0036650741     0.0347752394
|  7>  C       -1.2895277376    -0.7902238261    -0.2050909454
|  8>  C       -1.0226542319    -2.1476065663    -0.8813921315
|  9>  C        0.0118945600    -1.9187138130    -2.0313847069
| 10>  C        1.1114540288    -1.8956145128    -0.9387916446
| 11>  O        1.1815291457    -0.6012430602    -0.3206390406
| 12>  C        0.1462337607    -2.8039398511    -0.1266929117
| 13>  O        0.2752306599    -3.7182752158     0.6289625813
| 14>  H        0.9128050622     1.5245643689     0.6397902845
| 15>  H       -1.7902585606    -0.9243776405     0.7584303494
| 16>  H       -1.9533990199    -0.1781560742    -0.8233555899
| 17>  H       -1.9336382564    -2.7200192455    -1.0581021609
| 18>  H        0.1123386787    -2.7851567093    -2.6884470939
| 19>  H       -0.0941024106    -1.0045976307    -2.6191860869
| 20>  H        2.1346397833    -2.2016627037    -1.1497774571
| 21> *
| 22>
| 23>                          ****END OF INPUT****

CARTESIAN COORDINATES (ANGSTROEM)
---------------------------------
  N     -0.033163    1.149501    0.547398
  C     -0.003794   -0.003665    0.034775
  C     -1.289528   -0.790224   -0.205091
  C     -1.022654   -2.147607   -0.881392
  C      0.011895   -1.918714   -2.031385
  C      1.111454   -1.895615   -0.938792
  O      1.181529   -0.601243   -0.320639
  C      0.146234   -2.803940   -0.126693
  O      0.275231   -3.718275    0.628963
  H      0.912805    1.524564    0.639790
  H     -1.790259   -0.924378    0.758430
  H     -1.953399   -0.178156   -0.823356
  H     -1.933638   -2.720019   -1.058102
  H      0.112339   -2.785157   -2.688447
  H     -0.094102   -1.004598   -2.619186
  H      2.134640   -2.201663   -1.149777

 Total Charge           Charge          ....    0
 Multiplicity           Mult            ....    1
 Number of Electrons    NEL             ....   66
 Basis Dimension        Dim             ....  321

ORBITAL ENERGIES
----------------

  NO   OCC          E(Eh)            E(eV)
   0   2.0000     -20.611956      -560.8798
   1   2.0000     -20.577209      -559.9343
   2   2.0000     -15.540027      -422.8656
   3   2.0000     -11.351571      -308.8919
   4   2.0000     -11.351225      -308.8825
   5   2.0000     -11.325083      -308.1712
   6   2.0000     -11.273253      -306.7608
   7   2.0000     -11.266329      -306.5724
   8   2.0000     -11.264622      -306.5260
   9   2.0000      -1.445407       -39.3315
  10   2.0000      -1.416189       -38.5365
  11   2.0000      -1.209728       -32.9184
  12   2.0000      -1.169553       -31.8252
  13   2.0000      -1.030606       -28.0442
  14   2.0000      -0.910216       -24.7682
  15   2.0000      -0.891320       -24.2541
  16   2.0000      -0.831590       -22.6287
  17   2.0000      -0.720693       -19.6111
  18   2.0000      -0.710827       -19.3426
  19   2.0000      -0.694163       -18.8891
  20   2.0000      -0.666283       -18.1305
  21   2.0000      -0.653564       -17.7844
  22   2.0000      -0.644090       -17.5266
  23   2.0000      -0.610537       -16.6136
  24   2.0000      -0.590501       -16.0684
  25   2.0000      -0.563782       -15.3413
  26   2.0000      -0.552908       -15.0454
  27   2.0000      -0.529349       -14.4043
  28   2.0000      -0.505541       -13.7565
  29   2.0000      -0.479012       -13.0346
  30   2.0000      -0.445734       -12.1290
  31   2.0000      -0.417521       -11.3613
  32   2.0000      -0.396095       -10.7783
  33   0.0000       0.109524         2.9803
  34   0.0000       0.131119         3.5679
  35   0.0000       0.148101         4.0300
  36   0.0000       0.154849         4.2137
  37   0.0000       0.165965         4.5161

MULLIKEN ATOMIC CHARGES
-----------------------
   0 N :   -0.361856
   1 C :    0.085817
   2 C :   -0.212795
   3 C :    0.034069
   4 C :   -0.328473
   5 C :    0.138993
   6 O :   -0.263569
   7 C :    0.026542
   8 O :   -0.226049
   9 H :    0.225175
  10 H :    0.156477
  11 H :    0.151577
  12 H :    0.140571
  13 H :    0.142832
  14 H :    0.144646
  15 H :    0.146045
Sum of atomic charges:   -0.0000000

LOEWDIN ATOMIC CHARGES
----------------------
   0 N :   -0.048591
   1 C :   -0.394042
   2 C :   -0.190188
   3 C :   -0.185021
   4 C :   -0.188522
   5 C :   -0.223835
   6 O :    0.254345
   7 C :   -0.275461
   8 O :    0.185036
   9 H :    0.169335
  10 H :    0.161426
  11 H :    0.159387
  12 H :    0.147956
  13 H :    0.146056
  14 H :    0.141314
  15 H :    0.140804

  Mayer bond orders larger than 0.1
B(  0-N ,  1-C ) :   2.0729 B(  0-N ,  9-H ) :   0.8543 B(  1-C ,  2-C ) :   0.9190
B(  1-C ,  6-O ) :   1.0688 B(  2-C ,  3-C ) :   0.8812 B(  2-C , 10-H ) :   0.9120
B(  2-C , 11-H ) :   0.9095 B(  3-C ,  4-C ) :   0.8975 B(  3-C ,  5-C ) :  -0.1170
B(  3-C ,  7-C ) :   0.8331 B(  3-C , 12-H ) :   0.9058 B(  4-C ,  5-C ) :   0.9033
B(  4-C , 13-H ) :   0.9141 B(  4-C , 14-H ) :   0.9134 B(  5-C ,  6-O ) :   0.8376
B(  5-C ,  7-C ) :   0.8306 B(  5-C , 15-H ) :   0.9151 B(  7-C ,  8-O ) :   2.0529

MP2 TOTAL ENERGY:     -437.168707645 Eh
FINAL SINGLE POINT ENERGY      -437.168707644718

DIPOLE MOMENT
-------------
                                X             Y             Z
Electronic contribution:      2.70604      -1.70769       2.97944
Nuclear contribution   :     -2.83199       1.46191      -4.17048
                        -----------------------------------------
Total Dipole Moment    :     -0.12596      -0.24578      -1.19104
                        -----------------------------------------
Magnitude (a.u.)       :      1.22264
Magnitude (Debye)      :      3.10770

                             ****ORCA TERMINATED NORMALLY****
TOTAL RUN TIME: 0 days 0 hours 18 minutes 9 seconds 886 msec
