                         Program Version 3.0.3 - RELEASE   -
|  1> ! RI-MP2 RIJK def2-TZVP def2-TZVP/C def2-TZVP/JK TIGHTSCF
|  2> % maxcore 2000
|  3> % mp2 density relaxed end
|  4> *xyz 0 1
|  5>  O       -0.0083604611     0.0454588402    -0.1649849258
|  6>  C       -0.0579707098     1.2319614054    -0.0166182226
|  7>  C       -1.1677491875     2.2422272232    -0.0581064738
|  8>  C       -1.0548928657     3.1488143922     1.1619392365
|  9>  C       -0.1077834333     3.3683679955     0.0350356568
| 10>  C        1.0380130038     2.3409059247     0.0724635158
| 11>  C        2.0547909182     2.3789434709     1.2248773804
| 12>  C        3.0347359764     1.3021666858     1.1535858938
| 13>  C        3.8459826044     0.4194079455     1.0773412667
| 14>  H       -2.0827892064     2.1817747565    -0.6333139179
| 15>  H       -1.8671405714     3.8629198194     1.2503924783
| 16>  H       -0.7212889603     2.7467546303     2.1137101059
| 17>  H       -0.0944766814     4.2821612736    -0.5442711231
| 18>  H        1.5766195165     2.3225730211    -0.8820306270
| 19>  H        2.5736744013     3.3467169587     1.2017981858
| 20>  H        1.5350108943     2.3380307101     2.1892055718
| 21>  H        4.5529235520    -0.3702393330     1.0153075784
| 22> *
| 23>
| 24>                          ****END OF INPUT****

CARTESIAN COORDINATES (ANGSTROEM)
---------------------------------
  O     -0.008360    0.045459   -0.164985
  C     -0.057971    1.231961   -0.016618
  C     -1.167749    2.242227   -0.058106
  C     -1.054893    3.148814    1.161939
  C     -0.107783    3.368368    0.035036
  C      1.038013    2.340906    0.072464
  C      2.054791    2.378943    1.224877
  C      3.034736    1.302167    1.153586
  C      3.845983    0.419408    1.077341
  H     -2.082789    2.181775   -0.633314
  H     -1.867141    3.862920    1.250392
  H     -0.721289    2.746755    2.113710
  H     -0.094477    4.282161   -0.544271
  H      1.576620    2.322573   -0.882031
  H      2.573674    3.346717    1.201798
  H      1.535011    2.338031    2.189206
  H      4.552924   -0.370239    1.015308

 Total Charge           Charge          ....    0
 Multiplicity           Mult            ....    1
 Number of Electrons    NEL             ....   64
 Basis Dimension        Dim             ....  327

ORBITAL ENERGIES
----------------

  NO   OCC          E(Eh)            E(eV)
   0   2.0000     -20.547641      -559.1297
   1   2.0000     -11.335220      -308.4470
   2   2.0000     -11.265295      -306.5443
   3   2.0000     -11.265251      -306.5431
   4   2.0000     -11.261765      -306.4482
   5   2.0000     -11.260907      -306.4249
   6   2.0000     -11.256572      -306.3069
   7   2.0000     -11.232529      -305.6527
   8   2.0000     -11.219907      -305.3092
   9   2.0000      -1.392575       -37.8939
  10   2.0000      -1.215445       -33.0739
  11   2.0000      -1.083147       -29.4739
  12   2.0000      -1.003255       -27.2999
  13   2.0000      -0.941689       -25.6247
  14   2.0000      -0.878335       -23.9007
  15   2.0000      -0.811349       -22.0779
  16   2.0000      -0.733780       -19.9672
  17   2.0000      -0.722729       -19.6664
  18   2.0000      -0.689664       -18.7667
  19   2.0000      -0.664835       -18.0911
  20   2.0000      -0.637032       -17.3345
  21   2.0000      -0.626128       -17.0378
  22   2.0000      -0.603218       -16.4144
  23   2.0000      -0.572846       -15.5879
  24   2.0000      -0.554940       -15.1007
  25   2.0000      -0.526772       -14.3342
  26   2.0000      -0.516007       -14.0413
  27   2.0000      -0.451708       -12.2916
  28   2.0000      -0.419186       -11.4066
  29   2.0000      -0.404028       -10.9942
  30   2.0000      -0.384324       -10.4580
  31   2.0000      -0.377062       -10.2604
  32   0.0000       0.121804         3.3144
  33   0.0000       0.146800         3.9946
  34   0.0000       0.147995         4.0271
  35   0.0000       0.166093         4.5196
  36   0.0000       0.171703         4.6723

MULLIKEN ATOMIC CHARGES
-----------------------
   0 O :   -0.248635
   1 C :    0.110087
   2 C :   -0.123849
   3 C :   -0.267811
   4 C :   -0.108317
   5 C :   -0.045786
   6 C :   -0.367015
   7 C :   -0.004025
   8 C :   -0.141385
   9 H :    0.150192
  10 H :    0.144213
  11 H :    0.146877
  12 H :    0.148705
  13 H :    0.128222
  14 H :    0.148500
  15 H :    0.139300
  16 H :    0.190727
Sum of atomic charges:   -0.0000000

LOEWDIN ATOMIC CHARGES
----------------------
   0 O :    0.168197
   1 C :   -0.286878
   2 C :   -0.132474
   3 C :   -0.188010
   4 C :   -0.147596
   5 C :   -0.164191
   6 C :   -0.225116
   7 C :   -0.108018
   8 C :   -0.097491
   9 H :    0.143191
  10 H :    0.145011
  11 H :    0.134454
  12 H :    0.141066
  13 H :    0.171437
  14 H :    0.161805
  15 H :    0.157905
  16 H :    0.126709

  Mayer bond orders larger than 0.1
B(  0-O ,  1-C ) :   2.0420 B(  1-C ,  2-C ) :   0.9248 B(  1-C ,  5-C ) :   0.8767
B(  2-C ,  3-C ) :   0.8398 B(  2-C ,  4-C ) :   0.8328 B(  2-C ,  9-H ) :   0.9133
B(  3-C ,  4-C ) :   0.8992 B(  3-C , 10-H ) :   0.9276 B(  3-C , 11-H ) :   0.9225
B(  4-C ,  5-C ) :   0.9129 B(  4-C , 12-H ) :   0.9190 B(  5-C ,  6-C ) :   0.9070
B(  5-C , 13-H ) :   0.9027 B(  6-C ,  7-C ) :   1.0913 B(  6-C , 14-H ) :   0.9222
B(  6-C , 15-H ) :   0.9292 B(  7-C ,  8-C ) :   2.6258 B(  8-C , 16-H ) :   0.8970

MP2 TOTAL ENERGY:     -383.950442448 Eh
FINAL SINGLE POINT ENERGY      -383.950442448204

DIPOLE MOMENT
-------------
                                X             Y             Z
Electronic contribution:      0.62582      -4.37381      -1.57621
Nuclear contribution   :     -0.90503       5.72522       1.66412
                        -----------------------------------------
Total Dipole Moment    :     -0.27922       1.35141       0.08791
                        -----------------------------------------
Magnitude (a.u.)       :      1.38275
Magnitude (Debye)      :      3.51467

                             ****ORCA TERMINATED NORMALLY****
TOTAL RUN TIME: 0 days 0 hours 16 minutes 15 seconds 73 msec
