                         Program Version 3.0.3 - RELEASE   -
|  1> ! RI-MP2 RIJK def2-TZVP def2-TZVP/C def2-TZVP/JK TIGHTSCF
|  2> % maxcore 2000
|  3> % mp2 density relaxed end
|  4> *xyz 0 1
|  5>  O        0.0122464397     0.0097812551     0.1491274362
|  6>  C        0.0108446826     1.2092666590     0.0062212556
|  7>  N       -1.1034896173     2.0374509811    -0.0715273378
|  8>  C       -0.6447064291     3.4390833439     0.0158969659
|  9>  C        0.5978785853     3.3197093009    -0.8911179984
| 10>  C        1.2115418280     2.1845010505    -0.0486909853
| 11>  C        1.2029220379     2.7729020034     1.3817814716
| 12>  C        1.3081181638     4.2646037953     1.5959258696
| 13>  C       -0.0499688270     3.6301247529     1.4248796953
| 14>  H       -1.9634264361     1.7286722238     0.3581617168
| 15>  H       -1.4180308942     4.1415727215    -0.2955441911
| 16>  H        0.3247384157     2.9997373113    -1.8977203988
| 17>  H        1.2035900132     4.2221565974    -0.9560359770
| 18>  H        2.1395934991     1.7248340925    -0.3822947520
| 19>  H        1.4597018694     2.1064327392     2.1965395736
| 20>  H        1.5594736307     4.5692973450     2.6069219356
| 21>  H        1.7249150230     4.9180565154     0.8389367091
| 22>  H       -0.7311706646     3.5956863720     2.2680922112
| 23> *
| 24>
| 25>                          ****END OF INPUT****

CARTESIAN COORDINATES (ANGSTROEM)
---------------------------------
  O      0.012246    0.009781    0.149127
  C      0.010845    1.209267    0.006221
  N     -1.103490    2.037451   -0.071527
  C     -0.644706    3.439083    0.015897
  C      0.597879    3.319709   -0.891118
  C      1.211542    2.184501   -0.048691
  C      1.202922    2.772902    1.381781
  C      1.308118    4.264604    1.595926
  C     -0.049969    3.630125    1.424880
  H     -1.963426    1.728672    0.358162
  H     -1.418031    4.141573   -0.295544
  H      0.324738    2.999737   -1.897720
  H      1.203590    4.222157   -0.956036
  H      2.139593    1.724834   -0.382295
  H      1.459702    2.106433    2.196540
  H      1.559474    4.569297    2.606922
  H      1.724915    4.918057    0.838937
  H     -0.731171    3.595686    2.268092

 Total Charge           Charge          ....    0
 Multiplicity           Mult            ....    1
 Number of Electrons    NEL             ....   66
 Basis Dimension        Dim             ....  333

ORBITAL ENERGIES
----------------

  NO   OCC          E(Eh)            E(eV)
   0   2.0000     -20.519587      -558.3663
   1   2.0000     -15.572834      -423.7583
   2   2.0000     -11.342889      -308.6557
   3   2.0000     -11.285328      -307.0894
   4   2.0000     -11.251458      -306.1677
   5   2.0000     -11.247061      -306.0481
   6   2.0000     -11.244149      -305.9688
   7   2.0000     -11.243554      -305.9527
   8   2.0000     -11.239608      -305.8453
   9   2.0000      -1.381103       -37.5817
  10   2.0000      -1.266218       -34.4556
  11   2.0000      -1.161774       -31.6135
  12   2.0000      -1.042678       -28.3727
  13   2.0000      -0.978692       -26.6316
  14   2.0000      -0.878175       -23.8964
  15   2.0000      -0.808131       -21.9904
  16   2.0000      -0.783526       -21.3208
  17   2.0000      -0.756636       -20.5891
  18   2.0000      -0.715247       -19.4629
  19   2.0000      -0.684257       -18.6196
  20   2.0000      -0.646030       -17.5794
  21   2.0000      -0.623896       -16.9771
  22   2.0000      -0.578696       -15.7471
  23   2.0000      -0.575967       -15.6729
  24   2.0000      -0.552390       -15.0313
  25   2.0000      -0.542298       -14.7567
  26   2.0000      -0.529000       -14.3948
  27   2.0000      -0.507070       -13.7981
  28   2.0000      -0.485101       -13.2003
  29   2.0000      -0.444799       -12.1036
  30   2.0000      -0.427220       -11.6252
  31   2.0000      -0.395227       -10.7547
  32   2.0000      -0.380615       -10.3571
  33   0.0000       0.133376         3.6294
  34   0.0000       0.150587         4.0977
  35   0.0000       0.159093         4.3291
  36   0.0000       0.166968         4.5434
  37   0.0000       0.177021         4.8170

MULLIKEN ATOMIC CHARGES
-----------------------
   0 O :   -0.315659
   1 C :    0.144639
   2 N :   -0.326773
   3 C :    0.090671
   4 C :   -0.310628
   5 C :    0.033626
   6 C :   -0.175228
   7 C :   -0.259199
   8 C :   -0.186827
   9 H :    0.234035
  10 H :    0.139775
  11 H :    0.136805
  12 H :    0.127601
  13 H :    0.136977
  14 H :    0.137120
  15 H :    0.135595
  16 H :    0.129159
  17 H :    0.128311
Sum of atomic charges:    0.0000000

LOEWDIN ATOMIC CHARGES
----------------------
   0 O :    0.098755
   1 C :   -0.405751
   2 N :    0.122225
   3 C :   -0.227214
   4 C :   -0.193330
   5 C :   -0.169872
   6 C :   -0.163470
   7 C :   -0.199808
   8 C :   -0.180334
   9 H :    0.180135
  10 H :    0.142056
  11 H :    0.145543
  12 H :    0.135883
  13 H :    0.150840
  14 H :    0.149195
  15 H :    0.140728
  16 H :    0.131277
  17 H :    0.143142

  Mayer bond orders larger than 0.1
B(  0-O ,  1-C ) :   2.0338 B(  1-C ,  2-N ) :   1.1581 B(  1-C ,  5-C ) :   0.8587
B(  2-N ,  3-C ) :   0.8724 B(  2-N ,  9-H ) :   0.8592 B(  3-C ,  4-C ) :   0.9203
B(  3-C ,  8-C ) :   0.9133 B(  3-C , 10-H ) :   0.9122 B(  4-C ,  5-C ) :   0.9203
B(  4-C , 11-H ) :   0.9186 B(  4-C , 12-H ) :   0.9196 B(  5-C ,  6-C ) :   0.8666
B(  5-C , 13-H ) :   0.9194 B(  6-C ,  7-C ) :   0.8811 B(  6-C ,  8-C ) :   0.8979
B(  6-C , 14-H ) :   0.9336 B(  7-C ,  8-C ) :   0.9027 B(  7-C , 15-H ) :   0.9266
B(  7-C , 16-H ) :   0.9142 B(  8-C , 17-H ) :   0.9241

MP2 TOTAL ENERGY:     -401.291492633 Eh
FINAL SINGLE POINT ENERGY      -401.291492632880

DIPOLE MOMENT
-------------
                                X             Y             Z
Electronic contribution:     -1.90864      -5.42311      -0.90866
Nuclear contribution   :      1.77674       6.92565       1.14608
                        -----------------------------------------
Total Dipole Moment    :     -0.13190       1.50254       0.23742
                        -----------------------------------------
Magnitude (a.u.)       :      1.52689
Magnitude (Debye)      :      3.88106

                             ****ORCA TERMINATED NORMALLY****
TOTAL RUN TIME: 0 days 0 hours 18 minutes 29 seconds 404 msec
