                         Program Version 3.0.3 - RELEASE   -
|  1> ! RI-MP2 RIJK def2-TZVP def2-TZVP/C def2-TZVP/JK TIGHTSCF
|  2> % maxcore 2000
|  3> % mp2 density relaxed end
|  4> *xyz 0 1
|  5>  C       -0.0356663679     1.5257775173     0.0049231332
|  6>  C       -0.0097677550     0.0232980437    -0.0071813544
|  7>  C       -0.0260325078    -0.7107714388    -1.1898667271
|  8>  C       -0.0001682167    -2.1017130239    -1.1444231977
|  9>  N        0.0404386117    -2.8099355056    -0.0117982701
| 10>  C        0.0563307727    -2.1215543033     1.1254944600
| 11>  C        0.0329927655    -0.7212897746     1.1875475039
| 12>  C        0.0527415527    -0.0680152935     2.4578728655
| 13>  N        0.0687187972     0.4690468547     3.4837973125
| 14>  H        0.8516057455     1.9284679842     0.5048970150
| 15>  H       -0.0741303377     1.9271501249    -1.0097107312
| 16>  H       -0.9032069547     1.8981321112     0.5598589070
| 17>  H       -0.0588603684    -0.2003599391    -2.1464487154
| 18>  H       -0.0128038687    -2.6767807495    -2.0670548662
| 19>  H        0.0892748715    -2.6955267077     2.0476399051
| 20> *
| 21>
| 22>                          ****END OF INPUT****

CARTESIAN COORDINATES (ANGSTROEM)
---------------------------------
  C     -0.035666    1.525778    0.004923
  C     -0.009768    0.023298   -0.007181
  C     -0.026033   -0.710771   -1.189867
  C     -0.000168   -2.101713   -1.144423
  N      0.040439   -2.809936   -0.011798
  C      0.056331   -2.121554    1.125494
  C      0.032993   -0.721290    1.187548
  C      0.052742   -0.068015    2.457873
  N      0.068719    0.469047    3.483797
  H      0.851606    1.928468    0.504897
  H     -0.074130    1.927150   -1.009711
  H     -0.903207    1.898132    0.559859
  H     -0.058860   -0.200360   -2.146449
  H     -0.012804   -2.676781   -2.067055
  H      0.089275   -2.695527    2.047640

 Total Charge           Charge          ....    0
 Multiplicity           Mult            ....    1
 Number of Electrons    NEL             ....   62
 Basis Dimension        Dim             ....  315

ORBITAL ENERGIES
----------------

  NO   OCC          E(Eh)            E(eV)
   0   2.0000     -15.585044      -424.0906
   1   2.0000     -15.578963      -423.9251
   2   2.0000     -11.308160      -307.7107
   3   2.0000     -11.302793      -307.5646
   4   2.0000     -11.300842      -307.5116
   5   2.0000     -11.288738      -307.1822
   6   2.0000     -11.282786      -307.0202
   7   2.0000     -11.259827      -306.3955
   8   2.0000     -11.253445      -306.2218
   9   2.0000      -1.287076       -35.0231
  10   2.0000      -1.226553       -33.3762
  11   2.0000      -1.142228       -31.0816
  12   2.0000      -1.071385       -29.1539
  13   2.0000      -0.996360       -27.1123
  14   2.0000      -0.909502       -24.7488
  15   2.0000      -0.858131       -23.3509
  16   2.0000      -0.762005       -20.7352
  17   2.0000      -0.709018       -19.2934
  18   2.0000      -0.704889       -19.1810
  19   2.0000      -0.633684       -17.2434
  20   2.0000      -0.613949       -16.7064
  21   2.0000      -0.588935       -16.0257
  22   2.0000      -0.577543       -15.7157
  23   2.0000      -0.567645       -15.4464
  24   2.0000      -0.560865       -15.2619
  25   2.0000      -0.540657       -14.7120
  26   2.0000      -0.502105       -13.6630
  27   2.0000      -0.481859       -13.1121
  28   2.0000      -0.439000       -11.9458
  29   2.0000      -0.394318       -10.7299
  30   2.0000      -0.366736        -9.9794
  31   0.0000       0.063000         1.7143
  32   0.0000       0.090811         2.4711
  33   0.0000       0.129423         3.5218
  34   0.0000       0.154377         4.2008
  35   0.0000       0.160692         4.3727

MULLIKEN ATOMIC CHARGES
-----------------------
   0 C :   -0.427135
   1 C :   -0.069077
   2 C :   -0.095442
   3 C :   -0.034126
   4 N :   -0.225100
   5 C :   -0.112160
   6 C :    0.278888
   7 C :   -0.175140
   8 N :   -0.040662
   9 H :    0.163917
  10 H :    0.143291
  11 H :    0.163983
  12 H :    0.137551
  13 H :    0.139923
  14 H :    0.151290
Sum of atomic charges:   -0.0000000

LOEWDIN ATOMIC CHARGES
----------------------
   0 C :   -0.247873
   1 C :   -0.116172
   2 C :   -0.105523
   3 C :   -0.198170
   4 N :    0.145941
   5 C :   -0.161208
   6 C :   -0.124856
   7 C :   -0.144199
   8 N :    0.083850
   9 H :    0.143126
  10 H :    0.132972
  11 H :    0.143088
  12 H :    0.155654
  13 H :    0.142622
  14 H :    0.150748

  Mayer bond orders larger than 0.1
B(  0-C ,  1-C ) :   0.9163 B(  0-C ,  9-H ) :   0.9253 B(  0-C , 10-H ) :   0.9436
B(  0-C , 11-H ) :   0.9256 B(  1-C ,  2-C ) :   1.3786 B(  1-C ,  6-C ) :   1.2581
B(  2-C ,  3-C ) :   1.3075 B(  2-C , 12-H ) :   0.9161 B(  3-C ,  4-N ) :   1.3765
B(  3-C , 13-H ) :   0.9421 B(  4-N ,  5-C ) :   1.4163 B(  5-C ,  6-C ) :   1.2686
B(  5-C , 14-H ) :   0.9431 B(  6-C ,  7-C ) :   0.8972 B(  7-C ,  8-N ) :   2.8368

MP2 TOTAL ENERGY:     -379.060553922 Eh
FINAL SINGLE POINT ENERGY      -379.060553921546

DIPOLE MOMENT
-------------
                                X             Y             Z
Electronic contribution:      0.16588      -3.72062       4.09632
Nuclear contribution   :     -0.20901       4.10725      -5.57728
                        -----------------------------------------
Total Dipole Moment    :     -0.04313       0.38663      -1.48096
                        -----------------------------------------
Magnitude (a.u.)       :      1.53120
Magnitude (Debye)      :      3.89201

                             ****ORCA TERMINATED NORMALLY****
TOTAL RUN TIME: 0 days 0 hours 16 minutes 9 seconds 243 msec
