                         Program Version 3.0.3 - RELEASE   -
|  1> ! RI-MP2 RIJK def2-TZVP def2-TZVP/C def2-TZVP/JK TIGHTSCF
|  2> % maxcore 2000
|  3> % mp2 density relaxed end
|  4> *xyz 0 1
|  5>  C       -0.0225058168     1.6125779130    -0.0257128351
|  6>  C        0.1067170424     0.0950889925    -0.0106867156
|  7>  C        0.7122589629    -0.6566702341    -1.1893340779
|  8>  C        2.2624663271    -0.7642920696    -1.1110452618
|  9>  C        3.0043173278     0.1518887613    -0.2003100857
| 10>  C        2.4065692901     0.1661093404     0.9955746674
| 11>  C        1.1447812966    -0.6692338222     0.9434044776
| 12>  C        0.6103379697    -1.2047315370     2.2562071960
| 13>  C        1.3822713643    -1.6427151345    -0.2667845391
| 14>  H        0.9333712368     2.0983096574    -0.2346574219
| 15>  H       -0.7330088504     1.9218958370    -0.8010274217
| 16>  H       -0.3971801259     1.9919227318     0.9322700952
| 17>  H       -0.8720578188    -0.3543173548     0.1943844075
| 18>  H        0.2222312520    -0.8402607962    -2.1392122309
| 19>  H        2.7288248957    -1.1709834290    -2.0013072022
| 20>  H        3.8643798352     0.7374172490    -0.5019350534
| 21>  H        2.6664115151     0.7957173997     1.8388298302
| 22>  H        0.3421975524    -0.3880926538     2.9365235621
| 23>  H       -0.2851924099    -1.8161180256     2.1019484005
| 24>  H        1.3579928134    -1.8254764121     2.7627973317
| 25>  H        1.3756199504    -2.7267693630    -0.2557935030
| 26> *
| 27>
| 28>                          ****END OF INPUT****

CARTESIAN COORDINATES (ANGSTROEM)
---------------------------------
  C     -0.022506    1.612578   -0.025713
  C      0.106717    0.095089   -0.010687
  C      0.712259   -0.656670   -1.189334
  C      2.262466   -0.764292   -1.111045
  C      3.004317    0.151889   -0.200310
  C      2.406569    0.166109    0.995575
  C      1.144781   -0.669234    0.943404
  C      0.610338   -1.204732    2.256207
  C      1.382271   -1.642715   -0.266785
  H      0.933371    2.098310   -0.234657
  H     -0.733009    1.921896   -0.801027
  H     -0.397180    1.991923    0.932270
  H     -0.872058   -0.354317    0.194384
  H      0.222231   -0.840261   -2.139212
  H      2.728825   -1.170983   -2.001307
  H      3.864380    0.737417   -0.501935
  H      2.666412    0.795717    1.838830
  H      0.342198   -0.388093    2.936524
  H     -0.285192   -1.816118    2.101948
  H      1.357993   -1.825476    2.762797
  H      1.375620   -2.726769   -0.255794

 Total Charge           Charge          ....    0
 Multiplicity           Mult            ....    1
 Number of Electrons    NEL             ....   66
 Basis Dimension        Dim             ....  351

ORBITAL ENERGIES
----------------

  NO   OCC          E(Eh)            E(eV)
   0   2.0000     -11.238398      -305.8124
   1   2.0000     -11.230751      -305.6043
   2   2.0000     -11.229495      -305.5701
   3   2.0000     -11.227976      -305.5288
   4   2.0000     -11.225104      -305.4506
   5   2.0000     -11.219178      -305.2894
   6   2.0000     -11.213803      -305.1431
   7   2.0000     -11.212674      -305.1124
   8   2.0000     -11.203782      -304.8704
   9   2.0000      -1.213294       -33.0154
  10   2.0000      -1.034544       -28.1514
  11   2.0000      -1.030763       -28.0485
  12   2.0000      -0.982381       -26.7319
  13   2.0000      -0.891762       -24.2661
  14   2.0000      -0.835708       -22.7408
  15   2.0000      -0.783666       -21.3246
  16   2.0000      -0.748678       -20.3726
  17   2.0000      -0.696594       -18.9553
  18   2.0000      -0.662154       -18.0181
  19   2.0000      -0.630295       -17.1512
  20   2.0000      -0.592152       -16.1133
  21   2.0000      -0.581478       -15.8228
  22   2.0000      -0.570387       -15.5210
  23   2.0000      -0.546888       -14.8816
  24   2.0000      -0.532843       -14.4994
  25   2.0000      -0.521349       -14.1866
  26   2.0000      -0.502686       -13.6788
  27   2.0000      -0.480464       -13.0741
  28   2.0000      -0.462748       -12.5920
  29   2.0000      -0.428158       -11.6508
  30   2.0000      -0.405899       -11.0451
  31   2.0000      -0.379438       -10.3250
  32   2.0000      -0.318430        -8.6649
  33   0.0000       0.137215         3.7338
  34   0.0000       0.147870         4.0237
  35   0.0000       0.163076         4.4375
  36   0.0000       0.168781         4.5928
  37   0.0000       0.176549         4.8041

MULLIKEN ATOMIC CHARGES
-----------------------
   0 C :   -0.425094
   1 C :   -0.069610
   2 C :   -0.134023
   3 C :   -0.105558
   4 C :   -0.184773
   5 C :   -0.261495
   6 C :    0.282485
   7 C :   -0.415668
   8 C :   -0.211424
   9 H :    0.141963
  10 H :    0.128389
  11 H :    0.124168
  12 H :    0.093514
  13 H :    0.124969
  14 H :    0.128259
  15 H :    0.123722
  16 H :    0.121650
  17 H :    0.132597
  18 H :    0.132331
  19 H :    0.136635
  20 H :    0.136965
Sum of atomic charges:   -0.0000000

LOEWDIN ATOMIC CHARGES
----------------------
   0 C :   -0.297221
   1 C :   -0.191190
   2 C :   -0.135967
   3 C :   -0.162322
   4 C :   -0.137236
   5 C :   -0.120775
   6 C :   -0.196043
   7 C :   -0.272106
   8 C :   -0.100706
   9 H :    0.126907
  10 H :    0.125324
  11 H :    0.123021
  12 H :    0.158736
  13 H :    0.135915
  14 H :    0.148748
  15 H :    0.137361
  16 H :    0.138581
  17 H :    0.128521
  18 H :    0.126425
  19 H :    0.128543
  20 H :    0.135488

  Mayer bond orders larger than 0.1
B(  0-C ,  1-C ) :   0.8884 B(  0-C ,  9-H ) :   0.9397 B(  0-C , 10-H ) :   0.9350
B(  0-C , 11-H ) :   0.9366 B(  1-C ,  2-C ) :   0.9710 B(  1-C ,  6-C ) :   0.9080
B(  1-C , 12-H ) :   0.9239 B(  2-C ,  3-C ) :   0.7919 B(  2-C ,  8-C ) :   0.8496
B(  2-C , 13-H ) :   0.9280 B(  3-C ,  4-C ) :   0.9732 B(  3-C ,  8-C ) :   0.8988
B(  3-C , 14-H ) :   0.9329 B(  4-C ,  5-C ) :   1.7771 B(  4-C , 15-H ) :   0.9367
B(  5-C ,  6-C ) :   0.9145 B(  5-C , 16-H ) :   0.9293 B(  6-C ,  7-C ) :   0.8607
B(  6-C ,  8-C ) :   0.8836 B(  7-C , 17-H ) :   0.9412 B(  7-C , 18-H ) :   0.9422
B(  7-C , 19-H ) :   0.9402 B(  8-C , 20-H ) :   0.9060

MP2 TOTAL ENERGY:     -349.284174190 Eh
FINAL SINGLE POINT ENERGY      -349.284174189998

DIPOLE MOMENT
-------------
                                X             Y             Z
Electronic contribution:      3.44004      -2.03099      -2.55846
Nuclear contribution   :     -3.60514       1.94561       2.51250
                        -----------------------------------------
Total Dipole Moment    :     -0.16509      -0.08538      -0.04596
                        -----------------------------------------
Magnitude (a.u.)       :      0.19146
Magnitude (Debye)      :      0.48666

                             ****ORCA TERMINATED NORMALLY****
TOTAL RUN TIME: 0 days 0 hours 22 minutes 27 seconds 231 msec
