                         Program Version 3.0.3 - RELEASE   -
|  1> ! RI-MP2 RIJK def2-TZVP def2-TZVP/C def2-TZVP/JK TIGHTSCF
|  2> % maxcore 2000
|  3> % mp2 density relaxed end
|  4> *xyz 0 1
|  5>  C       -0.3825163892     1.3815100256     0.0846410737
|  6>  C        0.2672309693     0.0041952316    -0.0218489360
|  7>  C        0.8925568884    -0.4534901838     1.2770020511
|  8>  O        0.9230548104     0.1707355613     2.3048688835
|  9>  O        1.4339028552    -1.6939116773     1.1276045665
| 10>  C        2.0711725680    -2.2708048834     2.2683423207
| 11>  C        1.3512192313    -3.5473119272     2.6629447098
| 12>  O        1.8543546124    -4.4130831096     3.3262665894
| 13>  H        0.3499898832     2.1389379477     0.3741418883
| 14>  H       -0.8191040378     1.6710165109    -0.8748813820
| 15>  H       -1.1729663141     1.3850715578     0.8392712035
| 16>  H       -0.4543084666    -0.7615544109    -0.3300946227
| 17>  H        1.0517126633    -0.0137991488    -0.7878779415
| 18>  H        3.1130386259    -2.4911214556     2.0209163578
| 19>  H        2.0401827459    -1.5640049901     3.1054725215
| 20>  H        0.3024722243    -3.6073411784     2.2938179165
| 21> *
| 22>
| 23>                          ****END OF INPUT****

CARTESIAN COORDINATES (ANGSTROEM)
---------------------------------
  C     -0.382516    1.381510    0.084641
  C      0.267231    0.004195   -0.021849
  C      0.892557   -0.453490    1.277002
  O      0.923055    0.170736    2.304869
  O      1.433903   -1.693912    1.127605
  C      2.071173   -2.270805    2.268342
  C      1.351219   -3.547312    2.662945
  O      1.854355   -4.413083    3.326267
  H      0.349990    2.138938    0.374142
  H     -0.819104    1.671017   -0.874881
  H     -1.172966    1.385072    0.839271
  H     -0.454308   -0.761554   -0.330095
  H      1.051713   -0.013799   -0.787878
  H      3.113039   -2.491121    2.020916
  H      2.040183   -1.564005    3.105473
  H      0.302472   -3.607341    2.293818

 Total Charge           Charge          ....    0
 Multiplicity           Mult            ....    1
 Number of Electrons    NEL             ....   62
 Basis Dimension        Dim             ....  296

ORBITAL ENERGIES
----------------

  NO   OCC          E(Eh)            E(eV)
   0   2.0000     -20.620729      -561.1186
   1   2.0000     -20.571101      -559.7681
   2   2.0000     -20.560283      -559.4738
   3   2.0000     -11.395181      -310.0786
   4   2.0000     -11.345911      -308.7379
   5   2.0000     -11.309315      -307.7421
   6   2.0000     -11.257612      -306.3352
   7   2.0000     -11.230542      -305.5986
   8   2.0000      -1.477273       -40.1986
   9   2.0000      -1.411410       -38.4064
  10   2.0000      -1.379501       -37.5381
  11   2.0000      -1.080473       -29.4012
  12   2.0000      -1.020642       -27.7731
  13   2.0000      -0.903476       -24.5848
  14   2.0000      -0.824412       -22.4334
  15   2.0000      -0.791321       -21.5329
  16   2.0000      -0.721481       -19.6325
  17   2.0000      -0.705543       -19.1988
  18   2.0000      -0.690083       -18.7781
  19   2.0000      -0.657722       -17.8975
  20   2.0000      -0.643226       -17.5031
  21   2.0000      -0.624074       -16.9819
  22   2.0000      -0.581182       -15.8148
  23   2.0000      -0.572485       -15.5781
  24   2.0000      -0.538987       -14.6666
  25   2.0000      -0.534642       -14.5483
  26   2.0000      -0.517900       -14.0928
  27   2.0000      -0.509057       -13.8522
  28   2.0000      -0.489692       -13.3252
  29   2.0000      -0.465136       -12.6570
  30   2.0000      -0.433565       -11.7979
  31   0.0000       0.117967         3.2100
  32   0.0000       0.124347         3.3837
  33   0.0000       0.154386         4.2011
  34   0.0000       0.163216         4.4413
  35   0.0000       0.167022         4.5449

MULLIKEN ATOMIC CHARGES
-----------------------
   0 C :   -0.369547
   1 C :   -0.227240
   2 C :    0.304926
   3 O :   -0.324233
   4 O :   -0.272536
   5 C :   -0.034297
   6 C :    0.083576
   7 O :   -0.256140
   8 H :    0.135598
   9 H :    0.136530
  10 H :    0.134239
  11 H :    0.139880
  12 H :    0.141605
  13 H :    0.148072
  14 H :    0.166987
  15 H :    0.092580
Sum of atomic charges:   -0.0000000

LOEWDIN ATOMIC CHARGES
----------------------
   0 C :   -0.305967
   1 C :   -0.261553
   2 C :   -0.466492
   3 O :    0.130714
   4 O :    0.242748
   5 C :   -0.282200
   6 C :   -0.293185
   7 O :    0.143562
   8 H :    0.127812
   9 H :    0.123418
  10 H :    0.127443
  11 H :    0.153790
  12 H :    0.154943
  13 H :    0.141726
  14 H :    0.151172
  15 H :    0.112067

  Mayer bond orders larger than 0.1
B(  0-C ,  1-C ) :   0.9363 B(  0-C ,  8-H ) :   0.9336 B(  0-C ,  9-H ) :   0.9364
B(  0-C , 10-H ) :   0.9338 B(  1-C ,  2-C ) :   0.9513 B(  1-C , 11-H ) :   0.9108
B(  1-C , 12-H ) :   0.9107 B(  2-C ,  3-O ) :   1.9332 B(  2-C ,  4-O ) :   1.0893
B(  4-O ,  5-C ) :   0.8185 B(  5-C ,  6-C ) :   0.8750 B(  5-C , 13-H ) :   0.9090
B(  5-C , 14-H ) :   0.9007 B(  6-C ,  7-O ) :   1.9952 B(  6-C , 15-H ) :   0.9338

MP2 TOTAL ENERGY:     -420.247629988 Eh
FINAL SINGLE POINT ENERGY      -420.247629988206

DIPOLE MOMENT
-------------
                                X             Y             Z
Electronic contribution:      3.47795      -6.62285       5.03474
Nuclear contribution   :     -3.74900       7.07321      -6.03318
                        -----------------------------------------
Total Dipole Moment    :     -0.27105       0.45036      -0.99844
                        -----------------------------------------
Magnitude (a.u.)       :      1.12835
Magnitude (Debye)      :      2.86804

                             ****ORCA TERMINATED NORMALLY****
TOTAL RUN TIME: 0 days 0 hours 8 minutes 50 seconds 31 msec
