                         Program Version 3.0.3 - RELEASE   -
|  1> ! RI-MP2 RIJK def2-TZVP def2-TZVP/C def2-TZVP/JK TIGHTSCF
|  2> % maxcore 2000
|  3> % mp2 density relaxed end
|  4> *xyz 0 1
|  5>  C       -0.2011484915     1.5963621221     0.0648501406
|  6>  C        0.0131351273     0.0749831433     0.0349277527
|  7>  C       -1.3422854211    -0.6312001411    -0.0786964255
|  8>  O        0.7248199010    -0.2896310661    -1.1648191614
|  9>  C        2.1418464956    -0.3859227880    -1.0770821912
| 10>  C        2.6043662623    -0.8742843725     0.3001139872
| 11>  C        1.4915083794    -1.7805933482     0.8960911450
| 12>  C        0.7852824894    -0.4429815397     1.2707212417
| 13>  C        2.2052506456     0.1822487782     1.3591000389
| 14>  H        0.7424332016     2.1422705864    -0.0020038443
| 15>  H       -0.8224982230     1.8988324298    -0.7829545700
| 16>  H       -0.7059851949     1.9040155743     0.9871997508
| 17>  H       -1.8102490510    -0.3805625448    -1.0347640600
| 18>  H       -1.2274893899    -1.7170969147    -0.0308508600
| 19>  H       -2.0114268691    -0.3159620608     0.7280349483
| 20>  H        2.4342970574    -1.0943912207    -1.8610349212
| 21>  H        2.6197620688     0.5807689912    -1.3091907948
| 22>  H        3.6373407018    -1.2297842253     0.2660893923
| 23>  H        0.9759640906    -2.4685635050     0.2227059161
| 24>  H        1.8361397002    -2.3168070407     1.7834596483
| 25>  H        0.1482790047    -0.4094897790     2.1583081027
| 26>  H        2.6653029373    -0.0175194826     2.3308391487
| 27>  H        2.3429752873     1.2379206638     1.1114238750
| 28> *
| 29>
| 30>                          ****END OF INPUT****

CARTESIAN COORDINATES (ANGSTROEM)
---------------------------------
  C     -0.201148    1.596362    0.064850
  C      0.013135    0.074983    0.034928
  C     -1.342285   -0.631200   -0.078696
  O      0.724820   -0.289631   -1.164819
  C      2.141846   -0.385923   -1.077082
  C      2.604366   -0.874284    0.300114
  C      1.491508   -1.780593    0.896091
  C      0.785282   -0.442982    1.270721
  C      2.205251    0.182249    1.359100
  H      0.742433    2.142271   -0.002004
  H     -0.822498    1.898832   -0.782955
  H     -0.705985    1.904016    0.987200
  H     -1.810249   -0.380563   -1.034764
  H     -1.227489   -1.717097   -0.030851
  H     -2.011427   -0.315962    0.728035
  H      2.434297   -1.094391   -1.861035
  H      2.619762    0.580769   -1.309191
  H      3.637341   -1.229784    0.266089
  H      0.975964   -2.468564    0.222706
  H      1.836140   -2.316807    1.783460
  H      0.148279   -0.409490    2.158308
  H      2.665303   -0.017519    2.330839
  H      2.342975    1.237921    1.111424

 Total Charge           Charge          ....    0
 Multiplicity           Mult            ....    1
 Number of Electrons    NEL             ....   70
 Basis Dimension        Dim             ....  363

ORBITAL ENERGIES
----------------

  NO   OCC          E(Eh)            E(eV)
   0   2.0000     -20.539498      -558.9082
   1   2.0000     -11.281622      -306.9885
   2   2.0000     -11.267698      -306.6097
   3   2.0000     -11.229285      -305.5644
   4   2.0000     -11.228721      -305.5490
   5   2.0000     -11.219818      -305.3068
   6   2.0000     -11.219627      -305.3016
   7   2.0000     -11.208465      -304.9978
   8   2.0000     -11.206090      -304.9332
   9   2.0000      -1.362477       -37.0749
  10   2.0000      -1.141055       -31.0497
  11   2.0000      -1.062547       -28.9134
  12   2.0000      -0.944090       -25.6900
  13   2.0000      -0.931485       -25.3470
  14   2.0000      -0.893056       -24.3013
  15   2.0000      -0.851423       -23.1684
  16   2.0000      -0.797814       -21.7096
  17   2.0000      -0.696022       -18.9397
  18   2.0000      -0.680268       -18.5110
  19   2.0000      -0.652055       -17.7433
  20   2.0000      -0.622560       -16.9407
  21   2.0000      -0.619750       -16.8643
  22   2.0000      -0.570910       -15.5352
  23   2.0000      -0.569296       -15.4913
  24   2.0000      -0.553585       -15.0638
  25   2.0000      -0.537898       -14.6369
  26   2.0000      -0.522832       -14.2270
  27   2.0000      -0.521477       -14.1901
  28   2.0000      -0.500251       -13.6125
  29   2.0000      -0.495851       -13.4928
  30   2.0000      -0.454649       -12.3716
  31   2.0000      -0.448993       -12.2177
  32   2.0000      -0.424686       -11.5563
  33   2.0000      -0.415242       -11.2993
  34   2.0000      -0.398217       -10.8360
  35   0.0000       0.136243         3.7073
  36   0.0000       0.152706         4.1553
  37   0.0000       0.161550         4.3960
  38   0.0000       0.171534         4.6677
  39   0.0000       0.188000         5.1157

MULLIKEN ATOMIC CHARGES
-----------------------
   0 C :   -0.405685
   1 C :    0.138847
   2 C :   -0.390212
   3 O :   -0.321862
   4 C :   -0.080894
   5 C :   -0.011537
   6 C :   -0.311010
   7 C :   -0.010443
   8 C :   -0.307933
   9 H :    0.123042
  10 H :    0.136566
  11 H :    0.128173
  12 H :    0.138963
  13 H :    0.128527
  14 H :    0.120780
  15 H :    0.116653
  16 H :    0.089389
  17 H :    0.114685
  18 H :    0.126720
  19 H :    0.122405
  20 H :    0.116921
  21 H :    0.118952
  22 H :    0.118950
Sum of atomic charges:   -0.0000000

LOEWDIN ATOMIC CHARGES
----------------------
   0 C :   -0.269513
   1 C :   -0.367390
   2 C :   -0.267111
   3 O :    0.190233
   4 C :   -0.290315
   5 C :   -0.232000
   6 C :   -0.193244
   7 C :   -0.186357
   8 C :   -0.202792
   9 H :    0.121967
  10 H :    0.128488
  11 H :    0.127522
  12 H :    0.128971
  13 H :    0.125694
  14 H :    0.125933
  15 H :    0.129692
  16 H :    0.121588
  17 H :    0.137658
  18 H :    0.130396
  19 H :    0.136541
  20 H :    0.142401
  21 H :    0.136985
  22 H :    0.124651

  Mayer bond orders larger than 0.1
B(  0-C ,  1-C ) :   0.9215 B(  0-C ,  9-H ) :   0.9286 B(  0-C , 10-H ) :   0.9406
B(  0-C , 11-H ) :   0.9353 B(  1-C ,  2-C ) :   0.8949 B(  1-C ,  3-O ) :   0.9055
B(  1-C ,  7-C ) :   0.9031 B(  2-C , 12-H ) :   0.9369 B(  2-C , 13-H ) :   0.9378
B(  2-C , 14-H ) :   0.9351 B(  3-O ,  4-C ) :   0.9471 B(  4-C ,  5-C ) :   0.9117
B(  4-C , 15-H ) :   0.9316 B(  4-C , 16-H ) :   0.9220 B(  5-C ,  6-C ) :   0.9084
B(  5-C ,  8-C ) :   0.9044 B(  5-C , 17-H ) :   0.9175 B(  6-C ,  7-C ) :   0.9026
B(  6-C , 18-H ) :   0.9162 B(  6-C , 19-H ) :   0.9257 B(  7-C ,  8-C ) :   0.9005
B(  7-C , 20-H ) :   0.9168 B(  8-C , 21-H ) :   0.9238 B(  8-C , 22-H ) :   0.9301

MP2 TOTAL ENERGY:     -387.619413639 Eh
FINAL SINGLE POINT ENERGY      -387.619413639352

DIPOLE MOMENT
-------------
                                X             Y             Z
Electronic contribution:      2.04809      -1.46167      -1.78159
Nuclear contribution   :     -1.81271       1.48705       2.26311
                        -----------------------------------------
Total Dipole Moment    :      0.23538       0.02538       0.48152
                        -----------------------------------------
Magnitude (a.u.)       :      0.53657
Magnitude (Debye)      :      1.36385

                             ****ORCA TERMINATED NORMALLY****
TOTAL RUN TIME: 0 days 0 hours 23 minutes 9 seconds 762 msec
