                         Program Version 3.0.3 - RELEASE   -
|  1> ! RI-MP2 RIJK def2-TZVP def2-TZVP/C def2-TZVP/JK TIGHTSCF
|  2> % maxcore 2000
|  3> % mp2 density relaxed end
|  4> *xyz 0 1
|  5>  C        0.0751515015     1.3888660704    -0.0409118345
|  6>  O        0.2750962189    -0.0027968089     0.0088648947
|  7>  C        0.4316455912    -0.5831233700    -1.2724621234
|  8>  C        0.5468649431    -2.0837764002    -1.1099244614
|  9>  C       -0.6929804061    -2.7447172645    -0.5398143474
| 10>  C        1.4171750443    -2.8206658775    -2.0770757346
| 11>  N        1.8099829193    -2.6906898297    -0.6799860618
| 12>  C        2.9622827187    -1.8618660468    -0.3589897551
| 13>  H        0.9284298989     1.9095506864    -0.5045690779
| 14>  H       -0.8326933802     1.6515646139    -0.6072797555
| 15>  H       -0.0358498412     1.7415476883     0.9873441308
| 16>  H       -0.4428156760    -0.3511268729    -1.9053141093
| 17>  H        1.3125307078    -0.1601829617    -1.7786956217
| 18>  H       -1.5504505058    -2.6112267381    -1.2098022605
| 19>  H       -0.5208068657    -3.8139451270    -0.3991930906
| 20>  H       -0.9466818931    -2.3025605112     0.4276357789
| 21>  H        1.1430256306    -3.8186287283    -2.4118516425
| 22>  H        1.9602977583    -2.2309023440    -2.8166651045
| 23>  H        3.1698906485    -1.0609158550    -1.0858976264
| 24>  H        2.8112122399    -1.4017481546     0.6214130839
| 25>  H        3.8491456171    -2.5022321989    -0.3108270710
| 26> *
| 27>
| 28>                          ****END OF INPUT****

CARTESIAN COORDINATES (ANGSTROEM)
---------------------------------
  C      0.075152    1.388866   -0.040912
  O      0.275096   -0.002797    0.008865
  C      0.431646   -0.583123   -1.272462
  C      0.546865   -2.083776   -1.109924
  C     -0.692980   -2.744717   -0.539814
  C      1.417175   -2.820666   -2.077076
  N      1.809983   -2.690690   -0.679986
  C      2.962283   -1.861866   -0.358990
  H      0.928430    1.909551   -0.504569
  H     -0.832693    1.651565   -0.607280
  H     -0.035850    1.741548    0.987344
  H     -0.442816   -0.351127   -1.905314
  H      1.312531   -0.160183   -1.778696
  H     -1.550451   -2.611227   -1.209802
  H     -0.520807   -3.813945   -0.399193
  H     -0.946682   -2.302561    0.427636
  H      1.143026   -3.818629   -2.411852
  H      1.960298   -2.230902   -2.816665
  H      3.169891   -1.060916   -1.085898
  H      2.811212   -1.401748    0.621413
  H      3.849146   -2.502232   -0.310827

 Total Charge           Charge          ....    0
 Multiplicity           Mult            ....    1
 Number of Electrons    NEL             ....   64
 Basis Dimension        Dim             ....  326

ORBITAL ENERGIES
----------------

  NO   OCC          E(Eh)            E(eV)
   0   2.0000     -20.557498      -559.3980
   1   2.0000     -15.549736      -423.1298
   2   2.0000     -11.279008      -306.9174
   3   2.0000     -11.273193      -306.7592
   4   2.0000     -11.259238      -306.3794
   5   2.0000     -11.247185      -306.0515
   6   2.0000     -11.238346      -305.8109
   7   2.0000     -11.205972      -304.9300
   8   2.0000      -1.379226       -37.5306
   9   2.0000      -1.267482       -34.4899
  10   2.0000      -1.029615       -28.0173
  11   2.0000      -0.970830       -26.4176
  12   2.0000      -0.939412       -25.5627
  13   2.0000      -0.887440       -24.1485
  14   2.0000      -0.823624       -22.4120
  15   2.0000      -0.745649       -20.2901
  16   2.0000      -0.676507       -18.4087
  17   2.0000      -0.667288       -18.1578
  18   2.0000      -0.656033       -17.8516
  19   2.0000      -0.626504       -17.0480
  20   2.0000      -0.592591       -16.1252
  21   2.0000      -0.588597       -16.0165
  22   2.0000      -0.555894       -15.1266
  23   2.0000      -0.547843       -14.9076
  24   2.0000      -0.541641       -14.7388
  25   2.0000      -0.532864       -14.5000
  26   2.0000      -0.499188       -13.5836
  27   2.0000      -0.482022       -13.1165
  28   2.0000      -0.441930       -12.0255
  29   2.0000      -0.436181       -11.8691
  30   2.0000      -0.422237       -11.4897
  31   2.0000      -0.360651        -9.8138
  32   0.0000       0.136378         3.7110
  33   0.0000       0.165121         4.4932
  34   0.0000       0.166868         4.5407
  35   0.0000       0.181111         4.9283
  36   0.0000       0.191291         5.2053

MULLIKEN ATOMIC CHARGES
-----------------------
   0 C :   -0.219979
   1 O :   -0.308730
   2 C :   -0.050869
   3 C :    0.163287
   4 C :   -0.423370
   5 C :   -0.213826
   6 N :   -0.235921
   7 C :   -0.295348
   8 H :    0.110491
   9 H :    0.111738
  10 H :    0.140557
  11 H :    0.110793
  12 H :    0.096276
  13 H :    0.114695
  14 H :    0.138369
  15 H :    0.145474
  16 H :    0.123934
  17 H :    0.113152
  18 H :    0.096394
  19 H :    0.143347
  20 H :    0.139534
Sum of atomic charges:    0.0000000

LOEWDIN ATOMIC CHARGES
----------------------
   0 C :   -0.363011
   1 O :    0.140856
   2 C :   -0.293555
   3 C :   -0.314538
   4 C :   -0.266435
   5 C :   -0.228979
   6 N :    0.110506
   7 C :   -0.329495
   8 H :    0.101479
   9 H :    0.101645
  10 H :    0.113938
  11 H :    0.128747
  12 H :    0.122805
  13 H :    0.124199
  14 H :    0.130522
  15 H :    0.131449
  16 H :    0.125479
  17 H :    0.123434
  18 H :    0.101922
  19 H :    0.121582
  20 H :    0.117450

  Mayer bond orders larger than 0.1
B(  0-C ,  1-O ) :   0.9185 B(  0-C ,  8-H ) :   0.9360 B(  0-C ,  9-H ) :   0.9362
B(  0-C , 10-H ) :   0.9396 B(  1-O ,  2-C ) :   0.9244 B(  2-C ,  3-C ) :   0.9610
B(  2-C , 11-H ) :   0.9191 B(  2-C , 12-H ) :   0.9169 B(  3-C ,  4-C ) :   0.8877
B(  3-C ,  5-C ) :   0.9314 B(  3-C ,  6-N ) :   0.8459 B(  4-C , 13-H ) :   0.9324
B(  4-C , 14-H ) :   0.9383 B(  4-C , 15-H ) :   0.9409 B(  5-C ,  6-N ) :   0.9156
B(  5-C , 16-H ) :   0.9105 B(  5-C , 17-H ) :   0.9111 B(  6-N ,  7-C ) :   0.8946
B(  7-C , 18-H ) :   0.9306 B(  7-C , 19-H ) :   0.9361 B(  7-C , 20-H ) :   0.9345

MP2 TOTAL ENERGY:     -365.598457229 Eh
FINAL SINGLE POINT ENERGY      -365.598457228619

DIPOLE MOMENT
-------------
                                X             Y             Z
Electronic contribution:      0.14398      -1.96266       0.69017
Nuclear contribution   :     -0.16561       2.64994      -1.26849
                        -----------------------------------------
Total Dipole Moment    :     -0.02163       0.68728      -0.57833
                        -----------------------------------------
Magnitude (a.u.)       :      0.89849
Magnitude (Debye)      :      2.28378

                             ****ORCA TERMINATED NORMALLY****
TOTAL RUN TIME: 0 days 0 hours 13 minutes 47 seconds 417 msec
