                         Program Version 3.0.3 - RELEASE   -
|  1> ! RI-MP2 RIJK def2-TZVP def2-TZVP/C def2-TZVP/JK TIGHTSCF
|  2> % maxcore 2000
|  3> % mp2 density relaxed end
|  4> *xyz 0 1
|  5>  C       -0.3450953953     1.5208750166    -0.0030042057
|  6>  C        0.0194691036     0.0418704901     0.0074996262
|  7>  C        1.1732484880    -0.5122084992    -0.9035350425
|  8>  C        1.7667631467    -1.2224947030     0.3202046714
|  9>  C        2.1835847803    -0.2119568131     1.3682339877
| 10>  C        2.7842426515     1.0575166237     1.0636602189
| 11>  C        3.3418191147     2.0979576352     0.8273915505
| 12>  C        0.7165430959    -0.5872179391     1.2250504834
| 13>  H        0.5253504424     2.1524399017     0.1841638327
| 14>  H       -0.7715473531     1.8054028536    -0.9716826026
| 15>  H       -1.0954195981     1.7401766210     0.7652315012
| 16>  H       -0.8801544743    -0.5489252721    -0.1968823140
| 17>  H        0.8158706643    -1.1922737932    -1.6789560934
| 18>  H        1.8264007248     0.2367513357    -1.3608180470
| 19>  H        2.1693766659    -2.2281882444     0.3364686726
| 20>  H        2.6221726944    -0.6876918758     2.2434565806
| 21>  H        3.8189558866     3.0231910772     0.6189370176
| 22>  H        0.2031727117    -1.0165313549     2.0787051224
| 23> *
| 24>
| 25>                          ****END OF INPUT****

CARTESIAN COORDINATES (ANGSTROEM)
---------------------------------
  C     -0.345095    1.520875   -0.003004
  C      0.019469    0.041870    0.007500
  C      1.173248   -0.512208   -0.903535
  C      1.766763   -1.222495    0.320205
  C      2.183585   -0.211957    1.368234
  C      2.784243    1.057517    1.063660
  C      3.341819    2.097958    0.827392
  C      0.716543   -0.587218    1.225050
  H      0.525350    2.152440    0.184164
  H     -0.771547    1.805403   -0.971683
  H     -1.095420    1.740177    0.765232
  H     -0.880154   -0.548925   -0.196882
  H      0.815871   -1.192274   -1.678956
  H      1.826401    0.236751   -1.360818
  H      2.169377   -2.228188    0.336469
  H      2.622173   -0.687692    2.243457
  H      3.818956    3.023191    0.618937
  H      0.203173   -1.016531    2.078705

 Total Charge           Charge          ....    0
 Multiplicity           Mult            ....    1
 Number of Electrons    NEL             ....   58
 Basis Dimension        Dim             ....  308

ORBITAL ENERGIES
----------------

  NO   OCC          E(Eh)            E(eV)
   0   2.0000     -11.256411      -306.3025
   1   2.0000     -11.241276      -305.8907
   2   2.0000     -11.240605      -305.8724
   3   2.0000     -11.233643      -305.6830
   4   2.0000     -11.231123      -305.6144
   5   2.0000     -11.223752      -305.4138
   6   2.0000     -11.216324      -305.2117
   7   2.0000     -11.205039      -304.9046
   8   2.0000      -1.199313       -32.6350
   9   2.0000      -1.043266       -28.3887
  10   2.0000      -1.006816       -27.3968
  11   2.0000      -0.942678       -25.6516
  12   2.0000      -0.868310       -23.6279
  13   2.0000      -0.825628       -22.4665
  14   2.0000      -0.726786       -19.7768
  15   2.0000      -0.708296       -19.2737
  16   2.0000      -0.698709       -19.0128
  17   2.0000      -0.638775       -17.3820
  18   2.0000      -0.597445       -16.2573
  19   2.0000      -0.576766       -15.6946
  20   2.0000      -0.559895       -15.2355
  21   2.0000      -0.539808       -14.6889
  22   2.0000      -0.501929       -13.6582
  23   2.0000      -0.464578       -12.6418
  24   2.0000      -0.452136       -12.3033
  25   2.0000      -0.448824       -12.2131
  26   2.0000      -0.405032       -11.0215
  27   2.0000      -0.372471       -10.1354
  28   2.0000      -0.355639        -9.6774
  29   0.0000       0.139482         3.7955
  30   0.0000       0.152237         4.1426
  31   0.0000       0.166450         4.5293
  32   0.0000       0.172192         4.6856
  33   0.0000       0.180516         4.9121

MULLIKEN ATOMIC CHARGES
-----------------------
   0 C :   -0.410887
   1 C :   -0.063002
   2 C :   -0.240908
   3 C :   -0.093132
   4 C :   -0.337491
   5 C :    0.029844
   6 C :   -0.141753
   7 C :   -0.069771
   8 H :    0.147334
   9 H :    0.125427
  10 H :    0.125193
  11 H :    0.097739
  12 H :    0.124936
  13 H :    0.125305
  14 H :    0.132570
  15 H :    0.133482
  16 H :    0.185663
  17 H :    0.129451
Sum of atomic charges:   -0.0000000

LOEWDIN ATOMIC CHARGES
----------------------
   0 C :   -0.296866
   1 C :   -0.228742
   2 C :   -0.187714
   3 C :   -0.145704
   4 C :   -0.181773
   5 C :   -0.093922
   6 C :   -0.105618
   7 C :   -0.131477
   8 H :    0.129872
   9 H :    0.123415
  10 H :    0.124468
  11 H :    0.153527
  12 H :    0.132888
  13 H :    0.135934
  14 H :    0.135330
  15 H :    0.174296
  16 H :    0.125773
  17 H :    0.136313

  Mayer bond orders larger than 0.1
B(  0-C ,  1-C ) :   0.9101 B(  0-C ,  8-H ) :   0.9325 B(  0-C ,  9-H ) :   0.9369
B(  0-C , 10-H ) :   0.9383 B(  1-C ,  2-C ) :   0.9616 B(  1-C ,  7-C ) :   0.9336
B(  1-C , 11-H ) :   0.9296 B(  2-C ,  3-C ) :   0.9528 B(  2-C , 12-H ) :   0.9293
B(  2-C , 13-H ) :   0.9101 B(  3-C ,  4-C ) :   0.8665 B(  3-C ,  7-C ) :   0.8307
B(  3-C , 14-H ) :   0.9205 B(  4-C ,  5-C ) :   1.1387 B(  4-C ,  6-C ) :  -0.1278
B(  4-C ,  7-C ) :   0.8651 B(  4-C , 15-H ) :   0.9427 B(  5-C ,  6-C ) :   2.5653
B(  6-C , 16-H ) :   0.9076 B(  7-C , 17-H ) :   0.9214

MP2 TOTAL ENERGY:     -310.018984414 Eh
FINAL SINGLE POINT ENERGY      -310.018984414279

DIPOLE MOMENT
-------------
                                X             Y             Z
Electronic contribution:      4.28869      -0.74771       2.37927
Nuclear contribution   :     -4.51429       0.47034      -2.43119
                        -----------------------------------------
Total Dipole Moment    :     -0.22560      -0.27737      -0.05192
                        -----------------------------------------
Magnitude (a.u.)       :      0.36128
Magnitude (Debye)      :      0.91831

                             ****ORCA TERMINATED NORMALLY****
TOTAL RUN TIME: 0 days 0 hours 14 minutes 47 seconds 390 msec
