                         Program Version 3.0.3 - RELEASE   -
|  1> ! RI-MP2 RIJK def2-TZVP def2-TZVP/C def2-TZVP/JK TIGHTSCF
|  2> % maxcore 2000
|  3> % mp2 density relaxed end
|  4> *xyz 0 1
|  5>  C       -0.0518134827     1.4193982958     0.0930501098
|  6>  O       -0.0049260769     0.0216117748    -0.1477409192
|  7>  C       -1.2440368864    -0.6327483112    -0.0122826842
|  8>  C       -1.1702532766    -2.0424778186    -0.6243875365
|  9>  C       -1.7364148449    -2.9428603859     0.4432483991
| 10>  C       -1.9966060496    -2.3063986941     1.5924510323
| 11>  C       -1.6586312930    -0.8736145284     1.4668345221
| 12>  O       -1.6839025129    -0.0294718071     2.3342046750
| 13>  H        0.9534112449     1.8019135095    -0.0993691723
| 14>  H       -0.7580660900     1.9126314069    -0.5936966224
| 15>  H       -0.3438298061     1.6465155154     1.1224197534
| 16>  H       -2.0446989005    -0.0419819924    -0.4891405174
| 17>  H       -1.7148473004    -2.1328999822    -1.5702281903
| 18>  H       -0.1237626679    -2.2903738380    -0.8368076219
| 19>  H       -1.8944911917    -4.0022906845     0.2694026778
| 20>  H       -2.3762831054    -2.7398323098     2.5088177145
| 21> *
| 22>
| 23>                          ****END OF INPUT****

CARTESIAN COORDINATES (ANGSTROEM)
---------------------------------
  C     -0.051813    1.419398    0.093050
  O     -0.004926    0.021612   -0.147741
  C     -1.244037   -0.632748   -0.012283
  C     -1.170253   -2.042478   -0.624388
  C     -1.736415   -2.942860    0.443248
  C     -1.996606   -2.306399    1.592451
  C     -1.658631   -0.873615    1.466835
  O     -1.683903   -0.029472    2.334205
  H      0.953411    1.801914   -0.099369
  H     -0.758066    1.912631   -0.593697
  H     -0.343830    1.646516    1.122420
  H     -2.044699   -0.041982   -0.489141
  H     -1.714847   -2.132900   -1.570228
  H     -0.123763   -2.290374   -0.836808
  H     -1.894491   -4.002291    0.269403
  H     -2.376283   -2.739832    2.508818

 Total Charge           Charge          ....    0
 Multiplicity           Mult            ....    1
 Number of Electrons    NEL             ....   60
 Basis Dimension        Dim             ....  296

ORBITAL ENERGIES
----------------

  NO   OCC          E(Eh)            E(eV)
   0   2.0000     -20.563934      -559.5731
   1   2.0000     -20.542339      -558.9855
   2   2.0000     -11.328193      -308.2558
   3   2.0000     -11.297080      -307.4092
   4   2.0000     -11.274025      -306.7818
   5   2.0000     -11.265338      -306.5454
   6   2.0000     -11.248220      -306.0796
   7   2.0000     -11.243025      -305.9383
   8   2.0000      -1.394407       -37.9437
   9   2.0000      -1.372109       -37.3370
  10   2.0000      -1.149152       -31.2700
  11   2.0000      -0.999887       -27.2083
  12   2.0000      -0.942979       -25.6598
  13   2.0000      -0.900188       -24.4954
  14   2.0000      -0.796417       -21.6716
  15   2.0000      -0.745331       -20.2815
  16   2.0000      -0.692729       -18.8501
  17   2.0000      -0.679095       -18.4791
  18   2.0000      -0.643247       -17.5036
  19   2.0000      -0.624426       -16.9915
  20   2.0000      -0.605831       -16.4855
  21   2.0000      -0.583942       -15.8899
  22   2.0000      -0.555008       -15.1025
  23   2.0000      -0.544554       -14.8181
  24   2.0000      -0.536941       -14.6109
  25   2.0000      -0.511810       -13.9270
  26   2.0000      -0.488860       -13.3026
  27   2.0000      -0.463783       -12.6202
  28   2.0000      -0.387331       -10.5398
  29   2.0000      -0.383116       -10.4251
  30   0.0000       0.089128         2.4253
  31   0.0000       0.138926         3.7804
  32   0.0000       0.157612         4.2888
  33   0.0000       0.174937         4.7603
  34   0.0000       0.185193         5.0394

MULLIKEN ATOMIC CHARGES
-----------------------
   0 C :   -0.233547
   1 O :   -0.318098
   2 C :    0.110467
   3 C :   -0.146895
   4 C :   -0.142189
   5 C :   -0.181873
   6 C :    0.165663
   7 O :   -0.297524
   8 H :    0.134967
   9 H :    0.105876
  10 H :    0.153974
  11 H :    0.085163
  12 H :    0.131764
  13 H :    0.140872
  14 H :    0.143486
  15 H :    0.147895
Sum of atomic charges:    0.0000000

LOEWDIN ATOMIC CHARGES
----------------------
   0 C :   -0.345012
   1 O :    0.157363
   2 C :   -0.277429
   3 C :   -0.211574
   4 C :   -0.101347
   5 C :   -0.124918
   6 C :   -0.298889
   7 O :    0.144439
   8 H :    0.112490
   9 H :    0.101336
  10 H :    0.110263
  11 H :    0.145605
  12 H :    0.143677
  13 H :    0.156308
  14 H :    0.141471
  15 H :    0.146218

  Mayer bond orders larger than 0.1
B(  0-C ,  1-O ) :   0.8936 B(  0-C ,  8-H ) :   0.9367 B(  0-C ,  9-H ) :   0.9363
B(  0-C , 10-H ) :   0.9325 B(  1-O ,  2-C ) :   0.9464 B(  2-C ,  3-C ) :   0.9171
B(  2-C ,  6-C ) :   0.8673 B(  2-C , 11-H ) :   0.9089 B(  3-C ,  4-C ) :   0.9428
B(  3-C , 12-H ) :   0.9189 B(  3-C , 13-H ) :   0.8924 B(  4-C ,  5-C ) :   1.6745
B(  4-C , 14-H ) :   0.9158 B(  5-C ,  6-C ) :   0.9978 B(  5-C , 15-H ) :   0.9152
B(  6-C ,  7-O ) :   1.9589

MP2 TOTAL ENERGY:     -383.111637353 Eh
FINAL SINGLE POINT ENERGY      -383.111637353257

DIPOLE MOMENT
-------------
                                X             Y             Z
Electronic contribution:     -1.20575      -1.54816       3.62865
Nuclear contribution   :      0.90615       0.87510      -4.43560
                        -----------------------------------------
Total Dipole Moment    :     -0.29960      -0.67305      -0.80695
                        -----------------------------------------
Magnitude (a.u.)       :      1.09267
Magnitude (Debye)      :      2.77735

                             ****ORCA TERMINATED NORMALLY****
TOTAL RUN TIME: 0 days 0 hours 12 minutes 6 seconds 693 msec
