                         Program Version 3.0.3 - RELEASE   -
|  1> ! RI-MP2 RIJK def2-TZVP def2-TZVP/C def2-TZVP/JK TIGHTSCF
|  2> % maxcore 2000
|  3> % mp2 density relaxed end
|  4> *xyz 0 1
|  5>  C       -0.0437941644     1.4800083718     0.0246828585
|  6>  N        0.1179094331     0.0434075401    -0.1037978326
|  7>  C        0.7409943847    -0.6207569688     0.7851312409
|  8>  C        0.9001461963    -2.1084620380     0.6033958234
|  9>  C        0.0160811941    -2.6240544267    -0.5204153493
| 10>  O        0.4123586351    -3.3330380133    -1.4072623117
| 11>  N        1.3137335270    -0.0255761080     1.9263414855
| 12>  C        1.9911150914    -0.6040616539     2.9816763473
| 13>  O        2.2159847186    -1.7782464342     3.1384826522
| 14>  H        0.9202652632     2.0116852530     0.0068325274
| 15>  H       -0.6329678448     1.8497631364    -0.8170240026
| 16>  H       -0.5721968162     1.7672555161     0.9471903594
| 17>  H        1.9426658130    -2.3653209257     0.3930722615
| 18>  H        0.6413106726    -2.6331380567     1.5303663250
| 19>  H       -1.0509200644    -2.3335781364    -0.4376725239
| 20>  H        1.2229546918     0.9782368859     1.9809162709
| 21>  H        2.3172602788     0.1721908185     3.7011243480
| 22> *
| 23>
| 24>                          ****END OF INPUT****

CARTESIAN COORDINATES (ANGSTROEM)
---------------------------------
  C     -0.043794    1.480008    0.024683
  N      0.117909    0.043408   -0.103798
  C      0.740994   -0.620757    0.785131
  C      0.900146   -2.108462    0.603396
  C      0.016081   -2.624054   -0.520415
  O      0.412359   -3.333038   -1.407262
  N      1.313734   -0.025576    1.926341
  C      1.991115   -0.604062    2.981676
  O      2.215985   -1.778246    3.138483
  H      0.920265    2.011685    0.006833
  H     -0.632968    1.849763   -0.817024
  H     -0.572197    1.767256    0.947190
  H      1.942666   -2.365321    0.393072
  H      0.641311   -2.633138    1.530366
  H     -1.050920   -2.333578   -0.437673
  H      1.222955    0.978237    1.980916
  H      2.317260    0.172191    3.701124

 Total Charge           Charge          ....    0
 Multiplicity           Mult            ....    1
 Number of Electrons    NEL             ....   68
 Basis Dimension        Dim             ....  327

ORBITAL ENERGIES
----------------

  NO   OCC          E(Eh)            E(eV)
   0   2.0000     -20.563389      -559.5583
   1   2.0000     -20.549484      -559.1799
   2   2.0000     -15.634923      -425.4479
   3   2.0000     -15.563369      -423.5008
   4   2.0000     -11.389152      -309.9146
   5   2.0000     -11.348908      -308.8195
   6   2.0000     -11.327534      -308.2379
   7   2.0000     -11.269680      -306.6636
   8   2.0000     -11.251313      -306.1638
   9   2.0000      -1.424633       -38.7662
  10   2.0000      -1.389698       -37.8156
  11   2.0000      -1.312292       -35.7093
  12   2.0000      -1.213529       -33.0218
  13   2.0000      -1.057395       -28.7732
  14   2.0000      -0.956124       -26.0175
  15   2.0000      -0.905061       -24.6280
  16   2.0000      -0.824694       -22.4411
  17   2.0000      -0.774255       -21.0686
  18   2.0000      -0.747321       -20.3357
  19   2.0000      -0.695130       -18.9155
  20   2.0000      -0.670949       -18.2574
  21   2.0000      -0.655194       -17.8287
  22   2.0000      -0.641130       -17.4460
  23   2.0000      -0.625128       -17.0106
  24   2.0000      -0.613747       -16.7009
  25   2.0000      -0.599145       -16.3036
  26   2.0000      -0.575811       -15.6686
  27   2.0000      -0.556402       -15.1405
  28   2.0000      -0.509159       -13.8549
  29   2.0000      -0.493235       -13.4216
  30   2.0000      -0.471545       -12.8314
  31   2.0000      -0.435306       -11.8453
  32   2.0000      -0.411218       -11.1898
  33   2.0000      -0.392738       -10.6869
  34   0.0000       0.107875         2.9354
  35   0.0000       0.109124         2.9694
  36   0.0000       0.147714         4.0195
  37   0.0000       0.152046         4.1374
  38   0.0000       0.162051         4.4096

MULLIKEN ATOMIC CHARGES
-----------------------
   0 C :   -0.379418
   1 N :   -0.229221
   2 C :    0.124378
   3 C :   -0.119976
   4 C :    0.130351
   5 O :   -0.267318
   6 N :   -0.305215
   7 C :    0.186793
   8 O :   -0.319310
   9 H :    0.142987
  10 H :    0.163568
  11 H :    0.137002
  12 H :    0.142697
  13 H :    0.164674
  14 H :    0.080315
  15 H :    0.247770
  16 H :    0.099924
Sum of atomic charges:    0.0000000

LOEWDIN ATOMIC CHARGES
----------------------
   0 C :   -0.345602
   1 N :    0.086387
   2 C :   -0.307252
   3 C :   -0.220533
   4 C :   -0.282669
   5 O :    0.132984
   6 N :    0.130231
   7 C :   -0.401546
   8 O :    0.102453
   9 H :    0.114505
  10 H :    0.122946
  11 H :    0.112246
  12 H :    0.161887
  13 H :    0.165860
  14 H :    0.113557
  15 H :    0.197639
  16 H :    0.116909

  Mayer bond orders larger than 0.1
B(  0-C ,  1-N ) :   0.8829 B(  0-C ,  9-H ) :   0.9229 B(  0-C , 10-H ) :   0.9468
B(  0-C , 11-H ) :   0.9225 B(  1-N ,  2-C ) :   1.8713 B(  2-C ,  3-C ) :   0.9164
B(  2-C ,  6-N ) :   0.9794 B(  3-C ,  4-C ) :   0.8598 B(  3-C , 12-H ) :   0.8689
B(  3-C , 13-H ) :   0.9107 B(  4-C ,  5-O ) :   1.9936 B(  4-C , 14-H ) :   0.9308
B(  6-N ,  7-C ) :   1.0710 B(  6-N , 15-H ) :   0.8669 B(  7-C ,  8-O ) :   1.9170
B(  7-C , 16-H ) :   0.9268

MP2 TOTAL ENERGY:     -454.429863897 Eh
FINAL SINGLE POINT ENERGY      -454.429863896680

DIPOLE MOMENT
-------------
                                X             Y             Z
Electronic contribution:      1.77343      -5.40806       0.49681
Nuclear contribution   :     -1.95236       7.40698       0.57990
                        -----------------------------------------
Total Dipole Moment    :     -0.17893       1.99892       1.07671
                        -----------------------------------------
Magnitude (a.u.)       :      2.27750
Magnitude (Debye)      :      5.78895

                             ****ORCA TERMINATED NORMALLY****
TOTAL RUN TIME: 0 days 0 hours 14 minutes 13 seconds 581 msec
