                         Program Version 3.0.3 - RELEASE   -
|  1> ! RI-MP2 RIJK def2-TZVP def2-TZVP/C def2-TZVP/JK TIGHTSCF
|  2> % maxcore 2000
|  3> % mp2 density relaxed end
|  4> *xyz 0 1
|  5>  C        0.8287285396     1.1804771737    -0.0046479853
|  6>  C        0.0917192908    -0.1430341420     0.1187625814
|  7>  C        0.8219402797    -1.4072806001     0.4767126632
|  8>  N       -0.1282071282    -0.8256180733     1.4041609594
|  9>  C        0.3019007541    -0.2193580309     2.6748634069
| 10>  C        1.7356871239    -0.0109643011     2.8880222650
| 11>  C        2.9164806869     0.1208352347     3.0755633568
| 12>  C       -1.0523899294    -0.2492748999    -0.7727916233
| 13>  N       -1.9449180636    -0.3122150125    -1.5047539913
| 14>  H        1.7103993970     1.2016159266     0.6358835400
| 15>  H        1.1440634981     1.3335838156    -1.0406912374
| 16>  H        0.1736274394     2.0134861606     0.2691570125
| 17>  H        0.5295849850    -2.3546779931     0.0332737712
| 18>  H        1.8833875203    -1.2928465281     0.6865183374
| 19>  H       -0.2368075532     0.7276820877     2.7923363859
| 20>  H       -0.0685491701    -0.8806472015     3.4673383110
| 21>  H        3.9562957497     0.2504705835     3.2513591168
| 22> *
| 23>
| 24>                          ****END OF INPUT****

CARTESIAN COORDINATES (ANGSTROEM)
---------------------------------
  C      0.828729    1.180477   -0.004648
  C      0.091719   -0.143034    0.118763
  C      0.821940   -1.407281    0.476713
  N     -0.128207   -0.825618    1.404161
  C      0.301901   -0.219358    2.674863
  C      1.735687   -0.010964    2.888022
  C      2.916481    0.120835    3.075563
  C     -1.052390   -0.249275   -0.772792
  N     -1.944918   -0.312215   -1.504754
  H      1.710399    1.201616    0.635884
  H      1.144063    1.333584   -1.040691
  H      0.173627    2.013486    0.269157
  H      0.529585   -2.354678    0.033274
  H      1.883388   -1.292847    0.686518
  H     -0.236808    0.727682    2.792336
  H     -0.068549   -0.880647    3.467338
  H      3.956296    0.250471    3.251359

 Total Charge           Charge          ....    0
 Multiplicity           Mult            ....    1
 Number of Electrons    NEL             ....   64
 Basis Dimension        Dim             ....  327

ORBITAL ENERGIES
----------------

  NO   OCC          E(Eh)            E(eV)
   0   2.0000     -15.596637      -424.4061
   1   2.0000     -15.567957      -423.6256
   2   2.0000     -11.321345      -308.0694
   3   2.0000     -11.305370      -307.6348
   4   2.0000     -11.285576      -307.0961
   5   2.0000     -11.269661      -306.6631
   6   2.0000     -11.255612      -306.2808
   7   2.0000     -11.248080      -306.0758
   8   2.0000     -11.246431      -306.0310
   9   2.0000      -1.314841       -35.7786
  10   2.0000      -1.212353       -32.9898
  11   2.0000      -1.092256       -29.7218
  12   2.0000      -1.036727       -28.2108
  13   2.0000      -0.994498       -27.0617
  14   2.0000      -0.884022       -24.0555
  15   2.0000      -0.866686       -23.5837
  16   2.0000      -0.751158       -20.4400
  17   2.0000      -0.719195       -19.5703
  18   2.0000      -0.687467       -18.7069
  19   2.0000      -0.661125       -17.9901
  20   2.0000      -0.636632       -17.3236
  21   2.0000      -0.596947       -16.2437
  22   2.0000      -0.583502       -15.8779
  23   2.0000      -0.573776       -15.6132
  24   2.0000      -0.548878       -14.9357
  25   2.0000      -0.521124       -14.1805
  26   2.0000      -0.507785       -13.8175
  27   2.0000      -0.456923       -12.4335
  28   2.0000      -0.451848       -12.2954
  29   2.0000      -0.418507       -11.3882
  30   2.0000      -0.412127       -11.2145
  31   2.0000      -0.395912       -10.7733
  32   0.0000       0.124407         3.3853
  33   0.0000       0.138512         3.7691
  34   0.0000       0.152885         4.1602
  35   0.0000       0.154169         4.1952
  36   0.0000       0.163386         4.4460

MULLIKEN ATOMIC CHARGES
-----------------------
   0 C :   -0.398716
   1 C :    0.222747
   2 C :   -0.195325
   3 N :   -0.220325
   4 C :   -0.193940
   5 C :   -0.091780
   6 C :   -0.164914
   7 C :   -0.198761
   8 N :   -0.055499
   9 H :    0.163950
  10 H :    0.157643
  11 H :    0.148891
  12 H :    0.148492
  13 H :    0.150743
  14 H :    0.164033
  15 H :    0.168386
  16 H :    0.194376
Sum of atomic charges:    0.0000000

LOEWDIN ATOMIC CHARGES
----------------------
   0 C :   -0.245768
   1 C :   -0.293909
   2 C :   -0.192550
   3 N :    0.157793
   4 C :   -0.264983
   5 C :   -0.125228
   6 C :   -0.095272
   7 C :   -0.144828
   8 N :    0.068481
   9 H :    0.139245
  10 H :    0.140280
  11 H :    0.135899
  12 H :    0.134664
  13 H :    0.136775
  14 H :    0.158657
  15 H :    0.161034
  16 H :    0.129710

  Mayer bond orders larger than 0.1
B(  0-C ,  1-C ) :   0.9177 B(  0-C ,  9-H ) :   0.9229 B(  0-C , 10-H ) :   0.9270
B(  0-C , 11-H ) :   0.9322 B(  1-C ,  2-C ) :   0.8989 B(  1-C ,  3-N ) :   0.7681
B(  1-C ,  7-C ) :   0.9136 B(  2-C ,  3-N ) :   0.9365 B(  2-C , 12-H ) :   0.9063
B(  2-C , 13-H ) :   0.9159 B(  3-N ,  4-C ) :   0.9151 B(  4-C ,  5-C ) :   0.9695
B(  4-C , 14-H ) :   0.9497 B(  4-C , 15-H ) :   0.9260 B(  5-C ,  6-C ) :   2.6334
B(  6-C , 16-H ) :   0.9147 B(  7-C ,  8-N ) :   2.8728

MP2 TOTAL ENERGY:     -380.126579254 Eh
FINAL SINGLE POINT ENERGY      -380.126579254362

DIPOLE MOMENT
-------------
                                X             Y             Z
Electronic contribution:     -3.91152      -2.09545      -1.58840
Nuclear contribution   :      5.52096       2.41212       2.56820
                        -----------------------------------------
Total Dipole Moment    :      1.60944       0.31668       0.97980
                        -----------------------------------------
Magnitude (a.u.)       :      1.91066
Magnitude (Debye)      :      4.85650

                             ****ORCA TERMINATED NORMALLY****
TOTAL RUN TIME: 0 days 0 hours 16 minutes 24 seconds 678 msec
