                         Program Version 3.0.3 - RELEASE   -
|  1> ! RI-MP2 RIJK def2-TZVP def2-TZVP/C def2-TZVP/JK TIGHTSCF
|  2> % maxcore 2000
|  3> % mp2 density relaxed end
|  4> *xyz 0 1
|  5>  O        0.0054536273     0.0159021332     0.0715021778
|  6>  C       -0.0112996110     1.2133357122     0.0382768395
|  7>  C       -1.2706307139     2.1101415271    -0.0005581509
|  8>  C       -0.7052758025     3.5339781037    -0.0352746998
|  9>  C        0.6403135476     3.3707121604    -0.7641684313
| 10>  C        1.1982016210     2.1750462802     0.0202917572
| 11>  N        1.4314195458     2.5705341890     1.4193064699
| 12>  C        0.6198633308     3.4175690117     1.9058116507
| 13>  O       -0.4543993844     3.9916725564     1.3150477315
| 14>  H       -1.8319955637     1.8856305570    -0.9143203659
| 15>  H       -1.9306899874     1.9232215288     0.8498198615
| 16>  H       -1.3773835614     4.2754034456    -0.4656648218
| 17>  H        0.4803516464     3.1343603383    -1.8208684235
| 18>  H        1.2703698301     4.2596442386    -0.6889982112
| 19>  H        2.0950187917     1.7057288789    -0.3816024544
| 20>  H        0.7402571035     3.7877671490     2.9214492807
| 21> *
| 22>
| 23>                          ****END OF INPUT****

CARTESIAN COORDINATES (ANGSTROEM)
---------------------------------
  O      0.005454    0.015902    0.071502
  C     -0.011300    1.213336    0.038277
  C     -1.270631    2.110142   -0.000558
  C     -0.705276    3.533978   -0.035275
  C      0.640314    3.370712   -0.764168
  C      1.198202    2.175046    0.020292
  N      1.431420    2.570534    1.419306
  C      0.619863    3.417569    1.905812
  O     -0.454399    3.991673    1.315048
  H     -1.831996    1.885631   -0.914320
  H     -1.930690    1.923222    0.849820
  H     -1.377384    4.275403   -0.465665
  H      0.480352    3.134360   -1.820868
  H      1.270370    4.259644   -0.688998
  H      2.095019    1.705729   -0.381602
  H      0.740257    3.787767    2.921449

 Total Charge           Charge          ....    0
 Multiplicity           Mult            ....    1
 Number of Electrons    NEL             ....   66
 Basis Dimension        Dim             ....  321

ORBITAL ENERGIES
----------------

  NO   OCC          E(Eh)            E(eV)
   0   2.0000     -20.611336      -560.8630
   1   2.0000     -20.556535      -559.3718
   2   2.0000     -15.562272      -423.4710
   3   2.0000     -11.347151      -308.7717
   4   2.0000     -11.339367      -308.5599
   5   2.0000     -11.318107      -307.9813
   6   2.0000     -11.279528      -306.9316
   7   2.0000     -11.252955      -306.2085
   8   2.0000     -11.252677      -306.2009
   9   2.0000      -1.446966       -39.3740
  10   2.0000      -1.401619       -38.1400
  11   2.0000      -1.236083       -33.6355
  12   2.0000      -1.136736       -30.9322
  13   2.0000      -0.995996       -27.1024
  14   2.0000      -0.945938       -25.7403
  15   2.0000      -0.901418       -24.5288
  16   2.0000      -0.772961       -21.0333
  17   2.0000      -0.755501       -20.5582
  18   2.0000      -0.724554       -19.7161
  19   2.0000      -0.680362       -18.5136
  20   2.0000      -0.651993       -17.7416
  21   2.0000      -0.650974       -17.7139
  22   2.0000      -0.636310       -17.3149
  23   2.0000      -0.608498       -16.5581
  24   2.0000      -0.581171       -15.8145
  25   2.0000      -0.568318       -15.4647
  26   2.0000      -0.561443       -15.2776
  27   2.0000      -0.526102       -14.3160
  28   2.0000      -0.510154       -13.8820
  29   2.0000      -0.498399       -13.5621
  30   2.0000      -0.432851       -11.7785
  31   2.0000      -0.419565       -11.4169
  32   2.0000      -0.384711       -10.4685
  33   0.0000       0.123339         3.3562
  34   0.0000       0.128187         3.4881
  35   0.0000       0.157523         4.2864
  36   0.0000       0.165743         4.5101
  37   0.0000       0.167659         4.5622

MULLIKEN ATOMIC CHARGES
-----------------------
   0 O :   -0.240390
   1 C :    0.063931
   2 C :   -0.278043
   3 C :    0.096052
   4 C :   -0.331420
   5 C :    0.158341
   6 N :   -0.287969
   7 C :    0.072261
   8 O :   -0.263421
   9 H :    0.149172
  10 H :    0.156061
  11 H :    0.140945
  12 H :    0.140935
  13 H :    0.144573
  14 H :    0.135518
  15 H :    0.143453
Sum of atomic charges:    0.0000000

LOEWDIN ATOMIC CHARGES
----------------------
   0 O :    0.175329
   1 C :   -0.287861
   2 C :   -0.199873
   3 C :   -0.264266
   4 C :   -0.209586
   5 C :   -0.247326
   6 N :    0.101316
   7 C :   -0.353797
   8 O :    0.243584
   9 H :    0.158949
  10 H :    0.155604
  11 H :    0.145041
  12 H :    0.149420
  13 H :    0.147225
  14 H :    0.149995
  15 H :    0.136246

  Mayer bond orders larger than 0.1
B(  0-O ,  1-C ) :   2.0557 B(  1-C ,  2-C ) :   0.9182 B(  1-C ,  5-C ) :   0.8174
B(  2-C ,  3-C ) :   0.9141 B(  2-C ,  5-C ) :  -0.1218 B(  2-C ,  9-H ) :   0.9023
B(  2-C , 10-H ) :   0.9021 B(  3-C ,  4-C ) :   0.9068 B(  3-C ,  8-O ) :   0.8303
B(  3-C , 11-H ) :   0.9241 B(  4-C ,  5-C ) :   0.9245 B(  4-C , 12-H ) :   0.9259
B(  4-C , 13-H ) :   0.9062 B(  5-C ,  6-N ) :   0.8629 B(  5-C , 14-H ) :   0.9207
B(  6-N ,  7-C ) :   1.8193 B(  7-C ,  8-O ) :   1.0752 B(  7-C , 15-H ) :   0.9236

MP2 TOTAL ENERGY:     -437.202175700 Eh
FINAL SINGLE POINT ENERGY      -437.202175699904

DIPOLE MOMENT
-------------
                                X             Y             Z
Electronic contribution:      0.90638      -2.19746       2.63431
Nuclear contribution   :     -1.46665       3.32366      -3.37176
                        -----------------------------------------
Total Dipole Moment    :     -0.56027       1.12620      -0.73745
                        -----------------------------------------
Magnitude (a.u.)       :      1.45810
Magnitude (Debye)      :      3.70620

                             ****ORCA TERMINATED NORMALLY****
TOTAL RUN TIME: 0 days 0 hours 23 minutes 12 seconds 821 msec
