                         Program Version 3.0.3 - RELEASE   -
|  1> ! RI-MP2 RIJK def2-TZVP def2-TZVP/C def2-TZVP/JK TIGHTSCF
|  2> % maxcore 2000
|  3> % mp2 density relaxed end
|  4> *xyz 0 1
|  5>  C        0.0088040108     1.5378689508     0.0302094089
|  6>  C        0.2263330345     0.0208815673     0.0133617651
|  7>  C        0.6931480969    -0.4792993283    -1.3522885037
|  8>  C        0.7337861631    -2.0111617765    -1.6165425505
|  9>  O       -0.2465692263    -1.8420352671    -2.7083202702
| 10>  C       -0.3432541844    -0.4916020138    -2.4779654555
| 11>  O       -1.0592791912     0.2849376736    -3.0237034746
| 12>  C        1.9796561399    -2.5969328835    -2.0578162632
| 13>  C        3.0268028690    -3.0730812346    -2.4042644681
| 14>  H        0.9424411886     2.0718745929    -0.1767225665
| 15>  H       -0.7214288511     1.8346761264    -0.7274603796
| 16>  H       -0.3552442550     1.8663196254     1.0077336194
| 17>  H        0.9728507991    -0.2638144505     0.7645359884
| 18>  H       -0.7040454090    -0.4920731076     0.2872213078
| 19>  H        1.6161214430     0.0189585362    -1.6615590034
| 20>  H        0.2743192236    -2.6034173767    -0.8196988562
| 21>  H        3.9485134484    -3.5000962441    -2.7155573480
| 22> *
| 23>
| 24>                          ****END OF INPUT****

CARTESIAN COORDINATES (ANGSTROEM)
---------------------------------
  C      0.008804    1.537869    0.030209
  C      0.226333    0.020882    0.013362
  C      0.693148   -0.479299   -1.352289
  C      0.733786   -2.011162   -1.616543
  O     -0.246569   -1.842035   -2.708320
  C     -0.343254   -0.491602   -2.477965
  O     -1.059279    0.284938   -3.023703
  C      1.979656   -2.596933   -2.057816
  C      3.026803   -3.073081   -2.404264
  H      0.942441    2.071875   -0.176723
  H     -0.721429    1.834676   -0.727460
  H     -0.355244    1.866320    1.007734
  H      0.972851   -0.263814    0.764536
  H     -0.704045   -0.492073    0.287221
  H      1.616121    0.018959   -1.661559
  H      0.274319   -2.603417   -0.819699
  H      3.948513   -3.500096   -2.715557

 Total Charge           Charge          ....    0
 Multiplicity           Mult            ....    1
 Number of Electrons    NEL             ....   66
 Basis Dimension        Dim             ....  327

ORBITAL ENERGIES
----------------

  NO   OCC          E(Eh)            E(eV)
   0   2.0000     -20.610672      -560.8449
   1   2.0000     -20.557547      -559.3993
   2   2.0000     -11.387686      -309.8747
   3   2.0000     -11.342583      -308.6474
   4   2.0000     -11.276252      -306.8424
   5   2.0000     -11.256452      -306.3036
   6   2.0000     -11.254441      -306.2489
   7   2.0000     -11.252191      -306.1877
   8   2.0000     -11.228487      -305.5427
   9   2.0000      -1.470418       -40.0121
  10   2.0000      -1.385220       -37.6938
  11   2.0000      -1.113844       -30.3092
  12   2.0000      -1.068893       -29.0861
  13   2.0000      -1.001186       -27.2437
  14   2.0000      -0.939088       -25.5539
  15   2.0000      -0.860959       -23.4279
  16   2.0000      -0.762378       -20.7453
  17   2.0000      -0.755767       -20.5655
  18   2.0000      -0.712649       -19.3922
  19   2.0000      -0.695489       -18.9252
  20   2.0000      -0.690486       -18.7891
  21   2.0000      -0.633683       -17.2434
  22   2.0000      -0.601872       -16.3778
  23   2.0000      -0.587839       -15.9959
  24   2.0000      -0.576331       -15.6828
  25   2.0000      -0.558596       -15.2002
  26   2.0000      -0.521911       -14.2019
  27   2.0000      -0.508753       -13.8439
  28   2.0000      -0.505753       -13.7622
  29   2.0000      -0.475810       -12.9475
  30   2.0000      -0.444565       -12.0972
  31   2.0000      -0.419269       -11.4089
  32   2.0000      -0.407255       -11.0820
  33   0.0000       0.122121         3.3231
  34   0.0000       0.135223         3.6796
  35   0.0000       0.143174         3.8960
  36   0.0000       0.153011         4.1636
  37   0.0000       0.160016         4.3542

MULLIKEN ATOMIC CHARGES
-----------------------
   0 C :   -0.404231
   1 C :   -0.236771
   2 C :   -0.115697
   3 C :   -0.022906
   4 O :   -0.224038
   5 C :    0.249271
   6 O :   -0.262229
   7 C :   -0.055339
   8 C :   -0.087724
   9 H :    0.124619
  10 H :    0.160004
  11 H :    0.137865
  12 H :    0.126904
  13 H :    0.124313
  14 H :    0.146536
  15 H :    0.136807
  16 H :    0.202616
Sum of atomic charges:    0.0000000

LOEWDIN ATOMIC CHARGES
----------------------
   0 C :   -0.307714
   1 C :   -0.264662
   2 C :   -0.173501
   3 C :   -0.211201
   4 O :    0.260065
   5 C :   -0.436955
   6 O :    0.158636
   7 C :   -0.087522
   8 C :   -0.061490
   9 H :    0.123231
  10 H :    0.130810
  11 H :    0.123874
  12 H :    0.142070
  13 H :    0.143551
  14 H :    0.169159
  15 H :    0.160056
  16 H :    0.131593

  Mayer bond orders larger than 0.1
B(  0-C ,  1-C ) :   0.9252 B(  0-C ,  9-H ) :   0.9350 B(  0-C , 10-H ) :   0.9336
B(  0-C , 11-H ) :   0.9369 B(  1-C ,  2-C ) :   0.9143 B(  1-C , 12-H ) :   0.9313
B(  1-C , 13-H ) :   0.9245 B(  2-C ,  3-C ) :   0.8920 B(  2-C ,  5-C ) :   0.9147
B(  2-C , 14-H ) :   0.9003 B(  3-C ,  4-O ) :   0.9141 B(  3-C ,  7-C ) :   1.1627
B(  3-C ,  8-C ) :  -0.1090 B(  3-C , 15-H ) :   0.9200 B(  4-O ,  5-C ) :   1.0910
B(  5-C ,  6-O ) :   2.0324 B(  7-C ,  8-C ) :   2.5770 B(  8-C , 16-H ) :   0.8884

MP2 TOTAL ENERGY:     -421.102865467 Eh
FINAL SINGLE POINT ENERGY      -421.102865466590

DIPOLE MOMENT
-------------
                                X             Y             Z
Electronic contribution:     -0.81942      -5.97015      -7.94159
Nuclear contribution   :      1.87614       5.72417       9.12951
                        -----------------------------------------
Total Dipole Moment    :      1.05672      -0.24597       1.18791
                        -----------------------------------------
Magnitude (a.u.)       :      1.60882
Magnitude (Debye)      :      4.08930

                             ****ORCA TERMINATED NORMALLY****
TOTAL RUN TIME: 0 days 0 hours 16 minutes 40 seconds 888 msec
