                         Program Version 3.0.3 - RELEASE   -
|  1> ! RI-MP2 RIJK def2-TZVP def2-TZVP/C def2-TZVP/JK TIGHTSCF
|  2> % maxcore 2000
|  3> % mp2 density relaxed end
|  4> *xyz 0 1
|  5>  C       -0.0303883082     1.8194094386    -0.4425327443
|  6>  C       -0.2003219502     0.3020156621    -0.3384710265
|  7>  C        0.8179646967    -0.4573846686    -1.1793063208
|  8>  O        0.5905004174    -1.8421275898    -1.0154434107
|  9>  C        1.3581949813    -2.6882213525    -1.8572846061
| 10>  C        2.8184675870    -2.7992435500    -1.4182814522
| 11>  C        0.6443020435    -4.0386544522    -1.8195457138
| 12>  O        1.2829814403    -4.9099010281    -2.7255174713
| 13>  C        0.7071528250    -6.1928927136    -2.7510914260
| 14>  H        0.9620326037     2.1350322306    -0.1018121257
| 15>  H       -0.1506533502     2.1655724670    -1.4751549805
| 16>  H       -0.7716430815     2.3411026400     0.1696543797
| 17>  H       -0.0990784493    -0.0212662822     0.7039859394
| 18>  H       -1.2058968768     0.0071902563    -0.6597236595
| 19>  H        0.7195095560    -0.1792820569    -2.2432489387
| 20>  H        1.8388873297    -0.1820036747    -0.8688353747
| 21>  H        1.3176377371    -2.3150331448    -2.8942709459
| 22>  H        3.3275293373    -3.5504102152    -2.0270351423
| 23>  H        3.3488945351    -1.8495326611    -1.5296771034
| 24>  H        2.8715778192    -3.1037894554    -0.3675257133
| 25>  H        0.6744138852    -4.4437332158    -0.7937167543
| 26>  H       -0.4142693235    -3.8944237054    -2.0871607370
| 27>  H        0.7630772708    -6.6859656553    -1.7675250877
| 28>  H       -0.3508808580    -6.1599965031    -3.0561525214
| 29>  H        1.2652099925    -6.7890626499    -3.4773603927
| 30> *
| 31>
| 32>                          ****END OF INPUT****

CARTESIAN COORDINATES (ANGSTROEM)
---------------------------------
  C     -0.030388    1.819409   -0.442533
  C     -0.200322    0.302016   -0.338471
  C      0.817965   -0.457385   -1.179306
  O      0.590500   -1.842128   -1.015443
  C      1.358195   -2.688221   -1.857285
  C      2.818468   -2.799244   -1.418281
  C      0.644302   -4.038654   -1.819546
  O      1.282981   -4.909901   -2.725517
  C      0.707153   -6.192893   -2.751091
  H      0.962033    2.135032   -0.101812
  H     -0.150653    2.165572   -1.475155
  H     -0.771643    2.341103    0.169654
  H     -0.099078   -0.021266    0.703986
  H     -1.205897    0.007190   -0.659724
  H      0.719510   -0.179282   -2.243249
  H      1.838887   -0.182004   -0.868835
  H      1.317638   -2.315033   -2.894271
  H      3.327529   -3.550410   -2.027035
  H      3.348895   -1.849533   -1.529677
  H      2.871578   -3.103789   -0.367526
  H      0.674414   -4.443733   -0.793717
  H     -0.414269   -3.894424   -2.087161
  H      0.763077   -6.685966   -1.767525
  H     -0.350881   -6.159997   -3.056153
  H      1.265210   -6.789063   -3.477360

 Total Charge           Charge          ....    0
 Multiplicity           Mult            ....    1
 Number of Electrons    NEL             ....   74
 Basis Dimension        Dim             ....  375

ORBITAL ENERGIES
----------------

  NO   OCC          E(Eh)            E(eV)
   0   2.0000     -20.554426      -559.3144
   1   2.0000     -20.548063      -559.1412
   2   2.0000     -11.274497      -306.7947
   3   2.0000     -11.270061      -306.6740
   4   2.0000     -11.269267      -306.6523
   5   2.0000     -11.267637      -306.6080
   6   2.0000     -11.216861      -305.2263
   7   2.0000     -11.214977      -305.1750
   8   2.0000     -11.206852      -304.9539
   9   2.0000      -1.380120       -37.5550
  10   2.0000      -1.367398       -37.2088
  11   2.0000      -1.066262       -29.0145
  12   2.0000      -1.025126       -27.8951
  13   2.0000      -0.949365       -25.8335
  14   2.0000      -0.919819       -25.0296
  15   2.0000      -0.875843       -23.8329
  16   2.0000      -0.803954       -21.8767
  17   2.0000      -0.792287       -21.5592
  18   2.0000      -0.684134       -18.6162
  19   2.0000      -0.667106       -18.1529
  20   2.0000      -0.656221       -17.8567
  21   2.0000      -0.647643       -17.6232
  22   2.0000      -0.621002       -16.8983
  23   2.0000      -0.597431       -16.2569
  24   2.0000      -0.589201       -16.0330
  25   2.0000      -0.567971       -15.4553
  26   2.0000      -0.547433       -14.8964
  27   2.0000      -0.539863       -14.6904
  28   2.0000      -0.524367       -14.2687
  29   2.0000      -0.507031       -13.7970
  30   2.0000      -0.498784       -13.5726
  31   2.0000      -0.488462       -13.2917
  32   2.0000      -0.473593       -12.8871
  33   2.0000      -0.463255       -12.6058
  34   2.0000      -0.453926       -12.3520
  35   2.0000      -0.421767       -11.4769
  36   2.0000      -0.413888       -11.2625
  37   0.0000       0.137137         3.7317
  38   0.0000       0.148610         4.0439
  39   0.0000       0.164492         4.4761
  40   0.0000       0.173132         4.7112
  41   0.0000       0.180310         4.9065

MULLIKEN ATOMIC CHARGES
-----------------------
   0 C :   -0.409435
   1 C :   -0.161743
   2 C :   -0.073048
   3 O :   -0.296770
   4 C :    0.110484
   5 C :   -0.416435
   6 C :   -0.039070
   7 O :   -0.314161
   8 C :   -0.214007
   9 H :    0.123515
  10 H :    0.123249
  11 H :    0.137398
  12 H :    0.111663
  13 H :    0.110128
  14 H :    0.087100
  15 H :    0.090826
  16 H :    0.068943
  17 H :    0.150717
  18 H :    0.129972
  19 H :    0.120920
  20 H :    0.095563
  21 H :    0.102911
  22 H :    0.111773
  23 H :    0.112116
  24 H :    0.137395
Sum of atomic charges:   -0.0000000

LOEWDIN ATOMIC CHARGES
----------------------
   0 C :   -0.320548
   1 C :   -0.295269
   2 C :   -0.329130
   3 O :    0.181244
   4 C :   -0.354014
   5 C :   -0.299499
   6 C :   -0.308014
   7 O :    0.136585
   8 C :   -0.361304
   9 H :    0.120494
  10 H :    0.120474
  11 H :    0.122492
  12 H :    0.137283
  13 H :    0.136411
  14 H :    0.118358
  15 H :    0.118385
  16 H :    0.136249
  17 H :    0.132220
  18 H :    0.120035
  19 H :    0.125694
  20 H :    0.122657
  21 H :    0.122942
  22 H :    0.101480
  23 H :    0.101911
  24 H :    0.112864

  Mayer bond orders larger than 0.1
B(  0-C ,  1-C ) :   0.9118 B(  0-C ,  9-H ) :   0.9369 B(  0-C , 10-H ) :   0.9372
B(  0-C , 11-H ) :   0.9400 B(  1-C ,  2-C ) :   0.9550 B(  1-C , 12-H ) :   0.9301
B(  1-C , 13-H ) :   0.9313 B(  2-C ,  3-O ) :   0.9445 B(  2-C , 14-H ) :   0.9233
B(  2-C , 15-H ) :   0.9207 B(  3-O ,  4-C ) :   0.9283 B(  4-C ,  5-C ) :   0.9056
B(  4-C ,  6-C ) :   0.9521 B(  4-C , 16-H ) :   0.9317 B(  5-C , 17-H ) :   0.9267
B(  5-C , 18-H ) :   0.9362 B(  5-C , 19-H ) :   0.9307 B(  6-C ,  7-O ) :   0.9327
B(  6-C , 20-H ) :   0.9176 B(  6-C , 21-H ) :   0.9233 B(  7-O ,  8-C ) :   0.9223
B(  8-C , 22-H ) :   0.9372 B(  8-C , 23-H ) :   0.9380 B(  8-C , 24-H ) :   0.9395

MP2 TOTAL ENERGY:     -425.905089485 Eh
FINAL SINGLE POINT ENERGY      -425.905089484779

DIPOLE MOMENT
-------------
                                X             Y             Z
Electronic contribution:      0.04342      -4.58986      -1.67762
Nuclear contribution   :     -0.13043       4.61073       1.64547
                        -----------------------------------------
Total Dipole Moment    :     -0.08701       0.02087      -0.03215
                        -----------------------------------------
Magnitude (a.u.)       :      0.09508
Magnitude (Debye)      :      0.24167

                             ****ORCA TERMINATED NORMALLY****
TOTAL RUN TIME: 0 days 0 hours 16 minutes 43 seconds 5 msec
