                         Program Version 3.0.3 - RELEASE   -
|  1> ! RI-MP2 RIJK def2-TZVP def2-TZVP/C def2-TZVP/JK TIGHTSCF
|  2> % maxcore 2000
|  3> % mp2 density relaxed end
|  4> *xyz 0 1
|  5>  C       -0.2349653033     1.3410423561    -0.0884559203
|  6>  O        0.2894923878     0.0361340884     0.1212507339
|  7>  C        0.7767726583    -0.5512127021    -1.0433161915
|  8>  C        1.2671728353    -2.0070006526    -0.8342659631
|  9>  N        0.2723540032    -2.4403258363    -1.8382094257
| 10>  C       -0.0009049040    -3.6952970926    -2.3554753420
| 11>  O       -0.8515650798    -3.9355731596    -3.1699866499
| 12>  C       -0.2791034770    -1.1510820607    -2.0200261742
| 13>  O       -1.2045820998    -0.7458461735    -2.6540847857
| 14>  H        0.5398727775     2.0201985038    -0.4742552163
| 15>  H       -1.0768271961     1.3279411952    -0.7899837521
| 16>  H       -0.5748918304     1.7013129684     0.8841256314
| 17>  H        1.5012388181     0.0947495694    -1.5622248900
| 18>  H        2.3024607685    -2.2089394732    -1.1166297977
| 19>  H        1.0601304519    -2.3746619917     0.1730408734
| 20>  H        0.6739174000    -4.4612581490    -1.9223970804
| 21> *
| 22>
| 23>                          ****END OF INPUT****

CARTESIAN COORDINATES (ANGSTROEM)
---------------------------------
  C     -0.234965    1.341042   -0.088456
  O      0.289492    0.036134    0.121251
  C      0.776773   -0.551213   -1.043316
  C      1.267173   -2.007001   -0.834266
  N      0.272354   -2.440326   -1.838209
  C     -0.000905   -3.695297   -2.355475
  O     -0.851565   -3.935573   -3.169987
  C     -0.279103   -1.151082   -2.020026
  O     -1.204582   -0.745846   -2.654085
  H      0.539873    2.020199   -0.474255
  H     -1.076827    1.327941   -0.789984
  H     -0.574892    1.701313    0.884126
  H      1.501239    0.094750   -1.562225
  H      2.302461   -2.208939   -1.116630
  H      1.060130   -2.374662    0.173041
  H      0.673917   -4.461258   -1.922397

 Total Charge           Charge          ....    0
 Multiplicity           Mult            ....    1
 Number of Electrons    NEL             ....   68
 Basis Dimension        Dim             ....  321

ORBITAL ENERGIES
----------------

  NO   OCC          E(Eh)            E(eV)
   0   2.0000     -20.590442      -560.2944
   1   2.0000     -20.562143      -559.5243
   2   2.0000     -20.553662      -559.2936
   3   2.0000     -15.623005      -425.1236
   4   2.0000     -11.377931      -309.6092
   5   2.0000     -11.374423      -309.5138
   6   2.0000     -11.327064      -308.2251
   7   2.0000     -11.303732      -307.5902
   8   2.0000     -11.288011      -307.1624
   9   2.0000      -1.432227       -38.9729
  10   2.0000      -1.409539       -38.3555
  11   2.0000      -1.402333       -38.1594
  12   2.0000      -1.295782       -35.2600
  13   2.0000      -1.061662       -28.8893
  14   2.0000      -0.950622       -25.8677
  15   2.0000      -0.932564       -25.3764
  16   2.0000      -0.863201       -23.4889
  17   2.0000      -0.758047       -20.6275
  18   2.0000      -0.718750       -19.5582
  19   2.0000      -0.710630       -19.3372
  20   2.0000      -0.693335       -18.8666
  21   2.0000      -0.671606       -18.2753
  22   2.0000      -0.648214       -17.6388
  23   2.0000      -0.640239       -17.4218
  24   2.0000      -0.615717       -16.7545
  25   2.0000      -0.583589       -15.8803
  26   2.0000      -0.573501       -15.6058
  27   2.0000      -0.545809       -14.8522
  28   2.0000      -0.539997       -14.6941
  29   2.0000      -0.520528       -14.1643
  30   2.0000      -0.489090       -13.3088
  31   2.0000      -0.462669       -12.5899
  32   2.0000      -0.420502       -11.4424
  33   2.0000      -0.410900       -11.1812
  34   0.0000       0.098442         2.6787
  35   0.0000       0.134006         3.6465
  36   0.0000       0.143651         3.9089
  37   0.0000       0.166072         4.5191
  38   0.0000       0.172763         4.7011

MULLIKEN ATOMIC CHARGES
-----------------------
   0 C :   -0.229985
   1 O :   -0.310201
   2 C :    0.080883
   3 C :   -0.144534
   4 N :   -0.064869
   5 C :    0.131762
   6 O :   -0.271650
   7 C :    0.163112
   8 O :   -0.250814
   9 H :    0.115394
  10 H :    0.151914
  11 H :    0.145708
  12 H :    0.104457
  13 H :    0.138531
  14 H :    0.142828
  15 H :    0.097463
Sum of atomic charges:   -0.0000000

LOEWDIN ATOMIC CHARGES
----------------------
   0 C :   -0.332103
   1 O :    0.165219
   2 C :   -0.282262
   3 C :   -0.185474
   4 N :    0.211347
   5 C :   -0.373953
   6 O :    0.127598
   7 C :   -0.355901
   8 O :    0.167035
   9 H :    0.104996
  10 H :    0.113442
  11 H :    0.116352
  12 H :    0.140636
  13 H :    0.129636
  14 H :    0.137380
  15 H :    0.116052

  Mayer bond orders larger than 0.1
B(  0-C ,  1-O ) :   0.8785 B(  0-C ,  9-H ) :   0.9350 B(  0-C , 10-H ) :   0.9320
B(  0-C , 11-H ) :   0.9367 B(  1-O ,  2-C ) :   0.9768 B(  2-C ,  3-C ) :   0.9203
B(  2-C ,  7-C ) :   0.8905 B(  2-C , 12-H ) :   0.9071 B(  3-C ,  4-N ) :   0.9118
B(  3-C , 13-H ) :   0.9173 B(  3-C , 14-H ) :   0.9113 B(  4-N ,  5-C ) :   0.9908
B(  4-N ,  7-C ) :   0.9984 B(  5-C ,  6-O ) :   1.9816 B(  5-C , 15-H ) :   0.9275
B(  7-C ,  8-O ) :   2.0182

MP2 TOTAL ENERGY:     -474.282014287 Eh
FINAL SINGLE POINT ENERGY      -474.282014287194

DIPOLE MOMENT
-------------
                                X             Y             Z
Electronic contribution:     -2.64742      -5.27632      -4.45345
Nuclear contribution   :      4.21088       5.75302       5.54204
                        -----------------------------------------
Total Dipole Moment    :      1.56346       0.47670       1.08859
                        -----------------------------------------
Magnitude (a.u.)       :      1.96384
Magnitude (Debye)      :      4.99169

                             ****ORCA TERMINATED NORMALLY****
TOTAL RUN TIME: 0 days 0 hours 23 minutes 2 seconds 797 msec
