                         Program Version 3.0.3 - RELEASE   -
|  1> ! RI-MP2 RIJK def2-TZVP def2-TZVP/C def2-TZVP/JK TIGHTSCF
|  2> % maxcore 2000
|  3> % mp2 density relaxed end
|  4> *xyz 0 1
|  5>  C       -0.2520730469     1.6435456125    -0.0928003717
|  6>  C       -0.1797382420     0.1157080373    -0.0512861843
|  7>  C        0.8141973427    -0.4656965284    -1.0729032788
|  8>  C        0.8342200269    -1.9630370704    -1.0862014161
|  9>  C        1.8398596073    -2.8235258938    -0.7092300449
| 10>  C        3.2206884690    -2.6103061240    -0.1864832643
| 11>  N        1.3168565512    -4.0893276774    -0.9119320098
| 12>  C        0.0493036775    -3.9396227213    -1.3894888698
| 13>  N       -0.2747295154    -2.6762280775    -1.5071089679
| 14>  H        0.7228865219     2.0959736873     0.1234220710
| 15>  H       -0.5664866446     1.9977017759    -1.0810678074
| 16>  H       -0.9666418096     2.0295870461     0.6411273334
| 17>  H        0.1050997614    -0.2177426117     0.9546946135
| 18>  H       -1.1673477618    -0.3149088890    -0.2491486099
| 19>  H        0.5414177539    -0.1042539520    -2.0731712723
| 20>  H        1.8200802847    -0.0792733948    -0.8679739782
| 21>  H        3.3515192320    -3.0246803986     0.8211884604
| 22>  H        3.9821072821    -3.0686814519    -0.8300816511
| 23>  H        3.4398682936    -1.5420133006    -0.1307597258
| 24>  H        1.7925199195    -4.9591338587    -0.7394414234
| 25>  H       -0.5787316334    -4.7839743990    -1.6333166824
| 26> *
| 27>
| 28>                          ****END OF INPUT****

CARTESIAN COORDINATES (ANGSTROEM)
---------------------------------
  C     -0.252073    1.643546   -0.092800
  C     -0.179738    0.115708   -0.051286
  C      0.814197   -0.465697   -1.072903
  C      0.834220   -1.963037   -1.086201
  C      1.839860   -2.823526   -0.709230
  C      3.220688   -2.610306   -0.186483
  N      1.316857   -4.089328   -0.911932
  C      0.049304   -3.939623   -1.389489
  N     -0.274730   -2.676228   -1.507109
  H      0.722887    2.095974    0.123422
  H     -0.566487    1.997702   -1.081068
  H     -0.966642    2.029587    0.641127
  H      0.105100   -0.217743    0.954695
  H     -1.167348   -0.314909   -0.249149
  H      0.541418   -0.104254   -2.073171
  H      1.820080   -0.079273   -0.867974
  H      3.351519   -3.024680    0.821188
  H      3.982107   -3.068681   -0.830082
  H      3.439868   -1.542013   -0.130760
  H      1.792520   -4.959134   -0.739441
  H     -0.578732   -4.783974   -1.633317

 Total Charge           Charge          ....    0
 Multiplicity           Mult            ....    1
 Number of Electrons    NEL             ....   68
 Basis Dimension        Dim             ....  351

ORBITAL ENERGIES
----------------

  NO   OCC          E(Eh)            E(eV)
   0   2.0000     -15.607804      -424.7099
   1   2.0000     -15.532502      -422.6609
   2   2.0000     -11.287315      -307.1435
   3   2.0000     -11.254242      -306.2435
   4   2.0000     -11.235905      -305.7445
   5   2.0000     -11.233829      -305.6880
   6   2.0000     -11.214045      -305.1497
   7   2.0000     -11.207420      -304.9694
   8   2.0000     -11.203933      -304.8745
   9   2.0000      -1.330631       -36.2083
  10   2.0000      -1.160659       -31.5831
  11   2.0000      -1.066339       -29.0166
  12   2.0000      -1.028019       -27.9738
  13   2.0000      -0.954214       -25.9655
  14   2.0000      -0.904522       -24.6133
  15   2.0000      -0.818925       -22.2841
  16   2.0000      -0.805023       -21.9058
  17   2.0000      -0.741209       -20.1693
  18   2.0000      -0.715668       -19.4743
  19   2.0000      -0.635932       -17.3046
  20   2.0000      -0.613929       -16.7059
  21   2.0000      -0.600403       -16.3378
  22   2.0000      -0.575319       -15.6552
  23   2.0000      -0.566620       -15.4185
  24   2.0000      -0.556867       -15.1531
  25   2.0000      -0.546867       -14.8810
  26   2.0000      -0.539149       -14.6710
  27   2.0000      -0.516611       -14.0577
  28   2.0000      -0.479027       -13.0350
  29   2.0000      -0.470778       -12.8105
  30   2.0000      -0.461504       -12.5582
  31   2.0000      -0.422968       -11.5096
  32   2.0000      -0.384544       -10.4640
  33   2.0000      -0.298303        -8.1172
  34   0.0000       0.122582         3.3356
  35   0.0000       0.145670         3.9639
  36   0.0000       0.162794         4.4298
  37   0.0000       0.165196         4.4952
  38   0.0000       0.188838         5.1385

MULLIKEN ATOMIC CHARGES
-----------------------
   0 C :   -0.387243
   1 C :   -0.182186
   2 C :   -0.283277
   3 C :    0.108772
   4 C :    0.057554
   5 C :   -0.412017
   6 N :   -0.280646
   7 C :    0.042997
   8 N :   -0.307818
   9 H :    0.114891
  10 H :    0.123719
  11 H :    0.130905
  12 H :    0.099374
  13 H :    0.128223
  14 H :    0.119788
  15 H :    0.104482
  16 H :    0.145713
  17 H :    0.144352
  18 H :    0.144684
  19 H :    0.243204
  20 H :    0.144529
Sum of atomic charges:    0.0000000

LOEWDIN ATOMIC CHARGES
----------------------
   0 C :   -0.324160
   1 C :   -0.287573
   2 C :   -0.234263
   3 C :   -0.241765
   4 C :   -0.237598
   5 C :   -0.280832
   6 N :    0.187446
   7 C :   -0.323296
   8 N :    0.106904
   9 H :    0.117710
  10 H :    0.120274
  11 H :    0.119930
  12 H :    0.132669
  13 H :    0.140719
  14 H :    0.147667
  15 H :    0.138988
  16 H :    0.130162
  17 H :    0.130059
  18 H :    0.136958
  19 H :    0.191882
  20 H :    0.128119

  Mayer bond orders larger than 0.1
B(  0-C ,  1-C ) :   0.9107 B(  0-C ,  9-H ) :   0.9374 B(  0-C , 10-H ) :   0.9415
B(  0-C , 11-H ) :   0.9429 B(  1-C ,  2-C ) :   0.9325 B(  1-C , 12-H ) :   0.9314
B(  1-C , 13-H ) :   0.9350 B(  2-C ,  3-C ) :   0.8957 B(  2-C , 14-H ) :   0.9201
B(  2-C , 15-H ) :   0.9497 B(  3-C ,  4-C ) :   1.5200 B(  3-C ,  8-N ) :   1.2553
B(  4-C ,  5-C ) :   0.8313 B(  4-C ,  6-N ) :   1.1347 B(  5-C , 16-H ) :   0.9362
B(  5-C , 17-H ) :   0.9362 B(  5-C , 18-H ) :   0.9515 B(  6-N ,  7-C ) :   1.1596
B(  6-N , 19-H ) :   0.8682 B(  7-C ,  8-N ) :   1.5664 B(  7-C , 20-H ) :   0.9272

MP2 TOTAL ENERGY:     -382.647205264 Eh
FINAL SINGLE POINT ENERGY      -382.647205263736

DIPOLE MOMENT
-------------
                                X             Y             Z
Electronic contribution:     -1.24670     -10.25202      -3.34151
Nuclear contribution   :      2.34960       9.37173       3.77417
                        -----------------------------------------
Total Dipole Moment    :      1.10290      -0.88028       0.43266
                        -----------------------------------------
Magnitude (a.u.)       :      1.47597
Magnitude (Debye)      :      3.75162

                             ****ORCA TERMINATED NORMALLY****
TOTAL RUN TIME: 0 days 0 hours 18 minutes 53 seconds 448 msec
