                         Program Version 3.0.3 - RELEASE   -
|  1> ! RI-MP2 RIJK def2-TZVP def2-TZVP/C def2-TZVP/JK TIGHTSCF
|  2> % maxcore 2000
|  3> % mp2 density relaxed end
|  4> *xyz 0 1
|  5>  C        0.1669806921     1.5022867412    -0.1363997848
|  6>  C       -0.0742369283     0.0050665950     0.1206653795
|  7>  C        0.6261500667    -0.5016500070     1.3346536443
|  8>  N        0.0991583072    -0.9841946340     2.4206227679
|  9>  C        1.1801311134    -1.2949084342     3.2341349135
| 10>  N        0.9648049821    -1.9020731928     4.4663401395
| 11>  C        2.3296200793    -0.9728300626     2.5846107764
| 12>  O        1.9734093711    -0.4587767910     1.3523994813
| 13>  H        1.2329419813     1.7088629100    -0.2644337510
| 14>  H       -0.3549629422     1.8232255900    -1.0424031459
| 15>  H       -0.1976616579     2.1060988325     0.6998826626
| 16>  H       -1.1388494256    -0.1976710026     0.2587461454
| 17>  H        0.2582397633    -0.5721749534    -0.7509337966
| 18>  H        0.0394136437    -1.6993339971     4.8199847253
| 19>  H        1.6711428511    -1.6965573809     5.1587133515
| 20>  H        3.3805602027    -1.0338652233     2.8007859409
| 21> *
| 22>
| 23>                          ****END OF INPUT****

CARTESIAN COORDINATES (ANGSTROEM)
---------------------------------
  C      0.166981    1.502287   -0.136400
  C     -0.074237    0.005067    0.120665
  C      0.626150   -0.501650    1.334654
  N      0.099158   -0.984195    2.420623
  C      1.180131   -1.294908    3.234135
  N      0.964805   -1.902073    4.466340
  C      2.329620   -0.972830    2.584611
  O      1.973409   -0.458777    1.352399
  H      1.232942    1.708863   -0.264434
  H     -0.354963    1.823226   -1.042403
  H     -0.197662    2.106099    0.699883
  H     -1.138849   -0.197671    0.258746
  H      0.258240   -0.572175   -0.750934
  H      0.039414   -1.699334    4.819985
  H      1.671143   -1.696557    5.158713
  H      3.380560   -1.033865    2.800786

 Total Charge           Charge          ....    0
 Multiplicity           Mult            ....    1
 Number of Electrons    NEL             ....   60
 Basis Dimension        Dim             ....  296

ORBITAL ENERGIES
----------------

  NO   OCC          E(Eh)            E(eV)
   0   2.0000     -20.620124      -561.1021
   1   2.0000     -15.563999      -423.5180
   2   2.0000     -15.551444      -423.1763
   3   2.0000     -11.333308      -308.3950
   4   2.0000     -11.293315      -307.3067
   5   2.0000     -11.261242      -306.4340
   6   2.0000     -11.244857      -305.9881
   7   2.0000     -11.227295      -305.5102
   8   2.0000      -1.471013       -40.0283
   9   2.0000      -1.251589       -34.0575
  10   2.0000      -1.178701       -32.0741
  11   2.0000      -1.072600       -29.1869
  12   2.0000      -0.982696       -26.7405
  13   2.0000      -0.881819       -23.9955
  14   2.0000      -0.815771       -22.1983
  15   2.0000      -0.789369       -21.4798
  16   2.0000      -0.709423       -19.3044
  17   2.0000      -0.668012       -18.1775
  18   2.0000      -0.658421       -17.9166
  19   2.0000      -0.640364       -17.4252
  20   2.0000      -0.603060       -16.4101
  21   2.0000      -0.597831       -16.2678
  22   2.0000      -0.565171       -15.3791
  23   2.0000      -0.532979       -14.5031
  24   2.0000      -0.517525       -14.0826
  25   2.0000      -0.507159       -13.8005
  26   2.0000      -0.503609       -13.7039
  27   2.0000      -0.454242       -12.3606
  28   2.0000      -0.411593       -11.2000
  29   2.0000      -0.302338        -8.2270
  30   0.0000       0.132307         3.6003
  31   0.0000       0.140668         3.8278
  32   0.0000       0.162124         4.4116
  33   0.0000       0.181848         4.9483
  34   0.0000       0.184393         5.0176

MULLIKEN ATOMIC CHARGES
-----------------------
   0 C :   -0.396053
   1 C :   -0.210784
   2 C :    0.246790
   3 N :   -0.302822
   4 C :    0.184451
   5 N :   -0.522279
   6 C :   -0.117559
   7 O :   -0.216360
   8 H :    0.137595
   9 H :    0.134170
  10 H :    0.133365
  11 H :    0.143169
  12 H :    0.128283
  13 H :    0.259890
  14 H :    0.246427
  15 H :    0.151718
Sum of atomic charges:   -0.0000000

LOEWDIN ATOMIC CHARGES
----------------------
   0 C :   -0.306284
   1 C :   -0.253951
   2 C :   -0.352937
   3 N :    0.129799
   4 C :   -0.367144
   5 N :   -0.083312
   6 C :   -0.256847
   7 O :    0.343985
   8 H :    0.124390
   9 H :    0.122221
  10 H :    0.124397
  11 H :    0.154203
  12 H :    0.149711
  13 H :    0.173760
  14 H :    0.167643
  15 H :    0.130365

  Mayer bond orders larger than 0.1
B(  0-C ,  1-C ) :   0.9141 B(  0-C ,  8-H ) :   0.9357 B(  0-C ,  9-H ) :   0.9372
B(  0-C , 10-H ) :   0.9358 B(  1-C ,  2-C ) :   0.8933 B(  1-C , 11-H ) :   0.9458
B(  1-C , 12-H ) :   0.9277 B(  2-C ,  3-N ) :   1.6611 B(  2-C ,  7-O ) :   1.0921
B(  3-N ,  4-C ) :   1.1775 B(  4-C ,  5-N ) :   1.0396 B(  4-C ,  6-C ) :   1.5714
B(  5-N , 13-H ) :   0.8717 B(  5-N , 14-H ) :   0.8811 B(  6-C ,  7-O ) :   0.9966
B(  6-C , 15-H ) :   0.9265

MP2 TOTAL ENERGY:     -379.321943829 Eh
FINAL SINGLE POINT ENERGY      -379.321943829471

DIPOLE MOMENT
-------------
                                X             Y             Z
Electronic contribution:      2.55088      -4.14681       3.70344
Nuclear contribution   :     -2.24035       4.58546      -3.46484
                        -----------------------------------------
Total Dipole Moment    :      0.31053       0.43865       0.23860
                        -----------------------------------------
Magnitude (a.u.)       :      0.58803
Magnitude (Debye)      :      1.49465

                             ****ORCA TERMINATED NORMALLY****
TOTAL RUN TIME: 0 days 0 hours 11 minutes 14 seconds 675 msec
