                         Program Version 3.0.3 - RELEASE   -
|  1> ! RI-MP2 RIJK def2-TZVP def2-TZVP/C def2-TZVP/JK TIGHTSCF
|  2> % maxcore 2000
|  3> % mp2 density relaxed end
|  4> *xyz 0 1
|  5>  O        0.0208863920    -0.1000536649     0.0413782362
|  6>  C       -0.0079414034     1.1020026567     0.1626074893
|  7>  C       -1.3176868467     1.8593267696     0.3608752082
|  8>  N       -1.1128416199     3.1733959954     0.9704888127
|  9>  C        0.1710366246     3.7674354946     0.7392430464
| 10>  C        1.0819162500     3.4046286798    -0.4942144975
| 11>  O        2.2462537122     3.8273535805     0.2989145794
| 12>  C        1.4381353938     3.0138146849     1.2201170298
| 13>  C        1.2245394153     1.9626269547     0.0833351969
| 14>  H       -1.7640125877     1.9263375299    -0.6472177767
| 15>  H       -1.9893973712     1.2414915996     0.9643395892
| 16>  H       -1.8600210476     3.8114203373     0.7324671629
| 17>  H        0.1742635236     4.8285513675     0.9888264636
| 18>  H        1.0437290064     3.7118238046    -1.5400464511
| 19>  H        1.8181772974     2.8427930032     2.2271630540
| 20>  H        2.1148954810     1.4101027466    -0.2158858434
| 21> *
| 22>
| 23>                          ****END OF INPUT****

CARTESIAN COORDINATES (ANGSTROEM)
---------------------------------
  O      0.020886   -0.100054    0.041378
  C     -0.007941    1.102003    0.162607
  C     -1.317687    1.859327    0.360875
  N     -1.112842    3.173396    0.970489
  C      0.171037    3.767435    0.739243
  C      1.081916    3.404629   -0.494214
  O      2.246254    3.827354    0.298915
  C      1.438135    3.013815    1.220117
  C      1.224539    1.962627    0.083335
  H     -1.764013    1.926338   -0.647218
  H     -1.989397    1.241492    0.964340
  H     -1.860021    3.811420    0.732467
  H      0.174264    4.828551    0.988826
  H      1.043729    3.711824   -1.540046
  H      1.818177    2.842793    2.227163
  H      2.114895    1.410103   -0.215886

 Total Charge           Charge          ....    0
 Multiplicity           Mult            ....    1
 Number of Electrons    NEL             ....   66
 Basis Dimension        Dim             ....  321

ORBITAL ENERGIES
----------------

  NO   OCC          E(Eh)            E(eV)
   0   2.0000     -20.568185      -559.6888
   1   2.0000     -20.555702      -559.3491
   2   2.0000     -15.573656      -423.7807
   3   2.0000     -11.341845      -308.6273
   4   2.0000     -11.317851      -307.9744
   5   2.0000     -11.317017      -307.9517
   6   2.0000     -11.291372      -307.2538
   7   2.0000     -11.278963      -306.9162
   8   2.0000     -11.259065      -306.3747
   9   2.0000      -1.420068       -38.6420
  10   2.0000      -1.398494       -38.0550
  11   2.0000      -1.243937       -33.8493
  12   2.0000      -1.083156       -29.4742
  13   2.0000      -1.013210       -27.5709
  14   2.0000      -0.906482       -24.6666
  15   2.0000      -0.904266       -24.6063
  16   2.0000      -0.824027       -22.4229
  17   2.0000      -0.725181       -19.7332
  18   2.0000      -0.712712       -19.3939
  19   2.0000      -0.689305       -18.7569
  20   2.0000      -0.679354       -18.4862
  21   2.0000      -0.656128       -17.8541
  22   2.0000      -0.618156       -16.8209
  23   2.0000      -0.579441       -15.7674
  24   2.0000      -0.567453       -15.4412
  25   2.0000      -0.555820       -15.1246
  26   2.0000      -0.542931       -14.7739
  27   2.0000      -0.522576       -14.2200
  28   2.0000      -0.499857       -13.6018
  29   2.0000      -0.464014       -12.6265
  30   2.0000      -0.436105       -11.8670
  31   2.0000      -0.411662       -11.2019
  32   2.0000      -0.383158       -10.4262
  33   0.0000       0.113670         3.0931
  34   0.0000       0.126565         3.4440
  35   0.0000       0.157256         4.2792
  36   0.0000       0.169905         4.6233
  37   0.0000       0.176461         4.8018

MULLIKEN ATOMIC CHARGES
-----------------------
   0 O :   -0.271378
   1 C :    0.091855
   2 C :   -0.138084
   3 N :   -0.352607
   4 C :    0.024941
   5 C :   -0.055727
   6 O :   -0.305377
   7 C :   -0.028745
   8 C :   -0.020296
   9 H :    0.132654
  10 H :    0.145022
  11 H :    0.222422
  12 H :    0.126193
  13 H :    0.143694
  14 H :    0.147273
  15 H :    0.138162
Sum of atomic charges:   -0.0000000

LOEWDIN ATOMIC CHARGES
----------------------
   0 O :    0.160222
   1 C :   -0.311228
   2 C :   -0.256675
   3 N :    0.010053
   4 C :   -0.249577
   5 C :   -0.193717
   6 O :    0.146607
   7 C :   -0.183685
   8 C :   -0.147378
   9 H :    0.143713
  10 H :    0.144254
  11 H :    0.175245
  12 H :    0.148433
  13 H :    0.125968
  14 H :    0.129582
  15 H :    0.158183

  Mayer bond orders larger than 0.1
B(  0-O ,  1-C ) :   1.9856 B(  1-C ,  2-C ) :   0.9287 B(  1-C ,  8-C ) :   0.9038
B(  2-C ,  3-N ) :   0.9355 B(  2-C ,  9-H ) :   0.8997 B(  2-C , 10-H ) :   0.9144
B(  3-N ,  4-C ) :   1.0119 B(  3-N , 11-H ) :   0.8757 B(  4-C ,  5-C ) :   0.8886
B(  4-C ,  7-C ) :   0.8963 B(  4-C , 12-H ) :   0.9104 B(  5-C ,  6-O ) :   0.9175
B(  5-C ,  8-C ) :   0.8742 B(  5-C , 13-H ) :   0.8880 B(  6-O ,  7-C ) :   0.9188
B(  7-C ,  8-C ) :   0.8884 B(  7-C , 14-H ) :   0.8836 B(  8-C , 15-H ) :   0.9159

MP2 TOTAL ENERGY:     -437.105076653 Eh
FINAL SINGLE POINT ENERGY      -437.105076652560

DIPOLE MOMENT
-------------
                                X             Y             Z
Electronic contribution:      2.27895      -1.67128      -0.09877
Nuclear contribution   :     -3.11464       2.50314      -0.08628
                        -----------------------------------------
Total Dipole Moment    :     -0.83569       0.83185      -0.18505
                        -----------------------------------------
Magnitude (a.u.)       :      1.19357
Magnitude (Debye)      :      3.03380

                             ****ORCA TERMINATED NORMALLY****
TOTAL RUN TIME: 0 days 0 hours 17 minutes 46 seconds 656 msec
