                         Program Version 3.0.3 - RELEASE   -
|  1> ! RI-MP2 RIJK def2-TZVP def2-TZVP/C def2-TZVP/JK TIGHTSCF
|  2> % maxcore 2000
|  3> % mp2 density relaxed end
|  4> *xyz 0 1
|  5>  C        0.1269863081     1.4539402973    -0.2571023381
|  6>  C       -0.0325817230    -0.0643060893    -0.0421824278
|  7>  C       -1.5220919652    -0.3585208471     0.1943398713
|  8>  C        0.5161804917    -0.8781614155    -1.2518934639
|  9>  C        1.9909068808    -1.2026864616    -0.9651537054
| 10>  C        3.0572797697    -0.1007246951    -1.2416112809
| 11>  C        3.2616769567     0.0945011631     0.2886197255
| 12>  C        2.1970631493    -1.0058982559     0.5777847009
| 13>  C        0.8366352463    -0.5723168634     1.1466337456
| 14>  H        1.1625947742     1.7520549329    -0.4334632962
| 15>  H       -0.4625368274     1.7850841404    -1.1196211190
| 16>  H       -0.2302537889     2.0068176593     0.6191617502
| 17>  H       -2.1290394831    -0.0453531394    -0.6630463117
| 18>  H       -1.6956055381    -1.4284803043     0.3539595782
| 19>  H       -1.8968592871     0.1762438879     1.0747639940
| 20>  H       -0.0463273602    -1.8163417002    -1.3316854830
| 21>  H        0.3763434058    -0.3476301561    -2.2010113806
| 22>  H        2.2686623053    -2.1801949749    -1.3660850469
| 23>  H        3.9444163030    -0.4649907183    -1.7659464690
| 24>  H        2.6871080002     0.7727021760    -1.7854058467
| 25>  H        4.2656752446    -0.1581180137     0.6390434310
| 26>  H        3.0159267265     1.0867939652     0.6766639737
| 27>  H        2.6010856788    -1.8628962428     1.1216032540
| 28>  H        0.9293682931     0.1801983874     1.9384435398
| 29>  H        0.3450971689    -1.4428002517     1.5978701451
| 30> *
| 31>
| 32>                          ****END OF INPUT****

CARTESIAN COORDINATES (ANGSTROEM)
---------------------------------
  C      0.126986    1.453940   -0.257102
  C     -0.032582   -0.064306   -0.042182
  C     -1.522092   -0.358521    0.194340
  C      0.516180   -0.878161   -1.251893
  C      1.990907   -1.202686   -0.965154
  C      3.057280   -0.100725   -1.241611
  C      3.261677    0.094501    0.288620
  C      2.197063   -1.005898    0.577785
  C      0.836635   -0.572317    1.146634
  H      1.162595    1.752055   -0.433463
  H     -0.462537    1.785084   -1.119621
  H     -0.230254    2.006818    0.619162
  H     -2.129039   -0.045353   -0.663046
  H     -1.695606   -1.428480    0.353960
  H     -1.896859    0.176244    1.074764
  H     -0.046327   -1.816342   -1.331685
  H      0.376343   -0.347630   -2.201011
  H      2.268662   -2.180195   -1.366085
  H      3.944416   -0.464991   -1.765946
  H      2.687108    0.772702   -1.785406
  H      4.265675   -0.158118    0.639043
  H      3.015927    1.086794    0.676664
  H      2.601086   -1.862896    1.121603
  H      0.929368    0.180198    1.938444
  H      0.345097   -1.442800    1.597870

 Total Charge           Charge          ....    0
 Multiplicity           Mult            ....    1
 Number of Electrons    NEL             ....   70
 Basis Dimension        Dim             ....  375

ORBITAL ENERGIES
----------------

  NO   OCC          E(Eh)            E(eV)
   0   2.0000     -11.227710      -305.5215
   1   2.0000     -11.214879      -305.1724
   2   2.0000     -11.214360      -305.1583
   3   2.0000     -11.211661      -305.0848
   4   2.0000     -11.211124      -305.0702
   5   2.0000     -11.209217      -305.0183
   6   2.0000     -11.209199      -305.0178
   7   2.0000     -11.206842      -304.9537
   8   2.0000     -11.206616      -304.9475
   9   2.0000      -1.147722       -31.2311
  10   2.0000      -1.069904       -29.1136
  11   2.0000      -0.965804       -26.2809
  12   2.0000      -0.955973       -26.0134
  13   2.0000      -0.923762       -25.1368
  14   2.0000      -0.845867       -23.0172
  15   2.0000      -0.840280       -22.8652
  16   2.0000      -0.727582       -19.7985
  17   2.0000      -0.711017       -19.3478
  18   2.0000      -0.663056       -18.0427
  19   2.0000      -0.620671       -16.8893
  20   2.0000      -0.601887       -16.3782
  21   2.0000      -0.582974       -15.8635
  22   2.0000      -0.569270       -15.4906
  23   2.0000      -0.564789       -15.3687
  24   2.0000      -0.560579       -15.2541
  25   2.0000      -0.520406       -14.1610
  26   2.0000      -0.517239       -14.0748
  27   2.0000      -0.503974       -13.7138
  28   2.0000      -0.471245       -12.8232
  29   2.0000      -0.455046       -12.3824
  30   2.0000      -0.441010       -12.0005
  31   2.0000      -0.435402       -11.8479
  32   2.0000      -0.426028       -11.5928
  33   2.0000      -0.409999       -11.1566
  34   2.0000      -0.408340       -11.1115
  35   0.0000       0.133222         3.6251
  36   0.0000       0.155411         4.2289
  37   0.0000       0.165087         4.4922
  38   0.0000       0.169787         4.6201
  39   0.0000       0.183614         4.9964

MULLIKEN ATOMIC CHARGES
-----------------------
   0 C :   -0.451303
   1 C :    0.127043
   2 C :   -0.408887
   3 C :   -0.284973
   4 C :   -0.018690
   5 C :   -0.276698
   6 C :   -0.276728
   7 C :   -0.018668
   8 C :   -0.284976
   9 H :    0.132469
  10 H :    0.129290
  11 H :    0.129290
  12 H :    0.128986
  13 H :    0.124481
  14 H :    0.128986
  15 H :    0.113101
  16 H :    0.117976
  17 H :    0.100539
  18 H :    0.113846
  19 H :    0.114724
  20 H :    0.113843
  21 H :    0.114733
  22 H :    0.100541
  23 H :    0.117975
  24 H :    0.113100
Sum of atomic charges:    0.0000000

LOEWDIN ATOMIC CHARGES
----------------------
   0 C :   -0.272942
   1 C :   -0.303279
   2 C :   -0.278957
   3 C :   -0.196722
   4 C :   -0.193430
   5 C :   -0.225363
   6 C :   -0.225364
   7 C :   -0.193430
   8 C :   -0.196725
   9 H :    0.123368
  10 H :    0.124541
  11 H :    0.124541
  12 H :    0.124412
  13 H :    0.121845
  14 H :    0.124412
  15 H :    0.141933
  16 H :    0.138883
  17 H :    0.138563
  18 H :    0.127046
  19 H :    0.125121
  20 H :    0.127044
  21 H :    0.125122
  22 H :    0.138565
  23 H :    0.138883
  24 H :    0.141933

  Mayer bond orders larger than 0.1
B(  0-C ,  1-C ) :   0.9164 B(  0-C ,  9-H ) :   0.9351 B(  0-C , 10-H ) :   0.9366
B(  0-C , 11-H ) :   0.9366 B(  1-C ,  2-C ) :   0.9016 B(  1-C ,  3-C ) :   0.9011
B(  1-C ,  8-C ) :   0.9011 B(  2-C , 12-H ) :   0.9388 B(  2-C , 13-H ) :   0.9328
B(  2-C , 14-H ) :   0.9388 B(  3-C ,  4-C ) :   0.9282 B(  3-C , 15-H ) :   0.9279
B(  3-C , 16-H ) :   0.9244 B(  4-C ,  5-C ) :   0.9170 B(  4-C ,  7-C ) :   0.9197
B(  4-C , 17-H ) :   0.9190 B(  5-C ,  6-C ) :   0.9578 B(  5-C , 18-H ) :   0.9201
B(  5-C , 19-H ) :   0.9239 B(  6-C ,  7-C ) :   0.9170 B(  6-C , 20-H ) :   0.9201
B(  6-C , 21-H ) :   0.9239 B(  7-C ,  8-C ) :   0.9282 B(  7-C , 22-H ) :   0.9190
B(  8-C , 23-H ) :   0.9244 B(  8-C , 24-H ) :   0.9279

MP2 TOTAL ENERGY:     -351.723021430 Eh
FINAL SINGLE POINT ENERGY      -351.723021429952

DIPOLE MOMENT
-------------
                                X             Y             Z
Electronic contribution:      2.79111      -2.26944      -0.08349
Nuclear contribution   :     -2.78402       2.20100       0.09127
                        -----------------------------------------
Total Dipole Moment    :      0.00708      -0.06844       0.00779
                        -----------------------------------------
Magnitude (a.u.)       :      0.06925
Magnitude (Debye)      :      0.17601

                             ****ORCA TERMINATED NORMALLY****
TOTAL RUN TIME: 0 days 0 hours 25 minutes 37 seconds 32 msec
