                         Program Version 3.0.3 - RELEASE   -
|  1> ! RI-MP2 RIJK def2-TZVP def2-TZVP/C def2-TZVP/JK TIGHTSCF
|  2> % maxcore 2000
|  3> % mp2 density relaxed end
|  4> *xyz 0 1
|  5>  C       -0.0259441350     1.4144559511    -0.3120019185
|  6>  C        0.1865306578    -0.0584436322    -0.0379961672
|  7>  C        1.5698591370    -0.6702876412     0.0136788137
|  8>  C        0.7323605829    -0.5951901764     1.2672959358
|  9>  C        1.1428244283     0.3439200851     2.3847206943
| 10>  C        0.1003747474    -1.8994232491     1.7904987298
| 11>  O       -0.4184153850    -2.7328169985     0.7561767622
| 12>  C        1.0360110817    -2.6529479719     2.6336429009
| 13>  C        1.8220670494    -3.2949958946     3.2787307933
| 14>  H        0.7806393899     2.0345327311     0.0891751711
| 15>  H       -0.0687555106     1.5979059896    -1.3913768048
| 16>  H       -0.9675341775     1.7721684238     0.1200709099
| 17>  H       -0.5587407638    -0.7049936704    -0.4909749486
| 18>  H        1.7195176425    -1.6326785031    -0.4652218272
| 19>  H        2.4274506440    -0.0076749360    -0.0522837086
| 20>  H        1.6022813665     1.2557336937     1.9975672647
| 21>  H        0.2781375238     0.6400546742     2.9914782625
| 22>  H        1.8673481324    -0.1364516271     3.0498051279
| 23>  H       -0.7733639908    -1.6227036037     2.3966367808
| 24>  H        0.2960637782    -3.3049738708     0.4576503416
| 25>  H        2.5053853911    -3.8598976934     3.8637093864
| 26> *
| 27>
| 28>                          ****END OF INPUT****

CARTESIAN COORDINATES (ANGSTROEM)
---------------------------------
  C     -0.025944    1.414456   -0.312002
  C      0.186531   -0.058444   -0.037996
  C      1.569859   -0.670288    0.013679
  C      0.732361   -0.595190    1.267296
  C      1.142824    0.343920    2.384721
  C      0.100375   -1.899423    1.790499
  O     -0.418415   -2.732817    0.756177
  C      1.036011   -2.652948    2.633643
  C      1.822067   -3.294996    3.278731
  H      0.780639    2.034533    0.089175
  H     -0.068756    1.597906   -1.391377
  H     -0.967534    1.772168    0.120071
  H     -0.558741   -0.704994   -0.490975
  H      1.719518   -1.632679   -0.465222
  H      2.427451   -0.007675   -0.052284
  H      1.602281    1.255734    1.997567
  H      0.278138    0.640055    2.991478
  H      1.867348   -0.136452    3.049805
  H     -0.773364   -1.622704    2.396637
  H      0.296064   -3.304974    0.457650
  H      2.505385   -3.859898    3.863709

 Total Charge           Charge          ....    0
 Multiplicity           Mult            ....    1
 Number of Electrons    NEL             ....   68
 Basis Dimension        Dim             ....  351

ORBITAL ENERGIES
----------------

  NO   OCC          E(Eh)            E(eV)
   0   2.0000     -20.566028      -559.6301
   1   2.0000     -11.311837      -307.8107
   2   2.0000     -11.241001      -305.8832
   3   2.0000     -11.238814      -305.8237
   4   2.0000     -11.232410      -305.6494
   5   2.0000     -11.225790      -305.4693
   6   2.0000     -11.220557      -305.3269
   7   2.0000     -11.218272      -305.2647
   8   2.0000     -11.215980      -305.2023
   9   2.0000      -1.374501       -37.4021
  10   2.0000      -1.157986       -31.5104
  11   2.0000      -1.054136       -28.6845
  12   2.0000      -0.991082       -26.9687
  13   2.0000      -0.948587       -25.8124
  14   2.0000      -0.934411       -25.4266
  15   2.0000      -0.802918       -21.8485
  16   2.0000      -0.745502       -20.2861
  17   2.0000      -0.743179       -20.2229
  18   2.0000      -0.695260       -18.9190
  19   2.0000      -0.678471       -18.4621
  20   2.0000      -0.641146       -17.4465
  21   2.0000      -0.593665       -16.1545
  22   2.0000      -0.581749       -15.8302
  23   2.0000      -0.568752       -15.4765
  24   2.0000      -0.552154       -15.0249
  25   2.0000      -0.541945       -14.7471
  26   2.0000      -0.537038       -14.6136
  27   2.0000      -0.521305       -14.1854
  28   2.0000      -0.488602       -13.2955
  29   2.0000      -0.464908       -12.6508
  30   2.0000      -0.409442       -11.1415
  31   2.0000      -0.402009       -10.9392
  32   2.0000      -0.393730       -10.7139
  33   2.0000      -0.385591       -10.4925
  34   0.0000       0.130825         3.5599
  35   0.0000       0.146724         3.9926
  36   0.0000       0.161622         4.3980
  37   0.0000       0.165596         4.5061
  38   0.0000       0.172498         4.6939

MULLIKEN ATOMIC CHARGES
-----------------------
   0 C :   -0.400203
   1 C :   -0.049636
   2 C :   -0.370503
   3 C :    0.117878
   4 C :   -0.435197
   5 C :    0.044697
   6 O :   -0.467117
   7 C :   -0.080775
   8 C :   -0.174680
   9 H :    0.117270
  10 H :    0.136650
  11 H :    0.131984
  12 H :    0.137512
  13 H :    0.117182
  14 H :    0.126558
  15 H :    0.127018
  16 H :    0.130808
  17 H :    0.156506
  18 H :    0.117666
  19 H :    0.323911
  20 H :    0.192471
Sum of atomic charges:   -0.0000000

LOEWDIN ATOMIC CHARGES
----------------------
   0 C :   -0.294184
   1 C :   -0.212672
   2 C :   -0.191975
   3 C :   -0.237449
   4 C :   -0.258792
   5 C :   -0.289936
   6 O :    0.004985
   7 C :   -0.089372
   8 C :   -0.089362
   9 H :    0.122051
  10 H :    0.126798
  11 H :    0.125606
  12 H :    0.155809
  13 H :    0.129388
  14 H :    0.135627
  15 H :    0.127529
  16 H :    0.129076
  17 H :    0.133730
  18 H :    0.165714
  19 H :    0.179188
  20 H :    0.128241

  Mayer bond orders larger than 0.1
B(  0-C ,  1-C ) :   0.9021 B(  0-C ,  9-H ) :   0.9367 B(  0-C , 10-H ) :   0.9401
B(  0-C , 11-H ) :   0.9411 B(  1-C ,  2-C ) :   0.8895 B(  1-C ,  3-C ) :   0.8537
B(  1-C , 12-H ) :   0.9166 B(  2-C ,  3-C ) :   0.8544 B(  2-C , 13-H ) :   0.9289
B(  2-C , 14-H ) :   0.9234 B(  3-C ,  4-C ) :   0.9162 B(  3-C ,  5-C ) :   0.8697
B(  4-C , 15-H ) :   0.9318 B(  4-C , 16-H ) :   0.9340 B(  4-C , 17-H ) :   0.9367
B(  5-C ,  6-O ) :   0.9276 B(  5-C ,  7-C ) :   1.1411 B(  5-C , 18-H ) :   0.9156
B(  6-O , 19-H ) :   0.8388 B(  7-C ,  8-C ) :   2.5815 B(  8-C , 20-H ) :   0.9018

MP2 TOTAL ENERGY:     -386.361590238 Eh
FINAL SINGLE POINT ENERGY      -386.361590237535

DIPOLE MOMENT
-------------
                                X             Y             Z
Electronic contribution:     -0.65681      -8.53882       2.56802
Nuclear contribution   :      1.15642       8.65055      -2.46128
                        -----------------------------------------
Total Dipole Moment    :      0.49961       0.11172       0.10675
                        -----------------------------------------
Magnitude (a.u.)       :      0.52296
Magnitude (Debye)      :      1.32926

                             ****ORCA TERMINATED NORMALLY****
TOTAL RUN TIME: 0 days 0 hours 23 minutes 21 seconds 765 msec
