                         Program Version 3.0.3 - RELEASE   -
|  1> ! RI-MP2 RIJK def2-TZVP def2-TZVP/C def2-TZVP/JK TIGHTSCF
|  2> % maxcore 2000
|  3> % mp2 density relaxed end
|  4> *xyz 0 1
|  5>  O        0.3695853617     1.2545486373     0.5124874810
|  6>  C        0.0748794506    -0.0236433198     0.0310556557
|  7>  C       -1.4551943898    -0.4617825651    -0.0722443194
|  8>  N       -1.1981306446    -0.5697571762    -1.5155967525
|  9>  N       -1.6122816842    -1.1862574411    -2.6405338762
| 10>  C       -0.4795390958    -1.2116946430    -3.3585466040
| 11>  O       -0.4690199762    -1.6856880699    -4.6200196015
| 12>  C        0.6609539430    -0.6928652740    -2.6832820303
| 13>  C        0.1192357956    -0.2997414957    -1.4731600800
| 14>  H        0.0066812254     1.9000889322    -0.1044918131
| 15>  H        0.6637739709    -0.7208740372     0.6314868084
| 16>  H       -1.6908410263    -1.4146774852     0.4105938150
| 17>  H       -2.1908115287     0.2986927435     0.2042452216
| 18>  H       -1.3682606085    -1.9745622966    -4.8207777914
| 19>  H        1.6676575169    -0.6309870292    -3.0578525834
| 20> *
| 21>
| 22>                          ****END OF INPUT****

CARTESIAN COORDINATES (ANGSTROEM)
---------------------------------
  O      0.369585    1.254549    0.512487
  C      0.074879   -0.023643    0.031056
  C     -1.455194   -0.461783   -0.072244
  N     -1.198131   -0.569757   -1.515597
  N     -1.612282   -1.186257   -2.640534
  C     -0.479539   -1.211695   -3.358547
  O     -0.469020   -1.685688   -4.620020
  C      0.660954   -0.692865   -2.683282
  C      0.119236   -0.299741   -1.473160
  H      0.006681    1.900089   -0.104492
  H      0.663774   -0.720874    0.631487
  H     -1.690841   -1.414677    0.410594
  H     -2.190812    0.298693    0.204245
  H     -1.368261   -1.974562   -4.820778
  H      1.667658   -0.630987   -3.057853

 Total Charge           Charge          ....    0
 Multiplicity           Mult            ....    1
 Number of Electrons    NEL             ....   66
 Basis Dimension        Dim             ....  315

ORBITAL ENERGIES
----------------

  NO   OCC          E(Eh)            E(eV)
   0   2.0000     -20.592188      -560.3419
   1   2.0000     -20.585084      -560.1486
   2   2.0000     -15.632622      -425.3853
   3   2.0000     -15.580137      -423.9571
   4   2.0000     -11.330836      -308.3277
   5   2.0000     -11.326352      -308.2057
   6   2.0000     -11.298456      -307.4466
   7   2.0000     -11.282229      -307.0051
   8   2.0000     -11.227951      -305.5281
   9   2.0000      -1.427433       -38.8424
  10   2.0000      -1.401282       -38.1308
  11   2.0000      -1.373573       -37.3768
  12   2.0000      -1.171614       -31.8812
  13   2.0000      -1.055290       -28.7159
  14   2.0000      -0.952873       -25.9290
  15   2.0000      -0.905812       -24.6484
  16   2.0000      -0.815701       -22.1963
  17   2.0000      -0.792434       -21.5632
  18   2.0000      -0.721849       -19.6425
  19   2.0000      -0.697750       -18.9867
  20   2.0000      -0.675111       -18.3707
  21   2.0000      -0.661019       -17.9872
  22   2.0000      -0.620903       -16.8956
  23   2.0000      -0.605851       -16.4860
  24   2.0000      -0.589712       -16.0469
  25   2.0000      -0.586375       -15.9561
  26   2.0000      -0.568546       -15.4709
  27   2.0000      -0.532372       -14.4866
  28   2.0000      -0.515415       -14.0252
  29   2.0000      -0.463184       -12.6039
  30   2.0000      -0.455871       -12.4049
  31   2.0000      -0.356218        -9.6932
  32   2.0000      -0.334757        -9.1092
  33   0.0000       0.121963         3.3188
  34   0.0000       0.146765         3.9937
  35   0.0000       0.156711         4.2643
  36   0.0000       0.161093         4.3836
  37   0.0000       0.178608         4.8602

MULLIKEN ATOMIC CHARGES
-----------------------
   0 O :   -0.443979
   1 C :    0.109039
   2 C :   -0.136735
   3 N :    0.096876
   4 N :   -0.299011
   5 C :    0.249611
   6 O :   -0.427782
   7 C :   -0.322672
   8 C :   -0.036417
   9 H :    0.325148
  10 H :    0.129491
  11 H :    0.132001
  12 H :    0.133692
  13 H :    0.340086
  14 H :    0.150652
Sum of atomic charges:   -0.0000000

LOEWDIN ATOMIC CHARGES
----------------------
   0 O :    0.000036
   1 C :   -0.289147
   2 C :   -0.175907
   3 N :    0.215311
   4 N :    0.019456
   5 C :   -0.407072
   6 O :    0.072894
   7 C :   -0.163525
   8 C :   -0.205866
   9 H :    0.182929
  10 H :    0.146860
  11 H :    0.131740
  12 H :    0.128011
  13 H :    0.199442
  14 H :    0.144839

  Mayer bond orders larger than 0.1
B(  0-O ,  1-C ) :   0.9813 B(  0-O ,  9-H ) :   0.8355 B(  1-C ,  2-C ) :   0.9110
B(  1-C ,  8-C ) :   0.9503 B(  1-C , 10-H ) :   0.9044 B(  2-C ,  3-N ) :   0.8770
B(  2-C , 11-H ) :   0.9151 B(  2-C , 12-H ) :   0.9093 B(  3-N ,  4-N ) :   1.0441
B(  3-N ,  8-C ) :   1.1783 B(  4-N ,  5-C ) :   1.4822 B(  4-N ,  8-C ) :   0.1068
B(  5-C ,  6-O ) :   1.0926 B(  5-C ,  7-C ) :   1.3063 B(  6-O , 13-H ) :   0.8186
B(  7-C ,  8-C ) :   1.3826 B(  7-C , 14-H ) :   0.9243

MP2 TOTAL ENERGY:     -453.189638580 Eh
FINAL SINGLE POINT ENERGY      -453.189638580077

DIPOLE MOMENT
-------------
                                X             Y             Z
Electronic contribution:     -0.13479      -0.50173      -3.08294
Nuclear contribution   :     -0.19255       0.58225       3.55293
                        -----------------------------------------
Total Dipole Moment    :     -0.32735       0.08052       0.46999
                        -----------------------------------------
Magnitude (a.u.)       :      0.57838
Magnitude (Debye)      :      1.47013

                             ****ORCA TERMINATED NORMALLY****
TOTAL RUN TIME: 0 days 0 hours 15 minutes 50 seconds 894 msec
