                         Program Version 3.0.3 - RELEASE   -
|  1> ! RI-MP2 RIJK def2-TZVP def2-TZVP/C def2-TZVP/JK TIGHTSCF
|  2> % maxcore 2000
|  3> % mp2 density relaxed end
|  4> *xyz 0 1
|  5>  C        0.8798151279     1.1333831547     0.6367735769
|  6>  O        0.0102981302     0.5796590132    -0.3228225575
|  7>  C        0.5986954117    -0.3595996751    -1.2112415980
|  8>  C        0.9550830576    -1.6665068614    -0.5244855425
|  9>  C        1.9474308842    -2.5996744236    -1.1732053873
| 10>  C        2.3117852621    -1.8851472283     0.1011655358
| 11>  C       -0.3846356145    -0.5849805463    -2.3473443138
| 12>  C       -1.8718798818    -0.5788364473    -2.0996966634
| 13>  C       -1.2282145579     0.5385365058    -2.8860879962
| 14>  H        1.2029536666     0.3973909779     1.3843863713
| 15>  H        1.7774617212     1.5673136496     0.1682380962
| 16>  H        0.3294385248     1.9309294269     1.1430981147
| 17>  H        1.5282540387     0.0741467641    -1.6270993503
| 18>  H        0.1089173151    -2.1335420893    -0.0279963037
| 19>  H        1.7519871635    -3.6652921171    -1.1360256037
| 20>  H        2.4275806406    -2.2702689621    -2.0896372866
| 21>  H        3.0386764053    -1.0819050596     0.0348008209
| 22>  H        2.3684535757    -2.4590300938     1.0196623201
| 23>  H       -0.0209779098    -1.3083642576    -3.0707947018
| 24>  H       -2.4831245924    -1.3020726616    -2.6282490329
| 25>  H       -2.2078430827    -0.3421502055    -1.0974703294
| 26>  H       -1.1443477691     1.4991121184    -2.3922507471
| 27>  H       -1.3966538769     0.5853176879    -3.9565173816
| 28> *
| 29>
| 30>                          ****END OF INPUT****

CARTESIAN COORDINATES (ANGSTROEM)
---------------------------------
  C      0.879815    1.133383    0.636774
  O      0.010298    0.579659   -0.322823
  C      0.598695   -0.359600   -1.211242
  C      0.955083   -1.666507   -0.524486
  C      1.947431   -2.599674   -1.173205
  C      2.311785   -1.885147    0.101166
  C     -0.384636   -0.584981   -2.347344
  C     -1.871880   -0.578836   -2.099697
  C     -1.228215    0.538537   -2.886088
  H      1.202954    0.397391    1.384386
  H      1.777462    1.567314    0.168238
  H      0.329439    1.930929    1.143098
  H      1.528254    0.074147   -1.627099
  H      0.108917   -2.133542   -0.027996
  H      1.751987   -3.665292   -1.136026
  H      2.427581   -2.270269   -2.089637
  H      3.038676   -1.081905    0.034801
  H      2.368454   -2.459030    1.019662
  H     -0.020978   -1.308364   -3.070795
  H     -2.483125   -1.302073   -2.628249
  H     -2.207843   -0.342150   -1.097470
  H     -1.144348    1.499112   -2.392251
  H     -1.396654    0.585318   -3.956517

 Total Charge           Charge          ....    0
 Multiplicity           Mult            ....    1
 Number of Electrons    NEL             ....   70
 Basis Dimension        Dim             ....  363

ORBITAL ENERGIES
----------------

  NO   OCC          E(Eh)            E(eV)
   0   2.0000     -20.549219      -559.1727
   1   2.0000     -11.280636      -306.9617
   2   2.0000     -11.266189      -306.5686
   3   2.0000     -11.227735      -305.5222
   4   2.0000     -11.226542      -305.4897
   5   2.0000     -11.226077      -305.4771
   6   2.0000     -11.221120      -305.3422
   7   2.0000     -11.212017      -305.0945
   8   2.0000     -11.211231      -305.0731
   9   2.0000      -1.371627       -37.3239
  10   2.0000      -1.147279       -31.2191
  11   2.0000      -1.125905       -30.6374
  12   2.0000      -0.980105       -26.6700
  13   2.0000      -0.895821       -24.3765
  14   2.0000      -0.826165       -22.4811
  15   2.0000      -0.815261       -22.1844
  16   2.0000      -0.800595       -21.7853
  17   2.0000      -0.756158       -20.5761
  18   2.0000      -0.689641       -18.7661
  19   2.0000      -0.660023       -17.9601
  20   2.0000      -0.654583       -17.8121
  21   2.0000      -0.640207       -17.4209
  22   2.0000      -0.608554       -16.5596
  23   2.0000      -0.592475       -16.1221
  24   2.0000      -0.573268       -15.5994
  25   2.0000      -0.522423       -14.2159
  26   2.0000      -0.516218       -14.0470
  27   2.0000      -0.501582       -13.6487
  28   2.0000      -0.495658       -13.4875
  29   2.0000      -0.483876       -13.1669
  30   2.0000      -0.439034       -11.9467
  31   2.0000      -0.427010       -11.6195
  32   2.0000      -0.411222       -11.1899
  33   2.0000      -0.399486       -10.8706
  34   2.0000      -0.387655       -10.5486
  35   0.0000       0.143024         3.8919
  36   0.0000       0.151386         4.1194
  37   0.0000       0.156534         4.2595
  38   0.0000       0.171193         4.6584
  39   0.0000       0.190304         5.1784

MULLIKEN ATOMIC CHARGES
-----------------------
   0 C :   -0.229182
   1 O :   -0.305182
   2 C :    0.044637
   3 C :   -0.118766
   4 C :   -0.279027
   5 C :   -0.252208
   6 C :   -0.069962
   7 C :   -0.277709
   8 C :   -0.257468
   9 H :    0.127077
  10 H :    0.106868
  11 H :    0.139817
  12 H :    0.082988
  13 H :    0.121498
  14 H :    0.132609
  15 H :    0.129817
  16 H :    0.129455
  17 H :    0.132215
  18 H :    0.119099
  19 H :    0.124941
  20 H :    0.137871
  21 H :    0.136770
  22 H :    0.123841
Sum of atomic charges:    0.0000000

LOEWDIN ATOMIC CHARGES
----------------------
   0 C :   -0.356455
   1 O :    0.168257
   2 C :   -0.299162
   3 C :   -0.207834
   4 C :   -0.227029
   5 C :   -0.234387
   6 C :   -0.209309
   7 C :   -0.228214
   8 C :   -0.229386
   9 H :    0.105574
  10 H :    0.101656
  11 H :    0.112656
  12 H :    0.144335
  13 H :    0.152564
  14 H :    0.131918
  15 H :    0.133485
  16 H :    0.131947
  17 H :    0.131276
  18 H :    0.151577
  19 H :    0.127377
  20 H :    0.136066
  21 H :    0.135533
  22 H :    0.127556

  Mayer bond orders larger than 0.1
B(  0-C ,  1-O ) :   0.9170 B(  0-C ,  9-H ) :   0.9346 B(  0-C , 10-H ) :   0.9344
B(  0-C , 11-H ) :   0.9398 B(  1-O ,  2-C ) :   0.9489 B(  2-C ,  3-C ) :   0.8960
B(  2-C ,  6-C ) :   0.9207 B(  2-C , 12-H ) :   0.9366 B(  3-C ,  4-C ) :   0.8765
B(  3-C ,  5-C ) :   0.8758 B(  3-C , 13-H ) :   0.9311 B(  4-C ,  5-C ) :   0.9086
B(  4-C , 14-H ) :   0.9293 B(  4-C , 15-H ) :   0.9253 B(  5-C , 16-H ) :   0.9267
B(  5-C , 17-H ) :   0.9314 B(  6-C ,  7-C ) :   0.8978 B(  6-C ,  8-C ) :   0.8846
B(  6-C , 18-H ) :   0.9276 B(  7-C ,  8-C ) :   0.9157 B(  7-C , 19-H ) :   0.9299
B(  7-C , 20-H ) :   0.9203 B(  8-C , 21-H ) :   0.9211 B(  8-C , 22-H ) :   0.9304

MP2 TOTAL ENERGY:     -387.569625345 Eh
FINAL SINGLE POINT ENERGY      -387.569625345453

DIPOLE MOMENT
-------------
                                X             Y             Z
Electronic contribution:     -1.57600       0.36941      -0.41708
Nuclear contribution   :      2.03410      -0.53407       0.53371
                        -----------------------------------------
Total Dipole Moment    :      0.45810      -0.16466       0.11662
                        -----------------------------------------
Magnitude (a.u.)       :      0.50057
Magnitude (Debye)      :      1.27234

                             ****ORCA TERMINATED NORMALLY****
TOTAL RUN TIME: 0 days 0 hours 18 minutes 53 seconds 62 msec
