                         Program Version 3.0.3 - RELEASE   -
|  1> ! RI-MP2 RIJK def2-TZVP def2-TZVP/C def2-TZVP/JK TIGHTSCF
|  2> % maxcore 2000
|  3> % mp2 density relaxed end
|  4> *xyz 0 1
|  5>  N        0.1167500638     1.3582870188     0.1899337675
|  6>  C       -0.0640476218    -0.0063668927     0.0587844503
|  7>  C       -1.2257552164    -0.7004191759     0.0057392299
|  8>  N       -1.2523689853    -2.0738336574    -0.0078333020
|  9>  C       -0.1252358506    -2.7131590652     0.0231598189
| 10>  N       -0.0578078346    -4.0816028021     0.0840054889
| 11>  C        1.1871953979    -2.0399268863     0.0211915348
| 12>  O        2.2600355608    -2.5866703588    -0.0273782940
| 13>  O        1.1247698958    -0.6662710804     0.0567401499
| 14>  H        0.9585275057     1.6999632034    -0.2552544691
| 15>  H       -0.6954870865     1.9049654157    -0.0570215873
| 16>  H       -2.1784049983    -0.1859075988    -0.0171273682
| 17>  H       -0.8926173645    -4.5785330603    -0.1829113683
| 18>  H        0.8254216340    -4.4846767400    -0.1876799013
| 19> *
| 20>
| 21>                          ****END OF INPUT****

CARTESIAN COORDINATES (ANGSTROEM)
---------------------------------
  N      0.116750    1.358287    0.189934
  C     -0.064048   -0.006367    0.058784
  C     -1.225755   -0.700419    0.005739
  N     -1.252369   -2.073834   -0.007833
  C     -0.125236   -2.713159    0.023160
  N     -0.057808   -4.081603    0.084005
  C      1.187195   -2.039927    0.021192
  O      2.260036   -2.586670   -0.027378
  O      1.124770   -0.666271    0.056740
  H      0.958528    1.699963   -0.255254
  H     -0.695487    1.904965   -0.057022
  H     -2.178405   -0.185908   -0.017127
  H     -0.892617   -4.578533   -0.182911
  H      0.825422   -4.484677   -0.187680

 Total Charge           Charge          ....    0
 Multiplicity           Mult            ....    1
 Number of Electrons    NEL             ....   66
 Basis Dimension        Dim             ....  309

ORBITAL ENERGIES
----------------

  NO   OCC          E(Eh)            E(eV)
   0   2.0000     -20.648217      -561.8665
   1   2.0000     -20.563353      -559.5573
   2   2.0000     -15.591411      -424.2639
   3   2.0000     -15.579111      -423.9292
   4   2.0000     -15.577361      -423.8816
   5   2.0000     -11.408041      -310.4286
   6   2.0000     -11.356932      -309.0378
   7   2.0000     -11.333032      -308.3875
   8   2.0000     -11.253687      -306.2284
   9   2.0000      -1.502229       -40.8777
  10   2.0000      -1.399718       -38.0883
  11   2.0000      -1.289923       -35.1006
  12   2.0000      -1.236849       -33.6564
  13   2.0000      -1.193258       -32.4702
  14   2.0000      -1.014610       -27.6089
  15   2.0000      -0.930756       -25.3272
  16   2.0000      -0.896862       -24.4049
  17   2.0000      -0.784998       -21.3609
  18   2.0000      -0.741527       -20.1780
  19   2.0000      -0.715801       -19.4779
  20   2.0000      -0.694577       -18.9004
  21   2.0000      -0.684657       -18.6305
  22   2.0000      -0.666840       -18.1456
  23   2.0000      -0.650181       -17.6923
  24   2.0000      -0.616585       -16.7781
  25   2.0000      -0.581889       -15.8340
  26   2.0000      -0.565758       -15.3951
  27   2.0000      -0.541407       -14.7324
  28   2.0000      -0.508198       -13.8288
  29   2.0000      -0.480047       -13.0627
  30   2.0000      -0.438327       -11.9275
  31   2.0000      -0.429400       -11.6846
  32   2.0000      -0.289479        -7.8771
  33   0.0000       0.078382         2.1329
  34   0.0000       0.123443         3.3591
  35   0.0000       0.146856         3.9962
  36   0.0000       0.168141         4.5754
  37   0.0000       0.170592         4.6421

MULLIKEN ATOMIC CHARGES
-----------------------
   0 N :   -0.503677
   1 C :    0.315346
   2 C :   -0.170489
   3 N :   -0.256594
   4 C :    0.150923
   5 N :   -0.482615
   6 C :    0.258728
   7 O :   -0.313008
   8 O :   -0.188957
   9 H :    0.266566
  10 H :    0.257595
  11 H :    0.131926
  12 H :    0.258736
  13 H :    0.275519
Sum of atomic charges:    0.0000000

LOEWDIN ATOMIC CHARGES
----------------------
   0 N :   -0.058379
   1 C :   -0.357736
   2 C :   -0.271039
   3 N :    0.139526
   4 C :   -0.341106
   5 N :   -0.024345
   6 C :   -0.426773
   7 O :    0.128550
   8 O :    0.361071
   9 H :    0.177075
  10 H :    0.177247
  11 H :    0.142380
  12 H :    0.173717
  13 H :    0.179812

  Mayer bond orders larger than 0.1
B(  0-N ,  1-C ) :   1.0791 B(  0-N ,  9-H ) :   0.8601 B(  0-N , 10-H ) :   0.8748
B(  1-C ,  2-C ) :   1.5234 B(  1-C ,  8-O ) :   1.0139 B(  2-C ,  3-N ) :   1.1762
B(  2-C , 11-H ) :   0.9414 B(  3-N ,  4-C ) :   1.5815 B(  4-C ,  5-N ) :   1.1318
B(  4-C ,  6-C ) :   1.0208 B(  5-N , 12-H ) :   0.8620 B(  5-N , 13-H ) :   0.8526
B(  6-C ,  7-O ) :   1.9496 B(  6-C ,  8-O ) :   1.0546

MP2 TOTAL ENERGY:     -469.304519185 Eh
FINAL SINGLE POINT ENERGY      -469.304519185242

DIPOLE MOMENT
-------------
                                X             Y             Z
Electronic contribution:      2.35916      -1.00319       0.18081
Nuclear contribution   :     -3.03527       1.73014      -0.83368
                        -----------------------------------------
Total Dipole Moment    :     -0.67611       0.72695      -0.65287
                        -----------------------------------------
Magnitude (a.u.)       :      1.18820
Magnitude (Debye)      :      3.02017

                             ****ORCA TERMINATED NORMALLY****
TOTAL RUN TIME: 0 days 0 hours 14 minutes 20 seconds 994 msec
