                         Program Version 3.0.3 - RELEASE   -
|  1> ! RI-MP2 RIJK def2-TZVP def2-TZVP/C def2-TZVP/JK TIGHTSCF
|  2> % maxcore 2000
|  3> % mp2 density relaxed end
|  4> *xyz 0 1
|  5>  C       -0.5868806370     1.3640099185    -0.0731849516
|  6>  C       -0.1288619525    -0.0720081014     0.0152797526
|  7>  C        1.2349772022    -0.4617857420    -0.4403604333
|  8>  N        0.8850112397    -0.5166328048     0.9816332847
|  9>  C        1.4755703913     0.3808245356     1.8825425318
| 10>  C        0.9359425287     1.1196551047     2.9145607144
| 11>  C        2.0215171838     1.7449212677     3.5972192815
| 12>  C        3.1834260295     1.3677269816     2.9740568574
| 13>  N        2.8394570040     0.5418580711     1.9223325503
| 14>  H        0.2473521889     2.0617782290     0.0286355816
| 15>  H       -1.0693509758     1.5370945583    -1.0409992181
| 16>  H       -1.3136979861     1.5973610832     0.7114009161
| 17>  H       -0.9227201205    -0.8070450077    -0.1056335935
| 18>  H        1.4173172514    -1.4216491792    -0.9159377978
| 19>  H        1.8859538509     0.3465159003    -0.7710932383
| 20>  H       -0.1132202116     1.1913006669     3.1531103270
| 21>  H        1.9475179545     2.4022275388     4.4501065947
| 22>  H        4.2142983175     1.6113017572     3.1713619861
| 23>  H        3.4832572212     0.0589733322     1.3207039246
| 24> *
| 25>
| 26>                          ****END OF INPUT****

CARTESIAN COORDINATES (ANGSTROEM)
---------------------------------
  C     -0.586881    1.364010   -0.073185
  C     -0.128862   -0.072008    0.015280
  C      1.234977   -0.461786   -0.440360
  N      0.885011   -0.516633    0.981633
  C      1.475570    0.380825    1.882543
  C      0.935943    1.119655    2.914561
  C      2.021517    1.744921    3.597219
  C      3.183426    1.367727    2.974057
  N      2.839457    0.541858    1.922333
  H      0.247352    2.061778    0.028636
  H     -1.069351    1.537095   -1.040999
  H     -1.313698    1.597361    0.711401
  H     -0.922720   -0.807045   -0.105634
  H      1.417317   -1.421649   -0.915938
  H      1.885954    0.346516   -0.771093
  H     -0.113220    1.191301    3.153110
  H      1.947518    2.402228    4.450107
  H      4.214298    1.611302    3.171362
  H      3.483257    0.058973    1.320704

 Total Charge           Charge          ....    0
 Multiplicity           Mult            ....    1
 Number of Electrons    NEL             ....   66
 Basis Dimension        Dim             ....  339

ORBITAL ENERGIES
----------------

  NO   OCC          E(Eh)            E(eV)
   0   2.0000     -15.593739      -424.3272
   1   2.0000     -15.572871      -423.7594
   2   2.0000     -11.283167      -307.0306
   3   2.0000     -11.273073      -306.7559
   4   2.0000     -11.265220      -306.5422
   5   2.0000     -11.238415      -305.8128
   6   2.0000     -11.224541      -305.4353
   7   2.0000     -11.202955      -304.8479
   8   2.0000     -11.192511      -304.5637
   9   2.0000      -1.311225       -35.6802
  10   2.0000      -1.258276       -34.2394
  11   2.0000      -1.035504       -28.1775
  12   2.0000      -1.020360       -27.7654
  13   2.0000      -0.974341       -26.5132
  14   2.0000      -0.882634       -24.0177
  15   2.0000      -0.819171       -22.2908
  16   2.0000      -0.780791       -21.2464
  17   2.0000      -0.758673       -20.6445
  18   2.0000      -0.701607       -19.0917
  19   2.0000      -0.679883       -18.5006
  20   2.0000      -0.619798       -16.8656
  21   2.0000      -0.592212       -16.1149
  22   2.0000      -0.584464       -15.9041
  23   2.0000      -0.567313       -15.4374
  24   2.0000      -0.559314       -15.2197
  25   2.0000      -0.542049       -14.7499
  26   2.0000      -0.528876       -14.3914
  27   2.0000      -0.520216       -14.1558
  28   2.0000      -0.472133       -12.8474
  29   2.0000      -0.466797       -12.7022
  30   2.0000      -0.416544       -11.3347
  31   2.0000      -0.342550        -9.3213
  32   2.0000      -0.266356        -7.2479
  33   0.0000       0.133571         3.6347
  34   0.0000       0.149330         4.0635
  35   0.0000       0.174533         4.7493
  36   0.0000       0.176542         4.8040
  37   0.0000       0.185994         5.0611

MULLIKEN ATOMIC CHARGES
-----------------------
   0 C :   -0.398878
   1 C :   -0.002075
   2 C :   -0.218353
   3 N :   -0.216826
   4 C :    0.215163
   5 C :   -0.283282
   6 C :   -0.149889
   7 C :   -0.118357
   8 N :   -0.265304
   9 H :    0.150105
  10 H :    0.138955
  11 H :    0.132122
  12 H :    0.121365
  13 H :    0.134806
  14 H :    0.129842
  15 H :    0.121084
  16 H :    0.124758
  17 H :    0.140362
  18 H :    0.244403
Sum of atomic charges:    0.0000000

LOEWDIN ATOMIC CHARGES
----------------------
   0 C :   -0.294939
   1 C :   -0.261837
   2 C :   -0.237971
   3 N :    0.162826
   4 C :   -0.299144
   5 C :   -0.184129
   6 C :   -0.208400
   7 C :   -0.248533
   8 N :    0.192053
   9 H :    0.132877
  10 H :    0.130178
  11 H :    0.128077
  12 H :    0.142673
  13 H :    0.124519
  14 H :    0.125989
  15 H :    0.138253
  16 H :    0.137135
  17 H :    0.129885
  18 H :    0.190489

  Mayer bond orders larger than 0.1
B(  0-C ,  1-C ) :   0.9190 B(  0-C ,  9-H ) :   0.9354 B(  0-C , 10-H ) :   0.9272
B(  0-C , 11-H ) :   0.9327 B(  1-C ,  2-C ) :   0.9400 B(  1-C ,  3-N ) :   0.8810
B(  1-C , 12-H ) :   0.9243 B(  2-C ,  3-N ) :   0.8590 B(  2-C , 13-H ) :   0.9217
B(  2-C , 14-H ) :   0.9168 B(  3-N ,  4-C ) :   1.0207 B(  4-C ,  5-C ) :   1.4648
B(  4-C ,  8-N ) :   1.1008 B(  5-C ,  6-C ) :   1.2525 B(  5-C , 15-H ) :   0.9461
B(  6-C ,  7-C ) :   1.5048 B(  6-C , 16-H ) :   0.9378 B(  7-C ,  8-N ) :   1.1063
B(  7-C , 17-H ) :   0.9173 B(  8-N , 18-H ) :   0.8707

MP2 TOTAL ENERGY:     -381.390802147 Eh
FINAL SINGLE POINT ENERGY      -381.390802146803

DIPOLE MOMENT
-------------
                                X             Y             Z
Electronic contribution:      3.36446      -2.30306       3.59017
Nuclear contribution   :     -3.08848       2.32920      -4.54086
                        -----------------------------------------
Total Dipole Moment    :      0.27598       0.02614      -0.95069
                        -----------------------------------------
Magnitude (a.u.)       :      0.99028
Magnitude (Debye)      :      2.51709

                             ****ORCA TERMINATED NORMALLY****
TOTAL RUN TIME: 0 days 0 hours 18 minutes 8 seconds 904 msec
