                         Program Version 3.0.3 - RELEASE   -
|  1> ! RI-MP2 RIJK def2-TZVP def2-TZVP/C def2-TZVP/JK TIGHTSCF
|  2> % maxcore 2000
|  3> % mp2 density relaxed end
|  4> *xyz 0 1
|  5>  C       -0.0969419706     1.5634049860    -0.0069559434
|  6>  C       -0.1466079937     0.0385935578    -0.1212441288
|  7>  C        0.8338052936    -0.5115141436    -1.1745245997
|  8>  C        0.8110516453    -2.0154588601    -1.2482658829
|  9>  N        1.3420720764    -2.6938992337    -0.2217969451
| 10>  C        1.2934101215    -4.0237172416    -0.2883607057
| 11>  C        0.7214589415    -4.6916644623    -1.3680027618
| 12>  N        0.1905804481    -4.0303412752    -2.3976772012
| 13>  C        0.2407147668    -2.7004989244    -2.3276076791
| 14>  H        0.9036437064     1.9067444485     0.2781478950
| 15>  H       -0.3523121742     2.0431301955    -0.9584905708
| 16>  H       -0.8013765319     1.9262943781     0.7477675278
| 17>  H        0.0921845392    -0.4215153307     0.8439552012
| 18>  H       -1.1644140394    -0.2833979674    -0.3753619812
| 19>  H        0.5973549455    -0.0897098692    -2.1582663398
| 20>  H        1.8498521216    -0.1899942082    -0.9173570472
| 21>  H        1.7270862817    -4.5758128137     0.5421906398
| 22>  H        0.6924886331    -5.7774863951    -1.4047652468
| 23>  H       -0.1859089810    -2.1499236406    -3.1632628303
| 24> *
| 25>
| 26>                          ****END OF INPUT****

CARTESIAN COORDINATES (ANGSTROEM)
---------------------------------
  C     -0.096942    1.563405   -0.006956
  C     -0.146608    0.038594   -0.121244
  C      0.833805   -0.511514   -1.174525
  C      0.811052   -2.015459   -1.248266
  N      1.342072   -2.693899   -0.221797
  C      1.293410   -4.023717   -0.288361
  C      0.721459   -4.691664   -1.368003
  N      0.190580   -4.030341   -2.397677
  C      0.240715   -2.700499   -2.327608
  H      0.903644    1.906744    0.278148
  H     -0.352312    2.043130   -0.958491
  H     -0.801377    1.926294    0.747768
  H      0.092185   -0.421515    0.843955
  H     -1.164414   -0.283398   -0.375362
  H      0.597355   -0.089710   -2.158266
  H      1.849852   -0.189994   -0.917357
  H      1.727086   -4.575813    0.542191
  H      0.692489   -5.777486   -1.404765
  H     -0.185909   -2.149924   -3.163263

 Total Charge           Charge          ....    0
 Multiplicity           Mult            ....    1
 Number of Electrons    NEL             ....   66
 Basis Dimension        Dim             ....  339

ORBITAL ENERGIES
----------------

  NO   OCC          E(Eh)            E(eV)
   0   2.0000     -15.587910      -424.1686
   1   2.0000     -15.582916      -424.0327
   2   2.0000     -11.283570      -307.0416
   3   2.0000     -11.279285      -306.9250
   4   2.0000     -11.274800      -306.8029
   5   2.0000     -11.274749      -306.8015
   6   2.0000     -11.233484      -305.6786
   7   2.0000     -11.226226      -305.4811
   8   2.0000     -11.216971      -305.2293
   9   2.0000      -1.303575       -35.4721
  10   2.0000      -1.215562       -33.0771
  11   2.0000      -1.089059       -29.6348
  12   2.0000      -1.034888       -28.1607
  13   2.0000      -0.950821       -25.8731
  14   2.0000      -0.894203       -24.3325
  15   2.0000      -0.860580       -23.4176
  16   2.0000      -0.805791       -21.9267
  17   2.0000      -0.712188       -19.3796
  18   2.0000      -0.707222       -19.2445
  19   2.0000      -0.657623       -17.8948
  20   2.0000      -0.628409       -17.0999
  21   2.0000      -0.602121       -16.3846
  22   2.0000      -0.587321       -15.9818
  23   2.0000      -0.565255       -15.3814
  24   2.0000      -0.544971       -14.8294
  25   2.0000      -0.538498       -14.6533
  26   2.0000      -0.496425       -13.5084
  27   2.0000      -0.492404       -13.3990
  28   2.0000      -0.486791       -13.2463
  29   2.0000      -0.478477       -13.0200
  30   2.0000      -0.427891       -11.6435
  31   2.0000      -0.403374       -10.9764
  32   2.0000      -0.345488        -9.4012
  33   0.0000       0.083052         2.2599
  34   0.0000       0.118204         3.2165
  35   0.0000       0.137706         3.7472
  36   0.0000       0.164666         4.4808
  37   0.0000       0.171277         4.6607

MULLIKEN ATOMIC CHARGES
-----------------------
   0 C :   -0.386133
   1 C :   -0.208255
   2 C :   -0.248668
   3 C :    0.213585
   4 N :   -0.266512
   5 C :   -0.042414
   6 C :   -0.009333
   7 N :   -0.244583
   8 C :   -0.080510
   9 H :    0.126101
  10 H :    0.121394
  11 H :    0.135358
  12 H :    0.128757
  13 H :    0.109754
  14 H :    0.121654
  15 H :    0.124100
  16 H :    0.133428
  17 H :    0.137617
  18 H :    0.134659
Sum of atomic charges:   -0.0000000

LOEWDIN ATOMIC CHARGES
----------------------
   0 C :   -0.320109
   1 C :   -0.285532
   2 C :   -0.226519
   3 C :   -0.222409
   4 N :    0.172395
   5 C :   -0.215286
   6 C :   -0.216331
   7 N :    0.139078
   8 C :   -0.184649
   9 H :    0.121583
  10 H :    0.120087
  11 H :    0.122161
  12 H :    0.140481
  13 H :    0.135431
  14 H :    0.143563
  15 H :    0.150305
  16 H :    0.141029
  17 H :    0.141063
  18 H :    0.143660

  Mayer bond orders larger than 0.1
B(  0-C ,  1-C ) :   0.9145 B(  0-C ,  9-H ) :   0.9402 B(  0-C , 10-H ) :   0.9373
B(  0-C , 11-H ) :   0.9412 B(  1-C ,  2-C ) :   0.9200 B(  1-C , 12-H ) :   0.9340
B(  1-C , 13-H ) :   0.9302 B(  2-C ,  3-C ) :   0.8996 B(  2-C , 14-H ) :   0.9417
B(  2-C , 15-H ) :   0.9161 B(  3-C ,  4-N ) :   1.3158 B(  3-C ,  8-C ) :   1.2937
B(  4-N ,  5-C ) :   1.4102 B(  5-C ,  6-C ) :   1.3074 B(  5-C , 16-H ) :   0.9318
B(  6-C ,  7-N ) :   1.3710 B(  6-C , 17-H ) :   0.9296 B(  7-N ,  8-C ) :   1.4135
B(  8-C , 18-H ) :   0.9384

MP2 TOTAL ENERGY:     -381.439562459 Eh
FINAL SINGLE POINT ENERGY      -381.439562459328

DIPOLE MOMENT
-------------
                                X             Y             Z
Electronic contribution:      2.11975     -11.81929      -3.06220
Nuclear contribution   :     -2.12827      12.04897       3.19031
                        -----------------------------------------
Total Dipole Moment    :     -0.00853       0.22968       0.12812
                        -----------------------------------------
Magnitude (a.u.)       :      0.26313
Magnitude (Debye)      :      0.66883

                             ****ORCA TERMINATED NORMALLY****
TOTAL RUN TIME: 0 days 0 hours 17 minutes 17 seconds 513 msec
