                         Program Version 3.0.3 - RELEASE   -
|  1> ! RI-MP2 RIJK def2-TZVP def2-TZVP/C def2-TZVP/JK TIGHTSCF
|  2> % maxcore 2000
|  3> % mp2 density relaxed end
|  4> *xyz 0 1
|  5>  O        0.0047968613    -0.0820735490    -0.0009947443
|  6>  C       -0.0012469002     1.1287647644     0.0096517637
|  7>  C        1.1852804964     1.9701615844     0.0029849761
|  8>  C        1.3168582909     3.3479566039     0.0134837842
|  9>  C        2.7266992500     3.6063556293    -0.0010108751
| 10>  C        3.3273696265     2.3859045293    -0.0186660730
| 11>  O        2.4155316958     1.3918965377    -0.0165522315
| 12>  C        0.2746411501     4.3004656357     0.0341120587
| 13>  C       -0.5966275957     5.1313932319     0.0515275673
| 14>  H       -0.9405086351     1.7187902979     0.0258707629
| 15>  H        3.2060383921     4.5715536733     0.0016842487
| 16>  H        4.3596873232     2.0753459664    -0.0335578951
| 17>  H       -1.3717334554     5.8574579050     0.0665830575
| 18> *
| 19>
| 20>                          ****END OF INPUT****

CARTESIAN COORDINATES (ANGSTROEM)
---------------------------------
  O      0.004797   -0.082074   -0.000995
  C     -0.001247    1.128765    0.009652
  C      1.185280    1.970162    0.002985
  C      1.316858    3.347957    0.013484
  C      2.726699    3.606356   -0.001011
  C      3.327370    2.385905   -0.018666
  O      2.415532    1.391897   -0.016552
  C      0.274641    4.300466    0.034112
  C     -0.596628    5.131393    0.051528
  H     -0.940509    1.718790    0.025871
  H      3.206038    4.571554    0.001684
  H      4.359687    2.075346   -0.033558
  H     -1.371733    5.857458    0.066583

 Total Charge           Charge          ....    0
 Multiplicity           Mult            ....    1
 Number of Electrons    NEL             ....   62
 Basis Dimension        Dim             ....  303

ORBITAL ENERGIES
----------------

  NO   OCC          E(Eh)            E(eV)
   0   2.0000     -20.651907      -561.9670
   1   2.0000     -20.559513      -559.4528
   2   2.0000     -11.343052      -308.6601
   3   2.0000     -11.324610      -308.1583
   4   2.0000     -11.317695      -307.9701
   5   2.0000     -11.295514      -307.3666
   6   2.0000     -11.263617      -306.4986
   7   2.0000     -11.259105      -306.3758
   8   2.0000     -11.255782      -306.2854
   9   2.0000      -1.493577       -40.6423
  10   2.0000      -1.393957       -37.9315
  11   2.0000      -1.144524       -31.1441
  12   2.0000      -1.065290       -28.9880
  13   2.0000      -1.038888       -28.2696
  14   2.0000      -0.906428       -24.6652
  15   2.0000      -0.866596       -23.5813
  16   2.0000      -0.810467       -22.0539
  17   2.0000      -0.750477       -20.4215
  18   2.0000      -0.729566       -19.8525
  19   2.0000      -0.671014       -18.2592
  20   2.0000      -0.661968       -18.0131
  21   2.0000      -0.660374       -17.9697
  22   2.0000      -0.632421       -17.2090
  23   2.0000      -0.603835       -16.4312
  24   2.0000      -0.581102       -15.8126
  25   2.0000      -0.538815       -14.6619
  26   2.0000      -0.488790       -13.3007
  27   2.0000      -0.447892       -12.1878
  28   2.0000      -0.416266       -11.3272
  29   2.0000      -0.391605       -10.6561
  30   2.0000      -0.338194        -9.2027
  31   0.0000       0.048889         1.3303
  32   0.0000       0.144185         3.9235
  33   0.0000       0.147825         4.0225
  34   0.0000       0.155853         4.2410
  35   0.0000       0.162225         4.4144

MULLIKEN ATOMIC CHARGES
-----------------------
   0 O :   -0.266923
   1 C :    0.012299
   2 C :    0.114457
   3 C :   -0.052452
   4 C :   -0.265039
   5 C :    0.040250
   6 O :   -0.176378
   7 C :    0.115614
   8 C :   -0.151762
   9 H :    0.109281
  10 H :    0.158571
  11 H :    0.161916
  12 H :    0.200166
Sum of atomic charges:   -0.0000000

LOEWDIN ATOMIC CHARGES
----------------------
   0 O :    0.135683
   1 C :   -0.280999
   2 C :   -0.208605
   3 C :   -0.133949
   4 C :   -0.124115
   5 C :   -0.210581
   6 O :    0.397890
   7 C :   -0.067496
   8 C :   -0.060555
   9 H :    0.129027
  10 H :    0.152904
  11 H :    0.139694
  12 H :    0.131103

  Mayer bond orders larger than 0.1
B(  0-O ,  1-C ) :   2.0164 B(  0-O ,  2-C ) :  -0.1024 B(  1-C ,  2-C ) :   0.8437
B(  1-C ,  9-H ) :   1.0028 B(  2-C ,  3-C ) :   1.3503 B(  2-C ,  6-O ) :   1.0859
B(  2-C ,  9-H ) :  -0.1292 B(  3-C ,  4-C ) :   1.2028 B(  3-C ,  7-C ) :   1.1250
B(  3-C ,  8-C ) :  -0.1363 B(  4-C ,  5-C ) :   1.5137 B(  4-C , 10-H ) :   0.9142
B(  5-C ,  6-O ) :   1.0594 B(  5-C , 11-H ) :   0.9339 B(  7-C ,  8-C ) :   2.6216
B(  8-C , 12-H ) :   0.8732

MP2 TOTAL ENERGY:     -418.705437457 Eh
FINAL SINGLE POINT ENERGY      -418.705437456650

DIPOLE MOMENT
-------------
                                X             Y             Z
Electronic contribution:      0.04846      -2.59526      -0.02284
Nuclear contribution   :      0.46429       3.97935       0.02866
                        -----------------------------------------
Total Dipole Moment    :      0.51275       1.38409       0.00582
                        -----------------------------------------
Magnitude (a.u.)       :      1.47603
Magnitude (Debye)      :      3.75176

                             ****ORCA TERMINATED NORMALLY****
TOTAL RUN TIME: 0 days 0 hours 13 minutes 10 seconds 128 msec
