                         Program Version 3.0.3 - RELEASE   -
|  1> ! RI-MP2 RIJK def2-TZVP def2-TZVP/C def2-TZVP/JK TIGHTSCF
|  2> % maxcore 2000
|  3> % mp2 density relaxed end
|  4> *xyz 0 1
|  5>  C       -0.1235591073     1.5828679682    -0.0100632262
|  6>  C       -0.0189936529     0.0858532833    -0.0079215146
|  7>  C       -0.8583865703    -0.8558988783    -0.8715339674
|  8>  O       -0.9240545218    -1.8479143740     0.1869916215
|  9>  C       -0.2274369101    -0.9642104292     1.0709847664
| 10>  C        1.1578716973    -0.6872452240     0.5692652991
| 11>  C        1.9833046181    -1.7214001911    -0.1871384644
| 12>  C        2.9107444113    -2.4333960064     0.6858672247
| 13>  C        3.6735363575    -2.9996089023     1.4222510836
| 14>  H        0.3711395282     2.0175690043    -0.8871851130
| 15>  H       -1.1695266804     1.9098317397    -0.0214176498
| 16>  H        0.3511720744     2.0116352197     0.8779724824
| 17>  H       -1.8584594097    -0.4586917960    -1.0829491359
| 18>  H       -0.4195133404    -1.2521458982    -1.7953563517
| 19>  H       -0.5568996126    -0.9212465216     2.1032618241
| 20>  H        1.7368168519    -0.0728041632     1.2555145302
| 21>  H        1.3040932163    -2.4420108242    -0.6563038554
| 22>  H        2.5443465261    -1.2371069431    -0.9970275007
| 23>  H        4.3452871944    -3.5124543237     2.0646275673
| 24> *
| 25>
| 26>                          ****END OF INPUT****

CARTESIAN COORDINATES (ANGSTROEM)
---------------------------------
  C     -0.123559    1.582868   -0.010063
  C     -0.018994    0.085853   -0.007922
  C     -0.858387   -0.855899   -0.871534
  O     -0.924055   -1.847914    0.186992
  C     -0.227437   -0.964210    1.070985
  C      1.157872   -0.687245    0.569265
  C      1.983305   -1.721400   -0.187138
  C      2.910744   -2.433396    0.685867
  C      3.673536   -2.999609    1.422251
  H      0.371140    2.017569   -0.887185
  H     -1.169527    1.909832   -0.021418
  H      0.351172    2.011635    0.877972
  H     -1.858459   -0.458692   -1.082949
  H     -0.419513   -1.252146   -1.795356
  H     -0.556900   -0.921247    2.103262
  H      1.736817   -0.072804    1.255515
  H      1.304093   -2.442011   -0.656304
  H      2.544347   -1.237107   -0.997028
  H      4.345287   -3.512454    2.064628

 Total Charge           Charge          ....    0
 Multiplicity           Mult            ....    1
 Number of Electrons    NEL             ....   66
 Basis Dimension        Dim             ....  339

ORBITAL ENERGIES
----------------

  NO   OCC          E(Eh)            E(eV)
   0   2.0000     -20.557265      -559.3916
   1   2.0000     -11.288319      -307.1708
   2   2.0000     -11.287049      -307.1362
   3   2.0000     -11.252236      -306.1889
   4   2.0000     -11.249056      -306.1024
   5   2.0000     -11.245498      -306.0055
   6   2.0000     -11.232474      -305.6512
   7   2.0000     -11.230349      -305.5933
   8   2.0000     -11.215846      -305.1987
   9   2.0000      -1.395510       -37.9738
  10   2.0000      -1.140879       -31.0449
  11   2.0000      -1.059159       -28.8212
  12   2.0000      -0.993982       -27.0476
  13   2.0000      -0.953456       -25.9449
  14   2.0000      -0.932451       -25.3733
  15   2.0000      -0.799033       -21.7428
  16   2.0000      -0.746251       -20.3065
  17   2.0000      -0.717156       -19.5148
  18   2.0000      -0.686732       -18.6869
  19   2.0000      -0.647968       -17.6321
  20   2.0000      -0.641827       -17.4650
  21   2.0000      -0.618951       -16.8425
  22   2.0000      -0.596948       -16.2438
  23   2.0000      -0.571502       -15.5514
  24   2.0000      -0.563524       -15.3343
  25   2.0000      -0.559066       -15.2130
  26   2.0000      -0.525676       -14.3044
  27   2.0000      -0.494282       -13.4501
  28   2.0000      -0.469211       -12.7679
  29   2.0000      -0.409048       -11.1308
  30   2.0000      -0.388735       -10.5780
  31   2.0000      -0.379887       -10.3373
  32   2.0000      -0.367479        -9.9996
  33   0.0000       0.129029         3.5111
  34   0.0000       0.154277         4.1981
  35   0.0000       0.166914         4.5420
  36   0.0000       0.172991         4.7073
  37   0.0000       0.176621         4.8061

MULLIKEN ATOMIC CHARGES
-----------------------
   0 C :   -0.400332
   1 C :   -0.008774
   2 C :   -0.017841
   3 O :   -0.341784
   4 C :    0.044367
   5 C :   -0.133171
   6 C :   -0.330609
   7 C :   -0.041395
   8 C :   -0.151768
   9 H :    0.138016
  10 H :    0.134142
  11 H :    0.134529
  12 H :    0.108365
  13 H :    0.111116
  14 H :    0.133485
  15 H :    0.126054
  16 H :    0.164072
  17 H :    0.143460
  18 H :    0.188067
Sum of atomic charges:   -0.0000000

LOEWDIN ATOMIC CHARGES
----------------------
   0 C :   -0.275057
   1 C :   -0.222989
   2 C :   -0.221237
   3 O :    0.145415
   4 C :   -0.208016
   5 C :   -0.164471
   6 C :   -0.225179
   7 C :   -0.104666
   8 C :   -0.109855
   9 H :    0.130000
  10 H :    0.128728
  11 H :    0.131720
  12 H :    0.127134
  13 H :    0.118904
  14 H :    0.132198
  15 H :    0.165317
  16 H :    0.167795
  17 H :    0.158832
  18 H :    0.125426

  Mayer bond orders larger than 0.1
B(  0-C ,  1-C ) :   0.8968 B(  0-C ,  9-H ) :   0.9366 B(  0-C , 10-H ) :   0.9343
B(  0-C , 11-H ) :   0.9354 B(  1-C ,  2-C ) :   0.9701 B(  1-C ,  4-C ) :   0.8852
B(  1-C ,  5-C ) :   0.8379 B(  2-C ,  3-O ) :   0.9170 B(  2-C , 12-H ) :   0.9076
B(  2-C , 13-H ) :   0.9191 B(  3-O ,  4-C ) :   0.9375 B(  4-C ,  5-C ) :   0.8806
B(  4-C , 14-H ) :   0.9179 B(  5-C ,  6-C ) :   0.8879 B(  5-C , 15-H ) :   0.9314
B(  6-C ,  7-C ) :   1.1419 B(  6-C , 16-H ) :   0.9069 B(  6-C , 17-H ) :   0.9260
B(  7-C ,  8-C ) :   2.6090 B(  8-C , 18-H ) :   0.8990

MP2 TOTAL ENERGY:     -385.122780729 Eh
FINAL SINGLE POINT ENERGY      -385.122780728949

DIPOLE MOMENT
-------------
                                X             Y             Z
Electronic contribution:      1.00876      -5.33339       1.78053
Nuclear contribution   :     -1.00448       6.22496      -1.95443
                        -----------------------------------------
Total Dipole Moment    :      0.00428       0.89157      -0.17389
                        -----------------------------------------
Magnitude (a.u.)       :      0.90838
Magnitude (Debye)      :      2.30892

                             ****ORCA TERMINATED NORMALLY****
TOTAL RUN TIME: 0 days 0 hours 18 minutes 18 seconds 366 msec
