                         Program Version 3.0.3 - RELEASE   -
|  1> ! RI-MP2 RIJK def2-TZVP def2-TZVP/C def2-TZVP/JK TIGHTSCF
|  2> % maxcore 2000
|  3> % mp2 density relaxed end
|  4> *xyz 0 1
|  5>  C       -0.0357708202     1.4666659859     0.0278345822
|  6>  N       -0.0132886270     0.0182366252    -0.0008448691
|  7>  C       -0.0643296089    -0.7780698263    -1.1233886189
|  8>  C        0.0341047790    -2.0969009831    -0.7277172284
|  9>  C        0.1583259354    -2.1009189989     0.7061009576
| 10>  C        0.1261687246    -0.7882445795     1.0979914161
| 11>  O        0.2039906461    -0.1752040502     2.3070237556
| 12>  C        0.0109882627    -3.2284195770    -1.5739432339
| 13>  C       -0.0064466086    -4.2035145203    -2.2824372904
| 14>  H        0.9693697466     1.8828164898     0.1573518871
| 15>  H       -0.4508229587     1.8311936483    -0.9132300244
| 16>  H       -0.6628416916     1.8146162234     0.8513984194
| 17>  H       -0.1693055369    -0.3470975799    -2.1048084768
| 18>  H        0.2498645942    -2.9682155569     1.3399150324
| 19>  H        0.2547452521    -0.8534346913     2.9870824966
| 20>  H       -0.0227820689    -5.0584026693    -2.9108069652
| 21> *
| 22>
| 23>                          ****END OF INPUT****

CARTESIAN COORDINATES (ANGSTROEM)
---------------------------------
  C     -0.035771    1.466666    0.027835
  N     -0.013289    0.018237   -0.000845
  C     -0.064330   -0.778070   -1.123389
  C      0.034105   -2.096901   -0.727717
  C      0.158326   -2.100919    0.706101
  C      0.126169   -0.788245    1.097991
  O      0.203991   -0.175204    2.307024
  C      0.010988   -3.228420   -1.573943
  C     -0.006447   -4.203515   -2.282437
  H      0.969370    1.882816    0.157352
  H     -0.450823    1.831194   -0.913230
  H     -0.662842    1.814616    0.851398
  H     -0.169306   -0.347098   -2.104808
  H      0.249865   -2.968216    1.339915
  H      0.254745   -0.853435    2.987082
  H     -0.022782   -5.058403   -2.910807

 Total Charge           Charge          ....    0
 Multiplicity           Mult            ....    1
 Number of Electrons    NEL             ....   64
 Basis Dimension        Dim             ....  321

ORBITAL ENERGIES
----------------

  NO   OCC          E(Eh)            E(eV)
   0   2.0000     -20.605968      -560.7169
   1   2.0000     -15.613681      -424.8699
   2   2.0000     -11.325820      -308.1912
   3   2.0000     -11.275866      -306.8319
   4   2.0000     -11.259484      -306.3861
   5   2.0000     -11.237868      -305.7979
   6   2.0000     -11.227526      -305.5165
   7   2.0000     -11.212806      -305.1160
   8   2.0000     -11.212047      -305.0953
   9   2.0000      -1.429037       -38.8861
  10   2.0000      -1.302684       -35.4478
  11   2.0000      -1.100241       -29.9391
  12   2.0000      -1.023291       -27.8452
  13   2.0000      -0.974271       -26.5113
  14   2.0000      -0.943114       -25.6634
  15   2.0000      -0.839543       -22.8451
  16   2.0000      -0.781634       -21.2693
  17   2.0000      -0.741009       -20.1639
  18   2.0000      -0.703124       -19.1330
  19   2.0000      -0.667912       -18.1748
  20   2.0000      -0.656900       -17.8752
  21   2.0000      -0.639106       -17.3910
  22   2.0000      -0.606009       -16.4903
  23   2.0000      -0.587761       -15.9938
  24   2.0000      -0.576538       -15.6884
  25   2.0000      -0.549655       -14.9569
  26   2.0000      -0.545438       -14.8421
  27   2.0000      -0.521029       -14.1779
  28   2.0000      -0.426993       -11.6191
  29   2.0000      -0.381831       -10.3901
  30   2.0000      -0.329694        -8.9714
  31   2.0000      -0.282126        -7.6770
  32   0.0000       0.125129         3.4049
  33   0.0000       0.137458         3.7404
  34   0.0000       0.147213         4.0059
  35   0.0000       0.171039         4.6542
  36   0.0000       0.178303         4.8519

MULLIKEN ATOMIC CHARGES
-----------------------
   0 C :   -0.324243
   1 N :   -0.026063
   2 C :   -0.191683
   3 C :   -0.067981
   4 C :   -0.334071
   5 C :    0.241397
   6 O :   -0.444324
   7 C :    0.033507
   8 C :   -0.171481
   9 H :    0.151057
  10 H :    0.150353
  11 H :    0.162614
  12 H :    0.151772
  13 H :    0.139892
  14 H :    0.344396
  15 H :    0.184857
Sum of atomic charges:    0.0000000

LOEWDIN ATOMIC CHARGES
----------------------
   0 C :   -0.265075
   1 N :    0.244234
   2 C :   -0.172845
   3 C :   -0.186537
   4 C :   -0.157941
   5 C :   -0.341615
   6 O :    0.066573
   7 C :   -0.074762
   8 C :   -0.101692
   9 H :    0.124053
  10 H :    0.128135
  11 H :    0.129499
  12 H :    0.139795
  13 H :    0.142356
  14 H :    0.201501
  15 H :    0.124319

  Mayer bond orders larger than 0.1
B(  0-C ,  1-N ) :   0.8646 B(  0-C ,  9-H ) :   0.9281 B(  0-C , 10-H ) :   0.9319
B(  0-C , 11-H ) :   0.9299 B(  1-N ,  2-C ) :   1.1294 B(  1-N ,  5-C ) :   1.1474
B(  2-C ,  3-C ) :   1.4483 B(  2-C , 12-H ) :   0.8970 B(  3-C ,  4-C ) :   1.1886
B(  3-C ,  7-C ) :   1.1397 B(  3-C ,  8-C ) :  -0.1581 B(  4-C ,  5-C ) :   1.4440
B(  4-C , 13-H ) :   0.9122 B(  5-C ,  6-O ) :   1.0927 B(  6-O , 14-H ) :   0.8287
B(  7-C ,  8-C ) :   2.6152 B(  8-C , 15-H ) :   0.8776

MP2 TOTAL ENERGY:     -400.046389670 Eh
FINAL SINGLE POINT ENERGY      -400.046389669957

DIPOLE MOMENT
-------------
                                X             Y             Z
Electronic contribution:      0.15086      -3.75306       0.52740
Nuclear contribution   :     -0.16149       4.53006       0.03502
                        -----------------------------------------
Total Dipole Moment    :     -0.01063       0.77700       0.56242
                        -----------------------------------------
Magnitude (a.u.)       :      0.95925
Magnitude (Debye)      :      2.43822

                             ****ORCA TERMINATED NORMALLY****
TOTAL RUN TIME: 0 days 0 hours 16 minutes 26 seconds 349 msec
