                         Program Version 3.0.3 - RELEASE   -
|  1> ! RI-MP2 RIJK def2-TZVP def2-TZVP/C def2-TZVP/JK TIGHTSCF
|  2> % maxcore 2000
|  3> % mp2 density relaxed end
|  4> *xyz 0 1
|  5>  C        0.9304321564     1.5696741312    -0.0018392252
|  6>  C        0.0820475587     0.3061708125     0.0235113802
|  7>  C        0.2293913806    -0.5304186846    -1.2504299230
|  8>  C       -0.6061553900    -1.8249379272    -1.2621669595
|  9>  C       -0.0526583691    -2.9327792753    -0.3986482543
| 10>  N        0.3136158590    -4.0298425982    -0.9157158401
| 11>  O        0.0609215512    -2.7282327226     0.9498801616
| 12>  C       -0.3314562485    -1.4933676507     1.5393327767
| 13>  O        0.4744957065    -0.4197534925     1.1944044337
| 14>  H        1.9902976459     1.3148422115    -0.0971287246
| 15>  H        0.6485988179     2.2052092979    -0.8461184463
| 16>  H        0.7963657569     2.1364601662     0.9229025001
| 17>  H       -0.9805553180     0.5826274468     0.1359412693
| 18>  H       -0.0831375768     0.0908519169    -2.0975140259
| 19>  H        1.2872271939    -0.7736080075    -1.4045853702
| 20>  H       -1.6398971951    -1.5999188313    -0.9659958471
| 21>  H       -0.6451216069    -2.2342507354    -2.2720606827
| 22>  H        0.6662161581    -4.6552296569    -0.1873130723
| 23>  H       -1.3886938895    -1.2859624742     1.3141555960
| 24>  H       -0.2066726113    -1.6654534368     2.6101047636
| 25> *
| 26>
| 27>                          ****END OF INPUT****

CARTESIAN COORDINATES (ANGSTROEM)
---------------------------------
  C      0.930432    1.569674   -0.001839
  C      0.082048    0.306171    0.023511
  C      0.229391   -0.530419   -1.250430
  C     -0.606155   -1.824938   -1.262167
  C     -0.052658   -2.932779   -0.398648
  N      0.313616   -4.029843   -0.915716
  O      0.060922   -2.728233    0.949880
  C     -0.331456   -1.493368    1.539333
  O      0.474496   -0.419753    1.194404
  H      1.990298    1.314842   -0.097129
  H      0.648599    2.205209   -0.846118
  H      0.796366    2.136460    0.922903
  H     -0.980555    0.582627    0.135941
  H     -0.083138    0.090852   -2.097514
  H      1.287227   -0.773608   -1.404585
  H     -1.639897   -1.599919   -0.965996
  H     -0.645122   -2.234251   -2.272061
  H      0.666216   -4.655230   -0.187313
  H     -1.388694   -1.285962    1.314156
  H     -0.206673   -1.665453    2.610105

 Total Charge           Charge          ....    0
 Multiplicity           Mult            ....    1
 Number of Electrons    NEL             ....   70
 Basis Dimension        Dim             ....  345

ORBITAL ENERGIES
----------------

  NO   OCC          E(Eh)            E(eV)
   0   2.0000     -20.591254      -560.3165
   1   2.0000     -20.574667      -559.8651
   2   2.0000     -15.527277      -422.5187
   3   2.0000     -11.347796      -308.7892
   4   2.0000     -11.334878      -308.4377
   5   2.0000     -11.297240      -307.4135
   6   2.0000     -11.245094      -305.9946
   7   2.0000     -11.240510      -305.8698
   8   2.0000     -11.224965      -305.4468
   9   2.0000      -1.444306       -39.3016
  10   2.0000      -1.380470       -37.5645
  11   2.0000      -1.193484       -32.4764
  12   2.0000      -1.089677       -29.6516
  13   2.0000      -1.021159       -27.7871
  14   2.0000      -0.937268       -25.5044
  15   2.0000      -0.907227       -24.6869
  16   2.0000      -0.817346       -22.2411
  17   2.0000      -0.769492       -20.9389
  18   2.0000      -0.723931       -19.6992
  19   2.0000      -0.700586       -19.0639
  20   2.0000      -0.690721       -18.7955
  21   2.0000      -0.636838       -17.3293
  22   2.0000      -0.623189       -16.9578
  23   2.0000      -0.608707       -16.5638
  24   2.0000      -0.585351       -15.9282
  25   2.0000      -0.566955       -15.4276
  26   2.0000      -0.543505       -14.7895
  27   2.0000      -0.536730       -14.6052
  28   2.0000      -0.523645       -14.2491
  29   2.0000      -0.507999       -13.8234
  30   2.0000      -0.490151       -13.3377
  31   2.0000      -0.476829       -12.9752
  32   2.0000      -0.451168       -12.2769
  33   2.0000      -0.428600       -11.6628
  34   2.0000      -0.395096       -10.7511
  35   0.0000       0.130307         3.5458
  36   0.0000       0.145435         3.9575
  37   0.0000       0.159025         4.3273
  38   0.0000       0.174902         4.7593
  39   0.0000       0.187546         5.1034

MULLIKEN ATOMIC CHARGES
-----------------------
   0 C :   -0.369699
   1 C :    0.028575
   2 C :   -0.221787
   3 C :   -0.169500
   4 C :    0.109549
   5 N :   -0.365912
   6 O :   -0.251941
   7 C :    0.018629
   8 O :   -0.280703
   9 H :    0.135740
  10 H :    0.126432
  11 H :    0.140685
  12 H :    0.084789
  13 H :    0.127845
  14 H :    0.131871
  15 H :    0.132812
  16 H :    0.151502
  17 H :    0.218466
  18 H :    0.113668
  19 H :    0.138980
Sum of atomic charges:    0.0000000

LOEWDIN ATOMIC CHARGES
----------------------
   0 C :   -0.287671
   1 C :   -0.345843
   2 C :   -0.239079
   3 C :   -0.228981
   4 C :   -0.411195
   5 N :   -0.057801
   6 O :    0.227299
   7 C :   -0.381483
   8 O :    0.194587
   9 H :    0.129378
  10 H :    0.127525
  11 H :    0.127911
  12 H :    0.136815
  13 H :    0.147677
  14 H :    0.149360
  15 H :    0.147250
  16 H :    0.159393
  17 H :    0.165518
  18 H :    0.111724
  19 H :    0.127616

  Mayer bond orders larger than 0.1
B(  0-C ,  1-C ) :   0.9289 B(  0-C ,  9-H ) :   0.9347 B(  0-C , 10-H ) :   0.9330
B(  0-C , 11-H ) :   0.9372 B(  1-C ,  2-C ) :   0.9284 B(  1-C ,  8-O ) :   0.9027
B(  1-C , 12-H ) :   0.9352 B(  2-C ,  3-C ) :   0.8886 B(  2-C , 13-H ) :   0.9234
B(  2-C , 14-H ) :   0.9139 B(  3-C ,  4-C ) :   0.9098 B(  3-C , 15-H ) :   0.9318
B(  3-C , 16-H ) :   0.9145 B(  4-C ,  5-N ) :   2.0628 B(  4-C ,  6-O ) :   1.0714
B(  5-N , 17-H ) :   0.8597 B(  6-O ,  7-C ) :   0.9134 B(  7-C ,  8-O ) :   1.0117
B(  7-C , 18-H ) :   0.9414 B(  7-C , 19-H ) :   0.9328

MP2 TOTAL ENERGY:     -439.586136356 Eh
FINAL SINGLE POINT ENERGY      -439.586136356416

DIPOLE MOMENT
-------------
                                X             Y             Z
Electronic contribution:      0.28693      -7.08223       3.07214
Nuclear contribution   :     -0.89038       8.17338      -2.87095
                        -----------------------------------------
Total Dipole Moment    :     -0.60345       1.09115       0.20119
                        -----------------------------------------
Magnitude (a.u.)       :      1.26303
Magnitude (Debye)      :      3.21037

                             ****ORCA TERMINATED NORMALLY****
TOTAL RUN TIME: 0 days 0 hours 18 minutes 5 seconds 105 msec
