                         Program Version 3.0.3 - RELEASE   -
|  1> ! RI-MP2 RIJK def2-TZVP def2-TZVP/C def2-TZVP/JK TIGHTSCF
|  2> % maxcore 2000
|  3> % mp2 density relaxed end
|  4> *xyz 0 1
|  5>  O        0.0126377460     1.3984241805    -0.1052230510
|  6>  C       -0.0003133838    -0.0081499842     0.0393957364
|  7>  C        0.4602297678    -0.5609688318     1.4175981603
|  8>  C       -0.2953776537     0.2373826455     2.5043717400
|  9>  O       -1.7023901542     0.0663520082     2.4096913540
| 10>  C       -2.2409394518     0.2339737795     1.1033636229
| 11>  C       -1.4422623795    -0.5593417964     0.0423402782
| 12>  C       -1.1718035552    -1.9713374559     0.5337918093
| 13>  C       -0.0891451189    -1.9728648137     1.3149619261
| 14>  H        0.9285223491     1.6880216131    -0.1596566448
| 15>  H        0.5767611628    -0.4873960008    -0.7630029943
| 16>  H        1.5405374278    -0.4951558924     1.5864240933
| 17>  H       -0.0231844269    -0.1079333088     3.5064599590
| 18>  H       -0.0244875589     1.3002255533     2.4151181504
| 19>  H       -3.2722215279    -0.1269033546     1.1638211251
| 20>  H       -2.2570443212     1.2952975564     0.8185667160
| 21>  H       -1.9393167670    -0.4897194541    -0.9292657146
| 22>  H       -1.8121313107    -2.8179516984     0.3175174015
| 23>  H        0.3195007461    -2.8223188354     1.8490684024
| 24> *
| 25>
| 26>                          ****END OF INPUT****

CARTESIAN COORDINATES (ANGSTROEM)
---------------------------------
  O      0.012638    1.398424   -0.105223
  C     -0.000313   -0.008150    0.039396
  C      0.460230   -0.560969    1.417598
  C     -0.295378    0.237383    2.504372
  O     -1.702390    0.066352    2.409691
  C     -2.240939    0.233974    1.103364
  C     -1.442262   -0.559342    0.042340
  C     -1.171804   -1.971337    0.533792
  C     -0.089145   -1.972865    1.314962
  H      0.928522    1.688022   -0.159657
  H      0.576761   -0.487396   -0.763003
  H      1.540537   -0.495156    1.586424
  H     -0.023184   -0.107933    3.506460
  H     -0.024488    1.300226    2.415118
  H     -3.272222   -0.126903    1.163821
  H     -2.257044    1.295298    0.818567
  H     -1.939317   -0.489719   -0.929266
  H     -1.812131   -2.817952    0.317517
  H      0.319501   -2.822319    1.849068

 Total Charge           Charge          ....    0
 Multiplicity           Mult            ....    1
 Number of Electrons    NEL             ....   68
 Basis Dimension        Dim             ....  339

ORBITAL ENERGIES
----------------

  NO   OCC          E(Eh)            E(eV)
   0   2.0000     -20.562352      -559.5301
   1   2.0000     -20.541928      -558.9743
   2   2.0000     -11.283312      -307.0345
   3   2.0000     -11.268128      -306.6214
   4   2.0000     -11.265221      -306.5422
   5   2.0000     -11.234067      -305.6945
   6   2.0000     -11.231838      -305.6338
   7   2.0000     -11.227208      -305.5078
   8   2.0000     -11.225492      -305.4612
   9   2.0000      -1.375454       -37.4280
  10   2.0000      -1.358323       -36.9619
  11   2.0000      -1.143518       -31.1167
  12   2.0000      -1.029571       -28.0160
  13   2.0000      -0.965075       -26.2610
  14   2.0000      -0.882600       -24.0168
  15   2.0000      -0.872499       -23.7419
  16   2.0000      -0.756381       -20.5822
  17   2.0000      -0.737427       -20.0664
  18   2.0000      -0.708135       -19.2693
  19   2.0000      -0.685054       -18.6413
  20   2.0000      -0.647618       -17.6226
  21   2.0000      -0.625004       -17.0072
  22   2.0000      -0.610471       -16.6118
  23   2.0000      -0.590801       -16.0765
  24   2.0000      -0.554115       -15.0782
  25   2.0000      -0.543267       -14.7830
  26   2.0000      -0.539802       -14.6888
  27   2.0000      -0.528056       -14.3691
  28   2.0000      -0.487612       -13.2686
  29   2.0000      -0.476322       -12.9614
  30   2.0000      -0.445187       -12.1142
  31   2.0000      -0.425672       -11.5831
  32   2.0000      -0.407429       -11.0867
  33   2.0000      -0.344023        -9.3613
  34   0.0000       0.126474         3.4415
  35   0.0000       0.144815         3.9406
  36   0.0000       0.160336         4.3630
  37   0.0000       0.169443         4.6108
  38   0.0000       0.181653         4.9430

MULLIKEN ATOMIC CHARGES
-----------------------
   0 O :   -0.468331
   1 C :    0.020739
   2 C :   -0.042972
   3 C :   -0.030982
   4 O :   -0.321806
   5 C :   -0.075545
   6 C :    0.004681
   7 C :   -0.216158
   8 C :   -0.220717
   9 H :    0.317448
  10 H :    0.095749
  11 H :    0.116846
  12 H :    0.119372
  13 H :    0.088354
  14 H :    0.117857
  15 H :    0.116920
  16 H :    0.119099
  17 H :    0.130145
  18 H :    0.129300
Sum of atomic charges:    0.0000000

LOEWDIN ATOMIC CHARGES
----------------------
   0 O :   -0.007416
   1 C :   -0.296347
   2 C :   -0.225205
   3 C :   -0.286214
   4 O :    0.155962
   5 C :   -0.280397
   6 C :   -0.213344
   7 C :   -0.121127
   8 C :   -0.124434
   9 H :    0.177147
  10 H :    0.139515
  11 H :    0.146179
  12 H :    0.129803
  13 H :    0.123640
  14 H :    0.130060
  15 H :    0.128715
  16 H :    0.151163
  17 H :    0.136471
  18 H :    0.135829

  Mayer bond orders larger than 0.1
B(  0-O ,  1-C ) :   1.0451 B(  0-O ,  9-H ) :   0.8439 B(  1-C ,  2-C ) :   0.9293
B(  1-C ,  6-C ) :   0.8918 B(  1-C , 10-H ) :   0.9288 B(  2-C ,  3-C ) :   0.8935
B(  2-C ,  8-C ) :   0.9171 B(  2-C , 11-H ) :   0.9117 B(  3-C ,  4-O ) :   0.9443
B(  3-C , 12-H ) :   0.9244 B(  3-C , 13-H ) :   0.9212 B(  4-O ,  5-C ) :   0.9367
B(  5-C ,  6-C ) :   0.9098 B(  5-C , 14-H ) :   0.9235 B(  5-C , 15-H ) :   0.9284
B(  6-C ,  7-C ) :   0.9329 B(  6-C , 16-H ) :   0.9053 B(  7-C ,  8-C ) :   1.7886
B(  7-C , 17-H ) :   0.9239 B(  8-C , 18-H ) :   0.9197

MP2 TOTAL ENERGY:     -422.327591369 Eh
FINAL SINGLE POINT ENERGY      -422.327591368503

DIPOLE MOMENT
-------------
                                X             Y             Z
Electronic contribution:     -0.34681       0.08694       0.09183
Nuclear contribution   :      1.12853      -0.24770      -0.48755
                        -----------------------------------------
Total Dipole Moment    :      0.78171      -0.16076      -0.39572
                        -----------------------------------------
Magnitude (a.u.)       :      0.89079
Magnitude (Debye)      :      2.26421

                             ****ORCA TERMINATED NORMALLY****
TOTAL RUN TIME: 0 days 0 hours 18 minutes 16 seconds 55 msec
