                         Program Version 3.0.3 - RELEASE   -
|  1> ! RI-MP2 RIJK def2-TZVP def2-TZVP/C def2-TZVP/JK TIGHTSCF
|  2> % maxcore 2000
|  3> % mp2 density relaxed end
|  4> *xyz 0 1
|  5>  C       -0.0687518307     1.5231606820     0.1017169437
|  6>  C       -0.0013825923    -0.0011118158    -0.0245690701
|  7>  C        0.7681802461    -0.5001593283    -1.2719706519
|  8>  C        2.2569056472    -0.1025651501    -1.2567685935
|  9>  C        0.6171498995    -1.9826723498    -1.4175157731
| 10>  C        0.0224410842    -2.7803001196    -2.3480544040
| 11>  C        0.2489740775    -4.0937151295    -1.8591260771
| 12>  N        0.9200802351    -4.0975415956    -0.7347349060
| 13>  O        1.1559419797    -2.7518869150    -0.4511591914
| 14>  H        0.9191627439     1.9689561825     0.2502763525
| 15>  H       -0.5092541789     1.9774445836    -0.7932559030
| 16>  H       -0.6881405072     1.8099460606     0.9569306700
| 17>  H        0.4617191701    -0.4334104623     0.8700229604
| 18>  H       -1.0199019694    -0.4044803694    -0.0669384596
| 19>  H        0.2991492808    -0.0571105758    -2.1595359046
| 20>  H        2.7600576753    -0.5211133949    -0.3801605374
| 21>  H        2.7685494439    -0.4757262613    -2.1485991291
| 22>  H        2.3703102750     0.9840137814    -1.2336936872
| 23>  H       -0.4954778591    -2.4775166417    -3.2425852095
| 24>  H       -0.0540973707    -5.0382078807    -2.2892020392
| 25> *
| 26>
| 27>                          ****END OF INPUT****

CARTESIAN COORDINATES (ANGSTROEM)
---------------------------------
  C     -0.068752    1.523161    0.101717
  C     -0.001383   -0.001112   -0.024569
  C      0.768180   -0.500159   -1.271971
  C      2.256906   -0.102565   -1.256769
  C      0.617150   -1.982672   -1.417516
  C      0.022441   -2.780300   -2.348054
  C      0.248974   -4.093715   -1.859126
  N      0.920080   -4.097542   -0.734735
  O      1.155942   -2.751887   -0.451159
  H      0.919163    1.968956    0.250276
  H     -0.509254    1.977445   -0.793256
  H     -0.688141    1.809946    0.956931
  H      0.461719   -0.433410    0.870023
  H     -1.019902   -0.404480   -0.066938
  H      0.299149   -0.057111   -2.159536
  H      2.760058   -0.521113   -0.380161
  H      2.768549   -0.475726   -2.148599
  H      2.370310    0.984014   -1.233694
  H     -0.495478   -2.477517   -3.242585
  H     -0.054097   -5.038208   -2.289202

 Total Charge           Charge          ....    0
 Multiplicity           Mult            ....    1
 Number of Electrons    NEL             ....   68
 Basis Dimension        Dim             ....  345

ORBITAL ENERGIES
----------------

  NO   OCC          E(Eh)            E(eV)
   0   2.0000     -20.635261      -561.5140
   1   2.0000     -15.613962      -424.8775
   2   2.0000     -11.312129      -307.8187
   3   2.0000     -11.275056      -306.8099
   4   2.0000     -11.254070      -306.2388
   5   2.0000     -11.231902      -305.6356
   6   2.0000     -11.229433      -305.5684
   7   2.0000     -11.225074      -305.4498
   8   2.0000     -11.221851      -305.3621
   9   2.0000      -1.485504       -40.4226
  10   2.0000      -1.163151       -31.6510
  11   2.0000      -1.111530       -30.2463
  12   2.0000      -1.049348       -28.5542
  13   2.0000      -0.989883       -26.9361
  14   2.0000      -0.898993       -24.4628
  15   2.0000      -0.826327       -22.4855
  16   2.0000      -0.821285       -22.3483
  17   2.0000      -0.775032       -21.0897
  18   2.0000      -0.696792       -18.9607
  19   2.0000      -0.653827       -17.7915
  20   2.0000      -0.639531       -17.4025
  21   2.0000      -0.615914       -16.7599
  22   2.0000      -0.603096       -16.4111
  23   2.0000      -0.588484       -16.0135
  24   2.0000      -0.560191       -15.2436
  25   2.0000      -0.547669       -14.9028
  26   2.0000      -0.544900       -14.8275
  27   2.0000      -0.521466       -14.1898
  28   2.0000      -0.497042       -13.5252
  29   2.0000      -0.479219       -13.0402
  30   2.0000      -0.477399       -12.9907
  31   2.0000      -0.465053       -12.6547
  32   2.0000      -0.422197       -11.4886
  33   2.0000      -0.352509        -9.5923
  34   0.0000       0.126629         3.4457
  35   0.0000       0.132459         3.6044
  36   0.0000       0.158504         4.3131
  37   0.0000       0.171313         4.6617
  38   0.0000       0.175633         4.7792

MULLIKEN ATOMIC CHARGES
-----------------------
   0 C :   -0.410007
   1 C :   -0.212403
   2 C :   -0.063338
   3 C :   -0.428631
   4 C :    0.203342
   5 C :   -0.221568
   6 C :   -0.081982
   7 N :   -0.131821
   8 O :   -0.119037
   9 H :    0.132796
  10 H :    0.122461
  11 H :    0.140939
  12 H :    0.128505
  13 H :    0.123055
  14 H :    0.097950
  15 H :    0.145078
  16 H :    0.140610
  17 H :    0.137488
  18 H :    0.149338
  19 H :    0.147227
Sum of atomic charges:    0.0000000

LOEWDIN ATOMIC CHARGES
----------------------
   0 C :   -0.317412
   1 C :   -0.262180
   2 C :   -0.250340
   3 C :   -0.279021
   4 C :   -0.251887
   5 C :   -0.177751
   6 C :   -0.274112
   7 N :    0.031481
   8 O :    0.297835
   9 H :    0.120059
  10 H :    0.121388
  11 H :    0.124219
  12 H :    0.142509
  13 H :    0.141854
  14 H :    0.164035
  15 H :    0.129982
  16 H :    0.127717
  17 H :    0.123564
  18 H :    0.147062
  19 H :    0.140997

  Mayer bond orders larger than 0.1
B(  0-C ,  1-C ) :   0.9065 B(  0-C ,  9-H ) :   0.9429 B(  0-C , 10-H ) :   0.9351
B(  0-C , 11-H ) :   0.9409 B(  1-C ,  2-C ) :   0.9255 B(  1-C , 12-H ) :   0.9254
B(  1-C , 13-H ) :   0.9339 B(  2-C ,  3-C ) :   0.9048 B(  2-C ,  4-C ) :   0.9008
B(  2-C , 14-H ) :   0.9362 B(  3-C , 15-H ) :   0.9288 B(  3-C , 16-H ) :   0.9368
B(  3-C , 17-H ) :   0.9380 B(  4-C ,  5-C ) :   1.4887 B(  4-C ,  8-O ) :   1.1098
B(  5-C ,  6-C ) :   1.2404 B(  5-C , 18-H ) :   0.9123 B(  6-C ,  7-N ) :   1.5970
B(  6-C , 19-H ) :   0.9271 B(  7-N ,  8-O ) :   0.8897

MP2 TOTAL ENERGY:     -402.457628022 Eh
FINAL SINGLE POINT ENERGY      -402.457628021979

DIPOLE MOMENT
-------------
                                X             Y             Z
Electronic contribution:      0.10864     -13.06891      -1.43900
Nuclear contribution   :     -0.56013      13.91043       0.69768
                        -----------------------------------------
Total Dipole Moment    :     -0.45150       0.84152      -0.74132
                        -----------------------------------------
Magnitude (a.u.)       :      1.20895
Magnitude (Debye)      :      3.07290

                             ****ORCA TERMINATED NORMALLY****
TOTAL RUN TIME: 0 days 0 hours 19 minutes 9 seconds 323 msec
