                         Program Version 3.0.3 - RELEASE   -
|  1> ! RI-MP2 RIJK def2-TZVP def2-TZVP/C def2-TZVP/JK TIGHTSCF
|  2> % maxcore 2000
|  3> % mp2 density relaxed end
|  4> *xyz 0 1
|  5>  C       -0.0363709127     1.2936268144    -0.2567519674
|  6>  O       -0.0367442581    -0.1014058612    -0.0548009713
|  7>  C       -1.3321253240    -0.6490395270     0.0483817230
|  8>  C       -1.1764309588    -2.1649177306     0.1757602266
|  9>  C       -2.5306066486    -2.9113778348     0.1126507532
| 10>  N       -2.6312554718    -3.2104796040    -1.3065834164
| 11>  C       -1.3748997316    -3.2382578077    -1.9062011197
| 12>  O       -1.1191735976    -3.6161566850    -3.0264416759
| 13>  N       -0.4789213105    -2.7462160446    -0.9626067374
| 14>  H        1.0058778548     1.6125154622    -0.3301032645
| 15>  H       -0.5613114460     1.5698503667    -1.1840173913
| 16>  H       -0.5132815166     1.8253269790     0.5811109952
| 17>  H       -1.8588447453    -0.2471590818     0.9311593599
| 18>  H       -1.9331214573    -0.4055868151    -0.8435402616
| 19>  H       -0.6440159178    -2.3815272249     1.1071063621
| 20>  H       -2.5000724480    -3.8167660573     0.7342600024
| 21>  H       -3.3604727704    -2.2865182337     0.4593751483
| 22>  H       -3.3146696782    -3.8641769956    -1.6535197956
| 23>  H        0.3470174686    -2.2815948490    -1.3081317293
| 24> *
| 25>
| 26>                          ****END OF INPUT****

CARTESIAN COORDINATES (ANGSTROEM)
---------------------------------
  C     -0.036371    1.293627   -0.256752
  O     -0.036744   -0.101406   -0.054801
  C     -1.332125   -0.649040    0.048382
  C     -1.176431   -2.164918    0.175760
  C     -2.530607   -2.911378    0.112651
  N     -2.631255   -3.210480   -1.306583
  C     -1.374900   -3.238258   -1.906201
  O     -1.119174   -3.616157   -3.026442
  N     -0.478921   -2.746216   -0.962607
  H      1.005878    1.612515   -0.330103
  H     -0.561311    1.569850   -1.184017
  H     -0.513282    1.825327    0.581111
  H     -1.858845   -0.247159    0.931159
  H     -1.933121   -0.405587   -0.843540
  H     -0.644016   -2.381527    1.107106
  H     -2.500072   -3.816766    0.734260
  H     -3.360473   -2.286518    0.459375
  H     -3.314670   -3.864177   -1.653520
  H      0.347017   -2.281595   -1.308132

 Total Charge           Charge          ....    0
 Multiplicity           Mult            ....    1
 Number of Electrons    NEL             ....   70
 Basis Dimension        Dim             ....  339

ORBITAL ENERGIES
----------------

  NO   OCC          E(Eh)            E(eV)
   0   2.0000     -20.571387      -559.7759
   1   2.0000     -20.506654      -558.0144
   2   2.0000     -15.577700      -423.8908
   3   2.0000     -15.571990      -423.7354
   4   2.0000     -11.365700      -309.2764
   5   2.0000     -11.289650      -307.2070
   6   2.0000     -11.282541      -307.0136
   7   2.0000     -11.282195      -307.0041
   8   2.0000     -11.281773      -306.9927
   9   2.0000      -1.394946       -37.9584
  10   2.0000      -1.387166       -37.7467
  11   2.0000      -1.280116       -34.8337
  12   2.0000      -1.179070       -32.0841
  13   2.0000      -1.044097       -28.4113
  14   2.0000      -0.963073       -26.2065
  15   2.0000      -0.892816       -24.2947
  16   2.0000      -0.832447       -22.6520
  17   2.0000      -0.822430       -22.3795
  18   2.0000      -0.713028       -19.4025
  19   2.0000      -0.689481       -18.7617
  20   2.0000      -0.673154       -18.3174
  21   2.0000      -0.662923       -18.0391
  22   2.0000      -0.652427       -17.7535
  23   2.0000      -0.619824       -16.8663
  24   2.0000      -0.605298       -16.4710
  25   2.0000      -0.596233       -16.2243
  26   2.0000      -0.566220       -15.4076
  27   2.0000      -0.552541       -15.0354
  28   2.0000      -0.534560       -14.5461
  29   2.0000      -0.519441       -14.1347
  30   2.0000      -0.499351       -13.5880
  31   2.0000      -0.441560       -12.0155
  32   2.0000      -0.431079       -11.7303
  33   2.0000      -0.401840       -10.9346
  34   2.0000      -0.393733       -10.7140
  35   0.0000       0.128052         3.4845
  36   0.0000       0.142933         3.8894
  37   0.0000       0.157540         4.2869
  38   0.0000       0.169581         4.6145
  39   0.0000       0.178958         4.8697

MULLIKEN ATOMIC CHARGES
-----------------------
   0 C :   -0.216641
   1 O :   -0.317941
   2 C :   -0.146248
   3 C :    0.128389
   4 C :   -0.134225
   5 N :   -0.363171
   6 C :    0.291528
   7 O :   -0.356529
   8 N :   -0.342657
   9 H :    0.142842
  10 H :    0.119569
  11 H :    0.114047
  12 H :    0.096939
  13 H :    0.122898
  14 H :    0.116854
  15 H :    0.125155
  16 H :    0.126101
  17 H :    0.239973
  18 H :    0.253118
Sum of atomic charges:   -0.0000000

LOEWDIN ATOMIC CHARGES
----------------------
   0 C :   -0.356130
   1 O :    0.132160
   2 C :   -0.314665
   3 C :   -0.276566
   4 C :   -0.247546
   5 N :    0.074829
   6 C :   -0.541214
   7 O :    0.064522
   8 N :    0.110181
   9 H :    0.114985
  10 H :    0.104085
  11 H :    0.102847
  12 H :    0.122453
  13 H :    0.128824
  14 H :    0.148728
  15 H :    0.128560
  16 H :    0.132566
  17 H :    0.182877
  18 H :    0.188505

  Mayer bond orders larger than 0.1
B(  0-C ,  1-O ) :   0.9101 B(  0-C ,  9-H ) :   0.9383 B(  0-C , 10-H ) :   0.9364
B(  0-C , 11-H ) :   0.9378 B(  1-O ,  2-C ) :   0.9356 B(  2-C ,  3-C ) :   0.9321
B(  2-C , 12-H ) :   0.9251 B(  2-C , 13-H ) :   0.9179 B(  3-C ,  4-C ) :   0.8922
B(  3-C ,  8-N ) :   0.8891 B(  3-C , 14-H ) :   0.9254 B(  4-C ,  5-N ) :   0.9073
B(  4-C , 15-H ) :   0.9222 B(  4-C , 16-H ) :   0.9330 B(  5-N ,  6-C ) :   1.0811
B(  5-N , 17-H ) :   0.8729 B(  6-C ,  7-O ) :   2.0175 B(  6-C ,  8-N ) :   1.1084
B(  8-N , 18-H ) :   0.8643

MP2 TOTAL ENERGY:     -455.651534297 Eh
FINAL SINGLE POINT ENERGY      -455.651534296776

DIPOLE MOMENT
-------------
                                X             Y             Z
Electronic contribution:      0.74781      -7.11406      -4.60726
Nuclear contribution   :     -1.46789       8.03788       6.09677
                        -----------------------------------------
Total Dipole Moment    :     -0.72008       0.92382       1.48951
                        -----------------------------------------
Magnitude (a.u.)       :      1.89488
Magnitude (Debye)      :      4.81641

                             ****ORCA TERMINATED NORMALLY****
TOTAL RUN TIME: 0 days 0 hours 15 minutes 52 seconds 74 msec
