                         Program Version 3.0.3 - RELEASE   -
|  1> ! RI-MP2 RIJK def2-TZVP def2-TZVP/C def2-TZVP/JK TIGHTSCF
|  2> % maxcore 2000
|  3> % mp2 density relaxed end
|  4> *xyz 0 1
|  5>  N        0.1560389439     1.2391267345    -0.1543980826
|  6>  C        0.0869262302     0.0038335773     0.0402570771
|  7>  O        1.0584217148    -0.9158368756     0.3746845512
|  8>  C        0.0776741916    -1.9999968306     0.4258329740
|  9>  C       -1.0441628065    -1.0145322359     0.0231384691
| 10>  C       -2.1667170416    -0.7842758601     0.9969693223
| 11>  C       -3.4546192800    -0.2304566086     0.5687843719
| 12>  O       -3.3125237772    -1.6256504515     0.8490870845
| 13>  H        1.1113741128     1.5832105648    -0.0423204081
| 14>  H        0.3199170762    -2.7836479012    -0.2946370581
| 15>  H        0.0072802989    -2.4154183049     1.4343566617
| 16>  H       -1.4492254571    -1.1907474073    -0.9758760584
| 17>  H       -1.8589817480    -0.6239764714     2.0315515703
| 18>  H       -4.0596656575     0.3315230044     1.2777059816
| 19>  H       -3.6058456006     0.0248442062    -0.4786895564
| 20> *
| 21>
| 22>                          ****END OF INPUT****

CARTESIAN COORDINATES (ANGSTROEM)
---------------------------------
  N      0.156039    1.239127   -0.154398
  C      0.086926    0.003834    0.040257
  O      1.058422   -0.915837    0.374685
  C      0.077674   -1.999997    0.425833
  C     -1.044163   -1.014532    0.023138
  C     -2.166717   -0.784276    0.996969
  C     -3.454619   -0.230457    0.568784
  O     -3.312524   -1.625650    0.849087
  H      1.111374    1.583211   -0.042320
  H      0.319917   -2.783648   -0.294637
  H      0.007280   -2.415418    1.434357
  H     -1.449225   -1.190747   -0.975876
  H     -1.858982   -0.623976    2.031552
  H     -4.059666    0.331523    1.277706
  H     -3.605846    0.024844   -0.478690

 Total Charge           Charge          ....    0
 Multiplicity           Mult            ....    1
 Number of Electrons    NEL             ....   60
 Basis Dimension        Dim             ....  290

ORBITAL ENERGIES
----------------

  NO   OCC          E(Eh)            E(eV)
   0   2.0000     -20.599287      -560.5351
   1   2.0000     -20.580860      -560.0337
   2   2.0000     -15.545603      -423.0174
   3   2.0000     -11.348356      -308.8045
   4   2.0000     -11.309380      -307.7439
   5   2.0000     -11.305486      -307.6379
   6   2.0000     -11.293954      -307.3241
   7   2.0000     -11.267556      -306.6058
   8   2.0000      -1.442068       -39.2407
   9   2.0000      -1.424016       -38.7495
  10   2.0000      -1.205548       -32.8046
  11   2.0000      -1.073363       -29.2077
  12   2.0000      -0.942954       -25.6591
  13   2.0000      -0.906328       -24.6624
  14   2.0000      -0.860285       -23.4095
  15   2.0000      -0.767156       -20.8754
  16   2.0000      -0.714399       -19.4398
  17   2.0000      -0.703213       -19.1354
  18   2.0000      -0.684143       -18.6165
  19   2.0000      -0.671270       -18.2662
  20   2.0000      -0.629295       -17.1240
  21   2.0000      -0.573832       -15.6148
  22   2.0000      -0.543785       -14.7971
  23   2.0000      -0.540206       -14.6998
  24   2.0000      -0.534245       -14.5376
  25   2.0000      -0.513192       -13.9647
  26   2.0000      -0.464700       -12.6451
  27   2.0000      -0.448729       -12.2106
  28   2.0000      -0.441241       -12.0068
  29   2.0000      -0.410558       -11.1719
  30   0.0000       0.138994         3.7822
  31   0.0000       0.151799         4.1306
  32   0.0000       0.159356         4.3363
  33   0.0000       0.170806         4.6479
  34   0.0000       0.180863         4.9215

MULLIKEN ATOMIC CHARGES
-----------------------
   0 N :   -0.368568
   1 C :    0.093403
   2 O :   -0.262422
   3 C :   -0.030867
   4 C :   -0.034262
   5 C :    0.010699
   6 C :   -0.077440
   7 O :   -0.331694
   8 H :    0.231855
   9 H :    0.122718
  10 H :    0.122000
  11 H :    0.139132
  12 H :    0.137891
  13 H :    0.124324
  14 H :    0.123231
Sum of atomic charges:   -0.0000000

LOEWDIN ATOMIC CHARGES
----------------------
   0 N :   -0.049400
   1 C :   -0.383616
   2 O :    0.210056
   3 C :   -0.203618
   4 C :   -0.183913
   5 C :   -0.269485
   6 C :   -0.251271
   7 O :    0.145759
   8 H :    0.175196
   9 H :    0.124377
  10 H :    0.126550
  11 H :    0.168649
  12 H :    0.144367
  13 H :    0.122475
  14 H :    0.123875

  Mayer bond orders larger than 0.1
B(  0-N ,  1-C ) :   2.0633 B(  0-N ,  8-H ) :   0.8453 B(  1-C ,  2-O ) :   1.0685
B(  1-C ,  4-C ) :   0.8897 B(  2-O ,  3-C ) :   0.8918 B(  3-C ,  4-C ) :   0.9562
B(  3-C ,  9-H ) :   0.9185 B(  3-C , 10-H ) :   0.9155 B(  4-C ,  5-C ) :   0.9148
B(  4-C , 11-H ) :   0.9008 B(  5-C ,  6-C ) :   0.9907 B(  5-C ,  7-O ) :   0.9012
B(  5-C , 12-H ) :   0.9036 B(  6-C ,  7-O ) :   0.8971 B(  6-C , 13-H ) :   0.9231
B(  6-C , 14-H ) :   0.9092

MP2 TOTAL ENERGY:     -399.112537253 Eh
FINAL SINGLE POINT ENERGY      -399.112537253459

DIPOLE MOMENT
-------------
                                X             Y             Z
Electronic contribution:      1.93075       0.02948      -0.07972
Nuclear contribution   :     -1.88228      -0.31044       0.15593
                        -----------------------------------------
Total Dipole Moment    :      0.04847      -0.28096       0.07621
                        -----------------------------------------
Magnitude (a.u.)       :      0.29512
Magnitude (Debye)      :      0.75014

                             ****ORCA TERMINATED NORMALLY****
TOTAL RUN TIME: 0 days 0 hours 9 minutes 52 seconds 800 msec
