                         Program Version 3.0.3 - RELEASE   -
|  1> ! RI-MP2 RIJK def2-TZVP def2-TZVP/C def2-TZVP/JK TIGHTSCF
|  2> % maxcore 2000
|  3> % mp2 density relaxed end
|  4> *xyz 0 1
|  5>  C        0.0287033087     1.5419512886     0.1009364677
|  6>  C       -0.0180295771     0.0138898097     0.0570643311
|  7>  C        0.6971728498    -0.6267728995     1.2532507227
|  8>  O        0.0144888142    -0.2699337073     2.4623360704
|  9>  C        0.8024962044     0.2115384939     3.4773512753
| 10>  N        0.0214026665     0.4846738673     4.5547809177
| 11>  O        1.9925204714     0.3935546005     3.3980129988
| 12>  C        0.7164785005    -2.0951216236     1.1450924838
| 13>  N        0.7289697121    -3.2448058704     1.0345946230
| 14>  H        1.0602655909     1.9089325162     0.0984762593
| 15>  H       -0.4809020528     1.9635390366    -0.7696445928
| 16>  H       -0.4643037577     1.9247559319     0.9983776013
| 17>  H       -1.0533562534    -0.3425493762     0.0394021961
| 18>  H        0.4623604572    -0.3609004424    -0.8532132768
| 19>  H        1.7296079317    -0.2702564779     1.3288544477
| 20>  H       -0.9140159915     0.1177372225     4.5925354009
| 21>  H        0.4944838755     0.6929032201     5.4167928538
| 22> *
| 23>
| 24>                          ****END OF INPUT****

CARTESIAN COORDINATES (ANGSTROEM)
---------------------------------
  C      0.028703    1.541951    0.100936
  C     -0.018030    0.013890    0.057064
  C      0.697173   -0.626773    1.253251
  O      0.014489   -0.269934    2.462336
  C      0.802496    0.211538    3.477351
  N      0.021403    0.484674    4.554781
  O      1.992520    0.393555    3.398013
  C      0.716479   -2.095122    1.145092
  N      0.728970   -3.244806    1.034595
  H      1.060266    1.908933    0.098476
  H     -0.480902    1.963539   -0.769645
  H     -0.464304    1.924756    0.998378
  H     -1.053356   -0.342549    0.039402
  H      0.462360   -0.360900   -0.853213
  H      1.729608   -0.270256    1.328854
  H     -0.914016    0.117737    4.592535
  H      0.494484    0.692903    5.416793

 Total Charge           Charge          ....    0
 Multiplicity           Mult            ....    1
 Number of Electrons    NEL             ....   68
 Basis Dimension        Dim             ....  327

ORBITAL ENERGIES
----------------

  NO   OCC          E(Eh)            E(eV)
   0   2.0000     -20.626811      -561.2841
   1   2.0000     -20.547523      -559.1265
   2   2.0000     -15.604080      -424.6086
   3   2.0000     -15.579825      -423.9486
   4   2.0000     -11.425118      -310.8933
   5   2.0000     -11.347897      -308.7920
   6   2.0000     -11.277832      -306.8854
   7   2.0000     -11.256587      -306.3073
   8   2.0000     -11.234582      -305.7085
   9   2.0000      -1.486060       -40.4377
  10   2.0000      -1.382337       -37.6153
  11   2.0000      -1.241196       -33.7747
  12   2.0000      -1.223757       -33.3001
  13   2.0000      -1.097245       -29.8576
  14   2.0000      -0.991915       -26.9914
  15   2.0000      -0.866138       -23.5688
  16   2.0000      -0.838364       -22.8131
  17   2.0000      -0.776803       -21.1379
  18   2.0000      -0.754328       -20.5263
  19   2.0000      -0.717164       -19.5150
  20   2.0000      -0.672322       -18.2948
  21   2.0000      -0.656775       -17.8718
  22   2.0000      -0.626590       -17.0504
  23   2.0000      -0.614673       -16.7261
  24   2.0000      -0.573623       -15.6091
  25   2.0000      -0.570055       -15.5120
  26   2.0000      -0.549002       -14.9391
  27   2.0000      -0.524255       -14.2657
  28   2.0000      -0.513056       -13.9610
  29   2.0000      -0.501204       -13.6385
  30   2.0000      -0.481863       -13.1122
  31   2.0000      -0.471918       -12.8415
  32   2.0000      -0.461414       -12.5557
  33   2.0000      -0.449203       -12.2234
  34   0.0000       0.116612         3.1732
  35   0.0000       0.134999         3.6735
  36   0.0000       0.157689         4.2909
  37   0.0000       0.170106         4.6288
  38   0.0000       0.175957         4.7880

MULLIKEN ATOMIC CHARGES
-----------------------
   0 C :   -0.404762
   1 C :   -0.190005
   2 C :    0.164820
   3 O :   -0.295310
   4 C :    0.427364
   5 N :   -0.506923
   6 O :   -0.367380
   7 C :   -0.180549
   8 N :   -0.049469
   9 H :    0.134771
  10 H :    0.145483
  11 H :    0.141725
  12 H :    0.129319
  13 H :    0.132022
  14 H :    0.166629
  15 H :    0.275612
  16 H :    0.276655
Sum of atomic charges:    0.0000000

LOEWDIN ATOMIC CHARGES
----------------------
   0 C :   -0.309411
   1 C :   -0.255313
   2 C :   -0.282923
   3 O :    0.256525
   4 C :   -0.601261
   5 N :   -0.018971
   6 O :    0.084989
   7 C :   -0.160116
   8 N :    0.074090
   9 H :    0.126471
  10 H :    0.126704
  11 H :    0.126055
  12 H :    0.147134
  13 H :    0.150515
  14 H :    0.174359
  15 H :    0.179060
  16 H :    0.182095

  Mayer bond orders larger than 0.1
B(  0-C ,  1-C ) :   0.9169 B(  0-C ,  9-H ) :   0.9336 B(  0-C , 10-H ) :   0.9365
B(  0-C , 11-H ) :   0.9389 B(  1-C ,  2-C ) :   0.9162 B(  1-C , 12-H ) :   0.9220
B(  1-C , 13-H ) :   0.9260 B(  2-C ,  3-O ) :   0.8339 B(  2-C ,  7-C ) :   0.9122
B(  2-C , 14-H ) :   0.9096 B(  3-O ,  4-C ) :   1.0359 B(  4-C ,  5-N ) :   1.1820
B(  4-C ,  6-O ) :   1.9280 B(  5-N , 15-H ) :   0.8597 B(  5-N , 16-H ) :   0.8635
B(  7-C ,  8-N ) :   2.8696

MP2 TOTAL ENERGY:     -454.472980351 Eh
FINAL SINGLE POINT ENERGY      -454.472980350932

DIPOLE MOMENT
-------------
                                X             Y             Z
Electronic contribution:      2.40900      -6.51426       5.13781
Nuclear contribution   :     -3.31835       7.77358      -4.74658
                        -----------------------------------------
Total Dipole Moment    :     -0.90935       1.25931       0.39123
                        -----------------------------------------
Magnitude (a.u.)       :      1.60183
Magnitude (Debye)      :      4.07153

                             ****ORCA TERMINATED NORMALLY****
TOTAL RUN TIME: 0 days 0 hours 14 minutes 15 seconds 716 msec
