                         Program Version 3.0.3 - RELEASE   -
|  1> ! RI-MP2 RIJK def2-TZVP def2-TZVP/C def2-TZVP/JK TIGHTSCF
|  2> % maxcore 2000
|  3> % mp2 density relaxed end
|  4> *xyz 0 1
|  5>  C       -0.0315491941     1.6472452156     0.0528572271
|  6>  C       -0.0386273642     0.1166333632    -0.0487310150
|  7>  C       -1.4847300466    -0.4379073764     0.0134186926
|  8>  C       -2.0996418717    -0.2424638402     1.3227599960
|  9>  N       -2.5667600626    -0.0803517949     2.3677935162
| 10>  C        0.7156468507    -0.4651890653    -1.2834180230
| 11>  C        0.0657009890    -0.0978388858    -2.6210265793
| 12>  C        2.1897933320    -0.0361096848    -1.2728352783
| 13>  O        0.6460310542    -1.8984289288    -1.2267012962
| 14>  H        0.9839366111     2.0448161393     0.1182076059
| 15>  H       -0.5223171648     2.1094069573    -0.8101807402
| 16>  H       -0.5690529181     1.9687224684     0.9499045028
| 17>  H        0.4884618533    -0.2797147696     0.8307621487
| 18>  H       -2.1168632116     0.0491929314    -0.7375304639
| 19>  H       -1.4682914245    -1.5067526716    -0.2182456264
| 20>  H        0.0366847737     0.9846150362    -2.7681167537
| 21>  H        0.6418283694    -0.5396641533    -3.4381300786
| 22>  H       -0.9528004384    -0.4883378046    -2.6883459002
| 23>  H        2.6584825737    -0.2612036908    -0.3069486368
| 24>  H        2.7303045447    -0.5819671788    -2.0509274170
| 25>  H        2.3097500055     1.0339725406    -1.4599699154
| 26>  H        1.1804647492    -2.1927087971    -0.4805286051
| 27> *
| 28>
| 29>                          ****END OF INPUT****

CARTESIAN COORDINATES (ANGSTROEM)
---------------------------------
  C     -0.031549    1.647245    0.052857
  C     -0.038627    0.116633   -0.048731
  C     -1.484730   -0.437907    0.013419
  C     -2.099642   -0.242464    1.322760
  N     -2.566760   -0.080352    2.367794
  C      0.715647   -0.465189   -1.283418
  C      0.065701   -0.097839   -2.621027
  C      2.189793   -0.036110   -1.272835
  O      0.646031   -1.898429   -1.226701
  H      0.983937    2.044816    0.118208
  H     -0.522317    2.109407   -0.810181
  H     -0.569053    1.968722    0.949905
  H      0.488462   -0.279715    0.830762
  H     -2.116863    0.049193   -0.737530
  H     -1.468291   -1.506753   -0.218246
  H      0.036685    0.984615   -2.768117
  H      0.641828   -0.539664   -3.438130
  H     -0.952800   -0.488338   -2.688346
  H      2.658483   -0.261204   -0.306949
  H      2.730305   -0.581967   -2.050927
  H      2.309750    1.033973   -1.459970
  H      1.180465   -2.192709   -0.480529

 Total Charge           Charge          ....    0
 Multiplicity           Mult            ....    1
 Number of Electrons    NEL             ....   70
 Basis Dimension        Dim             ....  357

ORBITAL ENERGIES
----------------

  NO   OCC          E(Eh)            E(eV)
   0   2.0000     -20.567003      -559.6566
   1   2.0000     -15.563352      -423.5003
   2   2.0000     -11.305539      -307.6394
   3   2.0000     -11.273000      -306.7539
   4   2.0000     -11.268786      -306.6393
   5   2.0000     -11.258764      -306.3665
   6   2.0000     -11.231668      -305.6292
   7   2.0000     -11.231592      -305.6272
   8   2.0000     -11.226748      -305.4954
   9   2.0000      -1.376200       -37.4483
  10   2.0000      -1.214398       -33.0454
  11   2.0000      -1.118280       -30.4299
  12   2.0000      -1.043387       -28.3920
  13   2.0000      -0.980132       -26.6707
  14   2.0000      -0.953943       -25.9581
  15   2.0000      -0.874905       -23.8074
  16   2.0000      -0.775191       -21.0940
  17   2.0000      -0.707155       -19.2427
  18   2.0000      -0.688260       -18.7285
  19   2.0000      -0.657415       -17.8892
  20   2.0000      -0.633282       -17.2325
  21   2.0000      -0.619413       -16.8551
  22   2.0000      -0.601757       -16.3746
  23   2.0000      -0.566738       -15.4217
  24   2.0000      -0.557303       -15.1650
  25   2.0000      -0.550986       -14.9931
  26   2.0000      -0.546199       -14.8628
  27   2.0000      -0.544448       -14.8152
  28   2.0000      -0.524824       -14.2812
  29   2.0000      -0.519221       -14.1287
  30   2.0000      -0.505237       -13.7482
  31   2.0000      -0.478107       -13.0100
  32   2.0000      -0.457543       -12.4504
  33   2.0000      -0.450619       -12.2620
  34   2.0000      -0.435130       -11.8405
  35   0.0000       0.113357         3.0846
  36   0.0000       0.140432         3.8214
  37   0.0000       0.153620         4.1802
  38   0.0000       0.166637         4.5344
  39   0.0000       0.173485         4.7208

MULLIKEN ATOMIC CHARGES
-----------------------
   0 C :   -0.467464
   1 C :   -0.097229
   2 C :   -0.139428
   3 C :   -0.201600
   4 N :   -0.055561
   5 C :    0.265118
   6 C :   -0.438943
   7 C :   -0.435269
   8 O :   -0.469603
   9 H :    0.144026
  10 H :    0.132386
  11 H :    0.165326
  12 H :    0.104159
  13 H :    0.154643
  14 H :    0.180779
  15 H :    0.133381
  16 H :    0.143958
  17 H :    0.145972
  18 H :    0.129736
  19 H :    0.153158
  20 H :    0.138112
  21 H :    0.314343
Sum of atomic charges:   -0.0000000

LOEWDIN ATOMIC CHARGES
----------------------
   0 C :   -0.281726
   1 C :   -0.238657
   2 C :   -0.226064
   3 C :   -0.196700
   4 N :    0.050109
   5 C :   -0.400543
   6 C :   -0.265110
   7 C :   -0.278232
   8 O :    0.005243
   9 H :    0.126346
  10 H :    0.125563
  11 H :    0.135055
  12 H :    0.159951
  13 H :    0.164600
  14 H :    0.170501
  15 H :    0.127764
  16 H :    0.132779
  17 H :    0.128963
  18 H :    0.125172
  19 H :    0.131201
  20 H :    0.128658
  21 H :    0.175126

  Mayer bond orders larger than 0.1
B(  0-C ,  1-C ) :   0.9098 B(  0-C ,  9-H ) :   0.9394 B(  0-C , 10-H ) :   0.9298
B(  0-C , 11-H ) :   0.9312 B(  1-C ,  2-C ) :   0.8780 B(  1-C ,  5-C ) :   0.8969
B(  1-C , 12-H ) :   0.9220 B(  2-C ,  3-C ) :   0.9398 B(  2-C , 13-H ) :   0.8995
B(  2-C , 14-H ) :   0.9027 B(  3-C ,  4-N ) :   2.8937 B(  5-C ,  6-C ) :   0.8666
B(  5-C ,  7-C ) :   0.9245 B(  5-C ,  8-O ) :   0.8924 B(  6-C , 15-H ) :   0.9342
B(  6-C , 16-H ) :   0.9347 B(  6-C , 17-H ) :   0.9409 B(  7-C , 18-H ) :   0.9215
B(  7-C , 19-H ) :   0.9420 B(  7-C , 20-H ) :   0.9322 B(  8-O , 21-H ) :   0.8407

MP2 TOTAL ENERGY:     -403.694968473 Eh
FINAL SINGLE POINT ENERGY      -403.694968473466

DIPOLE MOMENT
-------------
                                X             Y             Z
Electronic contribution:     -6.61281      -4.18653       6.77717
Nuclear contribution   :      7.78822       4.40726      -7.86712
                        -----------------------------------------
Total Dipole Moment    :      1.17540       0.22073      -1.08994
                        -----------------------------------------
Magnitude (a.u.)       :      1.61811
Magnitude (Debye)      :      4.11290

                             ****ORCA TERMINATED NORMALLY****
TOTAL RUN TIME: 0 days 0 hours 21 minutes 41 seconds 333 msec
