                         Program Version 3.0.3 - RELEASE   -
|  1> ! RI-MP2 RIJK def2-TZVP def2-TZVP/C def2-TZVP/JK TIGHTSCF
|  2> % maxcore 2000
|  3> % mp2 density relaxed end
|  4> *xyz 0 1
|  5>  C        0.0614022618     1.5307038154     0.0099098211
|  6>  C       -0.0242972105     0.0443412496     0.0122470729
|  7>  C       -1.0807888477    -0.7898276433    -0.0484751553
|  8>  C       -0.5936419817    -2.2126835298    -0.0112112497
|  9>  O        0.8331056539    -2.1051546988     0.0760152674
| 10>  C        1.1958352242    -0.7879770987     0.0915773539
| 11>  N        2.3789112282    -0.3413399001     0.1620693450
| 12>  C       -2.5041993175    -0.4695917787    -0.1376893507
| 13>  O       -3.3677730368    -1.3200770950    -0.1864548763
| 14>  H        0.6796055122     1.8648267329    -0.8297674814
| 15>  H       -0.9165950958     2.0100870621    -0.0529438596
| 16>  H        0.5718046075     1.8737877816     0.9158109613
| 17>  H       -0.9696943494    -2.7668549937     0.8561958843
| 18>  H       -0.8608805665    -2.7759205642    -0.9124681713
| 19>  H        3.0562010978    -1.1039310618     0.2076453628
| 20>  H       -2.7590095396     0.6097520227    -0.1589033543
| 21> *
| 22>
| 23>                          ****END OF INPUT****

CARTESIAN COORDINATES (ANGSTROEM)
---------------------------------
  C      0.061402    1.530704    0.009910
  C     -0.024297    0.044341    0.012247
  C     -1.080789   -0.789828   -0.048475
  C     -0.593642   -2.212684   -0.011211
  O      0.833106   -2.105155    0.076015
  C      1.195835   -0.787977    0.091577
  N      2.378911   -0.341340    0.162069
  C     -2.504199   -0.469592   -0.137689
  O     -3.367773   -1.320077   -0.186455
  H      0.679606    1.864827   -0.829767
  H     -0.916595    2.010087   -0.052944
  H      0.571805    1.873788    0.915811
  H     -0.969694   -2.766855    0.856196
  H     -0.860881   -2.775921   -0.912468
  H      3.056201   -1.103931    0.207645
  H     -2.759010    0.609752   -0.158903

 Total Charge           Charge          ....    0
 Multiplicity           Mult            ....    1
 Number of Electrons    NEL             ....   66
 Basis Dimension        Dim             ....  321

ORBITAL ENERGIES
----------------

  NO   OCC          E(Eh)            E(eV)
   0   2.0000     -20.606563      -560.7331
   1   2.0000     -20.574627      -559.8641
   2   2.0000     -15.548681      -423.1011
   3   2.0000     -11.353228      -308.9370
   4   2.0000     -11.352078      -308.9057
   5   2.0000     -11.309877      -307.7574
   6   2.0000     -11.290427      -307.2282
   7   2.0000     -11.271579      -306.7153
   8   2.0000     -11.250970      -306.1545
   9   2.0000      -1.446104       -39.3505
  10   2.0000      -1.409596       -38.3571
  11   2.0000      -1.210636       -32.9431
  12   2.0000      -1.141987       -31.0750
  13   2.0000      -1.020568       -27.7711
  14   2.0000      -0.949269       -25.8309
  15   2.0000      -0.918671       -24.9983
  16   2.0000      -0.786951       -21.4140
  17   2.0000      -0.768946       -20.9241
  18   2.0000      -0.712954       -19.4005
  19   2.0000      -0.689979       -18.7753
  20   2.0000      -0.677207       -18.4277
  21   2.0000      -0.655273       -17.8309
  22   2.0000      -0.630608       -17.1597
  23   2.0000      -0.596629       -16.2351
  24   2.0000      -0.586609       -15.9624
  25   2.0000      -0.562784       -15.3141
  26   2.0000      -0.555113       -15.1054
  27   2.0000      -0.535949       -14.5839
  28   2.0000      -0.525416       -14.2973
  29   2.0000      -0.459259       -12.4971
  30   2.0000      -0.447365       -12.1734
  31   2.0000      -0.437108       -11.8943
  32   2.0000      -0.372298       -10.1308
  33   0.0000       0.045504         1.2382
  34   0.0000       0.133385         3.6296
  35   0.0000       0.151168         4.1135
  36   0.0000       0.165196         4.4952
  37   0.0000       0.174731         4.7547

MULLIKEN ATOMIC CHARGES
-----------------------
   0 C :   -0.367290
   1 C :    0.070195
   2 C :   -0.056459
   3 C :    0.014077
   4 O :   -0.260745
   5 C :    0.127436
   6 N :   -0.384461
   7 C :    0.081432
   8 O :   -0.277236
   9 H :    0.163594
  10 H :    0.133677
  11 H :    0.163580
  12 H :    0.137926
  13 H :    0.137926
  14 H :    0.227722
  15 H :    0.088627
Sum of atomic charges:   -0.0000000

LOEWDIN ATOMIC CHARGES
----------------------
   0 C :   -0.248862
   1 C :   -0.096821
   2 C :   -0.140594
   3 C :   -0.213995
   4 O :    0.247157
   5 C :   -0.371302
   6 N :   -0.047311
   7 C :   -0.263850
   8 O :    0.136288
   9 H :    0.147710
  10 H :    0.128215
  11 H :    0.147709
  12 H :    0.142351
  13 H :    0.142352
  14 H :    0.170621
  15 H :    0.120332

  Mayer bond orders larger than 0.1
B(  0-C ,  1-C ) :   0.8959 B(  0-C ,  9-H ) :   0.9190 B(  0-C , 10-H ) :   0.9492
B(  0-C , 11-H ) :   0.9190 B(  1-C ,  2-C ) :   1.5751 B(  1-C ,  5-C ) :   0.9751
B(  2-C ,  3-C ) :   0.9993 B(  2-C ,  7-C ) :   0.8791 B(  3-C ,  4-O ) :   0.8861
B(  3-C , 12-H ) :   0.9044 B(  3-C , 13-H ) :   0.9044 B(  4-O ,  5-C ) :   1.1042
B(  5-C ,  6-N ) :   2.0208 B(  6-N , 14-H ) :   0.8551 B(  7-C ,  8-O ) :   1.9632
B(  7-C , 15-H ) :   0.9817

MP2 TOTAL ENERGY:     -437.194284206 Eh
FINAL SINGLE POINT ENERGY      -437.194284205939

DIPOLE MOMENT
-------------
                                X             Y             Z
Electronic contribution:     -1.19265      -4.18862      -0.05193
Nuclear contribution   :      1.16328       4.53784       0.04835
                        -----------------------------------------
Total Dipole Moment    :     -0.02936       0.34922      -0.00359
                        -----------------------------------------
Magnitude (a.u.)       :      0.35047
Magnitude (Debye)      :      0.89083

                             ****ORCA TERMINATED NORMALLY****
TOTAL RUN TIME: 0 days 0 hours 14 minutes 16 seconds 294 msec
