                         Program Version 3.0.3 - RELEASE   -
|  1> ! RI-MP2 RIJK def2-TZVP def2-TZVP/C def2-TZVP/JK TIGHTSCF
|  2> % maxcore 2000
|  3> % mp2 density relaxed end
|  4> *xyz 0 1
|  5>  C       -0.0416709589     1.5505919317     0.0702323227
|  6>  C        0.0115189128     0.0225515596     0.0094191503
|  7>  C        1.1083729104    -0.6303889071    -0.9389416190
|  8>  C        1.7403262875    -1.2693789836     0.3007359581
|  9>  O        2.0731944643    -0.2041825354     1.2039721325
| 10>  C        0.7356042866    -0.6854933795     1.1973982086
| 11>  C       -1.3061880059    -0.5570768734    -0.2249682073
| 12>  N       -2.3511753941    -1.0223636161    -0.3950318622
| 13>  H        0.9515780784     1.9291866415     0.3199516265
| 14>  H       -0.3490047307     1.9662283177    -0.8933941256
| 15>  H       -0.7524126928     1.8885418839     0.8297442535
| 16>  H        0.6781254256    -1.3508705369    -1.6357747682
| 17>  H        1.7409009497     0.0805732690    -1.4746019085
| 18>  H        2.3110211999    -2.1858488334     0.3822786674
| 19>  H        0.3018803974    -1.0243650280     2.1305819812
| 20> *
| 21>
| 22>                          ****END OF INPUT****

CARTESIAN COORDINATES (ANGSTROEM)
---------------------------------
  C     -0.041671    1.550592    0.070232
  C      0.011519    0.022552    0.009419
  C      1.108373   -0.630389   -0.938942
  C      1.740326   -1.269379    0.300736
  O      2.073194   -0.204183    1.203972
  C      0.735604   -0.685493    1.197398
  C     -1.306188   -0.557077   -0.224968
  N     -2.351175   -1.022364   -0.395032
  H      0.951578    1.929187    0.319952
  H     -0.349005    1.966228   -0.893394
  H     -0.752413    1.888542    0.829744
  H      0.678125   -1.350871   -1.635775
  H      1.740901    0.080573   -1.474602
  H      2.311021   -2.185849    0.382279
  H      0.301880   -1.024365    2.130582

 Total Charge           Charge          ....    0
 Multiplicity           Mult            ....    1
 Number of Electrons    NEL             ....   58
 Basis Dimension        Dim             ....  290

ORBITAL ENERGIES
----------------

  NO   OCC          E(Eh)            E(eV)
   0   2.0000     -20.593033      -560.3649
   1   2.0000     -15.575090      -423.8197
   2   2.0000     -11.315154      -307.9010
   3   2.0000     -11.311088      -307.7904
   4   2.0000     -11.303001      -307.5703
   5   2.0000     -11.276517      -306.8496
   6   2.0000     -11.265092      -306.5387
   7   2.0000     -11.242235      -305.9168
   8   2.0000      -1.446939       -39.3732
   9   2.0000      -1.225936       -33.3594
  10   2.0000      -1.134813       -30.8798
  11   2.0000      -1.010063       -27.4852
  12   2.0000      -0.925927       -25.1957
  13   2.0000      -0.882249       -24.0072
  14   2.0000      -0.817410       -22.2429
  15   2.0000      -0.754710       -20.5367
  16   2.0000      -0.671894       -18.2832
  17   2.0000      -0.643761       -17.5176
  18   2.0000      -0.618765       -16.8374
  19   2.0000      -0.597493       -16.2586
  20   2.0000      -0.577882       -15.7250
  21   2.0000      -0.570107       -15.5134
  22   2.0000      -0.537754       -14.6330
  23   2.0000      -0.524835       -14.2815
  24   2.0000      -0.514579       -14.0024
  25   2.0000      -0.496541       -13.5116
  26   2.0000      -0.462456       -12.5841
  27   2.0000      -0.438096       -11.9212
  28   2.0000      -0.426531       -11.6065
  29   0.0000       0.129187         3.5153
  30   0.0000       0.147575         4.0157
  31   0.0000       0.149966         4.0808
  32   0.0000       0.171170         4.6578
  33   0.0000       0.184655         5.0247

MULLIKEN ATOMIC CHARGES
-----------------------
   0 C :   -0.436266
   1 C :    0.311512
   2 C :   -0.216405
   3 C :   -0.066095
   4 O :   -0.314791
   5 C :    0.009177
   6 C :   -0.288826
   7 N :   -0.049747
   8 H :    0.162408
   9 H :    0.147130
  10 H :    0.146327
  11 H :    0.154336
  12 H :    0.130373
  13 H :    0.148867
  14 H :    0.161999
Sum of atomic charges:   -0.0000000

LOEWDIN ATOMIC CHARGES
----------------------
   0 C :   -0.246543
   1 C :   -0.241362
   2 C :   -0.151925
   3 C :   -0.230140
   4 O :    0.188866
   5 C :   -0.198288
   6 C :   -0.152890
   7 N :    0.067557
   8 H :    0.136465
   9 H :    0.133514
  10 H :    0.134132
  11 H :    0.147802
  12 H :    0.139704
  13 H :    0.133968
  14 H :    0.139142

  Mayer bond orders larger than 0.1
B(  0-C ,  1-C ) :   0.8891 B(  0-C ,  8-H ) :   0.9319 B(  0-C ,  9-H ) :   0.9302
B(  0-C , 10-H ) :   0.9309 B(  1-C ,  2-C ) :   0.8814 B(  1-C ,  5-C ) :   0.8160
B(  1-C ,  6-C ) :   0.9016 B(  2-C ,  3-C ) :   0.9319 B(  2-C , 11-H ) :   0.9082
B(  2-C , 12-H ) :   0.9015 B(  3-C ,  4-O ) :   0.9327 B(  3-C ,  5-C ) :   0.9292
B(  3-C , 13-H ) :   0.9281 B(  4-O ,  5-C ) :   0.8986 B(  5-C , 14-H ) :   0.9088
B(  6-C ,  7-N ) :   2.8729

MP2 TOTAL ENERGY:     -362.016037991 Eh
FINAL SINGLE POINT ENERGY      -362.016037991383

DIPOLE MOMENT
-------------
                                X             Y             Z
Electronic contribution:     -1.68665      -3.18396       1.33835
Nuclear contribution   :      2.65678       3.33428      -1.41257
                        -----------------------------------------
Total Dipole Moment    :      0.97013       0.15032      -0.07422
                        -----------------------------------------
Magnitude (a.u.)       :      0.98451
Magnitude (Debye)      :      2.50242

                             ****ORCA TERMINATED NORMALLY****
TOTAL RUN TIME: 0 days 0 hours 12 minutes 4 seconds 226 msec
