                         Program Version 3.0.3 - RELEASE   -
|  1> ! RI-MP2 RIJK def2-TZVP def2-TZVP/C def2-TZVP/JK TIGHTSCF
|  2> % maxcore 2000
|  3> % mp2 density relaxed end
|  4> *xyz 0 1
|  5>  C        0.1519337162     1.5559681745     0.0648679724
|  6>  C        0.0873714472     0.0448312278    -0.0359361126
|  7>  C        0.8126299430    -0.5869706109    -1.2463350679
|  8>  C        1.2915043739    -1.9325683101    -0.7072579511
|  9>  C        2.5101554970    -1.9562939845     0.1798364510
| 10>  C        1.1358355348    -1.8259075620     0.8008409273
| 11>  O        0.7396790769    -0.5228005427     1.1220672017
| 12>  C        0.5684202347    -2.8750797761     1.6055074493
| 13>  N        0.1218792855    -3.7267289921     2.2485015948
| 14>  H        1.1917315993     1.8967292471     0.0798701318
| 15>  H       -0.3534826670     2.0131782195    -0.7913536442
| 16>  H       -0.3388527274     1.9024093524     0.9780691798
| 17>  H       -0.9623363061    -0.2861197430    -0.0344512396
| 18>  H        0.1397898643    -0.7086806625    -2.0986666264
| 19>  H        1.6513945320     0.0403615129    -1.5677073764
| 20>  H        1.0105468342    -2.8455673398    -1.2167036869
| 21>  H        3.0295349189    -2.9010366303     0.2961844071
| 22>  H        3.1302729426    -1.0684294903     0.2416339597
| 23> *
| 24>
| 25>                          ****END OF INPUT****

CARTESIAN COORDINATES (ANGSTROEM)
---------------------------------
  C      0.151934    1.555968    0.064868
  C      0.087371    0.044831   -0.035936
  C      0.812630   -0.586971   -1.246335
  C      1.291504   -1.932568   -0.707258
  C      2.510155   -1.956294    0.179836
  C      1.135836   -1.825908    0.800841
  O      0.739679   -0.522801    1.122067
  C      0.568420   -2.875080    1.605507
  N      0.121879   -3.726729    2.248502
  H      1.191732    1.896729    0.079870
  H     -0.353483    2.013178   -0.791354
  H     -0.338853    1.902409    0.978069
  H     -0.962336   -0.286120   -0.034451
  H      0.139790   -0.708681   -2.098667
  H      1.651395    0.040362   -1.567707
  H      1.010547   -2.845567   -1.216704
  H      3.029535   -2.901037    0.296184
  H      3.130273   -1.068429    0.241634

 Total Charge           Charge          ....    0
 Multiplicity           Mult            ....    1
 Number of Electrons    NEL             ....   66
 Basis Dimension        Dim             ....  333

ORBITAL ENERGIES
----------------

  NO   OCC          E(Eh)            E(eV)
   0   2.0000     -20.581727      -560.0573
   1   2.0000     -15.570519      -423.6954
   2   2.0000     -11.334226      -308.4200
   3   2.0000     -11.301401      -307.5268
   4   2.0000     -11.273439      -306.7659
   5   2.0000     -11.268523      -306.6321
   6   2.0000     -11.261597      -306.4436
   7   2.0000     -11.250941      -306.1537
   8   2.0000     -11.230307      -305.5922
   9   2.0000      -1.414820       -38.4992
  10   2.0000      -1.217848       -33.1393
  11   2.0000      -1.165957       -31.7273
  12   2.0000      -1.075884       -29.2763
  13   2.0000      -0.972616       -26.4662
  14   2.0000      -0.903238       -24.5783
  15   2.0000      -0.829539       -22.5729
  16   2.0000      -0.820424       -22.3249
  17   2.0000      -0.751031       -20.4366
  18   2.0000      -0.692188       -18.8354
  19   2.0000      -0.645098       -17.5540
  20   2.0000      -0.624077       -16.9820
  21   2.0000      -0.609629       -16.5889
  22   2.0000      -0.589884       -16.0515
  23   2.0000      -0.563347       -15.3294
  24   2.0000      -0.553482       -15.0610
  25   2.0000      -0.546568       -14.8729
  26   2.0000      -0.535398       -14.5689
  27   2.0000      -0.510377       -13.8881
  28   2.0000      -0.494405       -13.4534
  29   2.0000      -0.479276       -13.0418
  30   2.0000      -0.457789       -12.4571
  31   2.0000      -0.444870       -12.1055
  32   2.0000      -0.396000       -10.7757
  33   0.0000       0.124291         3.3821
  34   0.0000       0.140407         3.8207
  35   0.0000       0.150341         4.0910
  36   0.0000       0.165527         4.5042
  37   0.0000       0.172953         4.7063

MULLIKEN ATOMIC CHARGES
-----------------------
   0 C :   -0.384160
   1 C :    0.069432
   2 C :   -0.249071
   3 C :   -0.108443
   4 C :   -0.293844
   5 C :    0.347306
   6 O :   -0.294837
   7 C :   -0.248534
   8 N :   -0.049175
   9 H :    0.127385
  10 H :    0.131027
  11 H :    0.149395
  12 H :    0.088676
  13 H :    0.136889
  14 H :    0.123694
  15 H :    0.155633
  16 H :    0.152338
  17 H :    0.146289
Sum of atomic charges:    0.0000000

LOEWDIN ATOMIC CHARGES
----------------------
   0 C :   -0.290246
   1 C :   -0.303577
   2 C :   -0.208640
   3 C :   -0.158005
   4 C :   -0.152277
   5 C :   -0.309789
   6 O :    0.237286
   7 C :   -0.146215
   8 N :    0.071144
   9 H :    0.126613
  10 H :    0.130411
  11 H :    0.131167
  12 H :    0.140847
  13 H :    0.144647
  14 H :    0.143470
  15 H :    0.153352
  16 H :    0.145264
  17 H :    0.144548

  Mayer bond orders larger than 0.1
B(  0-C ,  1-C ) :   0.9171 B(  0-C ,  9-H ) :   0.9342 B(  0-C , 10-H ) :   0.9296
B(  0-C , 11-H ) :   0.9365 B(  1-C ,  2-C ) :   0.9600 B(  1-C ,  6-O ) :   0.9173
B(  1-C , 12-H ) :   0.9237 B(  2-C ,  3-C ) :   0.9231 B(  2-C , 13-H ) :   0.9201
B(  2-C , 14-H ) :   0.9134 B(  3-C ,  4-C ) :   0.9068 B(  3-C ,  5-C ) :   0.8055
B(  3-C , 15-H ) :   0.9104 B(  4-C ,  5-C ) :   0.8398 B(  4-C , 16-H ) :   0.9199
B(  4-C , 17-H ) :   0.9158 B(  5-C ,  6-O ) :   0.9795 B(  5-C ,  7-C ) :   0.9333
B(  7-C ,  8-N ) :   2.8678

MP2 TOTAL ENERGY:     -401.262230053 Eh
FINAL SINGLE POINT ENERGY      -401.262230052673

DIPOLE MOMENT
-------------
                                X             Y             Z
Electronic contribution:     -0.59146      -7.67333       5.90606
Nuclear contribution   :      1.05217       8.68721      -7.48923
                        -----------------------------------------
Total Dipole Moment    :      0.46071       1.01388      -1.58317
                        -----------------------------------------
Magnitude (a.u.)       :      1.93562
Magnitude (Debye)      :      4.91996

                             ****ORCA TERMINATED NORMALLY****
TOTAL RUN TIME: 0 days 0 hours 17 minutes 58 seconds 828 msec
