                         Program Version 3.0.3 - RELEASE   -
|  1> ! RI-MP2 RIJK def2-TZVP def2-TZVP/C def2-TZVP/JK TIGHTSCF
|  2> % maxcore 2000
|  3> % mp2 density relaxed end
|  4> *xyz 0 1
|  5>  O       -0.0088143738     0.1183171310    -0.6266171924
|  6>  C        0.0026189580     1.2364352475    -0.1882772238
|  7>  C       -1.0564431848     2.1451736501     0.4668335544
|  8>  C       -0.0152581410     3.3096258100     0.4414771478
|  9>  C        1.0426200145     2.3323713409    -0.0938615138
| 10>  C        2.4617575825     2.2253958411     0.3407082516
| 11>  C        3.1282648490     0.9603931321    -0.1919766156
| 12>  C        2.6873117810     1.4499463965    -1.5971382486
| 13>  N        2.1085695981     2.7317684265    -1.0307523324
| 14>  H       -1.9582895087     2.2875091522    -0.1340647919
| 15>  H       -1.3533835430     1.8050075392     1.4630314898
| 16>  H       -0.2563280312     4.0999478065    -0.2718043345
| 17>  H        0.2087216420     3.7586791737     1.4109004734
| 18>  H        2.8402229189     2.8848666841     1.1172301800
| 19>  H        4.2113304256     0.9618736208    -0.0573274583
| 20>  H        2.7204832039     0.0099589565     0.1580115102
| 21>  H        3.5156141043     1.6997724426    -2.2618573883
| 22>  H        1.9581533548     0.8342707886    -2.1251357777
| 23> *
| 24>
| 25>                          ****END OF INPUT****

CARTESIAN COORDINATES (ANGSTROEM)
---------------------------------
  O     -0.008814    0.118317   -0.626617
  C      0.002619    1.236435   -0.188277
  C     -1.056443    2.145174    0.466834
  C     -0.015258    3.309626    0.441477
  C      1.042620    2.332371   -0.093862
  C      2.461758    2.225396    0.340708
  C      3.128265    0.960393   -0.191977
  C      2.687312    1.449946   -1.597138
  N      2.108570    2.731768   -1.030752
  H     -1.958290    2.287509   -0.134065
  H     -1.353384    1.805008    1.463031
  H     -0.256328    4.099948   -0.271804
  H      0.208722    3.758679    1.410900
  H      2.840223    2.884867    1.117230
  H      4.211330    0.961874   -0.057327
  H      2.720483    0.009959    0.158012
  H      3.515614    1.699772   -2.261857
  H      1.958153    0.834271   -2.125136

 Total Charge           Charge          ....    0
 Multiplicity           Mult            ....    1
 Number of Electrons    NEL             ....   66
 Basis Dimension        Dim             ....  333

ORBITAL ENERGIES
----------------

  NO   OCC          E(Eh)            E(eV)
   0   2.0000     -20.556472      -559.3700
   1   2.0000     -15.574017      -423.7905
   2   2.0000     -11.336774      -308.4893
   3   2.0000     -11.277457      -306.8752
   4   2.0000     -11.274922      -306.8062
   5   2.0000     -11.257797      -306.3402
   6   2.0000     -11.244833      -305.9875
   7   2.0000     -11.241577      -305.8989
   8   2.0000     -11.235611      -305.7365
   9   2.0000      -1.398442       -38.0536
  10   2.0000      -1.302684       -35.4478
  11   2.0000      -1.126877       -30.6639
  12   2.0000      -1.001559       -27.2538
  13   2.0000      -0.938107       -25.5272
  14   2.0000      -0.878353       -23.9012
  15   2.0000      -0.865256       -23.5448
  16   2.0000      -0.759466       -20.6661
  17   2.0000      -0.712226       -19.3807
  18   2.0000      -0.681426       -18.5426
  19   2.0000      -0.667717       -18.1695
  20   2.0000      -0.646212       -17.5843
  21   2.0000      -0.624833       -17.0026
  22   2.0000      -0.604843       -16.4586
  23   2.0000      -0.550623       -14.9832
  24   2.0000      -0.542343       -14.7579
  25   2.0000      -0.533485       -14.5169
  26   2.0000      -0.511827       -13.9275
  27   2.0000      -0.503637       -13.7047
  28   2.0000      -0.501363       -13.6428
  29   2.0000      -0.459262       -12.4972
  30   2.0000      -0.440491       -11.9864
  31   2.0000      -0.391317       -10.6483
  32   2.0000      -0.375658       -10.2222
  33   0.0000       0.115813         3.1514
  34   0.0000       0.140260         3.8167
  35   0.0000       0.153794         4.1849
  36   0.0000       0.160882         4.3778
  37   0.0000       0.171650         4.6708

MULLIKEN ATOMIC CHARGES
-----------------------
   0 O :   -0.268045
   1 C :    0.132995
   2 C :   -0.197103
   3 C :   -0.232559
   4 C :    0.118980
   5 C :   -0.138036
   6 C :   -0.220045
   7 C :   -0.145724
   8 N :   -0.242908
   9 H :    0.138651
  10 H :    0.137485
  11 H :    0.129900
  12 H :    0.126080
  13 H :    0.130373
  14 H :    0.128160
  15 H :    0.133096
  16 H :    0.131126
  17 H :    0.137573
Sum of atomic charges:    0.0000000

LOEWDIN ATOMIC CHARGES
----------------------
   0 O :    0.157881
   1 C :   -0.282827
   2 C :   -0.198519
   3 C :   -0.182974
   4 C :   -0.236728
   5 C :   -0.174862
   6 C :   -0.226730
   7 C :   -0.225019
   8 N :    0.145099
   9 H :    0.142835
  10 H :    0.144426
  11 H :    0.139996
  12 H :    0.133109
  13 H :    0.136644
  14 H :    0.136572
  15 H :    0.135383
  16 H :    0.127430
  17 H :    0.128282

  Mayer bond orders larger than 0.1
B(  0-O ,  1-C ) :   1.9962 B(  1-C ,  2-C ) :   0.9478 B(  1-C ,  4-C ) :   0.8273
B(  2-C ,  3-C ) :   0.9711 B(  2-C ,  4-C ) :  -0.1222 B(  2-C ,  9-H ) :   0.9069
B(  2-C , 10-H ) :   0.8977 B(  3-C ,  4-C ) :   0.9095 B(  3-C , 11-H ) :   0.9084
B(  3-C , 12-H ) :   0.9156 B(  4-C ,  5-C ) :   0.8596 B(  4-C ,  8-N ) :   0.8347
B(  5-C ,  6-C ) :   0.9546 B(  5-C ,  8-N ) :   0.9434 B(  5-C , 13-H ) :   0.9001
B(  6-C ,  7-C ) :   0.9740 B(  6-C , 14-H ) :   0.9320 B(  6-C , 15-H ) :   0.9056
B(  7-C ,  8-N ) :   0.9024 B(  7-C , 16-H ) :   0.9187 B(  7-C , 17-H ) :   0.9286

MP2 TOTAL ENERGY:     -401.207738783 Eh
FINAL SINGLE POINT ENERGY      -401.207738782503

DIPOLE MOMENT
-------------
                                X             Y             Z
Electronic contribution:     -1.30119      -1.56368      -1.11932
Nuclear contribution   :      1.50882       1.91902       1.73590
                        -----------------------------------------
Total Dipole Moment    :      0.20764       0.35535       0.61658
                        -----------------------------------------
Magnitude (a.u.)       :      0.74132
Magnitude (Debye)      :      1.88429

                             ****ORCA TERMINATED NORMALLY****
TOTAL RUN TIME: 0 days 0 hours 18 minutes 3 seconds 437 msec
