                         Program Version 3.0.3 - RELEASE   -
|  1> ! RI-MP2 RIJK def2-TZVP def2-TZVP/C def2-TZVP/JK TIGHTSCF
|  2> % maxcore 2000
|  3> % mp2 density relaxed end
|  4> *xyz 0 1
|  5>  C       -0.1593252409     1.5073662528    -0.0694988754
|  6>  C        0.0403646465     0.0202502386     0.0955230392
|  7>  O        0.1760760961    -0.5182942788     1.1690236705
|  8>  C        0.0303857915    -0.7961501808    -1.2009831165
|  9>  C        0.4902520099    -2.2513054888    -1.0727220181
| 10>  O       -0.2577477943    -2.9878789880    -2.0469183544
| 11>  C       -1.5550274587    -2.4448360454    -2.0880479280
| 12>  C       -1.4046134325    -0.9588441676    -1.7596306960
| 13>  O       -2.2327166992    -0.1000277422    -1.8989957641
| 14>  H        0.6758040203     1.9357157206    -0.6362708839
| 15>  H       -1.0685483259     1.6840870032    -0.6548358239
| 16>  H       -0.2261587239     1.9886915881     0.9065487792
| 17>  H        0.5932855683    -0.2541552051    -1.9709376871
| 18>  H        1.5480181541    -2.3993225307    -1.2947982650
| 19>  H        0.2860167121    -2.6111526552    -0.0559344812
| 20>  H       -1.9937378796    -2.5981871049    -3.0776712072
| 21>  H       -2.2273476936    -2.8950449358    -1.3361597778
| 22> *
| 23>
| 24>                          ****END OF INPUT****

CARTESIAN COORDINATES (ANGSTROEM)
---------------------------------
  C     -0.159325    1.507366   -0.069499
  C      0.040365    0.020250    0.095523
  O      0.176076   -0.518294    1.169024
  C      0.030386   -0.796150   -1.200983
  C      0.490252   -2.251305   -1.072722
  O     -0.257748   -2.987879   -2.046918
  C     -1.555027   -2.444836   -2.088048
  C     -1.404613   -0.958844   -1.759631
  O     -2.232717   -0.100028   -1.898996
  H      0.675804    1.935716   -0.636271
  H     -1.068548    1.684087   -0.654836
  H     -0.226159    1.988692    0.906549
  H      0.593286   -0.254155   -1.970938
  H      1.548018   -2.399323   -1.294798
  H      0.286017   -2.611153   -0.055934
  H     -1.993738   -2.598187   -3.077671
  H     -2.227348   -2.895045   -1.336160

 Total Charge           Charge          ....    0
 Multiplicity           Mult            ....    1
 Number of Electrons    NEL             ....   68
 Basis Dimension        Dim             ....  327

ORBITAL ENERGIES
----------------

  NO   OCC          E(Eh)            E(eV)
   0   2.0000     -20.580829      -560.0328
   1   2.0000     -20.575919      -559.8992
   2   2.0000     -20.561591      -559.5093
   3   2.0000     -11.360581      -309.1371
   4   2.0000     -11.350816      -308.8714
   5   2.0000     -11.303839      -307.5931
   6   2.0000     -11.296734      -307.3998
   7   2.0000     -11.269194      -306.6503
   8   2.0000     -11.238961      -305.8277
   9   2.0000      -1.427145       -38.8346
  10   2.0000      -1.406411       -38.2704
  11   2.0000      -1.402256       -38.1573
  12   2.0000      -1.092576       -29.7305
  13   2.0000      -1.012601       -27.5543
  14   2.0000      -1.010138       -27.4873
  15   2.0000      -0.873452       -23.7678
  16   2.0000      -0.804851       -21.9011
  17   2.0000      -0.743909       -20.2428
  18   2.0000      -0.714584       -19.4448
  19   2.0000      -0.698710       -19.0129
  20   2.0000      -0.662227       -18.0201
  21   2.0000      -0.651856       -17.7379
  22   2.0000      -0.636370       -17.3165
  23   2.0000      -0.624130       -16.9835
  24   2.0000      -0.593202       -16.1418
  25   2.0000      -0.581226       -15.8160
  26   2.0000      -0.577171       -15.7056
  27   2.0000      -0.567989       -15.4558
  28   2.0000      -0.533543       -14.5184
  29   2.0000      -0.515940       -14.0394
  30   2.0000      -0.509091       -13.8531
  31   2.0000      -0.458789       -12.4843
  32   2.0000      -0.426518       -11.6061
  33   2.0000      -0.415337       -11.3019
  34   0.0000       0.103891         2.8270
  35   0.0000       0.132778         3.6131
  36   0.0000       0.136880         3.7247
  37   0.0000       0.153690         4.1821
  38   0.0000       0.172521         4.6945

MULLIKEN ATOMIC CHARGES
-----------------------
   0 C :   -0.423377
   1 C :    0.190530
   2 O :   -0.285379
   3 C :   -0.054484
   4 C :   -0.064237
   5 O :   -0.309804
   6 C :   -0.020681
   7 C :    0.093187
   8 O :   -0.271716
   9 H :    0.143594
  10 H :    0.179307
  11 H :    0.151817
  12 H :    0.139728
  13 H :    0.126743
  14 H :    0.139843
  15 H :    0.146121
  16 H :    0.118808
Sum of atomic charges:    0.0000000

LOEWDIN ATOMIC CHARGES
----------------------
   0 C :   -0.272669
   1 C :   -0.324953
   2 O :    0.157204
   3 C :   -0.200194
   4 C :   -0.261446
   5 O :    0.155047
   6 C :   -0.282391
   7 C :   -0.284889
   8 O :    0.168146
   9 H :    0.139085
  10 H :    0.146163
  11 H :    0.134097
  12 H :    0.178185
  13 H :    0.132034
  14 H :    0.134058
  15 H :    0.142454
  16 H :    0.140069

  Mayer bond orders larger than 0.1
B(  0-C ,  1-C ) :   0.9299 B(  0-C ,  9-H ) :   0.9115 B(  0-C , 10-H ) :   0.9014
B(  0-C , 11-H ) :   0.9341 B(  1-C ,  2-O ) :   1.9854 B(  1-C ,  3-C ) :   0.8607
B(  3-C ,  4-C ) :   0.9294 B(  3-C ,  7-C ) :   0.8119 B(  3-C , 12-H ) :   0.8714
B(  4-C ,  5-O ) :   0.9002 B(  4-C , 13-H ) :   0.9186 B(  4-C , 14-H ) :   0.9388
B(  5-O ,  6-C ) :   0.9640 B(  6-C ,  7-C ) :   0.9490 B(  6-C , 15-H ) :   0.9104
B(  6-C , 16-H ) :   0.9022 B(  7-C ,  8-O ) :   1.9787

MP2 TOTAL ENERGY:     -458.256672837 Eh
FINAL SINGLE POINT ENERGY      -458.256672836890

DIPOLE MOMENT
-------------
                                X             Y             Z
Electronic contribution:     -1.48503      -2.05152      -0.25391
Nuclear contribution   :      1.83777       2.30573      -0.24505
                        -----------------------------------------
Total Dipole Moment    :      0.35274       0.25421      -0.49896
                        -----------------------------------------
Magnitude (a.u.)       :      0.66182
Magnitude (Debye)      :      1.68222

                             ****ORCA TERMINATED NORMALLY****
TOTAL RUN TIME: 0 days 0 hours 18 minutes 1 seconds 14 msec
