                         Program Version 3.0.3 - RELEASE   -
|  1> ! RI-MP2 RIJK def2-TZVP def2-TZVP/C def2-TZVP/JK TIGHTSCF
|  2> % maxcore 2000
|  3> % mp2 density relaxed end
|  4> *xyz 0 1
|  5>  N        0.1819084614     1.0672039702     0.4617118420
|  6>  C       -0.0201915296    -0.1366854472    -0.1440907331
|  7>  O        0.8981880510    -0.7657621411    -0.6695713874
|  8>  C       -1.3726280002    -0.7123144037    -0.0648246237
|  9>  C       -1.8769588050    -1.5985818576    -1.2056788016
| 10>  C       -1.5183542871    -2.2527349338     0.0770393582
| 11>  O       -0.4968299275    -3.1571808778     0.2168073046
| 12>  C       -2.5971794050    -2.0668507493     1.1424249214
| 13>  C       -2.4915214348    -0.5103407931     0.9661720763
| 14>  H        1.0961557865     1.4830866951     0.3859863071
| 15>  H       -0.5903130233     1.6511189419     0.7323170481
| 16>  H       -2.9100887740    -1.4794021269    -1.5261865317
| 17>  H       -1.1541384127    -1.7388248756    -2.0015384039
| 18>  H        0.2885509042    -2.7339686052    -0.1730815293
| 19>  H       -3.5663550864    -2.5310919215     0.9369728984
| 20>  H       -2.2451284549    -2.3886017549     2.1238855208
| 21>  H       -2.1569726843    -0.0162658436     1.8813702835
| 22>  H       -3.3900720182    -0.0031337762     0.5988973603
| 23> *
| 24>
| 25>                          ****END OF INPUT****

CARTESIAN COORDINATES (ANGSTROEM)
---------------------------------
  N      0.181908    1.067204    0.461712
  C     -0.020192   -0.136685   -0.144091
  O      0.898188   -0.765762   -0.669571
  C     -1.372628   -0.712314   -0.064825
  C     -1.876959   -1.598582   -1.205679
  C     -1.518354   -2.252735    0.077039
  O     -0.496830   -3.157181    0.216807
  C     -2.597179   -2.066851    1.142425
  C     -2.491521   -0.510341    0.966172
  H      1.096156    1.483087    0.385986
  H     -0.590313    1.651119    0.732317
  H     -2.910089   -1.479402   -1.526187
  H     -1.154138   -1.738825   -2.001538
  H      0.288551   -2.733969   -0.173082
  H     -3.566355   -2.531092    0.936973
  H     -2.245128   -2.388602    2.123886
  H     -2.156973   -0.016266    1.881370
  H     -3.390072   -0.003134    0.598897

 Total Charge           Charge          ....    0
 Multiplicity           Mult            ....    1
 Number of Electrons    NEL             ....   68
 Basis Dimension        Dim             ....  333

ORBITAL ENERGIES
----------------

  NO   OCC          E(Eh)            E(eV)
   0   2.0000     -20.557601      -559.4008
   1   2.0000     -20.520430      -558.3893
   2   2.0000     -15.590353      -424.2351
   3   2.0000     -11.360665      -309.1394
   4   2.0000     -11.301183      -307.5208
   5   2.0000     -11.247040      -306.0475
   6   2.0000     -11.244531      -305.9793
   7   2.0000     -11.240822      -305.8783
   8   2.0000     -11.237455      -305.7867
   9   2.0000      -1.389897       -37.8210
  10   2.0000      -1.371031       -37.3077
  11   2.0000      -1.218873       -33.1672
  12   2.0000      -1.189230       -32.3606
  13   2.0000      -1.003703       -27.3121
  14   2.0000      -0.931382       -25.3442
  15   2.0000      -0.862525       -23.4705
  16   2.0000      -0.794645       -21.6234
  17   2.0000      -0.762909       -20.7598
  18   2.0000      -0.735472       -20.0132
  19   2.0000      -0.696422       -18.9506
  20   2.0000      -0.662951       -18.0398
  21   2.0000      -0.643299       -17.5051
  22   2.0000      -0.621534       -16.9128
  23   2.0000      -0.593765       -16.1572
  24   2.0000      -0.572046       -15.5662
  25   2.0000      -0.553739       -15.0680
  26   2.0000      -0.550450       -14.9785
  27   2.0000      -0.534187       -14.5360
  28   2.0000      -0.510215       -13.8837
  29   2.0000      -0.496414       -13.5081
  30   2.0000      -0.433824       -11.8050
  31   2.0000      -0.425202       -11.5703
  32   2.0000      -0.411177       -11.1887
  33   2.0000      -0.357349        -9.7240
  34   0.0000       0.120771         3.2863
  35   0.0000       0.146684         3.9915
  36   0.0000       0.160550         4.3688
  37   0.0000       0.170872         4.6497
  38   0.0000       0.183143         4.9836

MULLIKEN ATOMIC CHARGES
-----------------------
   0 N :   -0.476803
   1 C :    0.278219
   2 O :   -0.428206
   3 C :   -0.014602
   4 C :   -0.249069
   5 C :    0.144144
   6 O :   -0.442940
   7 C :   -0.208244
   8 C :   -0.253442
   9 H :    0.260565
  10 H :    0.263776
  11 H :    0.129600
  12 H :    0.156291
  13 H :    0.351218
  14 H :    0.123627
  15 H :    0.120056
  16 H :    0.119703
  17 H :    0.126103
Sum of atomic charges:   -0.0000000

LOEWDIN ATOMIC CHARGES
----------------------
   0 N :   -0.005446
   1 C :   -0.450700
   2 O :    0.047404
   3 C :   -0.170179
   4 C :   -0.153196
   5 C :   -0.310624
   6 O :    0.044082
   7 C :   -0.181410
   8 C :   -0.193593
   9 H :    0.175605
  10 H :    0.173415
  11 H :    0.136559
  12 H :    0.153894
  13 H :    0.196580
  14 H :    0.130383
  15 H :    0.143264
  16 H :    0.135387
  17 H :    0.128575

  Mayer bond orders larger than 0.1
B(  0-N ,  1-C ) :   1.1875 B(  0-N ,  9-H ) :   0.8569 B(  0-N , 10-H ) :   0.8679
B(  1-C ,  2-O ) :   1.8022 B(  1-C ,  3-C ) :   0.9485 B(  3-C ,  4-C ) :   0.8152
B(  3-C ,  5-C ) :   0.7552 B(  3-C ,  8-C ) :   0.8879 B(  4-C ,  5-C ) :   0.9425
B(  4-C , 11-H ) :   0.9050 B(  4-C , 12-H ) :   0.9193 B(  5-C ,  6-O ) :   1.1350
B(  5-C ,  7-C ) :   0.9519 B(  6-O , 13-H ) :   0.7900 B(  7-C ,  8-C ) :   0.9730
B(  7-C , 14-H ) :   0.9267 B(  7-C , 15-H ) :   0.9048 B(  8-C , 16-H ) :   0.9145
B(  8-C , 17-H ) :   0.9108

MP2 TOTAL ENERGY:     -438.378175909 Eh
FINAL SINGLE POINT ENERGY      -438.378175908754

DIPOLE MOMENT
-------------
                                X             Y             Z
Electronic contribution:      4.64525      -0.81312      -1.60411
Nuclear contribution   :     -5.42085       2.20940       2.00689
                        -----------------------------------------
Total Dipole Moment    :     -0.77560       1.39628       0.40278
                        -----------------------------------------
Magnitude (a.u.)       :      1.64724
Magnitude (Debye)      :      4.18694

                             ****ORCA TERMINATED NORMALLY****
TOTAL RUN TIME: 0 days 0 hours 19 minutes 4 seconds 854 msec
