                         Program Version 3.0.3 - RELEASE   -
|  1> ! RI-MP2 RIJK def2-TZVP def2-TZVP/C def2-TZVP/JK TIGHTSCF
|  2> % maxcore 2000
|  3> % mp2 density relaxed end
|  4> *xyz 0 1
|  5>  C       -0.3487185831     1.4351470005     0.0326660809
|  6>  C       -0.0232635746    -0.0529168960    -0.0234089498
|  7>  C        1.3081383095    -0.4272225265    -0.7162445144
|  8>  O        1.8637489424    -0.9513476554     0.5099246754
|  9>  C        0.6377631492    -0.6982682370     1.2048783355
| 10>  C        0.7388379453    -0.3596744418     2.6545038070
| 11>  C       -0.6289983526    -0.0299494641     3.2620619099
| 12>  C       -1.1847010625    -1.4000912457     2.7491434007
| 13>  C        0.1951264820    -1.7384505290     2.1769045289
| 14>  H        0.4796947723     2.0010172376     0.4712770911
| 15>  H       -0.5294579318     1.8271877007    -0.9744231580
| 16>  H       -1.2449915314     1.6314923657     0.6283539527
| 17>  H       -0.8812753808    -0.6197729593    -0.3963058448
| 18>  H        1.2435295549    -1.1971624744    -1.4942705106
| 19>  H        1.8917508083     0.4208453994    -1.0951781459
| 20>  H        1.7049051582    -0.1177804966     3.0826023459
| 21>  H       -0.5968755372     0.0079389836     4.3532675927
| 22>  H       -1.1225394383     0.8782678995     2.9033995937
| 23>  H       -1.4860775745    -2.0584783587     3.5664179981
| 24>  H       -2.0050424643    -1.3583467797     2.0236722599
| 25>  H        0.6798690891    -2.7076966627     2.1881248608
| 26> *
| 27>
| 28>                          ****END OF INPUT****

CARTESIAN COORDINATES (ANGSTROEM)
---------------------------------
  C     -0.348719    1.435147    0.032666
  C     -0.023264   -0.052917   -0.023409
  C      1.308138   -0.427223   -0.716245
  O      1.863749   -0.951348    0.509925
  C      0.637763   -0.698268    1.204878
  C      0.738838   -0.359674    2.654504
  C     -0.628998   -0.029949    3.262062
  C     -1.184701   -1.400091    2.749143
  C      0.195126   -1.738451    2.176905
  H      0.479695    2.001017    0.471277
  H     -0.529458    1.827188   -0.974423
  H     -1.244992    1.631492    0.628354
  H     -0.881275   -0.619773   -0.396306
  H      1.243530   -1.197162   -1.494271
  H      1.891751    0.420845   -1.095178
  H      1.704905   -0.117780    3.082602
  H     -0.596876    0.007939    4.353268
  H     -1.122539    0.878268    2.903400
  H     -1.486078   -2.058478    3.566418
  H     -2.005042   -1.358347    2.023672
  H      0.679869   -2.707697    2.188125

 Total Charge           Charge          ....    0
 Multiplicity           Mult            ....    1
 Number of Electrons    NEL             ....   68
 Basis Dimension        Dim             ....  351

ORBITAL ENERGIES
----------------

  NO   OCC          E(Eh)            E(eV)
   0   2.0000     -20.545734      -559.0779
   1   2.0000     -11.283385      -307.0365
   2   2.0000     -11.274704      -306.8003
   3   2.0000     -11.235766      -305.7407
   4   2.0000     -11.227635      -305.5195
   5   2.0000     -11.227132      -305.5058
   6   2.0000     -11.226736      -305.4950
   7   2.0000     -11.225427      -305.4594
   8   2.0000     -11.220975      -305.3382
   9   2.0000      -1.380510       -37.5656
  10   2.0000      -1.177191       -32.0330
  11   2.0000      -1.049776       -28.5659
  12   2.0000      -0.976899       -26.5828
  13   2.0000      -0.913748       -24.8644
  14   2.0000      -0.892973       -24.2990
  15   2.0000      -0.844938       -22.9919
  16   2.0000      -0.741270       -20.1710
  17   2.0000      -0.710864       -19.3436
  18   2.0000      -0.684041       -18.6137
  19   2.0000      -0.662211       -18.0197
  20   2.0000      -0.638921       -17.3859
  21   2.0000      -0.616433       -16.7740
  22   2.0000      -0.581264       -15.8170
  23   2.0000      -0.562361       -15.3026
  24   2.0000      -0.550957       -14.9923
  25   2.0000      -0.530126       -14.4255
  26   2.0000      -0.510070       -13.8797
  27   2.0000      -0.503696       -13.7063
  28   2.0000      -0.481817       -13.1109
  29   2.0000      -0.468002       -12.7350
  30   2.0000      -0.464583       -12.6419
  31   2.0000      -0.448559       -12.2059
  32   2.0000      -0.364197        -9.9103
  33   2.0000      -0.361828        -9.8458
  34   0.0000       0.134754         3.6668
  35   0.0000       0.154720         4.2101
  36   0.0000       0.157788         4.2936
  37   0.0000       0.177192         4.8216
  38   0.0000       0.191744         5.2176

MULLIKEN ATOMIC CHARGES
-----------------------
   0 C :   -0.447902
   1 C :   -0.006956
   2 C :   -0.033023
   3 O :   -0.324559
   4 C :    0.158066
   5 C :   -0.145650
   6 C :   -0.240354
   7 C :   -0.224366
   8 C :   -0.175347
   9 H :    0.142576
  10 H :    0.137080
  11 H :    0.129056
  12 H :    0.109327
  13 H :    0.095319
  14 H :    0.095069
  15 H :    0.132398
  16 H :    0.122286
  17 H :    0.112595
  18 H :    0.123912
  19 H :    0.107683
  20 H :    0.132790
Sum of atomic charges:    0.0000000

LOEWDIN ATOMIC CHARGES
----------------------
   0 C :   -0.292927
   1 C :   -0.220074
   2 C :   -0.238162
   3 O :    0.172528
   4 C :   -0.259986
   5 C :   -0.145867
   6 C :   -0.213760
   7 C :   -0.213917
   8 C :   -0.145886
   9 H :    0.129741
  10 H :    0.125267
  11 H :    0.122506
  12 H :    0.148466
  13 H :    0.116688
  14 H :    0.118879
  15 H :    0.139425
  16 H :    0.135057
  17 H :    0.123359
  18 H :    0.133862
  19 H :    0.125647
  20 H :    0.139154

  Mayer bond orders larger than 0.1
B(  0-C ,  1-C ) :   0.8857 B(  0-C ,  9-H ) :   0.9370 B(  0-C , 10-H ) :   0.9355
B(  0-C , 11-H ) :   0.9386 B(  1-C ,  2-C ) :   0.9728 B(  1-C ,  4-C ) :   0.8938
B(  1-C , 12-H ) :   0.9167 B(  2-C ,  3-O ) :   0.9455 B(  2-C , 13-H ) :   0.9125
B(  2-C , 14-H ) :   0.9043 B(  3-O ,  4-C ) :   0.9725 B(  4-C ,  5-C ) :   0.8563
B(  4-C ,  8-C ) :   0.8661 B(  5-C ,  6-C ) :   0.8973 B(  5-C ,  8-C ) :   0.8256
B(  5-C , 15-H ) :   0.9196 B(  6-C ,  7-C ) :   0.9618 B(  6-C , 16-H ) :   0.9192
B(  6-C , 17-H ) :   0.9322 B(  7-C ,  8-C ) :   0.9174 B(  7-C , 18-H ) :   0.9209
B(  7-C , 19-H ) :   0.9249 B(  8-C , 20-H ) :   0.9180

MP2 TOTAL ENERGY:     -386.354809165 Eh
FINAL SINGLE POINT ENERGY      -386.354809165045

DIPOLE MOMENT
-------------
                                X             Y             Z
Electronic contribution:      4.38160      -3.57861       0.05787
Nuclear contribution   :     -5.01643       3.84018      -0.18014
                        -----------------------------------------
Total Dipole Moment    :     -0.63483       0.26157      -0.12227
                        -----------------------------------------
Magnitude (a.u.)       :      0.69741
Magnitude (Debye)      :      1.77267

                             ****ORCA TERMINATED NORMALLY****
TOTAL RUN TIME: 0 days 0 hours 19 minutes 16 seconds 864 msec
