                         Program Version 3.0.3 - RELEASE   -
|  1> ! RI-MP2 RIJK def2-TZVP def2-TZVP/C def2-TZVP/JK TIGHTSCF
|  2> % maxcore 2000
|  3> % mp2 density relaxed end
|  4> *xyz 0 1
|  5>  C       -0.0256999354     1.5765704672     0.0000837394
|  6>  C        0.0128078194     0.0407413373     0.0022206262
|  7>  C        0.6663559299    -0.5147662334    -1.2738502581
|  8>  C        0.9624516468    -2.0122235349    -1.1545829509
|  9>  C        1.9622704893    -2.2676741744    -0.0029804113
| 10>  C        1.5801596476    -1.4916744779     1.2462944963
| 11>  C        0.7092374553    -0.4855734282     1.2341693449
| 12>  C        2.0734892844    -3.7014203513     0.2885532554
| 13>  N        2.1584336035    -4.8313478947     0.5165567451
| 14>  H        0.9872061938     1.9937219424    -0.0118071127
| 15>  H       -0.5563595082     1.9518931014    -0.8809139149
| 16>  H       -0.5359664533     1.9612820054     0.8890472480
| 17>  H       -1.0304933498    -0.3115174228     0.0353600013
| 18>  H        0.0191425127    -0.3283629626    -2.1374476183
| 19>  H        1.6030603275     0.0277013215    -1.4617163934
| 20>  H        0.0370685150    -2.5606879041    -0.9461672262
| 21>  H        1.3683287568    -2.4109256858    -2.0887849587
| 22>  H        2.9630528756    -1.9432939352    -0.3268866189
| 23>  H        2.0554554164    -1.8024375732     2.1716690931
| 24>  H        0.4774021627     0.0167403032     2.1715445838
| 25> *
| 26>
| 27>                          ****END OF INPUT****

CARTESIAN COORDINATES (ANGSTROEM)
---------------------------------
  C     -0.025700    1.576570    0.000084
  C      0.012808    0.040741    0.002221
  C      0.666356   -0.514766   -1.273850
  C      0.962452   -2.012224   -1.154583
  C      1.962270   -2.267674   -0.002980
  C      1.580160   -1.491674    1.246294
  C      0.709237   -0.485573    1.234169
  C      2.073489   -3.701420    0.288553
  N      2.158434   -4.831348    0.516557
  H      0.987206    1.993722   -0.011807
  H     -0.556360    1.951893   -0.880914
  H     -0.535966    1.961282    0.889047
  H     -1.030493   -0.311517    0.035360
  H      0.019143   -0.328363   -2.137448
  H      1.603060    0.027701   -1.461716
  H      0.037069   -2.560688   -0.946167
  H      1.368329   -2.410926   -2.088785
  H      2.963053   -1.943294   -0.326887
  H      2.055455   -1.802438    2.171669
  H      0.477402    0.016740    2.171545

 Total Charge           Charge          ....    0
 Multiplicity           Mult            ....    1
 Number of Electrons    NEL             ....   66
 Basis Dimension        Dim             ....  345

ORBITAL ENERGIES
----------------

  NO   OCC          E(Eh)            E(eV)
   0   2.0000     -15.564579      -423.5337
   1   2.0000     -11.287320      -307.1436
   2   2.0000     -11.267873      -306.6144
   3   2.0000     -11.248064      -306.0754
   4   2.0000     -11.247601      -306.0628
   5   2.0000     -11.247422      -306.0579
   6   2.0000     -11.244216      -305.9707
   7   2.0000     -11.238428      -305.8132
   8   2.0000     -11.228262      -305.5366
   9   2.0000      -1.216329       -33.0980
  10   2.0000      -1.152761       -31.3682
  11   2.0000      -1.068902       -29.0863
  12   2.0000      -1.031105       -28.0578
  13   2.0000      -0.958901       -26.0930
  14   2.0000      -0.857862       -23.3436
  15   2.0000      -0.839908       -22.8551
  16   2.0000      -0.737714       -20.0742
  17   2.0000      -0.714885       -19.4530
  18   2.0000      -0.670279       -18.2392
  19   2.0000      -0.625241       -17.0137
  20   2.0000      -0.618492       -16.8300
  21   2.0000      -0.582616       -15.8538
  22   2.0000      -0.581902       -15.8344
  23   2.0000      -0.565115       -15.3776
  24   2.0000      -0.546436       -14.8693
  25   2.0000      -0.539841       -14.6898
  26   2.0000      -0.523882       -14.2556
  27   2.0000      -0.493372       -13.4253
  28   2.0000      -0.484160       -13.1747
  29   2.0000      -0.469781       -12.7834
  30   2.0000      -0.451624       -12.2893
  31   2.0000      -0.444039       -12.0829
  32   2.0000      -0.370712       -10.0876
  33   0.0000       0.112392         3.0584
  34   0.0000       0.141492         3.8502
  35   0.0000       0.146786         3.9943
  36   0.0000       0.150549         4.0966
  37   0.0000       0.167357         4.5540

MULLIKEN ATOMIC CHARGES
-----------------------
   0 C :   -0.416066
   1 C :    0.030441
   2 C :   -0.245284
   3 C :   -0.251417
   4 C :    0.125620
   5 C :   -0.207945
   6 C :   -0.196313
   7 C :   -0.220273
   8 N :   -0.054685
   9 H :    0.130956
  10 H :    0.134781
  11 H :    0.136451
  12 H :    0.102420
  13 H :    0.134977
  14 H :    0.113595
  15 H :    0.134422
  16 H :    0.143939
  17 H :    0.136576
  18 H :    0.141421
  19 H :    0.126385
Sum of atomic charges:   -0.0000000

LOEWDIN ATOMIC CHARGES
----------------------
   0 C :   -0.287371
   1 C :   -0.268791
   2 C :   -0.231073
   3 C :   -0.211927
   4 C :   -0.226286
   5 C :   -0.131812
   6 C :   -0.135354
   7 C :   -0.167181
   8 N :    0.058925
   9 H :    0.125016
  10 H :    0.124926
  11 H :    0.124359
  12 H :    0.161394
  13 H :    0.141990
  14 H :    0.144666
  15 H :    0.150551
  16 H :    0.144092
  17 H :    0.182772
  18 H :    0.151414
  19 H :    0.149691

  Mayer bond orders larger than 0.1
B(  0-C ,  1-C ) :   0.9007 B(  0-C ,  9-H ) :   0.9328 B(  0-C , 10-H ) :   0.9379
B(  0-C , 11-H ) :   0.9403 B(  1-C ,  2-C ) :   0.9318 B(  1-C ,  6-C ) :   0.9022
B(  1-C , 12-H ) :   0.9165 B(  2-C ,  3-C ) :   0.9095 B(  2-C , 13-H ) :   0.9288
B(  2-C , 14-H ) :   0.9255 B(  3-C ,  4-C ) :   0.9223 B(  3-C , 15-H ) :   0.9299
B(  3-C , 16-H ) :   0.9294 B(  4-C ,  5-C ) :   0.8734 B(  4-C ,  7-C ) :   0.9116
B(  4-C , 17-H ) :   0.8954 B(  5-C ,  6-C ) :   1.8159 B(  5-C , 18-H ) :   0.9233
B(  6-C , 19-H ) :   0.9238 B(  7-C ,  8-N ) :   2.8924

MP2 TOTAL ENERGY:     -365.385874053 Eh
FINAL SINGLE POINT ENERGY      -365.385874053005

DIPOLE MOMENT
-------------
                                X             Y             Z
Electronic contribution:      4.06536     -10.23820       2.74259
Nuclear contribution   :     -4.39443      11.89994      -3.16562
                        -----------------------------------------
Total Dipole Moment    :     -0.32907       1.66174      -0.42303
                        -----------------------------------------
Magnitude (a.u.)       :      1.74603
Magnitude (Debye)      :      4.43807

                             ****ORCA TERMINATED NORMALLY****
TOTAL RUN TIME: 0 days 0 hours 19 minutes 22 seconds 992 msec
