                         Program Version 3.0.3 - RELEASE   -
|  1> ! RI-MP2 RIJK def2-TZVP def2-TZVP/C def2-TZVP/JK TIGHTSCF
|  2> % maxcore 2000
|  3> % mp2 density relaxed end
|  4> *xyz 0 1
|  5>  N       -0.0299544928     1.3607382465     0.0102308187
|  6>  C        1.2824196837     1.7387270422    -0.0006093537
|  7>  N        2.0599683386     0.6880935414    -0.0143307277
|  8>  N        1.2429113890    -0.4281557880    -0.0123399748
|  9>  C        0.0064162276    -0.0045215628     0.0023226760
| 10>  H       -0.8419327908     1.9550995245     0.0215825599
| 11>  H        1.6045208591     2.7681726020     0.0019438861
| 12>  H       -0.8775034644    -0.6227210859     0.0076822381
| 13> *
| 14>
| 15>                          ****END OF INPUT****

CARTESIAN COORDINATES (ANGSTROEM)
---------------------------------
  N     -0.029954    1.360738    0.010231
  C      1.282420    1.738727   -0.000609
  N      2.059968    0.688094   -0.014331
  N      1.242911   -0.428156   -0.012340
  C      0.006416   -0.004522    0.002323
  H     -0.841933    1.955100    0.021583
  H      1.604521    2.768173    0.001944
  H     -0.877503   -0.622721    0.007682

 Total Charge           Charge          ....    0
 Multiplicity           Mult            ....    1
 Number of Electrons    NEL             ....   36
 Basis Dimension        Dim             ....  173

ORBITAL ENERGIES
----------------

  NO   OCC          E(Eh)            E(eV)
   0   2.0000     -15.640285      -425.5938
   1   2.0000     -15.582449      -424.0200
   2   2.0000     -15.581802      -424.0024
   3   2.0000     -11.308779      -307.7275
   4   2.0000     -11.308739      -307.7264
   5   2.0000      -1.398645       -38.0591
   6   2.0000      -1.218417       -33.1548
   7   2.0000      -1.096723       -29.8434
   8   2.0000      -0.856769       -23.3139
   9   2.0000      -0.843413       -22.9504
  10   2.0000      -0.783647       -21.3241
  11   2.0000      -0.646427       -17.5902
  12   2.0000      -0.631096       -17.1730
  13   2.0000      -0.625013       -17.0075
  14   2.0000      -0.483582       -13.1589
  15   2.0000      -0.434204       -11.8153
  16   2.0000      -0.432415       -11.7666
  17   2.0000      -0.368434       -10.0256
  18   0.0000       0.113622         3.0918
  19   0.0000       0.153453         4.1757
  20   0.0000       0.170624         4.6429
  21   0.0000       0.179053         4.8723
  22   0.0000       0.186641         5.0788

MULLIKEN ATOMIC CHARGES
-----------------------
   0 N :   -0.293339
   1 C :    0.049530
   2 N :   -0.193255
   3 N :   -0.193255
   4 C :    0.049530
   5 H :    0.260547
   6 H :    0.160121
   7 H :    0.160121
Sum of atomic charges:    0.0000000

LOEWDIN ATOMIC CHARGES
----------------------
   0 N :    0.159925
   1 C :   -0.330968
   2 N :    0.018131
   3 N :    0.018131
   4 C :   -0.330968
   5 H :    0.197120
   6 H :    0.134315
   7 H :    0.134315

  Mayer bond orders larger than 0.1
B(  0-N ,  1-C ) :   1.1243 B(  0-N ,  4-C ) :   1.1243 B(  0-N ,  5-H ) :   0.8625
B(  1-C ,  2-N ) :   1.6023 B(  1-C ,  6-H ) :   0.9231 B(  2-N ,  3-N ) :   1.0531
B(  3-N ,  4-C ) :   1.6023 B(  4-C ,  7-H ) :   0.9231

MP2 TOTAL ENERGY:     -241.791527657 Eh
FINAL SINGLE POINT ENERGY      -241.791527657267

DIPOLE MOMENT
-------------
                                X             Y             Z
Electronic contribution:      0.76154      -0.55744      -0.01069
Nuclear contribution   :     -2.59871       1.90223       0.03649
                        -----------------------------------------
Total Dipole Moment    :     -1.83717       1.34480       0.02580
                        -----------------------------------------
Magnitude (a.u.)       :      2.27692
Magnitude (Debye)      :      5.78746

                             ****ORCA TERMINATED NORMALLY****
TOTAL RUN TIME: 0 days 0 hours 2 minutes 5 seconds 757 msec
