                         Program Version 3.0.3 - RELEASE   -
|  1> ! RI-MP2 RIJK def2-TZVP def2-TZVP/C def2-TZVP/JK TIGHTSCF
|  2> % maxcore 2000
|  3> % mp2 density relaxed end
|  4> *xyz 0 1
|  5>  C        0.0019233367     1.5312841294    -0.0401283795
|  6>  C       -0.0428968129     0.0054699379     0.0509226134
|  7>  N       -1.3966064593    -0.5220812473    -0.0147938865
|  8>  N       -2.0772175370    -0.8650877857     1.1151545064
|  9>  N       -3.2577518429    -1.2667699404     0.7527285121
| 10>  C       -3.3727294618    -1.1900670897    -0.6027285423
| 11>  C       -2.1805834494    -0.7106458690    -1.0971611847
| 12>  O       -1.6951326081    -0.4250559322    -2.3237875254
| 13>  H        1.0364077882     1.8784028107     0.0389710510
| 14>  H       -0.4030840718     1.8780426050    -0.9947874598
| 15>  H       -0.5779921947     1.9811036577     0.7700869008
| 16>  H        0.5361195187    -0.4497573642    -0.7580420787
| 17>  H        0.3637373861    -0.3444429212     1.0019653249
| 18>  H       -4.2706511615    -1.4777989203    -1.1248625061
| 19>  H       -2.3593653202    -0.6506272807    -2.9828192457
| 20> *
| 21>
| 22>                          ****END OF INPUT****

CARTESIAN COORDINATES (ANGSTROEM)
---------------------------------
  C      0.001923    1.531284   -0.040128
  C     -0.042897    0.005470    0.050923
  N     -1.396606   -0.522081   -0.014794
  N     -2.077218   -0.865088    1.115155
  N     -3.257752   -1.266770    0.752729
  C     -3.372729   -1.190067   -0.602729
  C     -2.180583   -0.710646   -1.097161
  O     -1.695133   -0.425056   -2.323788
  H      1.036408    1.878403    0.038971
  H     -0.403084    1.878043   -0.994787
  H     -0.577992    1.981104    0.770087
  H      0.536120   -0.449757   -0.758042
  H      0.363737   -0.344443    1.001965
  H     -4.270651   -1.477799   -1.124863
  H     -2.359365   -0.650627   -2.982819

 Total Charge           Charge          ....    0
 Multiplicity           Mult            ....    1
 Number of Electrons    NEL             ....   60
 Basis Dimension        Dim             ....  290

ORBITAL ENERGIES
----------------

  NO   OCC          E(Eh)            E(eV)
   0   2.0000     -20.628325      -561.3253
   1   2.0000     -15.646193      -425.7545
   2   2.0000     -15.625606      -425.1944
   3   2.0000     -15.594593      -424.3504
   4   2.0000     -11.347677      -308.7860
   5   2.0000     -11.284798      -307.0750
   6   2.0000     -11.245872      -306.0157
   7   2.0000     -11.231021      -305.6116
   8   2.0000      -1.460561       -39.7439
   9   2.0000      -1.413531       -38.4641
  10   2.0000      -1.215834       -33.0845
  11   2.0000      -1.070450       -29.1284
  12   2.0000      -1.037749       -28.2386
  13   2.0000      -0.900906       -24.5149
  14   2.0000      -0.865237       -23.5443
  15   2.0000      -0.805110       -21.9082
  16   2.0000      -0.751085       -20.4380
  17   2.0000      -0.691503       -18.8168
  18   2.0000      -0.670525       -18.2459
  19   2.0000      -0.653944       -17.7947
  20   2.0000      -0.615369       -16.7450
  21   2.0000      -0.600539       -16.3415
  22   2.0000      -0.588740       -16.0204
  23   2.0000      -0.550949       -14.9921
  24   2.0000      -0.534467       -14.5436
  25   2.0000      -0.518722       -14.1151
  26   2.0000      -0.506803       -13.7908
  27   2.0000      -0.429516       -11.6877
  28   2.0000      -0.395856       -10.7718
  29   2.0000      -0.339404        -9.2357
  30   0.0000       0.112850         3.0708
  31   0.0000       0.144068         3.9203
  32   0.0000       0.158506         4.3132
  33   0.0000       0.178217         4.8495
  34   0.0000       0.188223         5.1218

MULLIKEN ATOMIC CHARGES
-----------------------
   0 C :   -0.405871
   1 C :   -0.143786
   2 N :    0.107284
   3 N :   -0.184542
   4 N :   -0.163354
   5 C :   -0.197396
   6 C :    0.205399
   7 O :   -0.433687
   8 H :    0.135551
   9 H :    0.144570
  10 H :    0.147735
  11 H :    0.139332
  12 H :    0.160110
  13 H :    0.139188
  14 H :    0.349466
Sum of atomic charges:    0.0000000

LOEWDIN ATOMIC CHARGES
----------------------
   0 C :   -0.307854
   1 C :   -0.267687
   2 N :    0.195140
   3 N :   -0.035717
   4 N :   -0.003341
   5 C :   -0.292525
   6 C :   -0.380608
   7 O :    0.080453
   8 H :    0.127733
   9 H :    0.125987
  10 H :    0.128912
  11 H :    0.142404
  12 H :    0.147602
  13 H :    0.133985
  14 H :    0.205516

  Mayer bond orders larger than 0.1
B(  0-C ,  1-C ) :   0.9210 B(  0-C ,  8-H ) :   0.9315 B(  0-C ,  9-H ) :   0.9350
B(  0-C , 10-H ) :   0.9331 B(  1-C ,  2-N ) :   0.8443 B(  1-C , 11-H ) :   0.9257
B(  1-C , 12-H ) :   0.9231 B(  2-N ,  3-N ) :   0.9751 B(  2-N ,  6-C ) :   1.1923
B(  3-N ,  4-N ) :   1.2839 B(  4-N ,  5-C ) :   1.3612 B(  5-C ,  6-C ) :   1.4076
B(  5-C , 13-H ) :   0.9420 B(  6-C ,  7-O ) :   1.0893 B(  7-O , 14-H ) :   0.8244

MP2 TOTAL ENERGY:     -395.331696672 Eh
FINAL SINGLE POINT ENERGY      -395.331696671716

DIPOLE MOMENT
-------------
                                X             Y             Z
Electronic contribution:     -5.25759      -4.81170       0.07266
Nuclear contribution   :      5.94916       5.27459      -1.74715
                        -----------------------------------------
Total Dipole Moment    :      0.69157       0.46289      -1.67449
                        -----------------------------------------
Magnitude (a.u.)       :      1.86988
Magnitude (Debye)      :      4.75286

                             ****ORCA TERMINATED NORMALLY****
TOTAL RUN TIME: 0 days 0 hours 10 minutes 41 seconds 338 msec
