                         Program Version 3.0.3 - RELEASE   -
|  1> ! RI-MP2 RIJK def2-TZVP def2-TZVP/C def2-TZVP/JK TIGHTSCF
|  2> % maxcore 2000
|  3> % mp2 density relaxed end
|  4> *xyz 0 1
|  5>  O       -0.0023394762     1.3442019409     0.0076925509
|  6>  C       -0.0468166437     0.0191757111     0.0011061949
|  7>  C       -1.2586926428    -0.6266690695     0.0050826076
|  8>  C       -1.4905088700    -2.0131380900    -0.0008419021
|  9>  C       -0.5865791297    -3.0522693178    -0.0116866580
| 10>  N        0.7628430772    -3.0359337261    -0.0193919477
| 11>  C        1.5530426955    -2.0028552504    -0.0186532376
| 12>  C        1.3067693664    -0.5703114788    -0.0100586034
| 13>  O        2.2431247507     0.2432595246    -0.0115662568
| 14>  H        0.9702384864     1.5320576094     0.0027624950
| 15>  H       -2.1293572079     0.0227606298     0.0137256887
| 16>  H       -2.5363868677    -2.3098017676     0.0038086316
| 17>  H       -1.0036392029    -4.0570287434    -0.0145967952
| 18>  H        2.6223761849    -2.2217450922    -0.0258820679
| 19> *
| 20>
| 21>                          ****END OF INPUT****

CARTESIAN COORDINATES (ANGSTROEM)
---------------------------------
  O     -0.002339    1.344202    0.007693
  C     -0.046817    0.019176    0.001106
  C     -1.258693   -0.626669    0.005083
  C     -1.490509   -2.013138   -0.000842
  C     -0.586579   -3.052269   -0.011687
  N      0.762843   -3.035934   -0.019392
  C      1.553043   -2.002855   -0.018653
  C      1.306769   -0.570311   -0.010059
  O      2.243125    0.243260   -0.011566
  H      0.970238    1.532058    0.002762
  H     -2.129357    0.022761    0.013726
  H     -2.536387   -2.309802    0.003809
  H     -1.003639   -4.057029   -0.014597
  H      2.622376   -2.221745   -0.025882

 Total Charge           Charge          ....    0
 Multiplicity           Mult            ....    1
 Number of Electrons    NEL             ....   64
 Basis Dimension        Dim             ....  309

ORBITAL ENERGIES
----------------

  NO   OCC          E(Eh)            E(eV)
   0   2.0000     -20.605028      -560.6913
   1   2.0000     -20.557700      -559.4034
   2   2.0000     -15.608756      -424.7359
   3   2.0000     -11.356311      -309.0209
   4   2.0000     -11.344412      -308.6971
   5   2.0000     -11.307824      -307.7015
   6   2.0000     -11.291868      -307.2674
   7   2.0000     -11.281022      -306.9722
   8   2.0000     -11.275516      -306.8224
   9   2.0000      -1.452714       -39.5304
  10   2.0000      -1.384129       -37.6641
  11   2.0000      -1.276128       -34.7252
  12   2.0000      -1.120090       -30.4792
  13   2.0000      -1.055153       -28.7122
  14   2.0000      -0.939120       -25.5547
  15   2.0000      -0.926155       -25.2020
  16   2.0000      -0.818455       -22.2713
  17   2.0000      -0.784125       -21.3371
  18   2.0000      -0.726225       -19.7616
  19   2.0000      -0.703092       -19.1321
  20   2.0000      -0.647733       -17.6257
  21   2.0000      -0.645816       -17.5735
  22   2.0000      -0.631336       -17.1795
  23   2.0000      -0.621623       -16.9152
  24   2.0000      -0.570660       -15.5285
  25   2.0000      -0.558049       -15.1853
  26   2.0000      -0.551240       -15.0000
  27   2.0000      -0.519704       -14.1419
  28   2.0000      -0.482681       -13.1344
  29   2.0000      -0.431589       -11.7441
  30   2.0000      -0.424808       -11.5596
  31   2.0000      -0.317076        -8.6281
  32   0.0000       0.032484         0.8839
  33   0.0000       0.045774         1.2456
  34   0.0000       0.141633         3.8540
  35   0.0000       0.169948         4.6245
  36   0.0000       0.178782         4.8649

MULLIKEN ATOMIC CHARGES
-----------------------
   0 O :   -0.383889
   1 C :    0.147354
   2 C :   -0.180269
   3 C :   -0.082122
   4 C :   -0.012141
   5 N :   -0.234030
   6 C :   -0.036692
   7 C :    0.259524
   8 O :   -0.408523
   9 H :    0.358842
  10 H :    0.149681
  11 H :    0.141742
  12 H :    0.135311
  13 H :    0.145210
Sum of atomic charges:    0.0000000

LOEWDIN ATOMIC CHARGES
----------------------
   0 O :    0.134397
   1 C :   -0.238171
   2 C :   -0.109000
   3 C :   -0.135494
   4 C :   -0.210307
   5 N :    0.148048
   6 C :   -0.162415
   7 C :   -0.345930
   8 O :    0.078834
   9 H :    0.212684
  10 H :    0.165799
  11 H :    0.161658
  12 H :    0.147439
  13 H :    0.152458

  Mayer bond orders larger than 0.1
B(  0-O ,  1-C ) :   1.2047 B(  0-O ,  9-H ) :   0.7392 B(  1-C ,  2-C ) :   1.3782
B(  1-C ,  7-C ) :   1.0080 B(  2-C ,  3-C ) :   1.2419 B(  2-C , 10-H ) :   0.9104
B(  3-C ,  4-C ) :   1.3534 B(  3-C , 11-H ) :   0.9125 B(  4-C ,  5-N ) :   1.2738
B(  4-C , 12-H ) :   0.9532 B(  5-N ,  6-C ) :   1.5487 B(  6-C ,  7-C ) :   1.0470
B(  6-C , 13-H ) :   0.9362 B(  7-C ,  8-O ) :   1.5876 B(  8-O ,  9-H ) :   0.1187

MP2 TOTAL ENERGY:     -435.990152562 Eh
FINAL SINGLE POINT ENERGY      -435.990152561597

DIPOLE MOMENT
-------------
                                X             Y             Z
Electronic contribution:      2.24610       1.60470      -0.00523
Nuclear contribution   :     -3.37603      -1.86046       0.01065
                        -----------------------------------------
Total Dipole Moment    :     -1.12993      -0.25575       0.00542
                        -----------------------------------------
Magnitude (a.u.)       :      1.15852
Magnitude (Debye)      :      2.94473

                             ****ORCA TERMINATED NORMALLY****
TOTAL RUN TIME: 0 days 0 hours 14 minutes 54 seconds 313 msec
