                         Program Version 3.0.3 - RELEASE   -
|  1> ! RI-MP2 RIJK def2-TZVP def2-TZVP/C def2-TZVP/JK TIGHTSCF
|  2> % maxcore 2000
|  3> % mp2 density relaxed end
|  4> *xyz 0 1
|  5>  O       -0.8607551894     0.9153948560    -0.6219281970
|  6>  C        0.2636395190     0.6308747718    -0.3077532892
|  7>  C        1.3544901864     1.6491689803     0.0295707689
|  8>  O        2.5725381550     0.9655681345    -0.1654702054
|  9>  C        3.7190151635     1.5606880322     0.4177758790
| 10>  C        4.2932108111     2.7025049032    -0.4183440327
| 11>  C        3.4719859394     3.9995715159    -0.4065434222
| 12>  C        2.0501933332     3.9169724541    -0.9065166085
| 13>  C        1.1590910254     2.9447579470    -0.7199799053
| 14>  H        0.6129293535    -0.4191068816    -0.2103188567
| 15>  H        1.2192696349     1.8480178302     1.1150882950
| 16>  H        3.4880320993     1.9040959465     1.4407371664
| 17>  H        4.4560822959     0.7549757035     0.4977050050
| 18>  H        5.3007383749     2.9244093831    -0.0441526894
| 19>  H        4.4051628387     2.3425177904    -1.4474109053
| 20>  H        3.4562581427     4.4004983073     0.6196617174
| 21>  H        4.0062064645     4.7514350400    -0.9979650186
| 22>  H        1.7078282219     4.7928676197    -1.4545863303
| 23>  H        0.1492192799     3.0666811158    -1.1027615311
| 24> *
| 25>
| 26>                          ****END OF INPUT****

CARTESIAN COORDINATES (ANGSTROEM)
---------------------------------
  O     -0.860755    0.915395   -0.621928
  C      0.263640    0.630875   -0.307753
  C      1.354490    1.649169    0.029571
  O      2.572538    0.965568   -0.165470
  C      3.719015    1.560688    0.417776
  C      4.293211    2.702505   -0.418344
  C      3.471986    3.999572   -0.406543
  C      2.050193    3.916972   -0.906517
  C      1.159091    2.944758   -0.719980
  H      0.612929   -0.419107   -0.210319
  H      1.219270    1.848018    1.115088
  H      3.488032    1.904096    1.440737
  H      4.456082    0.754976    0.497705
  H      5.300738    2.924409   -0.044153
  H      4.405163    2.342518   -1.447411
  H      3.456258    4.400498    0.619662
  H      4.006206    4.751435   -0.997965
  H      1.707828    4.792868   -1.454586
  H      0.149219    3.066681   -1.102762

 Total Charge           Charge          ....    0
 Multiplicity           Mult            ....    1
 Number of Electrons    NEL             ....   68
 Basis Dimension        Dim             ....  339

ORBITAL ENERGIES
----------------

  NO   OCC          E(Eh)            E(eV)
   0   2.0000     -20.571176      -559.7702
   1   2.0000     -20.562078      -559.5226
   2   2.0000     -11.333535      -308.4012
   3   2.0000     -11.304462      -307.6101
   4   2.0000     -11.287124      -307.1383
   5   2.0000     -11.238445      -305.8136
   6   2.0000     -11.237779      -305.7955
   7   2.0000     -11.232806      -305.6602
   8   2.0000     -11.231076      -305.6131
   9   2.0000      -1.407249       -38.2932
  10   2.0000      -1.390971       -37.8503
  11   2.0000      -1.097012       -29.8512
  12   2.0000      -1.071563       -29.1587
  13   2.0000      -0.962471       -26.1902
  14   2.0000      -0.937395       -25.5078
  15   2.0000      -0.830001       -22.5855
  16   2.0000      -0.803547       -21.8656
  17   2.0000      -0.733081       -19.9481
  18   2.0000      -0.698701       -19.0126
  19   2.0000      -0.679903       -18.5011
  20   2.0000      -0.662932       -18.0393
  21   2.0000      -0.644585       -17.5400
  22   2.0000      -0.616346       -16.7716
  23   2.0000      -0.611911       -16.6509
  24   2.0000      -0.593271       -16.1437
  25   2.0000      -0.543395       -14.7865
  26   2.0000      -0.539151       -14.6710
  27   2.0000      -0.527179       -14.3453
  28   2.0000      -0.507201       -13.8016
  29   2.0000      -0.483762       -13.1638
  30   2.0000      -0.478581       -13.0229
  31   2.0000      -0.433664       -11.8006
  32   2.0000      -0.421415       -11.4673
  33   2.0000      -0.359628        -9.7860
  34   0.0000       0.124550         3.3892
  35   0.0000       0.128222         3.4891
  36   0.0000       0.142244         3.8706
  37   0.0000       0.160303         4.3621
  38   0.0000       0.169022         4.5993

MULLIKEN ATOMIC CHARGES
-----------------------
   0 O :   -0.262875
   1 C :    0.093130
   2 C :    0.177770
   3 O :   -0.309893
   4 C :   -0.089193
   5 C :   -0.191912
   6 C :   -0.196878
   7 C :   -0.146677
   8 C :   -0.266826
   9 H :    0.101033
  10 H :    0.097710
  11 H :    0.098407
  12 H :    0.131150
  13 H :    0.117561
  14 H :    0.115251
  15 H :    0.120666
  16 H :    0.134553
  17 H :    0.127480
  18 H :    0.149541
Sum of atomic charges:    0.0000000

LOEWDIN ATOMIC CHARGES
----------------------
   0 O :    0.143264
   1 C :   -0.259233
   2 C :   -0.320202
   3 O :    0.187842
   4 C :   -0.315989
   5 C :   -0.269109
   6 C :   -0.258986
   7 C :   -0.168316
   8 C :   -0.157263
   9 H :    0.118606
  10 H :    0.158803
  11 H :    0.121535
  12 H :    0.131613
  13 H :    0.142864
  14 H :    0.144453
  15 H :    0.149270
  16 H :    0.145939
  17 H :    0.148086
  18 H :    0.156821

  Mayer bond orders larger than 0.1
B(  0-O ,  1-C ) :   1.9895 B(  1-C ,  2-C ) :   0.8679 B(  1-C ,  9-H ) :   0.9340
B(  2-C ,  3-O ) :   0.9459 B(  2-C ,  8-C ) :   0.8920 B(  2-C , 10-H ) :   0.8961
B(  3-O ,  4-C ) :   0.9184 B(  4-C ,  5-C ) :   0.9341 B(  4-C , 11-H ) :   0.9380
B(  4-C , 12-H ) :   0.9302 B(  5-C ,  6-C ) :   0.9229 B(  5-C , 13-H ) :   0.9239
B(  5-C , 14-H ) :   0.9214 B(  6-C ,  7-C ) :   0.9240 B(  6-C , 15-H ) :   0.9179
B(  6-C , 16-H ) :   0.9364 B(  7-C ,  8-C ) :   1.7911 B(  7-C , 17-H ) :   0.9290
B(  8-C , 18-H ) :   0.9165

MP2 TOTAL ENERGY:     -422.315038264 Eh
FINAL SINGLE POINT ENERGY      -422.315038264394

DIPOLE MOMENT
-------------
                                X             Y             Z
Electronic contribution:     -7.11188      -4.49368      -1.11433
Nuclear contribution   :      8.22165       4.94130       1.63264
                        -----------------------------------------
Total Dipole Moment    :      1.10977       0.44762       0.51832
                        -----------------------------------------
Magnitude (a.u.)       :      1.30408
Magnitude (Debye)      :      3.31470

                             ****ORCA TERMINATED NORMALLY****
TOTAL RUN TIME: 0 days 0 hours 18 minutes 16 seconds 429 msec
