                         Program Version 3.0.3 - RELEASE   -
|  1> ! RI-MP2 RIJK def2-TZVP def2-TZVP/C def2-TZVP/JK TIGHTSCF
|  2> % maxcore 2000
|  3> % mp2 density relaxed end
|  4> *xyz 0 1
|  5>  C        0.0092548782     1.5621112160     0.0054843120
|  6>  O        1.4191678962     1.8183347928    -0.0772677055
|  7>  C        2.1434926901     0.7596536447     0.5682989325
|  8>  C        1.1213644980    -0.3161412886     0.7850584992
|  9>  C        0.8740042721    -1.2558659187     1.6989423186
| 10>  C       -0.5798053839    -1.6132937818     1.6513641243
| 11>  O       -1.4177672030    -0.4815923769     2.0058200460
| 12>  C       -1.2094684658    -0.7563880197     0.6229873856
| 13>  C       -0.0970118367     0.0335078052    -0.0496458912
| 14>  H       -0.4107300334     1.9368641778     0.9495533108
| 15>  H       -0.4602039159     2.0839795435    -0.8316556401
| 16>  H        2.9650415887     0.4573645801    -0.0943239657
| 17>  H        2.5821696546     1.1095879959     1.5129778581
| 18>  H        1.5524934631    -1.6139958813     2.4634199461
| 19>  H       -0.9695450110    -2.5785129436     1.9593447341
| 20>  H       -2.0932141996    -1.0556964061     0.0665316865
| 21>  H        0.0192400984    -0.3025917393    -1.0886550015
| 22> *
| 23>
| 24>                          ****END OF INPUT****

CARTESIAN COORDINATES (ANGSTROEM)
---------------------------------
  C      0.009255    1.562111    0.005484
  O      1.419168    1.818335   -0.077268
  C      2.143493    0.759654    0.568299
  C      1.121364   -0.316141    0.785058
  C      0.874004   -1.255866    1.698942
  C     -0.579805   -1.613294    1.651364
  O     -1.417767   -0.481592    2.005820
  C     -1.209468   -0.756388    0.622987
  C     -0.097012    0.033508   -0.049646
  H     -0.410730    1.936864    0.949553
  H     -0.460204    2.083980   -0.831656
  H      2.965042    0.457365   -0.094324
  H      2.582170    1.109588    1.512978
  H      1.552493   -1.613996    2.463420
  H     -0.969545   -2.578513    1.959345
  H     -2.093214   -1.055696    0.066532
  H      0.019240   -0.302592   -1.088655

 Total Charge           Charge          ....    0
 Multiplicity           Mult            ....    1
 Number of Electrons    NEL             ....   66
 Basis Dimension        Dim             ....  327

ORBITAL ENERGIES
----------------

  NO   OCC          E(Eh)            E(eV)
   0   2.0000     -20.569554      -559.7260
   1   2.0000     -20.557116      -559.3876
   2   2.0000     -11.293883      -307.3222
   3   2.0000     -11.291996      -307.2708
   4   2.0000     -11.286870      -307.1313
   5   2.0000     -11.280327      -306.9533
   6   2.0000     -11.248324      -306.0825
   7   2.0000     -11.244132      -305.9684
   8   2.0000     -11.237146      -305.7783
   9   2.0000      -1.413713       -38.4691
  10   2.0000      -1.376238       -37.4493
  11   2.0000      -1.126840       -30.6629
  12   2.0000      -1.022210       -27.8158
  13   2.0000      -0.969986       -26.3947
  14   2.0000      -0.919889       -25.0315
  15   2.0000      -0.838786       -22.8245
  16   2.0000      -0.795343       -21.6424
  17   2.0000      -0.745814       -20.2946
  18   2.0000      -0.722351       -19.6562
  19   2.0000      -0.676852       -18.4181
  20   2.0000      -0.649653       -17.6780
  21   2.0000      -0.620329       -16.8800
  22   2.0000      -0.600845       -16.3498
  23   2.0000      -0.570849       -15.5336
  24   2.0000      -0.560402       -15.2493
  25   2.0000      -0.551327       -15.0024
  26   2.0000      -0.539923       -14.6920
  27   2.0000      -0.506546       -13.7838
  28   2.0000      -0.490944       -13.3593
  29   2.0000      -0.440898       -11.9975
  30   2.0000      -0.436566       -11.8796
  31   2.0000      -0.418204       -11.3799
  32   2.0000      -0.355190        -9.6652
  33   0.0000       0.118352         3.2205
  34   0.0000       0.148943         4.0529
  35   0.0000       0.164140         4.4665
  36   0.0000       0.171604         4.6696
  37   0.0000       0.181516         4.9393

MULLIKEN ATOMIC CHARGES
-----------------------
   0 C :   -0.072243
   1 O :   -0.315877
   2 C :   -0.014021
   3 C :   -0.083065
   4 C :   -0.228103
   5 C :    0.094449
   6 O :   -0.322260
   7 C :   -0.065549
   8 C :    0.029905
   9 H :    0.115181
  10 H :    0.115385
  11 H :    0.117074
  12 H :    0.110732
  13 H :    0.144698
  14 H :    0.130038
  15 H :    0.135045
  16 H :    0.108611
Sum of atomic charges:   -0.0000000

LOEWDIN ATOMIC CHARGES
----------------------
   0 C :   -0.264064
   1 O :    0.135757
   2 C :   -0.255018
   3 C :   -0.126066
   4 C :   -0.112806
   5 C :   -0.224772
   6 O :    0.167523
   7 C :   -0.232879
   8 C :   -0.186297
   9 H :    0.128790
  10 H :    0.126768
  11 H :    0.133111
  12 H :    0.130879
  13 H :    0.142131
  14 H :    0.135172
  15 H :    0.136180
  16 H :    0.165590

  Mayer bond orders larger than 0.1
B(  0-C ,  1-O ) :   0.9173 B(  0-C ,  8-C ) :   0.9121 B(  0-C ,  9-H ) :   0.9181
B(  0-C , 10-H ) :   0.9213 B(  1-O ,  2-C ) :   0.9546 B(  2-C ,  3-C ) :   0.9541
B(  2-C , 11-H ) :   0.9003 B(  2-C , 12-H ) :   0.9320 B(  3-C ,  4-C ) :   1.7422
B(  3-C ,  8-C ) :   0.9169 B(  4-C ,  5-C ) :   0.9285 B(  4-C , 13-H ) :   0.9162
B(  5-C ,  6-O ) :   0.8892 B(  5-C ,  7-C ) :   0.9491 B(  5-C , 14-H ) :   0.9282
B(  6-O ,  7-C ) :   0.9306 B(  7-C ,  8-C ) :   0.8936 B(  7-C , 15-H ) :   0.9284
B(  8-C , 16-H ) :   0.8916

MP2 TOTAL ENERGY:     -421.092124985 Eh
FINAL SINGLE POINT ENERGY      -421.092124984849

DIPOLE MOMENT
-------------
                                X             Y             Z
Electronic contribution:     -1.05606      -0.66131       1.10208
Nuclear contribution   :      1.14313      -0.08934      -1.36559
                        -----------------------------------------
Total Dipole Moment    :      0.08707      -0.75065      -0.26351
                        -----------------------------------------
Magnitude (a.u.)       :      0.80031
Magnitude (Debye)      :      2.03422

                             ****ORCA TERMINATED NORMALLY****
TOTAL RUN TIME: 0 days 0 hours 16 minutes 56 seconds 505 msec
