                         Program Version 3.0.3 - RELEASE   -
|  1> ! RI-MP2 RIJK def2-TZVP def2-TZVP/C def2-TZVP/JK TIGHTSCF
|  2> % maxcore 2000
|  3> % mp2 density relaxed end
|  4> *xyz 0 1
|  5>  O        0.1322673138     1.3869756575     0.1413092993
|  6>  C        0.0346779780    -0.0033027221     0.0906395317
|  7>  C       -1.4103638849    -0.4549260183     0.0299437829
|  8>  N       -2.3249325066     0.4263231123    -0.0210915557
|  9>  C       -3.7057473527    -0.0463046557    -0.0091921470
| 10>  C       -3.8901518521    -1.3929234983    -0.7233212991
| 11>  C       -2.8536879093    -2.4122555039    -0.2877966648
| 12>  O       -3.0090263358    -3.6100087133    -0.2645063458
| 13>  N       -1.6346558795    -1.8281530034     0.0439223055
| 14>  H       -0.7865739478     1.7029481367     0.0887056029
| 15>  H        0.5622608886    -0.4089241956    -0.7896133680
| 16>  H        0.5066988231    -0.4632832116     0.9759770170
| 17>  H       -4.0285363185    -0.1299859550     1.0390015002
| 18>  H       -4.3424491109     0.7139997017    -0.4695276490
| 19>  H       -4.8832454347    -1.8162155905    -0.5614024517
| 20>  H       -3.7640328384    -1.2596106945    -1.8061962300
| 21>  H       -0.8708430525    -2.4674080461     0.2179579115
| 22> *
| 23>
| 24>                          ****END OF INPUT****

CARTESIAN COORDINATES (ANGSTROEM)
---------------------------------
  O      0.132267    1.386976    0.141309
  C      0.034678   -0.003303    0.090640
  C     -1.410364   -0.454926    0.029944
  N     -2.324933    0.426323   -0.021092
  C     -3.705747   -0.046305   -0.009192
  C     -3.890152   -1.392923   -0.723321
  C     -2.853688   -2.412256   -0.287797
  O     -3.009026   -3.610009   -0.264506
  N     -1.634656   -1.828153    0.043922
  H     -0.786574    1.702948    0.088706
  H      0.562261   -0.408924   -0.789613
  H      0.506699   -0.463283    0.975977
  H     -4.028536   -0.129986    1.039002
  H     -4.342449    0.714000   -0.469528
  H     -4.883245   -1.816216   -0.561402
  H     -3.764033   -1.259611   -1.806196
  H     -0.870843   -2.467408    0.217958

 Total Charge           Charge          ....    0
 Multiplicity           Mult            ....    1
 Number of Electrons    NEL             ....   68
 Basis Dimension        Dim             ....  327

ORBITAL ENERGIES
----------------

  NO   OCC          E(Eh)            E(eV)
   0   2.0000     -20.556267      -559.3645
   1   2.0000     -20.548902      -559.1640
   2   2.0000     -15.623059      -425.1251
   3   2.0000     -15.564319      -423.5266
   4   2.0000     -11.377556      -309.5990
   5   2.0000     -11.344493      -308.6994
   6   2.0000     -11.303847      -307.5933
   7   2.0000     -11.278316      -306.8986
   8   2.0000     -11.257961      -306.3447
   9   2.0000      -1.415469       -38.5169
  10   2.0000      -1.376666       -37.4610
  11   2.0000      -1.310667       -35.6651
  12   2.0000      -1.205487       -32.8030
  13   2.0000      -1.077004       -29.3068
  14   2.0000      -0.979267       -26.6472
  15   2.0000      -0.916907       -24.9503
  16   2.0000      -0.848051       -23.0766
  17   2.0000      -0.778344       -21.1798
  18   2.0000      -0.729538       -19.8517
  19   2.0000      -0.695758       -18.9325
  20   2.0000      -0.687123       -18.6976
  21   2.0000      -0.655098       -17.8261
  22   2.0000      -0.644033       -17.5250
  23   2.0000      -0.619938       -16.8694
  24   2.0000      -0.600152       -16.3310
  25   2.0000      -0.592876       -16.1330
  26   2.0000      -0.572631       -15.5821
  27   2.0000      -0.552441       -15.0327
  28   2.0000      -0.528746       -14.3879
  29   2.0000      -0.488621       -13.2961
  30   2.0000      -0.451934       -12.2977
  31   2.0000      -0.444627       -12.0989
  32   2.0000      -0.437755       -11.9119
  33   2.0000      -0.391794       -10.6612
  34   0.0000       0.115863         3.1528
  35   0.0000       0.124113         3.3773
  36   0.0000       0.138456         3.7676
  37   0.0000       0.167819         4.5666
  38   0.0000       0.170485         4.6391

MULLIKEN ATOMIC CHARGES
-----------------------
   0 O :   -0.479564
   1 C :   -0.040428
   2 C :    0.232152
   3 N :   -0.331138
   4 C :   -0.154246
   5 C :   -0.229528
   6 C :    0.216869
   7 O :   -0.304212
   8 N :   -0.298527
   9 H :    0.338268
  10 H :    0.118433
  11 H :    0.111167
  12 H :    0.131111
  13 H :    0.144443
  14 H :    0.153184
  15 H :    0.142157
  16 H :    0.249858
Sum of atomic charges:   -0.0000000

LOEWDIN ATOMIC CHARGES
----------------------
   0 O :   -0.031434
   1 C :   -0.324857
   2 C :   -0.327978
   3 N :    0.083054
   4 C :   -0.280025
   5 C :   -0.224299
   6 C :   -0.419110
   7 O :    0.120085
   8 N :    0.164262
   9 H :    0.179439
  10 H :    0.132141
  11 H :    0.131211
  12 H :    0.141452
  13 H :    0.137713
  14 H :    0.155925
  15 H :    0.160008
  16 H :    0.202413

  Mayer bond orders larger than 0.1
B(  0-O ,  1-C ) :   1.0420 B(  0-O ,  9-H ) :   0.7933 B(  1-C ,  2-C ) :   0.9194
B(  1-C , 10-H ) :   0.9219 B(  1-C , 11-H ) :   0.9142 B(  2-C ,  3-N ) :   1.7242
B(  2-C ,  8-N ) :   1.0182 B(  3-N ,  4-C ) :   0.9068 B(  4-C ,  5-C ) :   0.8998
B(  4-C , 12-H ) :   0.9257 B(  4-C , 13-H ) :   0.9293 B(  5-C ,  6-C ) :   0.9297
B(  5-C , 14-H ) :   0.9211 B(  5-C , 15-H ) :   0.9052 B(  6-C ,  7-O ) :   2.0225
B(  6-C ,  8-N ) :   1.0545 B(  8-N , 16-H ) :   0.8538

MP2 TOTAL ENERGY:     -454.463390067 Eh
FINAL SINGLE POINT ENERGY      -454.463390067379

DIPOLE MOMENT
-------------
                                X             Y             Z
Electronic contribution:      0.84687      -2.70490       0.35647
Nuclear contribution   :     -1.19573       2.63076      -0.41495
                        -----------------------------------------
Total Dipole Moment    :     -0.34886      -0.07414      -0.05849
                        -----------------------------------------
Magnitude (a.u.)       :      0.36142
Magnitude (Debye)      :      0.91865

                             ****ORCA TERMINATED NORMALLY****
TOTAL RUN TIME: 0 days 0 hours 16 minutes 6 seconds 145 msec
