                         Program Version 3.0.3 - RELEASE   -
|  1> ! RI-MP2 RIJK def2-TZVP def2-TZVP/C def2-TZVP/JK TIGHTSCF
|  2> % maxcore 2000
|  3> % mp2 density relaxed end
|  4> *xyz 0 1
|  5>  O       -0.1210086083     1.4090729302     0.0261121304
|  6>  C       -0.0214706248     0.0234820102    -0.0117512698
|  7>  C        0.3811095074    -0.8034490765    -1.2914974269
|  8>  C       -0.3406738712    -1.9363109685    -0.4788304793
|  9>  C        0.5729966210    -2.0158814701     0.7561691044
| 10>  C        0.7830680035    -0.7346735987     1.0665418892
| 11>  C       -1.3185457336    -0.8152817180    -0.0279761305
| 12>  C       -2.5011220602    -0.7991622681     0.8714012041
| 13>  C       -2.6371964773    -0.4221713073    -0.6011900958
| 14>  H        0.7664622176     1.7820037170     0.0444690067
| 15>  H       -0.1673817330    -0.4915681921    -2.1843919196
| 16>  H        1.4469535847    -0.9389646743    -1.4915625768
| 17>  H       -0.6863975953    -2.8548827791    -0.9486868359
| 18>  H        0.9242271303    -2.9164979461     1.2397358318
| 19>  H        1.3407517699    -0.2834558578     1.8758825043
| 20>  H       -2.9229561767    -1.7458998480     1.1937429333
| 21>  H       -2.5773159753    -0.0019816856     1.6040411295
| 22>  H       -2.7949295251     0.6246953704    -0.8403986407
| 23>  H       -3.1521081537    -1.1169594077    -1.2578057583
| 24> *
| 25>
| 26>                          ****END OF INPUT****

CARTESIAN COORDINATES (ANGSTROEM)
---------------------------------
  O     -0.121009    1.409073    0.026112
  C     -0.021471    0.023482   -0.011751
  C      0.381110   -0.803449   -1.291497
  C     -0.340674   -1.936311   -0.478830
  C      0.572997   -2.015881    0.756169
  C      0.783068   -0.734674    1.066542
  C     -1.318546   -0.815282   -0.027976
  C     -2.501122   -0.799162    0.871401
  C     -2.637196   -0.422171   -0.601190
  H      0.766462    1.782004    0.044469
  H     -0.167382   -0.491568   -2.184392
  H      1.446954   -0.938965   -1.491563
  H     -0.686398   -2.854883   -0.948687
  H      0.924227   -2.916498    1.239736
  H      1.340752   -0.283456    1.875883
  H     -2.922956   -1.745900    1.193743
  H     -2.577316   -0.001982    1.604041
  H     -2.794930    0.624695   -0.840399
  H     -3.152108   -1.116959   -1.257806

 Total Charge           Charge          ....    0
 Multiplicity           Mult            ....    1
 Number of Electrons    NEL             ....   66
 Basis Dimension        Dim             ....  339

ORBITAL ENERGIES
----------------

  NO   OCC          E(Eh)            E(eV)
   0   2.0000     -20.564717      -559.5944
   1   2.0000     -11.294418      -307.3367
   2   2.0000     -11.241468      -305.8959
   3   2.0000     -11.235752      -305.7404
   4   2.0000     -11.227511      -305.5161
   5   2.0000     -11.225419      -305.4592
   6   2.0000     -11.223557      -305.4085
   7   2.0000     -11.217466      -305.2428
   8   2.0000     -11.215689      -305.1944
   9   2.0000      -1.376484       -37.4560
  10   2.0000      -1.199869       -32.6501
  11   2.0000      -1.104836       -30.0641
  12   2.0000      -0.979494       -26.6534
  13   2.0000      -0.903838       -24.5947
  14   2.0000      -0.844922       -22.9915
  15   2.0000      -0.816510       -22.2184
  16   2.0000      -0.748385       -20.3646
  17   2.0000      -0.721244       -19.6260
  18   2.0000      -0.702644       -19.1199
  19   2.0000      -0.650077       -17.6895
  20   2.0000      -0.638144       -17.3648
  21   2.0000      -0.624167       -16.9844
  22   2.0000      -0.581987       -15.8367
  23   2.0000      -0.561535       -15.2801
  24   2.0000      -0.530794       -14.4436
  25   2.0000      -0.508476       -13.8363
  26   2.0000      -0.507745       -13.8164
  27   2.0000      -0.497646       -13.5416
  28   2.0000      -0.438365       -11.9285
  29   2.0000      -0.423065       -11.5122
  30   2.0000      -0.414410       -11.2767
  31   2.0000      -0.391833       -10.6623
  32   2.0000      -0.332364        -9.0441
  33   0.0000       0.134435         3.6582
  34   0.0000       0.143299         3.8994
  35   0.0000       0.155662         4.2358
  36   0.0000       0.172723         4.7000
  37   0.0000       0.177122         4.8197

MULLIKEN ATOMIC CHARGES
-----------------------
   0 O :   -0.463696
   1 C :    0.262498
   2 C :   -0.224578
   3 C :   -0.027945
   4 C :   -0.235898
   5 C :   -0.242744
   6 C :    0.032671
   7 C :   -0.287022
   8 C :   -0.294647
   9 H :    0.322986
  10 H :    0.118743
  11 H :    0.113379
  12 H :    0.134867
  13 H :    0.134676
  14 H :    0.137018
  15 H :    0.123888
  16 H :    0.132889
  17 H :    0.137373
  18 H :    0.125541
Sum of atomic charges:    0.0000000

LOEWDIN ATOMIC CHARGES
----------------------
   0 O :    0.026963
   1 C :   -0.302866
   2 C :   -0.159280
   3 C :   -0.142670
   4 C :   -0.121161
   5 C :   -0.118885
   6 C :   -0.177722
   7 C :   -0.200914
   8 C :   -0.197393
   9 H :    0.183508
  10 H :    0.136646
  11 H :    0.125423
  12 H :    0.136798
  13 H :    0.132859
  14 H :    0.133684
  15 H :    0.134487
  16 H :    0.138566
  17 H :    0.138961
  18 H :    0.132997

  Mayer bond orders larger than 0.1
B(  0-O ,  1-C ) :   1.0115 B(  0-O ,  9-H ) :   0.8384 B(  1-C ,  2-C ) :   0.9163
B(  1-C ,  5-C ) :   0.9260 B(  1-C ,  6-C ) :   0.8601 B(  2-C ,  3-C ) :   0.9245
B(  2-C , 10-H ) :   0.9188 B(  2-C , 11-H ) :   0.9108 B(  3-C ,  4-C ) :   0.9264
B(  3-C ,  6-C ) :   0.8522 B(  3-C , 12-H ) :   0.8981 B(  4-C ,  5-C ) :   1.7431
B(  4-C , 13-H ) :   0.9216 B(  5-C , 14-H ) :   0.9230 B(  6-C ,  7-C ) :   0.8484
B(  6-C ,  8-C ) :   0.8761 B(  7-C ,  8-C ) :   0.9634 B(  7-C , 15-H ) :   0.9178
B(  7-C , 16-H ) :   0.9172 B(  8-C , 17-H ) :   0.9116 B(  8-C , 18-H ) :   0.9186

MP2 TOTAL ENERGY:     -385.158532659 Eh
FINAL SINGLE POINT ENERGY      -385.158532658950

DIPOLE MOMENT
-------------
                                X             Y             Z
Electronic contribution:      2.32541       1.42466       0.88406
Nuclear contribution   :     -1.89068      -1.61774      -0.95144
                        -----------------------------------------
Total Dipole Moment    :      0.43473      -0.19308      -0.06738
                        -----------------------------------------
Magnitude (a.u.)       :      0.48043
Magnitude (Debye)      :      1.22115

                             ****ORCA TERMINATED NORMALLY****
TOTAL RUN TIME: 0 days 0 hours 17 minutes 47 seconds 878 msec
