                         Program Version 3.0.3 - RELEASE   -
|  1> ! RI-MP2 RIJK def2-TZVP def2-TZVP/C def2-TZVP/JK TIGHTSCF
|  2> % maxcore 2000
|  3> % mp2 density relaxed end
|  4> *xyz 0 1
|  5>  C       -0.1829558140     1.5425422119    -0.0084992632
|  6>  C        0.0151968323     0.0330526697     0.0356263805
|  7>  N        0.8564532029    -0.4526604166    -1.1301306062
|  8>  C        1.9815828675    -1.2161453741    -0.5355385139
|  9>  C        2.8711664251    -0.2053366507     0.1841224822
| 10>  O        2.0672893317     0.2167157910     1.3228050192
| 11>  C        0.8230806726    -0.4869490639     1.2427932024
| 12>  C        1.2743269544    -1.8448322524     0.6762591374
| 13>  O        1.0674171561    -2.9754276890     1.0116184495
| 14>  H        0.7739725080     2.0571086026     0.1009714985
| 15>  H       -0.6283491508     1.8354725583    -0.9636622141
| 16>  H       -0.8476513892     1.8696579252     0.7984931904
| 17>  H       -0.9625549179    -0.4677342250     0.0319954493
| 18>  H        0.3047905660    -1.0651221868    -1.7215534175
| 19>  H        2.4750656046    -1.8799632596    -1.2415168766
| 20>  H        3.8036282627    -0.6518583599     0.5488724947
| 21>  H        3.0944770431     0.6621364060    -0.4453483961
| 22>  H        0.3282934448    -0.4767188668     2.2110608134
| 23> *
| 24>
| 25>                          ****END OF INPUT****

CARTESIAN COORDINATES (ANGSTROEM)
---------------------------------
  C     -0.182956    1.542542   -0.008499
  C      0.015197    0.033053    0.035626
  N      0.856453   -0.452660   -1.130131
  C      1.981583   -1.216145   -0.535539
  C      2.871166   -0.205337    0.184122
  O      2.067289    0.216716    1.322805
  C      0.823081   -0.486949    1.242793
  C      1.274327   -1.844832    0.676259
  O      1.067417   -2.975428    1.011618
  H      0.773973    2.057109    0.100971
  H     -0.628349    1.835473   -0.963662
  H     -0.847651    1.869658    0.798493
  H     -0.962555   -0.467734    0.031995
  H      0.304791   -1.065122   -1.721553
  H      2.475066   -1.879963   -1.241517
  H      3.803628   -0.651858    0.548872
  H      3.094477    0.662136   -0.445348
  H      0.328293   -0.476719    2.211061

 Total Charge           Charge          ....    0
 Multiplicity           Mult            ....    1
 Number of Electrons    NEL             ....   68
 Basis Dimension        Dim             ....  333

ORBITAL ENERGIES
----------------

  NO   OCC          E(Eh)            E(eV)
   0   2.0000     -20.571852      -559.7886
   1   2.0000     -20.567430      -559.6682
   2   2.0000     -15.568670      -423.6451
   3   2.0000     -11.338845      -308.5457
   4   2.0000     -11.298369      -307.4442
   5   2.0000     -11.292090      -307.2734
   6   2.0000     -11.281233      -306.9779
   7   2.0000     -11.277995      -306.8898
   8   2.0000     -11.219768      -305.3054
   9   2.0000      -1.416429       -38.5430
  10   2.0000      -1.389348       -37.8061
  11   2.0000      -1.233022       -33.5522
  12   2.0000      -1.061439       -28.8832
  13   2.0000      -1.003981       -27.3197
  14   2.0000      -0.975065       -26.5329
  15   2.0000      -0.863912       -23.5082
  16   2.0000      -0.779744       -21.2179
  17   2.0000      -0.770543       -20.9675
  18   2.0000      -0.735458       -20.0128
  19   2.0000      -0.682664       -18.5762
  20   2.0000      -0.659056       -17.9338
  21   2.0000      -0.631768       -17.1913
  22   2.0000      -0.611909       -16.6509
  23   2.0000      -0.591440       -16.0939
  24   2.0000      -0.584212       -15.8972
  25   2.0000      -0.569468       -15.4960
  26   2.0000      -0.543096       -14.7784
  27   2.0000      -0.530947       -14.4478
  28   2.0000      -0.518594       -14.1117
  29   2.0000      -0.506086       -13.7713
  30   2.0000      -0.499858       -13.6018
  31   2.0000      -0.458993       -12.4898
  32   2.0000      -0.424936       -11.5631
  33   2.0000      -0.364921        -9.9300
  34   0.0000       0.124749         3.3946
  35   0.0000       0.135632         3.6907
  36   0.0000       0.156551         4.2600
  37   0.0000       0.167668         4.5625
  38   0.0000       0.174001         4.7348

MULLIKEN ATOMIC CHARGES
-----------------------
   0 C :   -0.392522
   1 C :   -0.076562
   2 N :   -0.362292
   3 C :    0.026832
   4 C :   -0.077563
   5 O :   -0.331141
   6 C :    0.152561
   7 C :    0.044655
   8 O :   -0.244619
   9 H :    0.144458
  10 H :    0.132330
  11 H :    0.121213
  12 H :    0.114777
  13 H :    0.217234
  14 H :    0.152142
  15 H :    0.118072
  16 H :    0.113372
  17 H :    0.147054
Sum of atomic charges:   -0.0000000

LOEWDIN ATOMIC CHARGES
----------------------
   0 C :   -0.292707
   1 C :   -0.274733
   2 N :    0.030743
   3 C :   -0.265454
   4 C :   -0.247951
   5 O :    0.161715
   6 C :   -0.256303
   7 C :   -0.276554
   8 O :    0.172472
   9 H :    0.129191
  10 H :    0.125738
  11 H :    0.124587
  12 H :    0.146221
  13 H :    0.170361
  14 H :    0.148871
  15 H :    0.127862
  16 H :    0.128202
  17 H :    0.147738

  Mayer bond orders larger than 0.1
B(  0-C ,  1-C ) :   0.9161 B(  0-C ,  9-H ) :   0.9340 B(  0-C , 10-H ) :   0.9347
B(  0-C , 11-H ) :   0.9336 B(  1-C ,  2-N ) :   0.9049 B(  1-C ,  6-C ) :   0.8962
B(  1-C , 12-H ) :   0.9237 B(  2-N ,  3-C ) :   0.9892 B(  2-N , 13-H ) :   0.8781
B(  3-C ,  4-C ) :   0.9261 B(  3-C ,  6-C ) :  -0.1270 B(  3-C ,  7-C ) :   0.8924
B(  3-C , 14-H ) :   0.9005 B(  4-C ,  5-O ) :   0.9040 B(  4-C , 15-H ) :   0.9235
B(  4-C , 16-H ) :   0.9162 B(  5-O ,  6-C ) :   0.9111 B(  6-C ,  7-C ) :   0.8879
B(  6-C , 17-H ) :   0.9000 B(  7-C ,  8-O ) :   2.0511

MP2 TOTAL ENERGY:     -438.367070389 Eh
FINAL SINGLE POINT ENERGY      -438.367070388975

DIPOLE MOMENT
-------------
                                X             Y             Z
Electronic contribution:      2.04328      -6.44253       2.69069
Nuclear contribution   :     -2.26061       6.70706      -3.27690
                        -----------------------------------------
Total Dipole Moment    :     -0.21732       0.26453      -0.58621
                        -----------------------------------------
Magnitude (a.u.)       :      0.67886
Magnitude (Debye)      :      1.72553

                             ****ORCA TERMINATED NORMALLY****
TOTAL RUN TIME: 0 days 0 hours 20 minutes 24 seconds 146 msec
