                         Program Version 3.0.3 - RELEASE   -
|  1> ! RI-MP2 RIJK def2-TZVP def2-TZVP/C def2-TZVP/JK TIGHTSCF
|  2> % maxcore 2000
|  3> % mp2 density relaxed end
|  4> *xyz 0 1
|  5>  C       -0.1108594287     1.5609134096    -0.0268118706
|  6>  C        0.0367863479     0.0397435320     0.0029596609
|  7>  C        0.9360477324    -0.5601374548    -1.0776868806
|  8>  N        2.3278877901    -0.6934275220    -0.5591671243
|  9>  C        2.2652087170    -0.1977513405     0.8367172094
| 10>  C        0.8158199986    -0.5731817487     1.1975981257
| 11>  C        0.8367412121    -2.0669057025     0.8093153448
| 12>  C        1.4289434096    -1.8812525320    -0.5901315678
| 13>  C        1.8066382490    -3.0418172297    -1.4655748791
| 14>  H        0.8554622458     2.0726576131    -0.0098673197
| 15>  H       -0.6308778048     1.8792108715    -0.9367232020
| 16>  H       -0.6960393742     1.9148917891     0.8288150602
| 17>  H       -0.9628499671    -0.4106356054    -0.0524339483
| 18>  H        0.8275094750    -0.3150244794    -2.1287067564
| 19>  H        3.0082495504    -0.7169697708     1.4503978764
| 20>  H        2.4788985970     0.8736388180     0.8696058281
| 21>  H        0.4604068866    -0.3216028386     2.1964325736
| 22>  H        1.4742913542    -2.6745367207     1.4609422020
| 23>  H       -0.1610631330    -2.5174840663     0.7821470938
| 24>  H        0.9315183421    -3.6590579034    -1.6985403607
| 25>  H        2.2411309462    -2.6920276204    -2.4056454431
| 26>  H        2.5462464639    -3.6822416283    -0.9714404023
| 27> *
| 28>
| 29>                          ****END OF INPUT****

CARTESIAN COORDINATES (ANGSTROEM)
---------------------------------
  C     -0.110859    1.560913   -0.026812
  C      0.036786    0.039744    0.002960
  C      0.936048   -0.560137   -1.077687
  N      2.327888   -0.693428   -0.559167
  C      2.265209   -0.197751    0.836717
  C      0.815820   -0.573182    1.197598
  C      0.836741   -2.066906    0.809315
  C      1.428943   -1.881253   -0.590132
  C      1.806638   -3.041817   -1.465575
  H      0.855462    2.072658   -0.009867
  H     -0.630878    1.879211   -0.936723
  H     -0.696039    1.914892    0.828815
  H     -0.962850   -0.410636   -0.052434
  H      0.827509   -0.315024   -2.128707
  H      3.008250   -0.716970    1.450398
  H      2.478899    0.873639    0.869606
  H      0.460407   -0.321603    2.196433
  H      1.474291   -2.674537    1.460942
  H     -0.161063   -2.517484    0.782147
  H      0.931518   -3.659058   -1.698540
  H      2.241131   -2.692028   -2.405645
  H      2.546246   -3.682242   -0.971440

 Total Charge           Charge          ....    0
 Multiplicity           Mult            ....    1
 Number of Electrons    NEL             ....   68
 Basis Dimension        Dim             ....  357

ORBITAL ENERGIES
----------------

  NO   OCC          E(Eh)            E(eV)
   0   2.0000     -15.547797      -423.0771
   1   2.0000     -11.253662      -306.2277
   2   2.0000     -11.244127      -305.9683
   3   2.0000     -11.241203      -305.8887
   4   2.0000     -11.230129      -305.5873
   5   2.0000     -11.226983      -305.5017
   6   2.0000     -11.222764      -305.3869
   7   2.0000     -11.214926      -305.1737
   8   2.0000     -11.214662      -305.1665
   9   2.0000      -1.292942       -35.1827
  10   2.0000      -1.070118       -29.1194
  11   2.0000      -1.017874       -27.6978
  12   2.0000      -1.008938       -27.4546
  13   2.0000      -0.939987       -25.5784
  14   2.0000      -0.883289       -24.0355
  15   2.0000      -0.777297       -21.1513
  16   2.0000      -0.757667       -20.6172
  17   2.0000      -0.729603       -19.8535
  18   2.0000      -0.682020       -18.5587
  19   2.0000      -0.639621       -17.4050
  20   2.0000      -0.617287       -16.7972
  21   2.0000      -0.578816       -15.7504
  22   2.0000      -0.561941       -15.2912
  23   2.0000      -0.554974       -15.1016
  24   2.0000      -0.552202       -15.0262
  25   2.0000      -0.540442       -14.7062
  26   2.0000      -0.511349       -13.9145
  27   2.0000      -0.493897       -13.4396
  28   2.0000      -0.488076       -13.2812
  29   2.0000      -0.467324       -12.7165
  30   2.0000      -0.442387       -12.0380
  31   2.0000      -0.419476       -11.4145
  32   2.0000      -0.415076       -11.2948
  33   2.0000      -0.365966        -9.9584
  34   0.0000       0.134144         3.6502
  35   0.0000       0.151850         4.1320
  36   0.0000       0.169625         4.6157
  37   0.0000       0.171819         4.6754
  38   0.0000       0.187726         5.1083

MULLIKEN ATOMIC CHARGES
-----------------------
   0 C :   -0.423249
   1 C :   -0.084817
   2 C :   -0.121668
   3 N :   -0.237678
   4 C :   -0.189370
   5 C :   -0.039891
   6 C :   -0.251974
   7 C :    0.164739
   8 C :   -0.444804
   9 H :    0.131798
  10 H :    0.134150
  11 H :    0.132771
  12 H :    0.099955
  13 H :    0.123380
  14 H :    0.117033
  15 H :    0.120431
  16 H :    0.129691
  17 H :    0.120608
  18 H :    0.119420
  19 H :    0.126665
  20 H :    0.144186
  21 H :    0.128625
Sum of atomic charges:   -0.0000000

LOEWDIN ATOMIC CHARGES
----------------------
   0 C :   -0.288929
   1 C :   -0.232601
   2 C :   -0.179678
   3 N :    0.144222
   4 C :   -0.244842
   5 C :   -0.213275
   6 C :   -0.189552
   7 C :   -0.272327
   8 C :   -0.269601
   9 H :    0.124250
  10 H :    0.125687
  11 H :    0.124391
  12 H :    0.156996
  13 H :    0.140109
  14 H :    0.132876
  15 H :    0.129005
  16 H :    0.143180
  17 H :    0.139393
  18 H :    0.141884
  19 H :    0.127462
  20 H :    0.133193
  21 H :    0.128157

  Mayer bond orders larger than 0.1
B(  0-C ,  1-C ) :   0.8976 B(  0-C ,  9-H ) :   0.9356 B(  0-C , 10-H ) :   0.9401
B(  0-C , 11-H ) :   0.9404 B(  1-C ,  2-C ) :   0.9194 B(  1-C ,  5-C ) :   0.8927
B(  1-C , 12-H ) :   0.9146 B(  2-C ,  3-N ) :   0.9196 B(  2-C ,  7-C ) :   0.8668
B(  2-C , 13-H ) :   0.9199 B(  3-N ,  4-C ) :   0.9510 B(  3-N ,  7-C ) :   0.8346
B(  4-C ,  5-C ) :   0.9234 B(  4-C , 14-H ) :   0.9283 B(  4-C , 15-H ) :   0.9318
B(  5-C ,  6-C ) :   0.9058 B(  5-C , 16-H ) :   0.9132 B(  6-C ,  7-C ) :   0.9617
B(  6-C , 17-H ) :   0.9222 B(  6-C , 18-H ) :   0.9148 B(  7-C ,  8-C ) :   0.8612
B(  8-C , 19-H ) :   0.9402 B(  8-C , 20-H ) :   0.9478 B(  8-C , 21-H ) :   0.9418

MP2 TOTAL ENERGY:     -366.570359524 Eh
FINAL SINGLE POINT ENERGY      -366.570359523874

DIPOLE MOMENT
-------------
                                X             Y             Z
Electronic contribution:      1.79152      -0.45078      -0.28066
Nuclear contribution   :     -2.37880       0.36031       0.63012
                        -----------------------------------------
Total Dipole Moment    :     -0.58728      -0.09047       0.34946
                        -----------------------------------------
Magnitude (a.u.)       :      0.68935
Magnitude (Debye)      :      1.75220

                             ****ORCA TERMINATED NORMALLY****
TOTAL RUN TIME: 0 days 0 hours 26 minutes 30 seconds 226 msec
