                         Program Version 3.0.3 - RELEASE   -
|  1> ! RI-MP2 RIJK def2-TZVP def2-TZVP/C def2-TZVP/JK TIGHTSCF
|  2> % maxcore 2000
|  3> % mp2 density relaxed end
|  4> *xyz 0 1
|  5>  C       -0.2023697691     1.2511776024    -0.0234324558
|  6>  N        0.0869624442    -0.1719935973     0.1336984715
|  7>  C        1.4868818238    -0.5217536624    -0.1440217001
|  8>  C        0.9653763830    -0.4852403591     1.2618074705
|  9>  C        1.0454842723    -2.0320924524     1.3615835667
| 10>  C        1.6063955528    -2.0668980528    -0.0708276724
| 11>  O        0.4521058980    -2.8216413865    -0.5358715702
| 12>  C       -0.1287331341    -2.8020761014     0.7212539499
| 13>  O       -1.1529732231    -3.2993981316     1.0513075227
| 14>  H        0.6306876929     1.9114830817     0.2691772508
| 15>  H       -0.4480992939     1.4479297894    -1.0707375160
| 16>  H       -1.0734519892     1.5015882013     0.5884443097
| 17>  H        2.1342550420     0.1654293512    -0.6742806962
| 18>  H        1.1423180959     0.2283489435     2.0561201440
| 19>  H        1.5479035900    -2.4719675418     2.2194905172
| 20>  H        2.5509971044    -2.5247603240    -0.3561760422
| 21> *
| 22>
| 23>                          ****END OF INPUT****

CARTESIAN COORDINATES (ANGSTROEM)
---------------------------------
  C     -0.202370    1.251178   -0.023432
  N      0.086962   -0.171994    0.133698
  C      1.486882   -0.521754   -0.144022
  C      0.965376   -0.485240    1.261807
  C      1.045484   -2.032092    1.361584
  C      1.606396   -2.066898   -0.070828
  O      0.452106   -2.821641   -0.535872
  C     -0.128733   -2.802076    0.721254
  O     -1.152973   -3.299398    1.051308
  H      0.630688    1.911483    0.269177
  H     -0.448099    1.447930   -1.070738
  H     -1.073452    1.501588    0.588444
  H      2.134255    0.165429   -0.674281
  H      1.142318    0.228349    2.056120
  H      1.547904   -2.471968    2.219491
  H      2.550997   -2.524760   -0.356176

 Total Charge           Charge          ....    0
 Multiplicity           Mult            ....    1
 Number of Electrons    NEL             ....   66
 Basis Dimension        Dim             ....  321

ORBITAL ENERGIES
----------------

  NO   OCC          E(Eh)            E(eV)
   0   2.0000     -20.594165      -560.3957
   1   2.0000     -20.546650      -559.1028
   2   2.0000     -15.587111      -424.1468
   3   2.0000     -11.379999      -309.6655
   4   2.0000     -11.315807      -307.9188
   5   2.0000     -11.293438      -307.3101
   6   2.0000     -11.286264      -307.1148
   7   2.0000     -11.269359      -306.6548
   8   2.0000     -11.264787      -306.5304
   9   2.0000      -1.458093       -39.6767
  10   2.0000      -1.377068       -37.4719
  11   2.0000      -1.310900       -35.6714
  12   2.0000      -1.095380       -29.8068
  13   2.0000      -0.973133       -26.4803
  14   2.0000      -0.933716       -25.4077
  15   2.0000      -0.844159       -22.9707
  16   2.0000      -0.813935       -22.1483
  17   2.0000      -0.743968       -20.2444
  18   2.0000      -0.721904       -19.6440
  19   2.0000      -0.691041       -18.8042
  20   2.0000      -0.673907       -18.3379
  21   2.0000      -0.657478       -17.8909
  22   2.0000      -0.606339       -16.4993
  23   2.0000      -0.592408       -16.1202
  24   2.0000      -0.579024       -15.7560
  25   2.0000      -0.561970       -15.2920
  26   2.0000      -0.537376       -14.6227
  27   2.0000      -0.532496       -14.4900
  28   2.0000      -0.473887       -12.8951
  29   2.0000      -0.460819       -12.5395
  30   2.0000      -0.448251       -12.1975
  31   2.0000      -0.435619       -11.8538
  32   2.0000      -0.372853       -10.1458
  33   0.0000       0.131377         3.5749
  34   0.0000       0.141469         3.8496
  35   0.0000       0.148390         4.0379
  36   0.0000       0.175202         4.7675
  37   0.0000       0.184458         5.0194

MULLIKEN ATOMIC CHARGES
-----------------------
   0 C :   -0.335424
   1 N :   -0.193137
   2 C :   -0.142042
   3 C :   -0.110033
   4 C :   -0.115160
   5 C :    0.147075
   6 O :   -0.248953
   7 C :    0.256515
   8 O :   -0.252753
   9 H :    0.108150
  10 H :    0.152507
  11 H :    0.153099
  12 H :    0.145441
  13 H :    0.147703
  14 H :    0.151157
  15 H :    0.135856
Sum of atomic charges:   -0.0000000

LOEWDIN ATOMIC CHARGES
----------------------
   0 C :   -0.317624
   1 N :    0.125161
   2 C :   -0.192168
   3 C :   -0.189567
   4 C :   -0.136666
   5 C :   -0.194965
   6 O :    0.251969
   7 C :   -0.426661
   8 O :    0.164239
   9 H :    0.108411
  10 H :    0.123241
  11 H :    0.123401
  12 H :    0.135345
  13 H :    0.136736
  14 H :    0.151945
  15 H :    0.137205

  Mayer bond orders larger than 0.1
B(  0-C ,  1-N ) :   0.8606 B(  0-C ,  9-H ) :   0.9206 B(  0-C , 10-H ) :   0.9392
B(  0-C , 11-H ) :   0.9389 B(  1-N ,  2-C ) :   0.8681 B(  1-N ,  3-C ) :   0.9375
B(  2-C ,  3-C ) :   0.8779 B(  2-C ,  5-C ) :   0.8697 B(  2-C , 12-H ) :   0.9131
B(  3-C ,  4-C ) :   0.8739 B(  3-C , 13-H ) :   0.9113 B(  4-C ,  5-C ) :   0.9351
B(  4-C ,  7-C ) :   0.8973 B(  4-C , 14-H ) :   0.9116 B(  5-C ,  6-O ) :   0.8996
B(  5-C , 15-H ) :   0.9302 B(  6-O ,  7-C ) :   1.0567 B(  7-C ,  8-O ) :   2.0653

MP2 TOTAL ENERGY:     -437.112882272 Eh
FINAL SINGLE POINT ENERGY      -437.112882272354

DIPOLE MOMENT
-------------
                                X             Y             Z
Electronic contribution:     -1.65203      -8.26155       0.12447
Nuclear contribution   :      3.23136       9.65018       0.18905
                        -----------------------------------------
Total Dipole Moment    :      1.57933       1.38863       0.31352
                        -----------------------------------------
Magnitude (a.u.)       :      2.12623
Magnitude (Debye)      :      5.40445

                             ****ORCA TERMINATED NORMALLY****
TOTAL RUN TIME: 0 days 0 hours 17 minutes 20 seconds 59 msec
