                         Program Version 3.0.3 - RELEASE   -
|  1> ! RI-MP2 RIJK def2-TZVP def2-TZVP/C def2-TZVP/JK TIGHTSCF
|  2> % maxcore 2000
|  3> % mp2 density relaxed end
|  4> *xyz 0 1
|  5>  C        0.0304134259     1.6351407872     0.0728578266
|  6>  C        0.0040381089     0.1120485118    -0.0119513429
|  7>  C        1.1788152106    -0.4813187344    -0.8579214190
|  8>  O        1.8729493764    -0.8837214146     0.3376692653
|  9>  C        0.7327429354    -0.5820395816     1.1628537219
| 10>  N       -1.3456113021    -0.3921952784    -0.2167471622
| 11>  C       -1.9697605404     0.0043415735    -1.4782221172
| 12>  C       -3.2508485764    -0.6825461580    -1.6576664437
| 13>  N       -4.2501269199    -1.2410450556    -1.8101933773
| 14>  H        1.0308239904     1.9735439468     0.3558924252
| 15>  H       -0.2107707973     2.1050723641    -0.8863182305
| 16>  H       -0.6850768019     1.9883752986     0.8214237646
| 17>  H        0.8914134016    -1.3436963620    -1.4781339521
| 18>  H        1.7717730566     0.2149512851    -1.4623515763
| 19>  H        0.9920157777     0.0446303503     2.0232608504
| 20>  H        0.2274174279    -1.4904826569     1.5213021348
| 21>  H       -1.3418440544    -1.4056006915    -0.1565178225
| 22>  H       -2.1622343758     1.0825161122    -1.4691036866
| 23>  H       -1.3527941733    -0.1987602065    -2.3723588884
| 24> *
| 25>
| 26>                          ****END OF INPUT****

CARTESIAN COORDINATES (ANGSTROEM)
---------------------------------
  C      0.030413    1.635141    0.072858
  C      0.004038    0.112049   -0.011951
  C      1.178815   -0.481319   -0.857921
  O      1.872949   -0.883721    0.337669
  C      0.732743   -0.582040    1.162854
  N     -1.345611   -0.392195   -0.216747
  C     -1.969761    0.004342   -1.478222
  C     -3.250849   -0.682546   -1.657666
  N     -4.250127   -1.241045   -1.810193
  H      1.030824    1.973544    0.355892
  H     -0.210771    2.105072   -0.886318
  H     -0.685077    1.988375    0.821424
  H      0.891413   -1.343696   -1.478134
  H      1.771773    0.214951   -1.462352
  H      0.992016    0.044630    2.023261
  H      0.227417   -1.490483    1.521302
  H     -1.341844   -1.405601   -0.156518
  H     -2.162234    1.082516   -1.469104
  H     -1.352794   -0.198760   -2.372359

 Total Charge           Charge          ....    0
 Multiplicity           Mult            ....    1
 Number of Electrons    NEL             ....   68
 Basis Dimension        Dim             ....  339

ORBITAL ENERGIES
----------------

  NO   OCC          E(Eh)            E(eV)
   0   2.0000     -20.563323      -559.5565
   1   2.0000     -15.583589      -424.0510
   2   2.0000     -15.579108      -423.9291
   3   2.0000     -11.320826      -308.0553
   4   2.0000     -11.291632      -307.2609
   5   2.0000     -11.291207      -307.2494
   6   2.0000     -11.290624      -307.2335
   7   2.0000     -11.280960      -306.9705
   8   2.0000     -11.238661      -305.8195
   9   2.0000      -1.395458       -37.9723
  10   2.0000      -1.256942       -34.2031
  11   2.0000      -1.219727       -33.1905
  12   2.0000      -1.063805       -28.9476
  13   2.0000      -0.985813       -26.8253
  14   2.0000      -0.951093       -25.8806
  15   2.0000      -0.919549       -25.0222
  16   2.0000      -0.774827       -21.0841
  17   2.0000      -0.736434       -20.0394
  18   2.0000      -0.698318       -19.0022
  19   2.0000      -0.684996       -18.6397
  20   2.0000      -0.664233       -18.0747
  21   2.0000      -0.638192       -17.3661
  22   2.0000      -0.615891       -16.7593
  23   2.0000      -0.590589       -16.0707
  24   2.0000      -0.574655       -15.6372
  25   2.0000      -0.564812       -15.3693
  26   2.0000      -0.556302       -15.1378
  27   2.0000      -0.538138       -14.6435
  28   2.0000      -0.506845       -13.7919
  29   2.0000      -0.484879       -13.1942
  30   2.0000      -0.468213       -12.7407
  31   2.0000      -0.460453       -12.5296
  32   2.0000      -0.431178       -11.7330
  33   2.0000      -0.401073       -10.9137
  34   0.0000       0.109496         2.9795
  35   0.0000       0.143758         3.9119
  36   0.0000       0.149662         4.0725
  37   0.0000       0.160462         4.3664
  38   0.0000       0.164828         4.4852

MULLIKEN ATOMIC CHARGES
-----------------------
   0 C :   -0.475595
   1 C :    0.115449
   2 C :   -0.042465
   3 O :   -0.321699
   4 C :   -0.040220
   5 N :   -0.308668
   6 C :   -0.069836
   7 C :   -0.167675
   8 N :   -0.052367
   9 H :    0.156638
  10 H :    0.135081
  11 H :    0.151805
  12 H :    0.087882
  13 H :    0.106865
  14 H :    0.111986
  15 H :    0.095342
  16 H :    0.213959
  17 H :    0.157424
  18 H :    0.146095
Sum of atomic charges:   -0.0000000

LOEWDIN ATOMIC CHARGES
----------------------
   0 C :   -0.269947
   1 C :   -0.353100
   2 C :   -0.246640
   3 O :    0.118274
   4 C :   -0.232686
   5 N :    0.033059
   6 C :   -0.285119
   7 C :   -0.188840
   8 N :    0.066582
   9 H :    0.136924
  10 H :    0.124600
  11 H :    0.133034
  12 H :    0.116647
  13 H :    0.119240
  14 H :    0.122556
  15 H :    0.120228
  16 H :    0.180969
  17 H :    0.158851
  18 H :    0.145370

  Mayer bond orders larger than 0.1
B(  0-C ,  1-C ) :   0.8866 B(  0-C ,  9-H ) :   0.9308 B(  0-C , 10-H ) :   0.9311
B(  0-C , 11-H ) :   0.9340 B(  1-C ,  2-C ) :   0.9605 B(  1-C ,  4-C ) :   0.9533
B(  1-C ,  5-N ) :   0.9594 B(  2-C ,  3-O ) :   0.9632 B(  2-C , 12-H ) :   0.8916
B(  2-C , 13-H ) :   0.9079 B(  3-O ,  4-C ) :   0.9564 B(  4-C , 14-H ) :   0.9187
B(  4-C , 15-H ) :   0.8956 B(  5-N ,  6-C ) :   0.9662 B(  5-N , 16-H ) :   0.8690
B(  6-C ,  7-C ) :   0.9355 B(  6-C , 17-H ) :   0.8970 B(  6-C , 18-H ) :   0.9060
B(  7-C ,  8-N ) :   2.8659

MP2 TOTAL ENERGY:     -418.476943618 Eh
FINAL SINGLE POINT ENERGY      -418.476943618461

DIPOLE MOMENT
-------------
                                X             Y             Z
Electronic contribution:     -4.91756      -4.46346      -1.61306
Nuclear contribution   :      5.81568       5.29672       1.51126
                        -----------------------------------------
Total Dipole Moment    :      0.89812       0.83326      -0.10180
                        -----------------------------------------
Magnitude (a.u.)       :      1.22936
Magnitude (Debye)      :      3.12477

                             ****ORCA TERMINATED NORMALLY****
TOTAL RUN TIME: 0 days 0 hours 17 minutes 6 seconds 576 msec
