                         Program Version 3.0.3 - RELEASE   -
|  1> ! RI-MP2 RIJK def2-TZVP def2-TZVP/C def2-TZVP/JK TIGHTSCF
|  2> % maxcore 2000
|  3> % mp2 density relaxed end
|  4> *xyz 0 1
|  5>  C        0.0237349387     1.5758290179     0.1208370127
|  6>  C       -0.0220593055     0.0553491951    -0.0466265119
|  7>  N       -1.3709646332    -0.4845843110    -0.0023369822
|  8>  C       -2.1410306220    -0.7609896122     1.1234229884
|  9>  N       -3.3139955531    -1.2233821598     0.9183742319
| 10>  C       -3.4487932823    -1.3031090815    -0.5393171221
| 11>  C       -2.1279506458    -0.8008694104    -1.1304585046
| 12>  O       -1.7683805008    -0.6872942483    -2.2781826959
| 13>  H        1.0583360840     1.9285180439     0.0714558693
| 14>  H       -0.5447067338     2.0669768553    -0.6735910653
| 15>  H       -0.3941705670     1.8843877719     1.0843541086
| 16>  H        0.3842102301    -0.2315286938    -1.0204728540
| 17>  H        0.5776119635    -0.4384441049     0.7258677215
| 18>  H       -1.7204585534    -0.5830605540     2.1088116977
| 19>  H       -3.6489085171    -2.3315289141    -0.8589125970
| 20>  H       -4.2867437324    -0.6909699439    -0.8902457770
| 21> *
| 22>
| 23>                          ****END OF INPUT****

CARTESIAN COORDINATES (ANGSTROEM)
---------------------------------
  C      0.023735    1.575829    0.120837
  C     -0.022059    0.055349   -0.046627
  N     -1.370965   -0.484584   -0.002337
  C     -2.141031   -0.760990    1.123423
  N     -3.313996   -1.223382    0.918374
  C     -3.448793   -1.303109   -0.539317
  C     -2.127951   -0.800869   -1.130459
  O     -1.768381   -0.687294   -2.278183
  H      1.058336    1.928518    0.071456
  H     -0.544707    2.066977   -0.673591
  H     -0.394171    1.884388    1.084354
  H      0.384210   -0.231529   -1.020473
  H      0.577612   -0.438444    0.725868
  H     -1.720459   -0.583061    2.108812
  H     -3.648909   -2.331529   -0.858913
  H     -4.286744   -0.690970   -0.890246

 Total Charge           Charge          ....    0
 Multiplicity           Mult            ....    1
 Number of Electrons    NEL             ....   60
 Basis Dimension        Dim             ....  296

ORBITAL ENERGIES
----------------

  NO   OCC          E(Eh)            E(eV)
   0   2.0000     -20.538801      -558.8892
   1   2.0000     -15.611642      -424.8144
   2   2.0000     -15.559718      -423.4015
   3   2.0000     -11.362552      -309.1908
   4   2.0000     -11.328906      -308.2752
   5   2.0000     -11.285513      -307.0944
   6   2.0000     -11.272424      -306.7383
   7   2.0000     -11.235029      -305.7207
   8   2.0000      -1.405963       -38.2582
   9   2.0000      -1.324938       -36.0534
  10   2.0000      -1.199010       -32.6267
  11   2.0000      -1.038457       -28.2579
  12   2.0000      -0.999461       -27.1967
  13   2.0000      -0.891728       -24.2652
  14   2.0000      -0.845416       -23.0049
  15   2.0000      -0.756460       -20.5843
  16   2.0000      -0.714064       -19.4307
  17   2.0000      -0.667521       -18.1642
  18   2.0000      -0.656594       -17.8668
  19   2.0000      -0.627108       -17.0645
  20   2.0000      -0.611382       -16.6365
  21   2.0000      -0.587896       -15.9975
  22   2.0000      -0.572002       -15.5650
  23   2.0000      -0.549994       -14.9661
  24   2.0000      -0.527674       -14.3587
  25   2.0000      -0.517912       -14.0931
  26   2.0000      -0.489053       -13.3078
  27   2.0000      -0.484458       -13.1828
  28   2.0000      -0.411481       -11.1970
  29   2.0000      -0.365996        -9.9592
  30   0.0000       0.122085         3.3221
  31   0.0000       0.125308         3.4098
  32   0.0000       0.154775         4.2116
  33   0.0000       0.167756         4.5649
  34   0.0000       0.169938         4.6243

MULLIKEN ATOMIC CHARGES
-----------------------
   0 C :   -0.390494
   1 C :   -0.172188
   2 N :   -0.074188
   3 C :    0.013504
   4 N :   -0.262276
   5 C :   -0.114889
   6 C :    0.178294
   7 O :   -0.337814
   8 H :    0.136241
   9 H :    0.148870
  10 H :    0.128224
  11 H :    0.157544
  12 H :    0.135855
  13 H :    0.149406
  14 H :    0.152335
  15 H :    0.151576
Sum of atomic charges:    0.0000000

LOEWDIN ATOMIC CHARGES
----------------------
   0 C :   -0.310393
   1 C :   -0.273636
   2 N :    0.211788
   3 C :   -0.271387
   4 N :    0.068056
   5 C :   -0.241447
   6 C :   -0.394285
   7 O :    0.103166
   8 H :    0.127091
   9 H :    0.128886
  10 H :    0.121577
  11 H :    0.148877
  12 H :    0.137139
  13 H :    0.137814
  14 H :    0.153442
  15 H :    0.153311

  Mayer bond orders larger than 0.1
B(  0-C ,  1-C ) :   0.9239 B(  0-C ,  8-H ) :   0.9343 B(  0-C ,  9-H ) :   0.9357
B(  0-C , 10-H ) :   0.9334 B(  1-C ,  2-N ) :   0.8461 B(  1-C , 11-H ) :   0.9198
B(  1-C , 12-H ) :   0.9323 B(  2-N ,  3-C ) :   1.0362 B(  2-N ,  6-C ) :   1.0539
B(  3-C ,  4-N ) :   1.8236 B(  3-C , 13-H ) :   0.9164 B(  4-N ,  5-C ) :   0.9408
B(  5-C ,  6-C ) :   0.9355 B(  5-C , 14-H ) :   0.9022 B(  5-C , 15-H ) :   0.9036
B(  6-C ,  7-O ) :   1.9519

MP2 TOTAL ENERGY:     -379.331996508 Eh
FINAL SINGLE POINT ENERGY      -379.331996507663

DIPOLE MOMENT
-------------
                                X             Y             Z
Electronic contribution:     -4.25697      -4.33744      -1.71357
Nuclear contribution   :      5.01615       4.71761       2.41487
                        -----------------------------------------
Total Dipole Moment    :      0.75917       0.38017       0.70130
                        -----------------------------------------
Magnitude (a.u.)       :      1.10122
Magnitude (Debye)      :      2.79909

                             ****ORCA TERMINATED NORMALLY****
TOTAL RUN TIME: 0 days 0 hours 11 minutes 51 seconds 763 msec
