                         Program Version 3.0.3 - RELEASE   -
|  1> ! RI-MP2 RIJK def2-TZVP def2-TZVP/C def2-TZVP/JK TIGHTSCF
|  2> % maxcore 2000
|  3> % mp2 density relaxed end
|  4> *xyz 0 1
|  5>  C       -1.9606036281     0.7256167440     1.6078767372
|  6>  O       -2.0512570321    -0.4849381052     0.8508056409
|  7>  C       -1.2293424619    -0.5760607177    -0.2102888705
|  8>  N       -0.4180268092     0.3585321961    -0.5040619926
|  9>  N       -1.3912611667    -1.7737801431    -0.8900912213
| 10>  C       -2.2091471147    -2.8880037928    -0.6932695062
| 11>  N       -1.9818629327    -3.8943661921    -1.4401557997
| 12>  C       -3.3271155775    -2.8354731303     0.3486538837
| 13>  O       -4.1437002899    -3.9864701073     0.2805126788
| 14>  H       -2.6931052777     0.6207403673     2.4090387451
| 15>  H       -0.9550310523     0.8488822286     2.0162579162
| 16>  H       -2.1916126750     1.5902338292     0.9814529598
| 17>  H        0.1276564740     0.1460215609    -1.3345864891
| 18>  H       -0.7252282028    -1.9354155740    -1.6320923870
| 19>  H       -2.6356832044    -4.6371810203    -1.1921271014
| 20>  H       -2.8955756681    -2.8113515594     1.3521030941
| 21>  H       -3.9032228155    -1.9114852612     0.2318842500
| 22>  H       -4.7101986355    -3.9042319626    -0.4937388579
| 23> *
| 24>
| 25>                          ****END OF INPUT****

CARTESIAN COORDINATES (ANGSTROEM)
---------------------------------
  C     -1.960604    0.725617    1.607877
  O     -2.051257   -0.484938    0.850806
  C     -1.229342   -0.576061   -0.210289
  N     -0.418027    0.358532   -0.504062
  N     -1.391261   -1.773780   -0.890091
  C     -2.209147   -2.888004   -0.693270
  N     -1.981863   -3.894366   -1.440156
  C     -3.327116   -2.835473    0.348654
  O     -4.143700   -3.986470    0.280513
  H     -2.693105    0.620740    2.409039
  H     -0.955031    0.848882    2.016258
  H     -2.191613    1.590234    0.981453
  H      0.127656    0.146022   -1.334586
  H     -0.725228   -1.935416   -1.632092
  H     -2.635683   -4.637181   -1.192127
  H     -2.895576   -2.811352    1.352103
  H     -3.903223   -1.911485    0.231884
  H     -4.710199   -3.904232   -0.493739

 Total Charge           Charge          ....    0
 Multiplicity           Mult            ....    1
 Number of Electrons    NEL             ....   70
 Basis Dimension        Dim             ....  333

ORBITAL ENERGIES
----------------

  NO   OCC          E(Eh)            E(eV)
   0   2.0000     -20.607680      -560.7635
   1   2.0000     -20.579631      -560.0002
   2   2.0000     -15.606570      -424.6764
   3   2.0000     -15.535536      -422.7434
   4   2.0000     -15.530197      -422.5982
   5   2.0000     -11.387032      -309.8569
   6   2.0000     -11.332089      -308.3618
   7   2.0000     -11.302730      -307.5629
   8   2.0000     -11.288027      -307.1628
   9   2.0000      -1.453182       -39.5431
  10   2.0000      -1.388407       -37.7805
  11   2.0000      -1.295335       -35.2479
  12   2.0000      -1.210532       -32.9402
  13   2.0000      -1.149913       -31.2907
  14   2.0000      -0.980229       -26.6734
  15   2.0000      -0.975809       -26.5531
  16   2.0000      -0.848760       -23.0959
  17   2.0000      -0.798047       -21.7160
  18   2.0000      -0.754593       -20.5335
  19   2.0000      -0.709556       -19.3080
  20   2.0000      -0.687765       -18.7150
  21   2.0000      -0.679567       -18.4920
  22   2.0000      -0.657007       -17.8781
  23   2.0000      -0.653827       -17.7915
  24   2.0000      -0.625372       -17.0172
  25   2.0000      -0.601823       -16.3764
  26   2.0000      -0.578899       -15.7526
  27   2.0000      -0.534260       -14.5379
  28   2.0000      -0.529460       -14.4073
  29   2.0000      -0.499879       -13.6024
  30   2.0000      -0.489282       -13.3140
  31   2.0000      -0.456225       -12.4145
  32   2.0000      -0.431575       -11.7438
  33   2.0000      -0.427714       -11.6387
  34   2.0000      -0.363873        -9.9015
  35   0.0000       0.120123         3.2687
  36   0.0000       0.136929         3.7260
  37   0.0000       0.152724         4.1558
  38   0.0000       0.156943         4.2706
  39   0.0000       0.176250         4.7960

MULLIKEN ATOMIC CHARGES
-----------------------
   0 C :   -0.204030
   1 O :   -0.277450
   2 C :    0.338967
   3 N :   -0.452522
   4 N :   -0.304473
   5 C :    0.062779
   6 N :   -0.397573
   7 C :    0.009919
   8 O :   -0.479421
   9 H :    0.139728
  10 H :    0.143660
  11 H :    0.141650
  12 H :    0.208136
  13 H :    0.244789
  14 H :    0.226458
  15 H :    0.139410
  16 H :    0.133772
  17 H :    0.326204
Sum of atomic charges:    0.0000000

LOEWDIN ATOMIC CHARGES
----------------------
   0 C :   -0.307545
   1 O :    0.231167
   2 C :   -0.501830
   3 N :   -0.101225
   4 N :    0.150220
   5 C :   -0.370087
   6 N :   -0.069178
   7 C :   -0.327640
   8 O :   -0.033643
   9 H :    0.113406
  10 H :    0.116428
  11 H :    0.115640
  12 H :    0.161663
  13 H :    0.204932
  14 H :    0.165012
  15 H :    0.143394
  16 H :    0.130864
  17 H :    0.178421

  Mayer bond orders larger than 0.1
B(  0-C ,  1-O ) :   0.8452 B(  0-C ,  9-H ) :   0.9312 B(  0-C , 10-H ) :   0.9372
B(  0-C , 11-H ) :   0.9379 B(  1-O ,  2-C ) :   1.0646 B(  2-C ,  3-N ) :   1.8771
B(  2-C ,  4-N ) :   1.0729 B(  3-N , 12-H ) :   0.8638 B(  4-N ,  5-C ) :   1.0018
B(  4-N , 13-H ) :   0.8545 B(  5-C ,  6-N ) :   1.9455 B(  5-C ,  7-C ) :   0.9207
B(  6-N , 14-H ) :   0.8526 B(  7-C ,  8-O ) :   0.9188 B(  7-C , 15-H ) :   0.9022
B(  7-C , 16-H ) :   0.9337 B(  8-O , 17-H ) :   0.8402

MP2 TOTAL ENERGY:     -471.659509794 Eh
FINAL SINGLE POINT ENERGY      -471.659509793640

DIPOLE MOMENT
-------------
                                X             Y             Z
Electronic contribution:      0.83022      -2.74846      -2.51705
Nuclear contribution   :     -1.43901       3.21548       2.62179
                        -----------------------------------------
Total Dipole Moment    :     -0.60879       0.46703       0.10474
                        -----------------------------------------
Magnitude (a.u.)       :      0.77441
Magnitude (Debye)      :      1.96839

                             ****ORCA TERMINATED NORMALLY****
TOTAL RUN TIME: 0 days 0 hours 13 minutes 40 seconds 456 msec
