                         Program Version 3.0.3 - RELEASE   -
|  1> ! RI-MP2 RIJK def2-TZVP def2-TZVP/C def2-TZVP/JK TIGHTSCF
|  2> % maxcore 2000
|  3> % mp2 density relaxed end
|  4> *xyz 0 1
|  5>  C       -0.0126507304     1.4614115789     0.1012611284
|  6>  C       -0.0002433559    -0.0248090068    -0.0258269315
|  7>  C       -0.0307641647    -0.7759399108    -1.1319733855
|  8>  C       -0.0036336121    -2.2186480088    -0.7982773290
|  9>  O       -0.0183001448    -3.1663393337    -1.5374323621
| 10>  N        0.0478491183    -2.2609957815     0.6289355005
| 11>  C        0.0526215209    -0.9160344551     1.1897603290
| 12>  C        0.0897801194    -3.3877493674     1.4340802206
| 13>  O        0.0895949072    -4.5309537961     1.0652122111
| 14>  H        0.8796880977     1.8180465978     0.6299275139
| 15>  H       -0.0482126105     1.9441940553    -0.8774661934
| 16>  H       -0.8786164529     1.7985312215     0.6839161603
| 17>  H       -0.0703701273    -0.4384408090    -2.1582263628
| 18>  H        0.9566892949    -0.7278665726     1.7851751788
| 19>  H       -0.8110375530    -0.7476807776     1.8477937688
| 20>  H        0.1247735530    -3.0973906740     2.5058244830
| 21> *
| 22>
| 23>                          ****END OF INPUT****

CARTESIAN COORDINATES (ANGSTROEM)
---------------------------------
  C     -0.012651    1.461412    0.101261
  C     -0.000243   -0.024809   -0.025827
  C     -0.030764   -0.775940   -1.131973
  C     -0.003634   -2.218648   -0.798277
  O     -0.018300   -3.166339   -1.537432
  N      0.047849   -2.260996    0.628936
  C      0.052622   -0.916034    1.189760
  C      0.089780   -3.387749    1.434080
  O      0.089595   -4.530954    1.065212
  H      0.879688    1.818047    0.629928
  H     -0.048213    1.944194   -0.877466
  H     -0.878616    1.798531    0.683916
  H     -0.070370   -0.438441   -2.158226
  H      0.956689   -0.727867    1.785175
  H     -0.811038   -0.747681    1.847794
  H      0.124774   -3.097391    2.505824

 Total Charge           Charge          ....    0
 Multiplicity           Mult            ....    1
 Number of Electrons    NEL             ....   66
 Basis Dimension        Dim             ....  321

ORBITAL ENERGIES
----------------

  NO   OCC          E(Eh)            E(eV)
   0   2.0000     -20.542047      -558.9775
   1   2.0000     -20.536924      -558.8381
   2   2.0000     -15.614866      -424.9021
   3   2.0000     -11.366912      -309.3094
   4   2.0000     -11.365029      -309.2582
   5   2.0000     -11.307455      -307.6915
   6   2.0000     -11.292170      -307.2756
   7   2.0000     -11.262335      -306.4637
   8   2.0000     -11.253984      -306.2365
   9   2.0000      -1.412732       -38.4424
  10   2.0000      -1.386969       -37.7413
  11   2.0000      -1.284632       -34.9566
  12   2.0000      -1.129542       -30.7364
  13   2.0000      -1.015193       -27.6248
  14   2.0000      -0.977423       -26.5970
  15   2.0000      -0.893072       -24.3017
  16   2.0000      -0.794749       -21.6262
  17   2.0000      -0.740873       -20.1602
  18   2.0000      -0.720721       -19.6118
  19   2.0000      -0.684976       -18.6391
  20   2.0000      -0.652292       -17.7498
  21   2.0000      -0.648653       -17.6508
  22   2.0000      -0.620142       -16.8749
  23   2.0000      -0.607819       -16.5396
  24   2.0000      -0.604372       -16.4458
  25   2.0000      -0.583029       -15.8650
  26   2.0000      -0.571120       -15.5410
  27   2.0000      -0.537721       -14.6321
  28   2.0000      -0.535909       -14.5828
  29   2.0000      -0.465827       -12.6758
  30   2.0000      -0.418543       -11.3891
  31   2.0000      -0.410501       -11.1703
  32   2.0000      -0.392903       -10.6914
  33   0.0000       0.089475         2.4347
  34   0.0000       0.109965         2.9923
  35   0.0000       0.133207         3.6247
  36   0.0000       0.142989         3.8909
  37   0.0000       0.168507         4.5853

MULLIKEN ATOMIC CHARGES
-----------------------
   0 C :   -0.419772
   1 C :    0.011358
   2 C :   -0.190102
   3 C :    0.225014
   4 O :   -0.272564
   5 N :   -0.058611
   6 C :   -0.140077
   7 C :    0.126546
   8 O :   -0.265586
   9 H :    0.152147
  10 H :    0.154030
  11 H :    0.152356
  12 H :    0.150017
  13 H :    0.144803
  14 H :    0.144751
  15 H :    0.085688
Sum of atomic charges:    0.0000000

LOEWDIN ATOMIC CHARGES
----------------------
   0 C :   -0.261884
   1 C :   -0.161484
   2 C :   -0.090862
   3 C :   -0.370800
   4 O :    0.153849
   5 N :    0.207197
   6 C :   -0.199193
   7 C :   -0.379400
   8 O :    0.127162
   9 H :    0.138465
  10 H :    0.137531
  11 H :    0.138556
  12 H :    0.151914
  13 H :    0.147134
  14 H :    0.147117
  15 H :    0.114697

  Mayer bond orders larger than 0.1
B(  0-C ,  1-C ) :   0.8860 B(  0-C ,  9-H ) :   0.9279 B(  0-C , 10-H ) :   0.9454
B(  0-C , 11-H ) :   0.9277 B(  1-C ,  2-C ) :   1.6629 B(  1-C ,  6-C ) :   0.9686
B(  2-C ,  3-C ) :   1.0083 B(  2-C , 12-H ) :   0.9259 B(  3-C ,  4-O ) :   2.0038
B(  3-C ,  5-N ) :   0.9656 B(  5-N ,  6-C ) :   0.9223 B(  5-N ,  7-C ) :   0.9931
B(  6-C , 13-H ) :   0.9005 B(  6-C , 14-H ) :   0.9004 B(  7-C ,  8-O ) :   1.9979
B(  7-C , 15-H ) :   0.9293

MP2 TOTAL ENERGY:     -437.222608560 Eh
FINAL SINGLE POINT ENERGY      -437.222608559943

DIPOLE MOMENT
-------------
                                X             Y             Z
Electronic contribution:      0.02399      -9.60215      -2.36162
Nuclear contribution   :     -0.01918      12.24388       3.35186
                        -----------------------------------------
Total Dipole Moment    :      0.00481       2.64172       0.99024
                        -----------------------------------------
Magnitude (a.u.)       :      2.82122
Magnitude (Debye)      :      7.17098

                             ****ORCA TERMINATED NORMALLY****
TOTAL RUN TIME: 0 days 0 hours 15 minutes 3 seconds 912 msec
