                         Program Version 3.0.3 - RELEASE   -
|  1> ! RI-MP2 RIJK def2-TZVP def2-TZVP/C def2-TZVP/JK TIGHTSCF
|  2> % maxcore 2000
|  3> % mp2 density relaxed end
|  4> *xyz 0 1
|  5>  O        0.0216555097     1.4197214035     0.0839920978
|  6>  C        0.0344772919     0.0131779496    -0.0033169541
|  7>  C        1.0286340967    -0.6061289341     0.9404656439
|  8>  C        1.1289001308    -1.9295245034     1.0254645292
|  9>  C        0.2235900017    -2.7669786044     0.1667484196
| 10>  C       -0.6847575760    -1.8895964341    -0.6899394194
| 11>  C       -1.3812647684    -0.6353419351    -0.0574462306
| 12>  C       -1.5284112519    -0.0814407946    -1.5027541598
| 13>  C       -0.0844123551    -0.6479916884    -1.4280069403
| 14>  H        0.9171881649     1.7348042806    -0.0769757275
| 15>  H        1.6284000350     0.0665310930     1.5472843172
| 16>  H        1.8294571033    -2.4166135027     1.6974748955
| 17>  H        0.8140727212    -3.4341434652    -0.4781699592
| 18>  H       -0.3839617317    -3.4354284688     0.7940662522
| 19>  H       -1.3539694014    -2.4880574685    -1.3145245382
| 20>  H       -2.1195810797    -0.6263160738     0.7464210297
| 21>  H       -2.2208193626    -0.6213673085    -2.1541389410
| 22>  H       -1.6259206543     0.9978789301    -1.6015993396
| 23>  H        0.6795046561    -0.6548069852    -2.2089774753
| 24> *
| 25>
| 26>                          ****END OF INPUT****

CARTESIAN COORDINATES (ANGSTROEM)
---------------------------------
  O      0.021656    1.419721    0.083992
  C      0.034477    0.013178   -0.003317
  C      1.028634   -0.606129    0.940466
  C      1.128900   -1.929525    1.025465
  C      0.223590   -2.766979    0.166748
  C     -0.684758   -1.889596   -0.689939
  C     -1.381265   -0.635342   -0.057446
  C     -1.528411   -0.081441   -1.502754
  C     -0.084412   -0.647992   -1.428007
  H      0.917188    1.734804   -0.076976
  H      1.628400    0.066531    1.547284
  H      1.829457   -2.416614    1.697475
  H      0.814073   -3.434143   -0.478170
  H     -0.383962   -3.435428    0.794066
  H     -1.353969   -2.488057   -1.314525
  H     -2.119581   -0.626316    0.746421
  H     -2.220819   -0.621367   -2.154139
  H     -1.625921    0.997879   -1.601599
  H      0.679505   -0.654807   -2.208977

 Total Charge           Charge          ....    0
 Multiplicity           Mult            ....    1
 Number of Electrons    NEL             ....   66
 Basis Dimension        Dim             ....  339

ORBITAL ENERGIES
----------------

  NO   OCC          E(Eh)            E(eV)
   0   2.0000     -20.555860      -559.3534
   1   2.0000     -11.289981      -307.2160
   2   2.0000     -11.237558      -305.7895
   3   2.0000     -11.237390      -305.7849
   4   2.0000     -11.235615      -305.7366
   5   2.0000     -11.228398      -305.5403
   6   2.0000     -11.226845      -305.4980
   7   2.0000     -11.222332      -305.3752
   8   2.0000     -11.219667      -305.3027
   9   2.0000      -1.369586       -37.2683
  10   2.0000      -1.206748       -32.8373
  11   2.0000      -1.077622       -29.3236
  12   2.0000      -0.982036       -26.7225
  13   2.0000      -0.892729       -24.2924
  14   2.0000      -0.857997       -23.3473
  15   2.0000      -0.833184       -22.6721
  16   2.0000      -0.779673       -21.2160
  17   2.0000      -0.703357       -19.1393
  18   2.0000      -0.676570       -18.4104
  19   2.0000      -0.658100       -17.9078
  20   2.0000      -0.635170       -17.2838
  21   2.0000      -0.603773       -16.4295
  22   2.0000      -0.585064       -15.9204
  23   2.0000      -0.566580       -15.4174
  24   2.0000      -0.538622       -14.6566
  25   2.0000      -0.518048       -14.0968
  26   2.0000      -0.503745       -13.7076
  27   2.0000      -0.459298       -12.4981
  28   2.0000      -0.445198       -12.1145
  29   2.0000      -0.435044       -11.8382
  30   2.0000      -0.429591       -11.6898
  31   2.0000      -0.412656       -11.2290
  32   2.0000      -0.338802        -9.2193
  33   0.0000       0.136190         3.7059
  34   0.0000       0.142399         3.8749
  35   0.0000       0.154682         4.2091
  36   0.0000       0.170415         4.6372
  37   0.0000       0.183356         4.9894

MULLIKEN ATOMIC CHARGES
-----------------------
   0 O :   -0.482616
   1 C :    0.337148
   2 C :   -0.317255
   3 C :   -0.160440
   4 C :   -0.174828
   5 C :   -0.113859
   6 C :   -0.131425
   7 C :   -0.215462
   8 C :   -0.154760
   9 H :    0.318618
  10 H :    0.122704
  11 H :    0.122918
  12 H :    0.120142
  13 H :    0.121697
  14 H :    0.106282
  15 H :    0.126957
  16 H :    0.110248
  17 H :    0.133368
  18 H :    0.130560
Sum of atomic charges:   -0.0000000

LOEWDIN ATOMIC CHARGES
----------------------
   0 O :    0.019318
   1 C :   -0.299158
   2 C :   -0.140384
   3 C :   -0.154272
   4 C :   -0.232258
   5 C :   -0.165361
   6 C :   -0.117581
   7 C :   -0.195693
   8 C :   -0.129959
   9 H :    0.178456
  10 H :    0.142580
  11 H :    0.139636
  12 H :    0.148184
  13 H :    0.148619
  14 H :    0.146967
  15 H :    0.127889
  16 H :    0.126894
  17 H :    0.131877
  18 H :    0.124245

  Mayer bond orders larger than 0.1
B(  0-O ,  1-C ) :   0.9851 B(  0-O ,  9-H ) :   0.8391 B(  1-C ,  2-C ) :   0.9514
B(  1-C ,  6-C ) :   0.8899 B(  1-C ,  8-C ) :   0.8573 B(  2-C ,  3-C ) :   1.7884
B(  2-C , 10-H ) :   0.9263 B(  3-C ,  4-C ) :   0.9660 B(  3-C , 11-H ) :   0.9285
B(  4-C ,  5-C ) :   0.9592 B(  4-C , 12-H ) :   0.9052 B(  4-C , 13-H ) :   0.9052
B(  5-C ,  6-C ) :   0.8913 B(  5-C ,  8-C ) :   0.8776 B(  5-C , 14-H ) :   0.9230
B(  6-C ,  7-C ) :   0.9350 B(  6-C , 15-H ) :   0.8845 B(  7-C ,  8-C ) :   0.9267
B(  7-C , 16-H ) :   0.9315 B(  7-C , 17-H ) :   0.9086 B(  8-C , 18-H ) :   0.8722

MP2 TOTAL ENERGY:     -385.178962397 Eh
FINAL SINGLE POINT ENERGY      -385.178962397390

DIPOLE MOMENT
-------------
                                X             Y             Z
Electronic contribution:      0.89964       2.78538       1.16351
Nuclear contribution   :     -0.43913      -3.19469      -1.29552
                        -----------------------------------------
Total Dipole Moment    :      0.46052      -0.40931      -0.13201
                        -----------------------------------------
Magnitude (a.u.)       :      0.63011
Magnitude (Debye)      :      1.60161

                             ****ORCA TERMINATED NORMALLY****
TOTAL RUN TIME: 0 days 0 hours 18 minutes 35 seconds 924 msec
