                         Program Version 3.0.3 - RELEASE   -
|  1> ! RI-MP2 RIJK def2-TZVP def2-TZVP/C def2-TZVP/JK TIGHTSCF
|  2> % maxcore 2000
|  3> % mp2 density relaxed end
|  4> *xyz 0 1
|  5>  C       -0.1392383078     1.6217959482     0.2536884145
|  6>  C       -0.0473292268     0.1180743155     0.1346962292
|  7>  C       -1.3086608488    -0.5979013247    -0.3435980863
|  8>  C       -1.1003897294    -1.7995586409    -1.2853124427
|  9>  C       -0.1012537954    -2.8988149075    -0.8263914321
| 10>  C        0.1311666268    -3.0023392638     0.6640130927
| 11>  C        0.5993486942    -2.0196758199     1.4381797556
| 12>  C        0.8922127068    -0.6322545891     1.0048184178
| 13>  O        1.1991400452    -0.3705368643    -0.3780997786
| 14>  H        0.7886995964     2.0410745549     0.6507402445
| 15>  H       -0.3272512690     2.0725475388    -0.7274633757
| 16>  H       -0.9643274598     1.9079157371     0.9152416645
| 17>  H       -1.8632056372    -0.9275687999     0.5441946219
| 18>  H       -1.9557838275     0.1245467593    -0.8544486582
| 19>  H       -2.0880092635    -2.2499383994    -1.4391616760
| 20>  H       -0.7769795131    -1.4345011294    -2.2655071708
| 21>  H       -0.4497830803    -3.8654024730    -1.2032327130
| 22>  H        0.8628589862    -2.7082579846    -1.3041197091
| 23>  H       -0.0641797695    -3.9646729961     1.1307024323
| 24>  H        0.7566166500    -2.2064953999     2.4977712971
| 25>  H        1.5036705224    -0.0510584314     1.6957581523
| 26> *
| 27>
| 28>                          ****END OF INPUT****

CARTESIAN COORDINATES (ANGSTROEM)
---------------------------------
  C     -0.139238    1.621796    0.253688
  C     -0.047329    0.118074    0.134696
  C     -1.308661   -0.597901   -0.343598
  C     -1.100390   -1.799559   -1.285312
  C     -0.101254   -2.898815   -0.826391
  C      0.131167   -3.002339    0.664013
  C      0.599349   -2.019676    1.438180
  C      0.892213   -0.632255    1.004818
  O      1.199140   -0.370537   -0.378100
  H      0.788700    2.041075    0.650740
  H     -0.327251    2.072548   -0.727463
  H     -0.964327    1.907916    0.915242
  H     -1.863206   -0.927569    0.544195
  H     -1.955784    0.124547   -0.854449
  H     -2.088009   -2.249938   -1.439162
  H     -0.776980   -1.434501   -2.265507
  H     -0.449783   -3.865402   -1.203233
  H      0.862859   -2.708258   -1.304120
  H     -0.064180   -3.964673    1.130702
  H      0.756617   -2.206495    2.497771
  H      1.503671   -0.051058    1.695758

 Total Charge           Charge          ....    0
 Multiplicity           Mult            ....    1
 Number of Electrons    NEL             ....   68
 Basis Dimension        Dim             ....  351

ORBITAL ENERGIES
----------------

  NO   OCC          E(Eh)            E(eV)
   0   2.0000     -20.557859      -559.4078
   1   2.0000     -11.287218      -307.1408
   2   2.0000     -11.279654      -306.9350
   3   2.0000     -11.230464      -305.5965
   4   2.0000     -11.224980      -305.4472
   5   2.0000     -11.224174      -305.4253
   6   2.0000     -11.222539      -305.3808
   7   2.0000     -11.222095      -305.3687
   8   2.0000     -11.218573      -305.2729
   9   2.0000      -1.403362       -38.1874
  10   2.0000      -1.092722       -29.7345
  11   2.0000      -1.046266       -28.4703
  12   2.0000      -1.008777       -27.4502
  13   2.0000      -0.950124       -25.8542
  14   2.0000      -0.884607       -24.0714
  15   2.0000      -0.839433       -22.8421
  16   2.0000      -0.754535       -20.5319
  17   2.0000      -0.728731       -19.8298
  18   2.0000      -0.684763       -18.6333
  19   2.0000      -0.627539       -17.0762
  20   2.0000      -0.614476       -16.7207
  21   2.0000      -0.600671       -16.3451
  22   2.0000      -0.594011       -16.1638
  23   2.0000      -0.585995       -15.9457
  24   2.0000      -0.552344       -15.0300
  25   2.0000      -0.534782       -14.5522
  26   2.0000      -0.513731       -13.9793
  27   2.0000      -0.507314       -13.8047
  28   2.0000      -0.488966       -13.3054
  29   2.0000      -0.471718       -12.8361
  30   2.0000      -0.460483       -12.5304
  31   2.0000      -0.434083       -11.8120
  32   2.0000      -0.425652       -11.5826
  33   2.0000      -0.336345        -9.1524
  34   0.0000       0.126165         3.4331
  35   0.0000       0.139425         3.7939
  36   0.0000       0.160722         4.3735
  37   0.0000       0.169057         4.6003
  38   0.0000       0.184329         5.0158

MULLIKEN ATOMIC CHARGES
-----------------------
   0 C :   -0.419007
   1 C :    0.208002
   2 C :   -0.192167
   3 C :   -0.255676
   4 C :   -0.144373
   5 C :   -0.168092
   6 C :   -0.234792
   7 C :    0.051315
   8 O :   -0.346708
   9 H :    0.138737
  10 H :    0.136009
  11 H :    0.134400
  12 H :    0.120231
  13 H :    0.127142
  14 H :    0.119997
  15 H :    0.116047
  16 H :    0.119026
  17 H :    0.132230
  18 H :    0.121006
  19 H :    0.118468
  20 H :    0.118205
Sum of atomic charges:   -0.0000000

LOEWDIN ATOMIC CHARGES
----------------------
   0 C :   -0.269613
   1 C :   -0.317040
   2 C :   -0.223700
   3 C :   -0.250174
   4 C :   -0.254693
   5 C :   -0.157538
   6 C :   -0.167912
   7 C :   -0.235273
   8 O :    0.189999
   9 H :    0.130670
  10 H :    0.130130
  11 H :    0.131427
  12 H :    0.149901
  13 H :    0.144835
  14 H :    0.137237
  15 H :    0.140208
  16 H :    0.137328
  17 H :    0.151772
  18 H :    0.142788
  19 H :    0.148279
  20 H :    0.141369

  Mayer bond orders larger than 0.1
B(  0-C ,  1-C ) :   0.8757 B(  0-C ,  9-H ) :   0.9412 B(  0-C , 10-H ) :   0.9378
B(  0-C , 11-H ) :   0.9330 B(  1-C ,  2-C ) :   0.8938 B(  1-C ,  7-C ) :   0.9740
B(  1-C ,  8-O ) :   0.8845 B(  2-C ,  3-C ) :   0.9379 B(  2-C , 12-H ) :   0.9134
B(  2-C , 13-H ) :   0.9316 B(  3-C ,  4-C ) :   0.9247 B(  3-C , 14-H ) :   0.9367
B(  3-C , 15-H ) :   0.9315 B(  4-C ,  5-C ) :   0.9267 B(  4-C , 16-H ) :   0.9324
B(  4-C , 17-H ) :   0.9138 B(  5-C ,  6-C ) :   1.8052 B(  5-C , 18-H ) :   0.9305
B(  6-C ,  7-C ) :   0.9360 B(  6-C , 19-H ) :   0.9221 B(  7-C ,  8-O ) :   0.8759
B(  7-C , 20-H ) :   0.9178

MP2 TOTAL ENERGY:     -386.404467344 Eh
FINAL SINGLE POINT ENERGY      -386.404467343864

DIPOLE MOMENT
-------------
                                X             Y             Z
Electronic contribution:      3.88257      -0.94636       1.23572
Nuclear contribution   :     -4.42846       1.04014      -0.89490
                        -----------------------------------------
Total Dipole Moment    :     -0.54588       0.09379       0.34082
                        -----------------------------------------
Magnitude (a.u.)       :      0.65034
Magnitude (Debye)      :      1.65303

                             ****ORCA TERMINATED NORMALLY****
TOTAL RUN TIME: 0 days 0 hours 20 minutes 59 seconds 172 msec
