                         Program Version 3.0.3 - RELEASE   -
|  1> ! RI-MP2 RIJK def2-TZVP def2-TZVP/C def2-TZVP/JK TIGHTSCF
|  2> % maxcore 2000
|  3> % mp2 density relaxed end
|  4> *xyz 0 1
|  5>  C        0.1061902281     1.4876955993     0.1298209614
|  6>  C        0.0110538518    -0.0006247023     0.0076563377
|  7>  C       -0.0163274112    -0.7290739590    -1.1143152097
|  8>  C       -0.1423673088    -2.2124407616    -0.8485547758
|  9>  C       -0.1029398081    -2.3129121394     0.6814297157
| 10>  C       -0.9237368095    -3.3803690951     1.3563736568
| 11>  O       -0.4907107696    -4.6943500669     1.0252885610
| 12>  C        1.1583944990    -1.8255724505     1.3611241191
| 13>  C       -0.0272907899    -0.8910411029     1.2125339287
| 14>  H        1.0053918492     1.7852375884     0.6840182554
| 15>  H        0.1325097776     1.9706836951    -0.8506509594
| 16>  H       -0.7490513839     1.8943026516     0.6847630329
| 17>  H        0.0605912365    -0.3211180405    -2.1167317736
| 18>  H       -1.0863379949    -2.6171010891    -1.2402685535
| 19>  H        0.6554495670    -2.7947720529    -1.3260703592
| 20>  H       -0.9198080510    -3.2206553056     2.4472330371
| 21>  H       -1.9666796590    -3.3287898420     1.0230932039
| 22>  H        0.4459839604    -4.7467864786     1.2436870847
| 23>  H        1.3638455153    -2.2145554406     2.3549485484
| 24>  H        2.0397648821    -1.6223438087     0.7608995113
| 25>  H       -0.5585520009    -0.5772802289     2.1062926969
| 26> *
| 27>
| 28>                          ****END OF INPUT****

CARTESIAN COORDINATES (ANGSTROEM)
---------------------------------
  C      0.106190    1.487696    0.129821
  C      0.011054   -0.000625    0.007656
  C     -0.016327   -0.729074   -1.114315
  C     -0.142367   -2.212441   -0.848555
  C     -0.102940   -2.312912    0.681430
  C     -0.923737   -3.380369    1.356374
  O     -0.490711   -4.694350    1.025289
  C      1.158394   -1.825572    1.361124
  C     -0.027291   -0.891041    1.212534
  H      1.005392    1.785238    0.684018
  H      0.132510    1.970684   -0.850651
  H     -0.749051    1.894303    0.684763
  H      0.060591   -0.321118   -2.116732
  H     -1.086338   -2.617101   -1.240269
  H      0.655450   -2.794772   -1.326070
  H     -0.919808   -3.220655    2.447233
  H     -1.966680   -3.328790    1.023093
  H      0.445984   -4.746786    1.243687
  H      1.363846   -2.214555    2.354949
  H      2.039765   -1.622344    0.760900
  H     -0.558552   -0.577280    2.106293

 Total Charge           Charge          ....    0
 Multiplicity           Mult            ....    1
 Number of Electrons    NEL             ....   68
 Basis Dimension        Dim             ....  351

ORBITAL ENERGIES
----------------

  NO   OCC          E(Eh)            E(eV)
   0   2.0000     -20.551351      -559.2307
   1   2.0000     -11.274652      -306.7989
   2   2.0000     -11.235873      -305.7437
   3   2.0000     -11.234104      -305.6955
   4   2.0000     -11.232086      -305.6406
   5   2.0000     -11.230239      -305.5903
   6   2.0000     -11.223677      -305.4118
   7   2.0000     -11.223433      -305.4051
   8   2.0000     -11.214553      -305.1635
   9   2.0000      -1.355438       -36.8834
  10   2.0000      -1.187658       -32.3178
  11   2.0000      -1.056125       -28.7386
  12   2.0000      -0.996550       -27.1175
  13   2.0000      -0.945488       -25.7280
  14   2.0000      -0.885364       -24.0920
  15   2.0000      -0.831053       -22.6141
  16   2.0000      -0.754222       -20.5234
  17   2.0000      -0.723016       -19.6743
  18   2.0000      -0.687192       -18.6995
  19   2.0000      -0.650841       -17.7103
  20   2.0000      -0.616405       -16.7732
  21   2.0000      -0.598465       -16.2851
  22   2.0000      -0.595253       -16.1977
  23   2.0000      -0.569028       -15.4841
  24   2.0000      -0.565905       -15.3991
  25   2.0000      -0.555663       -15.1204
  26   2.0000      -0.533578       -14.5194
  27   2.0000      -0.503357       -13.6970
  28   2.0000      -0.495909       -13.4944
  29   2.0000      -0.480225       -13.0676
  30   2.0000      -0.440200       -11.9785
  31   2.0000      -0.432960       -11.7814
  32   2.0000      -0.398958       -10.8562
  33   2.0000      -0.324578        -8.8322
  34   0.0000       0.134271         3.6537
  35   0.0000       0.143391         3.9019
  36   0.0000       0.161090         4.3835
  37   0.0000       0.163796         4.4571
  38   0.0000       0.172423         4.6919

MULLIKEN ATOMIC CHARGES
-----------------------
   0 C :   -0.452735
   1 C :    0.014408
   2 C :   -0.243355
   3 C :   -0.120176
   4 C :   -0.006441
   5 C :   -0.007715
   6 O :   -0.465734
   7 C :   -0.328241
   8 C :   -0.085256
   9 H :    0.141259
  10 H :    0.138671
  11 H :    0.139548
  12 H :    0.118949
  13 H :    0.116957
  14 H :    0.118927
  15 H :    0.096119
  16 H :    0.112912
  17 H :    0.313454
  18 H :    0.131261
  19 H :    0.138031
  20 H :    0.129157
Sum of atomic charges:    0.0000000

LOEWDIN ATOMIC CHARGES
----------------------
   0 C :   -0.271152
   1 C :   -0.173474
   2 C :   -0.136305
   3 C :   -0.192231
   4 C :   -0.222218
   5 C :   -0.307341
   6 O :   -0.047598
   7 C :   -0.182920
   8 C :   -0.137657
   9 H :    0.131611
  10 H :    0.130241
  11 H :    0.131298
  12 H :    0.136009
  13 H :    0.147000
  14 H :    0.144207
  15 H :    0.122390
  16 H :    0.133749
  17 H :    0.173911
  18 H :    0.134590
  19 H :    0.138766
  20 H :    0.147125

  Mayer bond orders larger than 0.1
B(  0-C ,  1-C ) :   0.8792 B(  0-C ,  9-H ) :   0.9315 B(  0-C , 10-H ) :   0.9523
B(  0-C , 11-H ) :   0.9350 B(  1-C ,  2-C ) :   1.7609 B(  1-C ,  8-C ) :   0.9123
B(  2-C ,  3-C ) :   0.9528 B(  2-C , 12-H ) :   0.9295 B(  3-C ,  4-C ) :   0.9342
B(  3-C , 13-H ) :   0.9072 B(  3-C , 14-H ) :   0.9114 B(  4-C ,  5-C ) :   0.9667
B(  4-C ,  7-C ) :   0.8719 B(  4-C ,  8-C ) :   0.8175 B(  5-C ,  6-O ) :   0.9069
B(  5-C , 15-H ) :   0.9225 B(  5-C , 16-H ) :   0.9229 B(  6-O , 17-H ) :   0.8451
B(  7-C ,  8-C ) :   0.8753 B(  7-C , 18-H ) :   0.9238 B(  7-C , 19-H ) :   0.9155
B(  8-C , 20-H ) :   0.9177

MP2 TOTAL ENERGY:     -386.414867644 Eh
FINAL SINGLE POINT ENERGY      -386.414867643847

DIPOLE MOMENT
-------------
                                X             Y             Z
Electronic contribution:     -0.61627      -3.56713      -0.13621
Nuclear contribution   :      0.99499       4.13193       0.37474
                        -----------------------------------------
Total Dipole Moment    :      0.37872       0.56480       0.23853
                        -----------------------------------------
Magnitude (a.u.)       :      0.72064
Magnitude (Debye)      :      1.83173

                             ****ORCA TERMINATED NORMALLY****
TOTAL RUN TIME: 0 days 0 hours 20 minutes 16 seconds 959 msec
