                         Program Version 3.0.3 - RELEASE   -
|  1> ! RI-MP2 RIJK def2-TZVP def2-TZVP/C def2-TZVP/JK TIGHTSCF
|  2> % maxcore 2000
|  3> % mp2 density relaxed end
|  4> *xyz 0 1
|  5>  C        0.0166301496    -1.2183783564     0.0624663534
|  6>  C       -0.0261307681    -0.0160917641     0.0357551081
|  7>  C       -0.0871743592     1.4141703331     0.0230288279
|  8>  C       -1.1396105925     2.2608931504     0.7720922720
|  9>  C       -0.6539059292     3.4141443448    -0.1398022387
| 10>  C        0.7782098706     3.6410926057     0.3897647758
| 11>  C        1.2688684921     2.2585787792    -0.0712993515
| 12>  O        1.1159937662     2.3720327196    -1.5162467082
| 13>  C       -0.2798245508     2.3100483990    -1.2407234153
| 14>  H        0.0565919809    -2.2792490897     0.0784674864
| 15>  H       -2.1446513402     1.9092214948     0.5251369552
| 16>  H       -1.0448907543     2.3878380921     1.8538582844
| 17>  H       -1.2791279982     4.2754710717    -0.3622788296
| 18>  H        1.3353019310     4.4284648800    -0.1215878417
| 19>  H        0.8078305297     3.8042074401     1.4701296689
| 20>  H        2.2311454000     1.8599288682     0.2431395775
| 21>  H       -0.9312943674     2.1032524214    -2.0875900045
| 22> *
| 23>
| 24>                          ****END OF INPUT****

CARTESIAN COORDINATES (ANGSTROEM)
---------------------------------
  C      0.016630   -1.218378    0.062466
  C     -0.026131   -0.016092    0.035755
  C     -0.087174    1.414170    0.023029
  C     -1.139611    2.260893    0.772092
  C     -0.653906    3.414144   -0.139802
  C      0.778210    3.641093    0.389765
  C      1.268868    2.258579   -0.071299
  O      1.115994    2.372033   -1.516247
  C     -0.279825    2.310048   -1.240723
  H      0.056592   -2.279249    0.078467
  H     -2.144651    1.909221    0.525137
  H     -1.044891    2.387838    1.853858
  H     -1.279128    4.275471   -0.362279
  H      1.335302    4.428465   -0.121588
  H      0.807831    3.804207    1.470130
  H      2.231145    1.859929    0.243140
  H     -0.931294    2.103252   -2.087590

 Total Charge           Charge          ....    0
 Multiplicity           Mult            ....    1
 Number of Electrons    NEL             ....   64
 Basis Dimension        Dim             ....  327

ORBITAL ENERGIES
----------------

  NO   OCC          E(Eh)            E(eV)
   0   2.0000     -20.555820      -559.3523
   1   2.0000     -11.300535      -307.5032
   2   2.0000     -11.298520      -307.4484
   3   2.0000     -11.266551      -306.5784
   4   2.0000     -11.246269      -306.0265
   5   2.0000     -11.239771      -305.8497
   6   2.0000     -11.235616      -305.7367
   7   2.0000     -11.232686      -305.6569
   8   2.0000     -11.225589      -305.4638
   9   2.0000      -1.405397       -38.2428
  10   2.0000      -1.163053       -31.6483
  11   2.0000      -1.044632       -28.4259
  12   2.0000      -0.991627       -26.9835
  13   2.0000      -0.942273       -25.6405
  14   2.0000      -0.891699       -24.2644
  15   2.0000      -0.801718       -21.8159
  16   2.0000      -0.764395       -20.8002
  17   2.0000      -0.728925       -19.8351
  18   2.0000      -0.698522       -19.0077
  19   2.0000      -0.664860       -18.0918
  20   2.0000      -0.636041       -17.3076
  21   2.0000      -0.627411       -17.0727
  22   2.0000      -0.557078       -15.1589
  23   2.0000      -0.538677       -14.6581
  24   2.0000      -0.508508       -13.8372
  25   2.0000      -0.504116       -13.7177
  26   2.0000      -0.480576       -13.0771
  27   2.0000      -0.472846       -12.8668
  28   2.0000      -0.457107       -12.4385
  29   2.0000      -0.418551       -11.3893
  30   2.0000      -0.378426       -10.2975
  31   2.0000      -0.367291        -9.9945
  32   0.0000       0.139017         3.7829
  33   0.0000       0.155281         4.2254
  34   0.0000       0.157408         4.2833
  35   0.0000       0.166859         4.5405
  36   0.0000       0.174006         4.7349

MULLIKEN ATOMIC CHARGES
-----------------------
   0 C :   -0.113935
   1 C :   -0.000228
   2 C :   -0.170718
   3 C :   -0.240379
   4 C :   -0.050125
   5 C :   -0.257488
   6 C :    0.047041
   7 O :   -0.313538
   8 C :   -0.004769
   9 H :    0.191698
  10 H :    0.130298
  11 H :    0.121237
  12 H :    0.139597
  13 H :    0.128520
  14 H :    0.121875
  15 H :    0.139498
  16 H :    0.131415
Sum of atomic charges:   -0.0000000

LOEWDIN ATOMIC CHARGES
----------------------
   0 C :   -0.084400
   1 C :   -0.072752
   2 C :   -0.181357
   3 C :   -0.168031
   4 C :   -0.180606
   5 C :   -0.208550
   6 C :   -0.181166
   7 O :    0.174226
   8 C :   -0.184749
   9 H :    0.127233
  10 H :    0.145663
  11 H :    0.130232
  12 H :    0.132925
  13 H :    0.141991
  14 H :    0.138929
  15 H :    0.135660
  16 H :    0.134751

  Mayer bond orders larger than 0.1
B(  0-C ,  1-C ) :   2.6399 B(  0-C ,  2-C ) :  -0.1739 B(  0-C ,  9-H ) :   0.8678
B(  1-C ,  2-C ) :   1.1515 B(  2-C ,  3-C ) :   0.9105 B(  2-C ,  6-C ) :   0.8836
B(  2-C ,  7-O ) :  -0.1004 B(  2-C ,  8-C ) :   0.8838 B(  3-C ,  4-C ) :   0.9080
B(  3-C , 10-H ) :   0.9234 B(  3-C , 11-H ) :   0.9171 B(  4-C ,  5-C ) :   0.8930
B(  4-C ,  8-C ) :   0.8580 B(  4-C , 12-H ) :   0.9136 B(  5-C ,  6-C ) :   0.9454
B(  5-C , 13-H ) :   0.9228 B(  5-C , 14-H ) :   0.9252 B(  6-C ,  7-O ) :   0.8903
B(  6-C , 15-H ) :   0.9110 B(  7-O ,  8-C ) :   0.9842 B(  8-C , 16-H ) :   0.9089

MP2 TOTAL ENERGY:     -383.933935170 Eh
FINAL SINGLE POINT ENERGY      -383.933935170276

DIPOLE MOMENT
-------------
                                X             Y             Z
Electronic contribution:      1.45695      -3.05028      -2.48909
Nuclear contribution   :     -1.85664       3.26624       3.02224
                        -----------------------------------------
Total Dipole Moment    :     -0.39969       0.21596       0.53315
                        -----------------------------------------
Magnitude (a.u.)       :      0.70046
Magnitude (Debye)      :      1.78043

                             ****ORCA TERMINATED NORMALLY****
TOTAL RUN TIME: 0 days 0 hours 19 minutes 9 seconds 45 msec
