                         Program Version 3.0.3 - RELEASE   -
|  1> ! RI-MP2 RIJK def2-TZVP def2-TZVP/C def2-TZVP/JK TIGHTSCF
|  2> % maxcore 2000
|  3> % mp2 density relaxed end
|  4> *xyz 0 1
|  5>  O        0.1198519525     1.3791505407    -0.0455249948
|  6>  C        0.0623404372    -0.0235633362     0.0573923585
|  7>  C       -1.3896350227    -0.5139165712     0.0530422993
|  8>  O       -2.0596625430     0.0345548309    -1.0893765189
|  9>  C       -1.4762698354    -2.0236733775     0.1199053906
| 10>  C       -1.9209342283    -2.7244438111     1.3633651943
| 11>  C       -2.8270964941    -2.7408138650     0.1432980802
| 12>  C       -4.0926754732    -1.9658057598     0.1625117354
| 13>  O       -5.0908482457    -2.3002944595    -0.4254897577
| 14>  H       -0.5335666205     1.6138780648    -0.7176618490
| 15>  H        0.6053186626    -0.5160530794    -0.7713694225
| 16>  H        0.5591593212    -0.3113320345     0.9903733122
| 17>  H       -1.9022048994    -0.0602429265     0.9076632006
| 18>  H       -1.8149039917    -0.4887861036    -1.8614933834
| 19>  H       -0.7241811087    -2.5379097454    -0.4755554032
| 20>  H       -1.4483163010    -3.6574112103     1.6469192372
| 21>  H       -2.2355653178    -2.1076658863     2.1999234163
| 22>  H       -2.8968368802    -3.6647010352    -0.4206210440
| 23>  H       -4.0734027417    -1.0441638346     0.7853679989
| 24> *
| 25>
| 26>                          ****END OF INPUT****

CARTESIAN COORDINATES (ANGSTROEM)
---------------------------------
  O      0.119852    1.379151   -0.045525
  C      0.062340   -0.023563    0.057392
  C     -1.389635   -0.513917    0.053042
  O     -2.059663    0.034555   -1.089377
  C     -1.476270   -2.023673    0.119905
  C     -1.920934   -2.724444    1.363365
  C     -2.827096   -2.740814    0.143298
  C     -4.092675   -1.965806    0.162512
  O     -5.090848   -2.300294   -0.425490
  H     -0.533567    1.613878   -0.717662
  H      0.605319   -0.516053   -0.771369
  H      0.559159   -0.311332    0.990373
  H     -1.902205   -0.060243    0.907663
  H     -1.814904   -0.488786   -1.861493
  H     -0.724181   -2.537910   -0.475555
  H     -1.448316   -3.657411    1.646919
  H     -2.235565   -2.107666    2.199923
  H     -2.896837   -3.664701   -0.420621
  H     -4.073403   -1.044164    0.785368

 Total Charge           Charge          ....    0
 Multiplicity           Mult            ....    1
 Number of Electrons    NEL             ....   70
 Basis Dimension        Dim             ....  339

ORBITAL ENERGIES
----------------

  NO   OCC          E(Eh)            E(eV)
   0   2.0000     -20.581207      -560.0431
   1   2.0000     -20.559301      -559.4470
   2   2.0000     -20.551870      -559.2448
   3   2.0000     -11.334111      -308.4168
   4   2.0000     -11.305587      -307.6407
   5   2.0000     -11.288131      -307.1657
   6   2.0000     -11.269788      -306.6665
   7   2.0000     -11.264911      -306.5338
   8   2.0000     -11.260697      -306.4192
   9   2.0000      -1.394873       -37.9564
  10   2.0000      -1.391637       -37.8684
  11   2.0000      -1.360030       -37.0083
  12   2.0000      -1.183997       -32.2182
  13   2.0000      -1.023255       -27.8442
  14   2.0000      -0.920781       -25.0557
  15   2.0000      -0.881635       -23.9905
  16   2.0000      -0.838488       -22.8164
  17   2.0000      -0.785383       -21.3714
  18   2.0000      -0.723788       -19.6953
  19   2.0000      -0.702992       -19.1294
  20   2.0000      -0.684228       -18.6188
  21   2.0000      -0.661082       -17.9889
  22   2.0000      -0.637292       -17.3416
  23   2.0000      -0.628164       -17.0932
  24   2.0000      -0.615615       -16.7517
  25   2.0000      -0.585021       -15.9192
  26   2.0000      -0.568784       -15.4774
  27   2.0000      -0.552155       -15.0249
  28   2.0000      -0.532577       -14.4922
  29   2.0000      -0.511485       -13.9182
  30   2.0000      -0.488410       -13.2903
  31   2.0000      -0.464978       -12.6527
  32   2.0000      -0.454015       -12.3544
  33   2.0000      -0.424871       -11.5613
  34   2.0000      -0.419050       -11.4029
  35   0.0000       0.117999         3.2109
  36   0.0000       0.130614         3.5542
  37   0.0000       0.140892         3.8339
  38   0.0000       0.146748         3.9932
  39   0.0000       0.168706         4.5907

MULLIKEN ATOMIC CHARGES
-----------------------
   0 O :   -0.470925
   1 C :    0.001319
   2 C :    0.041932
   3 O :   -0.489975
   4 C :   -0.172008
   5 C :   -0.301961
   6 C :   -0.018409
   7 C :    0.079215
   8 O :   -0.269583
   9 H :    0.330497
  10 H :    0.084499
  11 H :    0.115470
  12 H :    0.097528
  13 H :    0.324470
  14 H :    0.135301
  15 H :    0.150478
  16 H :    0.148211
  17 H :    0.139786
  18 H :    0.074156
Sum of atomic charges:    0.0000000

LOEWDIN ATOMIC CHARGES
----------------------
   0 O :   -0.040883
   1 C :   -0.340086
   2 C :   -0.343257
   3 O :   -0.020141
   4 C :   -0.192840
   5 C :   -0.182726
   6 C :   -0.190974
   7 C :   -0.288588
   8 O :    0.128975
   9 H :    0.178470
  10 H :    0.116296
  11 H :    0.133092
  12 H :    0.149833
  13 H :    0.180157
  14 H :    0.156785
  15 H :    0.139396
  16 H :    0.142675
  17 H :    0.156644
  18 H :    0.117172

  Mayer bond orders larger than 0.1
B(  0-O ,  1-C ) :   0.9574 B(  0-O ,  9-H ) :   0.8233 B(  1-C ,  2-C ) :   0.9657
B(  1-C , 10-H ) :   0.9081 B(  1-C , 11-H ) :   0.9231 B(  2-C ,  3-O ) :   0.8644
B(  2-C ,  4-C ) :   0.9357 B(  2-C , 12-H ) :   0.9108 B(  3-O , 13-H ) :   0.8367
B(  4-C ,  5-C ) :   0.9122 B(  4-C ,  6-C ) :   0.7734 B(  4-C , 14-H ) :   0.9051
B(  5-C ,  6-C ) :   0.8391 B(  5-C , 15-H ) :   0.9239 B(  5-C , 16-H ) :   0.9218
B(  6-C ,  7-C ) :   0.9037 B(  6-C , 17-H ) :   0.9161 B(  7-C ,  8-O ) :   1.9836
B(  7-C , 18-H ) :   0.9479

MP2 TOTAL ENERGY:     -459.419606751 Eh
FINAL SINGLE POINT ENERGY      -459.419606750884

DIPOLE MOMENT
-------------
                                X             Y             Z
Electronic contribution:     -4.64164       0.54981      -1.96038
Nuclear contribution   :      5.65875      -1.34505       2.10827
                        -----------------------------------------
Total Dipole Moment    :      1.01711      -0.79524       0.14789
                        -----------------------------------------
Magnitude (a.u.)       :      1.29954
Magnitude (Debye)      :      3.30316

                             ****ORCA TERMINATED NORMALLY****
TOTAL RUN TIME: 0 days 0 hours 15 minutes 39 seconds 168 msec
