                         Program Version 3.0.3 - RELEASE   -
|  1> ! RI-MP2 RIJK def2-TZVP def2-TZVP/C def2-TZVP/JK TIGHTSCF
|  2> % maxcore 2000
|  3> % mp2 density relaxed end
|  4> *xyz 0 1
|  5>  O       -0.0477887392    -0.0334650018    -0.0002622831
|  6>  C        0.0079517540     1.1573196005     0.0092404699
|  7>  N        1.2059491703     1.9087928896     0.0017031652
|  8>  C        1.2760753080     3.2851820192     0.0125846614
|  9>  C        2.6021009938     3.6037546482    -0.0001807136
| 10>  C        3.2748105310     2.3438149505    -0.0185440588
| 11>  C        4.7415257990     2.1415051064    -0.0372184613
| 12>  O        5.2968530785     1.0733972325    -0.0529681869
| 13>  N        2.4209496138     1.3261566218    -0.0172762753
| 14>  H       -0.8654944289     1.8340095441     0.0249718506
| 15>  H        0.3837865335     3.8906338349     0.0280555506
| 16>  H        3.0425424082     4.5878958645     0.0029899722
| 17>  H        5.3131433980     3.0965841095    -0.0356687809
| 18> *
| 19>
| 20>                          ****END OF INPUT****

CARTESIAN COORDINATES (ANGSTROEM)
---------------------------------
  O     -0.047789   -0.033465   -0.000262
  C      0.007952    1.157320    0.009240
  N      1.205949    1.908793    0.001703
  C      1.276075    3.285182    0.012585
  C      2.602101    3.603755   -0.000181
  C      3.274811    2.343815   -0.018544
  C      4.741526    2.141505   -0.037218
  O      5.296853    1.073397   -0.052968
  N      2.420950    1.326157   -0.017276
  H     -0.865494    1.834010    0.024972
  H      0.383787    3.890634    0.028056
  H      3.042542    4.587896    0.002990
  H      5.313143    3.096584   -0.035669

 Total Charge           Charge          ....    0
 Multiplicity           Mult            ....    1
 Number of Electrons    NEL             ....   64
 Basis Dimension        Dim             ....  303

ORBITAL ENERGIES
----------------

  NO   OCC          E(Eh)            E(eV)
   0   2.0000     -20.581890      -560.0617
   1   2.0000     -20.569553      -559.7260
   2   2.0000     -15.687763      -426.8857
   3   2.0000     -15.632331      -425.3773
   4   2.0000     -11.396606      -310.1174
   5   2.0000     -11.348848      -308.8179
   6   2.0000     -11.318850      -308.0016
   7   2.0000     -11.297535      -307.4216
   8   2.0000     -11.268103      -306.6207
   9   2.0000      -1.454373       -39.5755
  10   2.0000      -1.410446       -38.3802
  11   2.0000      -1.398736       -38.0615
  12   2.0000      -1.165969       -31.7276
  13   2.0000      -1.101500       -29.9733
  14   2.0000      -0.968889       -26.3648
  15   2.0000      -0.869132       -23.6503
  16   2.0000      -0.846087       -23.0232
  17   2.0000      -0.785914       -21.3858
  18   2.0000      -0.749909       -20.4061
  19   2.0000      -0.686866       -18.6906
  20   2.0000      -0.674010       -18.3407
  21   2.0000      -0.670003       -18.2317
  22   2.0000      -0.666990       -18.1497
  23   2.0000      -0.630916       -17.1681
  24   2.0000      -0.612053       -16.6548
  25   2.0000      -0.568813       -15.4782
  26   2.0000      -0.537252       -14.6194
  27   2.0000      -0.498840       -13.5741
  28   2.0000      -0.482299       -13.1240
  29   2.0000      -0.444154       -12.0860
  30   2.0000      -0.401249       -10.9185
  31   2.0000      -0.388928       -10.5833
  32   0.0000       0.048407         1.3172
  33   0.0000       0.122046         3.3211
  34   0.0000       0.127526         3.4702
  35   0.0000       0.147079         4.0022
  36   0.0000       0.149246         4.0612

MULLIKEN ATOMIC CHARGES
-----------------------
   0 O :   -0.213433
   1 C :    0.142546
   2 N :    0.141644
   3 C :   -0.117432
   4 C :   -0.199756
   5 C :    0.151133
   6 C :    0.013286
   7 O :   -0.234180
   8 N :   -0.214919
   9 H :    0.105868
  10 H :    0.174133
  11 H :    0.163774
  12 H :    0.087338
Sum of atomic charges:    0.0000000

LOEWDIN ATOMIC CHARGES
----------------------
   0 O :    0.175271
   1 C :   -0.332220
   2 N :    0.198787
   3 C :   -0.186505
   4 C :   -0.148174
   5 C :   -0.264986
   6 C :   -0.271361
   7 O :    0.158752
   8 N :    0.135521
   9 H :    0.122363
  10 H :    0.145175
  11 H :    0.150361
  12 H :    0.117015

  Mayer bond orders larger than 0.1
B(  0-O ,  1-C ) :   2.0435 B(  1-C ,  2-N ) :   0.9012 B(  1-C ,  9-H ) :   0.9233
B(  2-N ,  3-C ) :   1.1363 B(  2-N ,  8-N ) :   0.9737 B(  3-C ,  4-C ) :   1.5088
B(  3-C ,  8-N ) :   0.1055 B(  3-C , 10-H ) :   0.8944 B(  4-C ,  5-C ) :   1.1882
B(  4-C , 11-H ) :   0.9048 B(  5-C ,  6-C ) :   0.8108 B(  5-C ,  8-N ) :   1.4639
B(  5-C , 12-H ) :  -0.1202 B(  6-C ,  7-O ) :   2.0424 B(  6-C , 12-H ) :   0.9966

MP2 TOTAL ENERGY:     -452.034664287 Eh
FINAL SINGLE POINT ENERGY      -452.034664287416

DIPOLE MOMENT
-------------
                                X             Y             Z
Electronic contribution:      0.18434      -3.36856      -0.03056
Nuclear contribution   :     -1.24749       5.70576       0.06282
                        -----------------------------------------
Total Dipole Moment    :     -1.06315       2.33720       0.03226
                        -----------------------------------------
Magnitude (a.u.)       :      2.56784
Magnitude (Debye)      :      6.52694

                             ****ORCA TERMINATED NORMALLY****
TOTAL RUN TIME: 0 days 0 hours 13 minutes 5 seconds 670 msec
