                         Program Version 3.0.3 - RELEASE   -
|  1> ! RI-MP2 RIJK def2-TZVP def2-TZVP/C def2-TZVP/JK TIGHTSCF
|  2> % maxcore 2000
|  3> % mp2 density relaxed end
|  4> *xyz 0 1
|  5>  C        0.0650680142     1.4989973589    -0.0358389223
|  6>  C        0.0559263653     0.0099169523     0.0715509515
|  7>  C       -0.9044880420    -0.8419114827     0.8448229840
|  8>  C        0.5911036956    -0.9881767909     1.0723917179
|  9>  C        1.2074775976    -1.6802922383    -0.1380974181
| 10>  C        2.7438534538    -1.8299192332    -0.1942192270
| 11>  C        2.5515813108    -3.3534345465     0.0493320418
| 12>  C        1.0675258180    -3.1957460360    -0.3878854816
| 13>  O        0.5744956610    -0.7406771684    -1.0405657089
| 14>  H        1.0697277661     1.8704814418    -0.2605757700
| 15>  H       -0.6060336221     1.8294519718    -0.8369432722
| 16>  H       -0.2764828033     1.9533115952     0.8987355079
| 17>  H       -1.4365254904    -0.3434277084     1.6498015797
| 18>  H       -1.4635893501    -1.6229841598     0.3363323880
| 19>  H        1.0675227679    -0.8446733150     2.0336972154
| 20>  H        3.1017791887    -1.6205920789    -1.2061170990
| 21>  H        3.3369353620    -1.2540661070     0.5210393819
| 22>  H        3.1747679316    -4.0334577737    -0.5338819822
| 23>  H        2.6432406958    -3.6169913411     1.1060927808
| 24>  H        0.2951851345    -3.7310930676     0.1700017405
| 25>  H        0.9382003348    -3.3916871123    -1.4562002979
| 26> *
| 27>
| 28>                          ****END OF INPUT****

CARTESIAN COORDINATES (ANGSTROEM)
---------------------------------
  C      0.065068    1.498997   -0.035839
  C      0.055926    0.009917    0.071551
  C     -0.904488   -0.841911    0.844823
  C      0.591104   -0.988177    1.072392
  C      1.207478   -1.680292   -0.138097
  C      2.743853   -1.829919   -0.194219
  C      2.551581   -3.353435    0.049332
  C      1.067526   -3.195746   -0.387885
  O      0.574496   -0.740677   -1.040566
  H      1.069728    1.870481   -0.260576
  H     -0.606034    1.829452   -0.836943
  H     -0.276483    1.953312    0.898736
  H     -1.436525   -0.343428    1.649802
  H     -1.463589   -1.622984    0.336332
  H      1.067523   -0.844673    2.033697
  H      3.101779   -1.620592   -1.206117
  H      3.336935   -1.254066    0.521039
  H      3.174768   -4.033458   -0.533882
  H      2.643241   -3.616991    1.106093
  H      0.295185   -3.731093    0.170002
  H      0.938200   -3.391687   -1.456200

 Total Charge           Charge          ....    0
 Multiplicity           Mult            ....    1
 Number of Electrons    NEL             ....   68
 Basis Dimension        Dim             ....  351

ORBITAL ENERGIES
----------------

  NO   OCC          E(Eh)            E(eV)
   0   2.0000     -20.544590      -559.0467
   1   2.0000     -11.288764      -307.1829
   2   2.0000     -11.285369      -307.0905
   3   2.0000     -11.230565      -305.5992
   4   2.0000     -11.227868      -305.5258
   5   2.0000     -11.222627      -305.3832
   6   2.0000     -11.222624      -305.3831
   7   2.0000     -11.218706      -305.2765
   8   2.0000     -11.216740      -305.2230
   9   2.0000      -1.387522       -37.7564
  10   2.0000      -1.121653       -30.5217
  11   2.0000      -1.114479       -30.3265
  12   2.0000      -0.987428       -26.8693
  13   2.0000      -0.904869       -24.6227
  14   2.0000      -0.889816       -24.2131
  15   2.0000      -0.824585       -22.4381
  16   2.0000      -0.754520       -20.5315
  17   2.0000      -0.713972       -19.4282
  18   2.0000      -0.672331       -18.2950
  19   2.0000      -0.669852       -18.2276
  20   2.0000      -0.625068       -17.0090
  21   2.0000      -0.615167       -16.7396
  22   2.0000      -0.579002       -15.7554
  23   2.0000      -0.555351       -15.1119
  24   2.0000      -0.546296       -14.8655
  25   2.0000      -0.541788       -14.7428
  26   2.0000      -0.527809       -14.3624
  27   2.0000      -0.503882       -13.7113
  28   2.0000      -0.476407       -12.9637
  29   2.0000      -0.467534       -12.7222
  30   2.0000      -0.451426       -12.2839
  31   2.0000      -0.434433       -11.8215
  32   2.0000      -0.387742       -10.5510
  33   2.0000      -0.365474        -9.9450
  34   0.0000       0.140307         3.8180
  35   0.0000       0.148027         4.0280
  36   0.0000       0.167067         4.5461
  37   0.0000       0.174562         4.7501
  38   0.0000       0.183526         4.9940

MULLIKEN ATOMIC CHARGES
-----------------------
   0 C :   -0.403048
   1 C :    0.195600
   2 C :   -0.259841
   3 C :   -0.243746
   4 C :    0.238855
   5 C :   -0.248190
   6 C :   -0.244030
   7 C :   -0.222872
   8 O :   -0.332509
   9 H :    0.136608
  10 H :    0.142108
  11 H :    0.127246
  12 H :    0.127252
  13 H :    0.134462
  14 H :    0.136557
  15 H :    0.121190
  16 H :    0.118191
  17 H :    0.121049
  18 H :    0.116083
  19 H :    0.115849
  20 H :    0.123187
Sum of atomic charges:   -0.0000000

LOEWDIN ATOMIC CHARGES
----------------------
   0 C :   -0.269525
   1 C :   -0.300084
   2 C :   -0.185177
   3 C :   -0.143444
   4 C :   -0.279042
   5 C :   -0.196809
   6 C :   -0.239260
   7 C :   -0.202286
   8 O :    0.205735
   9 H :    0.130949
  10 H :    0.134434
  11 H :    0.133308
  12 H :    0.140951
  13 H :    0.135475
  14 H :    0.138999
  15 H :    0.142269
  16 H :    0.126592
  17 H :    0.123985
  18 H :    0.132357
  19 H :    0.127782
  20 H :    0.142792

  Mayer bond orders larger than 0.1
B(  0-C ,  1-C ) :   0.9008 B(  0-C ,  9-H ) :   0.9366 B(  0-C , 10-H ) :   0.9379
B(  0-C , 11-H ) :   0.9295 B(  1-C ,  2-C ) :   0.8739 B(  1-C ,  3-C ) :   0.8901
B(  1-C ,  8-O ) :   0.9635 B(  2-C ,  3-C ) :   0.8794 B(  2-C , 12-H ) :   0.9268
B(  2-C , 13-H ) :   0.9070 B(  3-C ,  4-C ) :   0.9182 B(  3-C , 14-H ) :   0.9034
B(  4-C ,  5-C ) :   0.8883 B(  4-C ,  7-C ) :   0.8955 B(  4-C ,  8-O ) :   0.9435
B(  5-C ,  6-C ) :   0.9428 B(  5-C , 15-H ) :   0.9202 B(  5-C , 16-H ) :   0.9241
B(  6-C ,  7-C ) :   0.9520 B(  6-C , 17-H ) :   0.9311 B(  6-C , 18-H ) :   0.9232
B(  7-C , 19-H ) :   0.9231 B(  7-C , 20-H ) :   0.9179

MP2 TOTAL ENERGY:     -386.367087149 Eh
FINAL SINGLE POINT ENERGY      -386.367087148731

DIPOLE MOMENT
-------------
                                X             Y             Z
Electronic contribution:     -1.08518       0.22019      -1.52681
Nuclear contribution   :      1.15834      -0.15275       2.14864
                        -----------------------------------------
Total Dipole Moment    :      0.07316       0.06744       0.62183
                        -----------------------------------------
Magnitude (a.u.)       :      0.62974
Magnitude (Debye)      :      1.60068

                             ****ORCA TERMINATED NORMALLY****
TOTAL RUN TIME: 0 days 0 hours 18 minutes 57 seconds 211 msec
