                         Program Version 3.0.3 - RELEASE   -
|  1> ! RI-MP2 RIJK def2-TZVP def2-TZVP/C def2-TZVP/JK TIGHTSCF
|  2> % maxcore 2000
|  3> % mp2 density relaxed end
|  4> *xyz 0 1
|  5>  C        0.0972594137     1.3727544738     0.0979248544
|  6>  O        0.2158511201    -0.0552732489     0.0537965131
|  7>  C        0.4424236985    -0.5668140074    -1.1730230577
|  8>  O        0.5429492954     0.0971800656    -2.1762044723
|  9>  C        0.5472408568    -2.0038438049    -1.1225472725
| 10>  C        0.6452394957    -3.2041116107    -1.1511769344
| 11>  C        0.7648221577    -4.6511214241    -1.1840035643
| 12>  H        1.0151259955     1.8476244889    -0.2579617659
| 13>  H       -0.7356715109     1.7104433726    -0.5240258502
| 14>  H       -0.0811249956     1.6200732248     1.1442367706
| 15>  H        1.8026642216    -4.9482148944    -1.3699342874
| 16>  H        0.4495489588    -5.0992552768    -0.2361963671
| 17>  H        0.1495853725    -5.0756757086    -1.9843914364
| 18> *
| 19>
| 20>                          ****END OF INPUT****

CARTESIAN COORDINATES (ANGSTROEM)
---------------------------------
  C      0.097259    1.372754    0.097925
  O      0.215851   -0.055273    0.053797
  C      0.442424   -0.566814   -1.173023
  O      0.542949    0.097180   -2.176204
  C      0.547241   -2.003844   -1.122547
  C      0.645239   -3.204112   -1.151177
  C      0.764822   -4.651121   -1.184004
  H      1.015126    1.847624   -0.257962
  H     -0.735672    1.710443   -0.524026
  H     -0.081125    1.620073    1.144237
  H      1.802664   -4.948215   -1.369934
  H      0.449549   -5.099255   -0.236196
  H      0.149585   -5.075676   -1.984391

 Total Charge           Charge          ....    0
 Multiplicity           Mult            ....    1
 Number of Electrons    NEL             ....   52
 Basis Dimension        Dim             ....  253

ORBITAL ENERGIES
----------------

  NO   OCC          E(Eh)            E(eV)
   0   2.0000     -20.608323      -560.7810
   1   2.0000     -20.550315      -559.2025
   2   2.0000     -11.402672      -310.2825
   3   2.0000     -11.287317      -307.1435
   4   2.0000     -11.265180      -306.5411
   5   2.0000     -11.264328      -306.5179
   6   2.0000     -11.239536      -305.8433
   7   2.0000      -1.466632       -39.9091
   8   2.0000      -1.365658       -37.1614
   9   2.0000      -1.086228       -29.5578
  10   2.0000      -1.013160       -27.5695
  11   2.0000      -0.962523       -26.1916
  12   2.0000      -0.846683       -23.0394
  13   2.0000      -0.751741       -20.4559
  14   2.0000      -0.681961       -18.5571
  15   2.0000      -0.676341       -18.4042
  16   2.0000      -0.654149       -17.8003
  17   2.0000      -0.607562       -16.5326
  18   2.0000      -0.605833       -16.4856
  19   2.0000      -0.601766       -16.3749
  20   2.0000      -0.559049       -15.2125
  21   2.0000      -0.536189       -14.5904
  22   2.0000      -0.475413       -12.9366
  23   2.0000      -0.467906       -12.7324
  24   2.0000      -0.402242       -10.9456
  25   2.0000      -0.401327       -10.9207
  26   0.0000       0.108359         2.9486
  27   0.0000       0.131576         3.5804
  28   0.0000       0.153551         4.1783
  29   0.0000       0.174151         4.7389
  30   0.0000       0.202442         5.5087

MULLIKEN ATOMIC CHARGES
-----------------------
   0 C :   -0.226909
   1 O :   -0.240102
   2 C :    0.184910
   3 O :   -0.312258
   4 C :    0.084752
   5 C :    0.038446
   6 C :   -0.468525
   7 H :    0.142661
   8 H :    0.142668
   9 H :    0.144829
  10 H :    0.169884
  11 H :    0.169201
  12 H :    0.170442
Sum of atomic charges:    0.0000000

LOEWDIN ATOMIC CHARGES
----------------------
   0 C :   -0.307731
   1 O :    0.239918
   2 C :   -0.484756
   3 O :    0.141944
   4 C :   -0.032359
   5 C :   -0.057538
   6 C :   -0.283679
   7 H :    0.114687
   8 H :    0.114689
   9 H :    0.115637
  10 H :    0.147341
  11 H :    0.145122
  12 H :    0.146725

  Mayer bond orders larger than 0.1
B(  0-C ,  1-O ) :   0.8414 B(  0-C ,  7-H ) :   0.9404 B(  0-C ,  8-H ) :   0.9404
B(  0-C ,  9-H ) :   0.9327 B(  1-O ,  2-C ) :   1.2058 B(  2-C ,  3-O ) :   1.9396
B(  2-C ,  4-C ) :   0.9947 B(  4-C ,  5-C ) :   2.7200 B(  5-C ,  6-C ) :   0.8879
B(  6-C , 10-H ) :   0.9381 B(  6-C , 11-H ) :   0.9420 B(  6-C , 12-H ) :   0.9389

MP2 TOTAL ENERGY:     -343.880018532 Eh
FINAL SINGLE POINT ENERGY      -343.880018532062

DIPOLE MOMENT
-------------
                                X             Y             Z
Electronic contribution:      0.07939       1.98111      -1.59473
Nuclear contribution   :     -0.13079      -2.51784       2.22670
                        -----------------------------------------
Total Dipole Moment    :     -0.05140      -0.53673       0.63197
                        -----------------------------------------
Magnitude (a.u.)       :      0.83073
Magnitude (Debye)      :      2.11154

                             ****ORCA TERMINATED NORMALLY****
TOTAL RUN TIME: 0 days 0 hours 6 minutes 14 seconds 770 msec
