                         Program Version 3.0.3 - RELEASE   -
|  1> ! RI-MP2 RIJK def2-TZVP def2-TZVP/C def2-TZVP/JK TIGHTSCF
|  2> % maxcore 2000
|  3> % mp2 density relaxed end
|  4> *xyz 0 1
|  5>  C        0.2363047608     1.4881188285    -0.0434477630
|  6>  C        0.0291619394    -0.0283214901    -0.0126687588
|  7>  C       -1.4351678885    -0.4773479519    -0.0453145911
|  8>  C       -1.5674761703    -2.0002615817     0.0556796380
|  9>  C       -3.0074871822    -2.5181457327     0.0958229153
| 10>  O       -2.2470840586     0.2149771254     0.9607302150
| 11>  C       -3.0919528022     0.8661183827    -0.0075233115
| 12>  C       -2.3053494998     0.1894460670    -1.1316456050
| 13>  O       -2.3388489793     0.1758479049    -2.3246571332
| 14>  H        1.2993641739     1.7319330405     0.0364183647
| 15>  H       -0.1321784525     1.9273834315    -0.9766548405
| 16>  H       -0.2847001248     1.9642908151     0.7914498067
| 17>  H        0.5375580322    -0.4989853381    -0.8627261344
| 18>  H        0.4832551784    -0.4451139472     0.8950222537
| 19>  H       -1.0304466626    -2.4352095806    -0.7957953761
| 20>  H       -1.0343525110    -2.3198235058     0.9598239027
| 21>  H       -3.5530579811    -2.0726217605     0.9319443768
| 22>  H       -3.5455837581    -2.2880192200    -0.8299754909
| 23>  H       -3.0212945980    -3.6043608539     0.2217790784
| 24>  H       -4.1454977139     0.5687844351     0.0707862068
| 25>  H       -3.0173671518     1.9606662018     0.0225053665
| 26> *
| 27>
| 28>                          ****END OF INPUT****

CARTESIAN COORDINATES (ANGSTROEM)
---------------------------------
  C      0.236305    1.488119   -0.043448
  C      0.029162   -0.028321   -0.012669
  C     -1.435168   -0.477348   -0.045315
  C     -1.567476   -2.000262    0.055680
  C     -3.007487   -2.518146    0.095823
  O     -2.247084    0.214977    0.960730
  C     -3.091953    0.866118   -0.007523
  C     -2.305349    0.189446   -1.131646
  O     -2.338849    0.175848   -2.324657
  H      1.299364    1.731933    0.036418
  H     -0.132178    1.927383   -0.976655
  H     -0.284700    1.964291    0.791450
  H      0.537558   -0.498985   -0.862726
  H      0.483255   -0.445114    0.895022
  H     -1.030447   -2.435210   -0.795795
  H     -1.034353   -2.319824    0.959824
  H     -3.553058   -2.072622    0.931944
  H     -3.545584   -2.288019   -0.829975
  H     -3.021295   -3.604361    0.221779
  H     -4.145498    0.568784    0.070786
  H     -3.017367    1.960666    0.022505

 Total Charge           Charge          ....    0
 Multiplicity           Mult            ....    1
 Number of Electrons    NEL             ....   70
 Basis Dimension        Dim             ....  351

ORBITAL ENERGIES
----------------

  NO   OCC          E(Eh)            E(eV)
   0   2.0000     -20.569226      -559.7171
   1   2.0000     -20.564576      -559.5906
   2   2.0000     -11.341752      -308.6248
   3   2.0000     -11.301450      -307.5281
   4   2.0000     -11.296199      -307.3852
   5   2.0000     -11.236798      -305.7688
   6   2.0000     -11.236781      -305.7684
   7   2.0000     -11.220868      -305.3353
   8   2.0000     -11.220867      -305.3353
   9   2.0000      -1.419787       -38.6344
  10   2.0000      -1.386747       -37.7353
  11   2.0000      -1.088080       -29.6082
  12   2.0000      -1.032500       -28.0958
  13   2.0000      -0.977161       -26.5899
  14   2.0000      -0.942190       -25.6383
  15   2.0000      -0.849359       -23.1122
  16   2.0000      -0.838847       -22.8262
  17   2.0000      -0.702423       -19.1139
  18   2.0000      -0.688409       -18.7326
  19   2.0000      -0.683690       -18.6042
  20   2.0000      -0.672385       -18.2965
  21   2.0000      -0.613072       -16.6825
  22   2.0000      -0.604631       -16.4529
  23   2.0000      -0.596770       -16.2389
  24   2.0000      -0.573834       -15.6148
  25   2.0000      -0.564325       -15.3561
  26   2.0000      -0.532950       -14.5023
  27   2.0000      -0.526159       -14.3175
  28   2.0000      -0.515653       -14.0316
  29   2.0000      -0.514356       -13.9963
  30   2.0000      -0.493948       -13.4410
  31   2.0000      -0.493501       -13.4288
  32   2.0000      -0.491764       -13.3816
  33   2.0000      -0.429813       -11.6958
  34   2.0000      -0.402205       -10.9446
  35   0.0000       0.127741         3.4760
  36   0.0000       0.136185         3.7058
  37   0.0000       0.149185         4.0595
  38   0.0000       0.154166         4.1951
  39   0.0000       0.180736         4.9181

MULLIKEN ATOMIC CHARGES
-----------------------
   0 C :   -0.436707
   1 C :   -0.201707
   2 C :    0.259483
   3 C :   -0.201704
   4 C :   -0.436686
   5 O :   -0.365279
   6 C :   -0.033353
   7 C :    0.062708
   8 O :   -0.239382
   9 H :    0.140126
  10 H :    0.138305
  11 H :    0.147276
  12 H :    0.123727
  13 H :    0.118279
  14 H :    0.123735
  15 H :    0.118269
  16 H :    0.147284
  17 H :    0.138275
  18 H :    0.140122
  19 H :    0.128610
  20 H :    0.128620
Sum of atomic charges:   -0.0000000

LOEWDIN ATOMIC CHARGES
----------------------
   0 C :   -0.311714
   1 C :   -0.247079
   2 C :   -0.288602
   3 C :   -0.247093
   4 C :   -0.311718
   5 O :    0.160606
   6 C :   -0.250648
   7 C :   -0.287080
   8 O :    0.178355
   9 H :    0.124133
  10 H :    0.124563
  11 H :    0.127090
  12 H :    0.149727
  13 H :    0.146720
  14 H :    0.149728
  15 H :    0.146710
  16 H :    0.127092
  17 H :    0.124556
  18 H :    0.124132
  19 H :    0.130257
  20 H :    0.130264

  Mayer bond orders larger than 0.1
B(  0-C ,  1-C ) :   0.9239 B(  0-C ,  9-H ) :   0.9360 B(  0-C , 10-H ) :   0.9355
B(  0-C , 11-H ) :   0.9354 B(  1-C ,  2-C ) :   0.8943 B(  1-C , 12-H ) :   0.9220
B(  1-C , 13-H ) :   0.9232 B(  2-C ,  3-C ) :   0.8942 B(  2-C ,  5-O ) :   0.8903
B(  2-C ,  6-C ) :  -0.1098 B(  2-C ,  7-C ) :   0.8257 B(  3-C ,  4-C ) :   0.9239
B(  3-C , 14-H ) :   0.9220 B(  3-C , 15-H ) :   0.9233 B(  4-C , 16-H ) :   0.9354
B(  4-C , 17-H ) :   0.9355 B(  4-C , 18-H ) :   0.9360 B(  5-O ,  6-C ) :   0.9434
B(  6-C ,  7-C ) :   0.9524 B(  6-C , 19-H ) :   0.8985 B(  6-C , 20-H ) :   0.8985
B(  7-C ,  8-O ) :   2.0715

MP2 TOTAL ENERGY:     -423.525084194 Eh
FINAL SINGLE POINT ENERGY      -423.525084193612

DIPOLE MOMENT
-------------
                                X             Y             Z
Electronic contribution:     -3.19661       2.48061      -3.09334
Nuclear contribution   :      3.36218      -2.60232       3.44823
                        -----------------------------------------
Total Dipole Moment    :      0.16557      -0.12171       0.35489
                        -----------------------------------------
Magnitude (a.u.)       :      0.41009
Magnitude (Debye)      :      1.04237

                             ****ORCA TERMINATED NORMALLY****
TOTAL RUN TIME: 0 days 0 hours 19 minutes 44 seconds 507 msec
