                         Program Version 3.0.3 - RELEASE   -
|  1> ! RI-MP2 RIJK def2-TZVP def2-TZVP/C def2-TZVP/JK TIGHTSCF
|  2> % maxcore 2000
|  3> % mp2 density relaxed end
|  4> *xyz 0 1
|  5>  C       -0.1371830445     1.4461837735    -0.0074735817
|  6>  C        0.0285294872    -0.0413348978     0.0183063907
|  7>  C       -0.0737900479    -0.9431046172    -1.2260498414
|  8>  N        0.7238290342    -2.1528183674    -0.9300766108
|  9>  C        0.0542751746    -2.1643788633     0.4122310037
| 10>  C        0.6637983842    -0.9050932766     1.0635266236
| 11>  O        1.1821056279    -0.6807336913     2.1207950340
| 12>  C       -1.0679033898    -1.1411733229    -0.1180344724
| 13>  O       -2.3949704413    -0.9235936229     0.1072561458
| 14>  H        0.7635710390     1.9376581281    -0.3885659660
| 15>  H       -0.9787179532     1.7385246218    -0.6433960370
| 16>  H       -0.3271536547     1.8245347964     1.0010643870
| 17>  H       -0.1576409552    -0.5004904933    -2.2112452623
| 18>  H        0.3397127820    -2.9192231150    -1.4821999278
| 19>  H       -0.0549826107    -3.1059174116     0.9429880193
| 20>  H       -2.9049006119    -1.6134054603    -0.3339690347
| 21> *
| 22>
| 23>                          ****END OF INPUT****

CARTESIAN COORDINATES (ANGSTROEM)
---------------------------------
  C     -0.137183    1.446184   -0.007474
  C      0.028529   -0.041335    0.018306
  C     -0.073790   -0.943105   -1.226050
  N      0.723829   -2.152818   -0.930077
  C      0.054275   -2.164379    0.412231
  C      0.663798   -0.905093    1.063527
  O      1.182106   -0.680734    2.120795
  C     -1.067903   -1.141173   -0.118034
  O     -2.394970   -0.923594    0.107256
  H      0.763571    1.937658   -0.388566
  H     -0.978718    1.738525   -0.643396
  H     -0.327154    1.824535    1.001064
  H     -0.157641   -0.500490   -2.211245
  H      0.339713   -2.919223   -1.482200
  H     -0.054983   -3.105917    0.942988
  H     -2.904901   -1.613405   -0.333969

 Total Charge           Charge          ....    0
 Multiplicity           Mult            ....    1
 Number of Electrons    NEL             ....   66
 Basis Dimension        Dim             ....  321

ORBITAL ENERGIES
----------------

  NO   OCC          E(Eh)            E(eV)
   0   2.0000     -20.606190      -560.7229
   1   2.0000     -20.540578      -558.9376
   2   2.0000     -15.575317      -423.8259
   3   2.0000     -11.333104      -308.3894
   4   2.0000     -11.325592      -308.1850
   5   2.0000     -11.292922      -307.2960
   6   2.0000     -11.289934      -307.2147
   7   2.0000     -11.259160      -306.3773
   8   2.0000     -11.233227      -305.6717
   9   2.0000      -1.418928       -38.6110
  10   2.0000      -1.387830       -37.7648
  11   2.0000      -1.303129       -35.4599
  12   2.0000      -1.112767       -30.2799
  13   2.0000      -0.993092       -27.0234
  14   2.0000      -0.958302       -26.0767
  15   2.0000      -0.850168       -23.1342
  16   2.0000      -0.804938       -21.9035
  17   2.0000      -0.735972       -20.0268
  18   2.0000      -0.707760       -19.2591
  19   2.0000      -0.686581       -18.6828
  20   2.0000      -0.652418       -17.7532
  21   2.0000      -0.639564       -17.4034
  22   2.0000      -0.616021       -16.7628
  23   2.0000      -0.594222       -16.1696
  24   2.0000      -0.577198       -15.7064
  25   2.0000      -0.560154       -15.2426
  26   2.0000      -0.543026       -14.7765
  27   2.0000      -0.537053       -14.6140
  28   2.0000      -0.515848       -14.0369
  29   2.0000      -0.443514       -12.0686
  30   2.0000      -0.411872       -11.2076
  31   2.0000      -0.395585       -10.7644
  32   2.0000      -0.368532       -10.0283
  33   0.0000       0.109946         2.9918
  34   0.0000       0.138777         3.7763
  35   0.0000       0.147118         4.0033
  36   0.0000       0.172498         4.6939
  37   0.0000       0.179729         4.8907

MULLIKEN ATOMIC CHARGES
-----------------------
   0 C :   -0.432721
   1 C :    0.077183
   2 C :   -0.149502
   3 N :   -0.311351
   4 C :   -0.007827
   5 C :    0.148504
   6 O :   -0.270341
   7 C :    0.066936
   8 O :   -0.425036
   9 H :    0.150978
  10 H :    0.143757
  11 H :    0.157385
  12 H :    0.150616
  13 H :    0.208164
  14 H :    0.152445
  15 H :    0.340810
Sum of atomic charges:    0.0000000

LOEWDIN ATOMIC CHARGES
----------------------
   0 C :   -0.260037
   1 C :   -0.147771
   2 C :   -0.183383
   3 N :    0.017948
   4 C :   -0.153144
   5 C :   -0.280284
   6 O :    0.152801
   7 C :   -0.256687
   8 O :    0.058166
   9 H :    0.135928
  10 H :    0.135839
  11 H :    0.140589
  12 H :    0.142129
  13 H :    0.169021
  14 H :    0.134168
  15 H :    0.194717

  Mayer bond orders larger than 0.1
B(  0-C ,  1-C ) :   0.8646 B(  0-C ,  9-H ) :   0.9407 B(  0-C , 10-H ) :   0.9341
B(  0-C , 11-H ) :   0.9353 B(  1-C ,  2-C ) :   0.7803 B(  1-C ,  4-C ) :  -0.1039
B(  1-C ,  5-C ) :   0.9237 B(  1-C ,  7-C ) :   0.7562 B(  2-C ,  3-N ) :   0.9605
B(  2-C ,  7-C ) :   0.9124 B(  2-C , 12-H ) :   0.9157 B(  3-N ,  4-C ) :   0.9164
B(  3-N , 13-H ) :   0.8702 B(  4-C ,  5-C ) :   0.8256 B(  4-C ,  7-C ) :   0.8773
B(  4-C , 14-H ) :   0.8984 B(  5-C ,  6-O ) :   2.0487 B(  7-C ,  8-O ) :   1.0967
B(  8-O , 15-H ) :   0.8267

MP2 TOTAL ENERGY:     -437.100238298 Eh
FINAL SINGLE POINT ENERGY      -437.100238298070

DIPOLE MOMENT
-------------
                                X             Y             Z
Electronic contribution:      0.84364      -3.45534       2.61093
Nuclear contribution   :     -2.12596       2.95089      -4.01300
                        -----------------------------------------
Total Dipole Moment    :     -1.28233      -0.50445      -1.40208
                        -----------------------------------------
Magnitude (a.u.)       :      1.96587
Magnitude (Debye)      :      4.99685

                             ****ORCA TERMINATED NORMALLY****
TOTAL RUN TIME: 0 days 0 hours 15 minutes 25 seconds 345 msec
