                         Program Version 3.0.3 - RELEASE   -
|  1> ! RI-MP2 RIJK def2-TZVP def2-TZVP/C def2-TZVP/JK TIGHTSCF
|  2> % maxcore 2000
|  3> % mp2 density relaxed end
|  4> *xyz 0 1
|  5>  O        0.1500678715     1.3851753199    -0.3090690719
|  6>  C        0.0286300948     0.0069725620     0.0113176850
|  7>  C        0.6934530760    -0.3807648728     1.3561416260
|  8>  O       -0.2150484292    -0.4548280603     2.4551678241
|  9>  C       -1.5207177910    -0.8800131119     2.0874245695
| 10>  C       -1.5226177715    -1.7954864591     0.8304623136
| 11>  C       -1.4339883112    -0.4676612878     0.0182451345
| 12>  C       -2.1880338222     0.2041048845     1.2055904593
| 13>  H       -0.3408636098     1.8897578522     0.3481386614
| 14>  H        0.5743208255    -0.5036544295    -0.7904591382
| 15>  H        1.2041407640    -1.3474729918     1.2405800329
| 16>  H        1.4509279998     0.3639635128     1.6153539941
| 17>  H       -2.0095021811    -1.2143433702     3.0043237082
| 18>  H       -0.7331421677    -2.5426235940     0.7202249514
| 19>  H       -2.4944794050    -2.2791753882     0.7081144541
| 20>  H       -1.8751566225    -0.4135285700    -0.9785404037
| 21>  H       -3.2695882809     0.0708960411     1.1213192390
| 22>  H       -1.9756645496     1.2453601631     1.4672277807
| 23> *
| 24>
| 25>                          ****END OF INPUT****

CARTESIAN COORDINATES (ANGSTROEM)
---------------------------------
  O      0.150068    1.385175   -0.309069
  C      0.028630    0.006973    0.011318
  C      0.693453   -0.380765    1.356142
  O     -0.215048   -0.454828    2.455168
  C     -1.520718   -0.880013    2.087425
  C     -1.522618   -1.795486    0.830462
  C     -1.433988   -0.467661    0.018245
  C     -2.188034    0.204105    1.205590
  H     -0.340864    1.889758    0.348139
  H      0.574321   -0.503654   -0.790459
  H      1.204141   -1.347473    1.240580
  H      1.450928    0.363964    1.615354
  H     -2.009502   -1.214343    3.004324
  H     -0.733142   -2.542624    0.720225
  H     -2.494479   -2.279175    0.708114
  H     -1.875157   -0.413529   -0.978540
  H     -3.269588    0.070896    1.121319
  H     -1.975665    1.245360    1.467228

 Total Charge           Charge          ....    0
 Multiplicity           Mult            ....    1
 Number of Electrons    NEL             ....   62
 Basis Dimension        Dim             ....  308

ORBITAL ENERGIES
----------------

  NO   OCC          E(Eh)            E(eV)
   0   2.0000     -20.555487      -559.3432
   1   2.0000     -20.554215      -559.3086
   2   2.0000     -11.286521      -307.1218
   3   2.0000     -11.284259      -307.0603
   4   2.0000     -11.273752      -306.7744
   5   2.0000     -11.239932      -305.8541
   6   2.0000     -11.232302      -305.6465
   7   2.0000     -11.229440      -305.5686
   8   2.0000      -1.381576       -37.5946
   9   2.0000      -1.358145       -36.9570
  10   2.0000      -1.136884       -30.9362
  11   2.0000      -1.017883       -27.6980
  12   2.0000      -0.912807       -24.8387
  13   2.0000      -0.871717       -23.7206
  14   2.0000      -0.852078       -23.1862
  15   2.0000      -0.739205       -20.1148
  16   2.0000      -0.704305       -19.1651
  17   2.0000      -0.681681       -18.5495
  18   2.0000      -0.656696       -17.8696
  19   2.0000      -0.619447       -16.8560
  20   2.0000      -0.600520       -16.3410
  21   2.0000      -0.586880       -15.9698
  22   2.0000      -0.565762       -15.3952
  23   2.0000      -0.549702       -14.9582
  24   2.0000      -0.519584       -14.1386
  25   2.0000      -0.511773       -13.9260
  26   2.0000      -0.499145       -13.5824
  27   2.0000      -0.464722       -12.6457
  28   2.0000      -0.433039       -11.7836
  29   2.0000      -0.422772       -11.5042
  30   2.0000      -0.396482       -10.7888
  31   0.0000       0.134490         3.6597
  32   0.0000       0.151814         4.1311
  33   0.0000       0.159206         4.3322
  34   0.0000       0.171847         4.6762
  35   0.0000       0.192042         5.2257

MULLIKEN ATOMIC CHARGES
-----------------------
   0 O :   -0.461639
   1 C :    0.016171
   2 C :   -0.090436
   3 O :   -0.325187
   4 C :    0.139559
   5 C :   -0.316609
   6 C :    0.006403
   7 C :   -0.332694
   8 H :    0.315209
   9 H :    0.106123
  10 H :    0.099861
  11 H :    0.133849
  12 H :    0.117119
  13 H :    0.127668
  14 H :    0.125761
  15 H :    0.115929
  16 H :    0.121163
  17 H :    0.101749
Sum of atomic charges:   -0.0000000

LOEWDIN ATOMIC CHARGES
----------------------
   0 O :   -0.017048
   1 C :   -0.328799
   2 C :   -0.288419
   3 O :    0.162961
   4 C :   -0.285164
   5 C :   -0.201688
   6 C :   -0.210343
   7 C :   -0.210172
   8 H :    0.171692
   9 H :    0.149952
  10 H :    0.122481
  11 H :    0.133205
  12 H :    0.129669
  13 H :    0.130226
  14 H :    0.142134
  15 H :    0.138274
  16 H :    0.139681
  17 H :    0.121358

  Mayer bond orders larger than 0.1
B(  0-O ,  1-C ) :   0.9320 B(  0-O ,  8-H ) :   0.8401 B(  1-C ,  2-C ) :   0.9371
B(  1-C ,  6-C ) :   0.9224 B(  1-C ,  9-H ) :   0.9193 B(  2-C ,  3-O ) :   0.9406
B(  2-C , 10-H ) :   0.9314 B(  2-C , 11-H ) :   0.9195 B(  3-O ,  4-C ) :   0.9160
B(  4-C ,  5-C ) :   0.8950 B(  4-C ,  7-C ) :   0.8908 B(  4-C , 12-H ) :   0.9349
B(  5-C ,  6-C ) :   0.9033 B(  5-C , 13-H ) :   0.9187 B(  5-C , 14-H ) :   0.9164
B(  6-C ,  7-C ) :   0.8908 B(  6-C , 15-H ) :   0.9265 B(  7-C , 16-H ) :   0.9146
B(  7-C , 17-H ) :   0.9299

MP2 TOTAL ENERGY:     -384.292456811 Eh
FINAL SINGLE POINT ENERGY      -384.292456810877

DIPOLE MOMENT
-------------
                                X             Y             Z
Electronic contribution:      1.58956       1.57224       0.96700
Nuclear contribution   :     -2.12609      -1.97787      -1.02447
                        -----------------------------------------
Total Dipole Moment    :     -0.53653      -0.40562      -0.05747
                        -----------------------------------------
Magnitude (a.u.)       :      0.67505
Magnitude (Debye)      :      1.71585

                             ****ORCA TERMINATED NORMALLY****
TOTAL RUN TIME: 0 days 0 hours 13 minutes 2 seconds 97 msec
