                         Program Version 3.0.3 - RELEASE   -
|  1> ! RI-MP2 RIJK def2-TZVP def2-TZVP/C def2-TZVP/JK TIGHTSCF
|  2> % maxcore 2000
|  3> % mp2 density relaxed end
|  4> *xyz 0 1
|  5>  O       -0.0087694297    -0.0435999534    -0.2303580862
|  6>  C       -0.0400060641     1.1584758693    -0.0598205609
|  7>  C       -1.3404733179     1.9566357910     0.0460316697
|  8>  N       -1.1741291734     3.0595137706     0.9907632897
|  9>  C       -0.1647777046     3.9971340131     0.5776383606
| 10>  C        1.0892466790     4.1035553227     1.4197085461
| 11>  C        1.1042949081     3.3491176451     0.1049162031
| 12>  N        1.0906830678     1.9203923099     0.0701865401
| 13>  H       -1.6298767333     2.2739351401    -0.9728374534
| 14>  H       -2.1051316323     1.2669661736     0.4078297752
| 15>  H       -2.0523765529     3.5158087025     1.1989550418
| 16>  H       -0.4872891442     4.8840442570     0.0318045095
| 17>  H        1.6148844512     5.0511685005     1.4630110576
| 18>  H        1.0968731388     3.5101855249     2.3258986605
| 19>  H        1.6227377582     3.8182321611    -0.7276980352
| 20>  H        1.9625794093     1.4110087319     0.0540031216
| 21> *
| 22>
| 23>                          ****END OF INPUT****

CARTESIAN COORDINATES (ANGSTROEM)
---------------------------------
  O     -0.008769   -0.043600   -0.230358
  C     -0.040006    1.158476   -0.059821
  C     -1.340473    1.956636    0.046032
  N     -1.174129    3.059514    0.990763
  C     -0.164778    3.997134    0.577638
  C      1.089247    4.103555    1.419709
  C      1.104295    3.349118    0.104916
  N      1.090683    1.920392    0.070187
  H     -1.629877    2.273935   -0.972837
  H     -2.105132    1.266966    0.407830
  H     -2.052377    3.515809    1.198955
  H     -0.487289    4.884044    0.031805
  H      1.614884    5.051169    1.463011
  H      1.096873    3.510186    2.325899
  H      1.622738    3.818232   -0.727698
  H      1.962579    1.411009    0.054003

 Total Charge           Charge          ....    0
 Multiplicity           Mult            ....    1
 Number of Electrons    NEL             ....   60
 Basis Dimension        Dim             ....  296

ORBITAL ENERGIES
----------------

  NO   OCC          E(Eh)            E(eV)
   0   2.0000     -20.512768      -558.1808
   1   2.0000     -15.582805      -424.0297
   2   2.0000     -15.563288      -423.4986
   3   2.0000     -11.345451      -308.7254
   4   2.0000     -11.282277      -307.0064
   5   2.0000     -11.276056      -306.8371
   6   2.0000     -11.268627      -306.6349
   7   2.0000     -11.235210      -305.7256
   8   2.0000      -1.379201       -37.5300
   9   2.0000      -1.271894       -34.6100
  10   2.0000      -1.202375       -32.7183
  11   2.0000      -1.114864       -30.3370
  12   2.0000      -0.956446       -26.0262
  13   2.0000      -0.860518       -23.4159
  14   2.0000      -0.835295       -22.7295
  15   2.0000      -0.755417       -20.5559
  16   2.0000      -0.720516       -19.6062
  17   2.0000      -0.679320       -18.4852
  18   2.0000      -0.663341       -18.0504
  19   2.0000      -0.640881       -17.4392
  20   2.0000      -0.625712       -17.0265
  21   2.0000      -0.582420       -15.8484
  22   2.0000      -0.566865       -15.4252
  23   2.0000      -0.548094       -14.9144
  24   2.0000      -0.537459       -14.6250
  25   2.0000      -0.468765       -12.7558
  26   2.0000      -0.459435       -12.5019
  27   2.0000      -0.413312       -11.2468
  28   2.0000      -0.397192       -10.8081
  29   2.0000      -0.359985        -9.7957
  30   0.0000       0.126496         3.4421
  31   0.0000       0.150801         4.1035
  32   0.0000       0.160468         4.3666
  33   0.0000       0.165167         4.4944
  34   0.0000       0.186943         5.0870

MULLIKEN ATOMIC CHARGES
-----------------------
   0 O :   -0.346992
   1 C :    0.209437
   2 C :   -0.110676
   3 N :   -0.373095
   4 C :   -0.037153
   5 C :   -0.243182
   6 C :   -0.023965
   7 N :   -0.305593
   8 H :    0.113733
   9 H :    0.141220
  10 H :    0.214520
  11 H :    0.120116
  12 H :    0.133219
  13 H :    0.144019
  14 H :    0.126635
  15 H :    0.237757
Sum of atomic charges:    0.0000000

LOEWDIN ATOMIC CHARGES
----------------------
   0 O :    0.081789
   1 C :   -0.447250
   2 C :   -0.260347
   3 N :    0.008898
   4 C :   -0.263018
   5 C :   -0.205110
   6 C :   -0.248535
   7 N :    0.140295
   8 H :    0.131449
   9 H :    0.145747
  10 H :    0.172482
  11 H :    0.135570
  12 H :    0.132376
  13 H :    0.141225
  14 H :    0.142361
  15 H :    0.192068

  Mayer bond orders larger than 0.1
B(  0-O ,  1-C ) :   2.0042 B(  1-C ,  2-C ) :   0.9217 B(  1-C ,  7-N ) :   1.1726
B(  2-C ,  3-N ) :   0.9078 B(  2-C ,  8-H ) :   0.9070 B(  2-C ,  9-H ) :   0.9232
B(  3-N ,  4-C ) :   1.0684 B(  3-N , 10-H ) :   0.8838 B(  4-C ,  5-C ) :   0.8635
B(  4-C ,  6-C ) :   0.9110 B(  4-C , 11-H ) :   0.9327 B(  5-C ,  6-C ) :   0.8702
B(  5-C , 12-H ) :   0.9239 B(  5-C , 13-H ) :   0.9217 B(  6-C ,  7-N ) :   0.9095
B(  6-C , 14-H ) :   0.9414 B(  7-N , 15-H ) :   0.8611

MP2 TOTAL ENERGY:     -379.297818332 Eh
FINAL SINGLE POINT ENERGY      -379.297818332294

DIPOLE MOMENT
-------------
                                X             Y             Z
Electronic contribution:      0.46727      -4.39814      -0.92930
Nuclear contribution   :     -0.41614       6.03763       0.85832
                        -----------------------------------------
Total Dipole Moment    :      0.05113       1.63949      -0.07098
                        -----------------------------------------
Magnitude (a.u.)       :      1.64182
Magnitude (Debye)      :      4.17317

                             ****ORCA TERMINATED NORMALLY****
TOTAL RUN TIME: 0 days 0 hours 12 minutes 28 seconds 267 msec
