                         Program Version 3.0.3 - RELEASE   -
|  1> ! RI-MP2 RIJK def2-TZVP def2-TZVP/C def2-TZVP/JK TIGHTSCF
|  2> % maxcore 2000
|  3> % mp2 density relaxed end
|  4> *xyz 0 1
|  5>  C        0.1109689804     1.4660327431     0.1268276258
|  6>  N       -0.2032405146     0.0731683138    -0.1491720683
|  7>  C        0.4884401935    -0.6748898816    -1.0772090128
|  8>  C        0.6068877281    -2.0307248809    -1.0574149176
|  9>  C        1.2928169023    -2.7543424874    -2.1170393826
| 10>  O        1.4116050096    -3.9641463178    -2.1391336267
| 11>  N        1.8537266193    -1.9598952588    -3.1676243305
| 12>  C        1.7151609844    -0.6918592996    -3.1189136447
| 13>  N        1.0655775825     0.0081999385    -2.1279715508
| 14>  H        1.1716880265     1.6398309262     0.3585647746
| 15>  H       -0.1755859179     2.1121651575    -0.7117089806
| 16>  H       -0.4837744120     1.7883199923     0.9830872728
| 17>  H       -0.4751009655    -0.4669178034     0.6572447508
| 18>  H        0.1824550908    -2.6052176899    -0.2431085860
| 19>  H        2.1301442240    -0.0594208094    -3.9036993136
| 20>  H        0.9733175085     1.0069589175    -2.2051290498
| 21> *
| 22>
| 23>                          ****END OF INPUT****

CARTESIAN COORDINATES (ANGSTROEM)
---------------------------------
  C      0.110969    1.466033    0.126828
  N     -0.203241    0.073168   -0.149172
  C      0.488440   -0.674890   -1.077209
  C      0.606888   -2.030725   -1.057415
  C      1.292817   -2.754342   -2.117039
  O      1.411605   -3.964146   -2.139134
  N      1.853727   -1.959895   -3.167624
  C      1.715161   -0.691859   -3.118914
  N      1.065578    0.008200   -2.127972
  H      1.171688    1.639831    0.358565
  H     -0.175586    2.112165   -0.711709
  H     -0.483774    1.788320    0.983087
  H     -0.475101   -0.466918    0.657245
  H      0.182455   -2.605218   -0.243109
  H      2.130144   -0.059421   -3.903699
  H      0.973318    1.006959   -2.205129

 Total Charge           Charge          ....    0
 Multiplicity           Mult            ....    1
 Number of Electrons    NEL             ....   66
 Basis Dimension        Dim             ....  321

ORBITAL ENERGIES
----------------

  NO   OCC          E(Eh)            E(eV)
   0   2.0000     -20.491813      -557.6106
   1   2.0000     -15.640048      -425.5873
   2   2.0000     -15.608634      -424.7325
   3   2.0000     -15.553637      -423.2360
   4   2.0000     -11.356198      -309.0179
   5   2.0000     -11.344378      -308.6962
   6   2.0000     -11.328411      -308.2617
   7   2.0000     -11.299354      -307.4711
   8   2.0000     -11.216575      -305.2185
   9   2.0000      -1.364276       -37.1238
  10   2.0000      -1.338939       -36.4344
  11   2.0000      -1.265578       -34.4381
  12   2.0000      -1.190141       -32.3854
  13   2.0000      -1.064767       -28.9738
  14   2.0000      -0.964880       -26.2557
  15   2.0000      -0.908120       -24.7112
  16   2.0000      -0.850953       -23.1556
  17   2.0000      -0.790617       -21.5138
  18   2.0000      -0.728458       -19.8224
  19   2.0000      -0.719981       -19.5917
  20   2.0000      -0.661715       -18.0062
  21   2.0000      -0.657890       -17.9021
  22   2.0000      -0.641841       -17.4654
  23   2.0000      -0.608557       -16.5597
  24   2.0000      -0.603808       -16.4304
  25   2.0000      -0.580545       -15.7974
  26   2.0000      -0.567520       -15.4430
  27   2.0000      -0.519655       -14.1405
  28   2.0000      -0.486017       -13.2252
  29   2.0000      -0.449234       -12.2243
  30   2.0000      -0.396137       -10.7794
  31   2.0000      -0.392816       -10.6891
  32   2.0000      -0.324383        -8.8269
  33   0.0000       0.098380         2.6770
  34   0.0000       0.123888         3.3712
  35   0.0000       0.124538         3.3889
  36   0.0000       0.139080         3.7846
  37   0.0000       0.157706         4.2914

MULLIKEN ATOMIC CHARGES
-----------------------
   0 C :   -0.318762
   1 N :   -0.321267
   2 C :    0.337526
   3 C :   -0.353384
   4 C :    0.211026
   5 O :   -0.328379
   6 N :   -0.220665
   7 C :    0.074943
   8 N :   -0.291423
   9 H :    0.152402
  10 H :    0.133458
  11 H :    0.157506
  12 H :    0.245690
  13 H :    0.126332
  14 H :    0.144614
  15 H :    0.250384
Sum of atomic charges:    0.0000000

LOEWDIN ATOMIC CHARGES
----------------------
   0 C :   -0.328419
   1 N :    0.061493
   2 C :   -0.288009
   3 C :   -0.154350
   4 C :   -0.441512
   5 O :    0.094787
   6 N :    0.129761
   7 C :   -0.284188
   8 N :    0.170387
   9 H :    0.114044
  10 H :    0.114680
  11 H :    0.127857
  12 H :    0.193761
  13 H :    0.153028
  14 H :    0.138376
  15 H :    0.198303

  Mayer bond orders larger than 0.1
B(  0-C ,  1-N ) :   0.8970 B(  0-C ,  9-H ) :   0.9272 B(  0-C , 10-H ) :   0.9306
B(  0-C , 11-H ) :   0.9342 B(  1-N ,  2-C ) :   1.1414 B(  1-N , 12-H ) :   0.8726
B(  2-C ,  3-C ) :   1.4015 B(  2-C ,  8-N ) :   1.0362 B(  3-C ,  4-C ) :   1.1032
B(  3-C , 13-H ) :   0.9388 B(  4-C ,  5-O ) :   1.9679 B(  4-C ,  6-N ) :   1.0475
B(  6-N ,  7-C ) :   1.7415 B(  7-C ,  8-N ) :   1.0777 B(  7-C , 14-H ) :   0.9214
B(  8-N , 15-H ) :   0.8647

MP2 TOTAL ENERGY:     -433.385249876 Eh
FINAL SINGLE POINT ENERGY      -433.385249875653

DIPOLE MOMENT
-------------
                                X             Y             Z
Electronic contribution:      2.12952      -7.28630      -4.57124
Nuclear contribution   :     -2.88945      10.65388       5.87041
                        -----------------------------------------
Total Dipole Moment    :     -0.75993       3.36758       1.29917
                        -----------------------------------------
Magnitude (a.u.)       :      3.68862
Magnitude (Debye)      :      9.37573

                             ****ORCA TERMINATED NORMALLY****
TOTAL RUN TIME: 0 days 0 hours 14 minutes 54 seconds 261 msec
