                         Program Version 3.0.3 - RELEASE   -
|  1> ! RI-MP2 RIJK def2-TZVP def2-TZVP/C def2-TZVP/JK TIGHTSCF
|  2> % maxcore 2000
|  3> % mp2 density relaxed end
|  4> *xyz 0 1
|  5>  C       -0.0882950378     1.5914531978     0.0770366031
|  6>  C       -0.0592594730     0.0592808610     0.0167734386
|  7>  C       -1.4811302499    -0.5140320702    -0.0361337176
|  8>  C        0.7693187819    -0.4655269746    -1.1839375227
|  9>  C        2.2297799824    -0.1722186220    -1.1310620381
| 10>  C        3.3129017367    -0.9005100519    -0.7405908942
| 11>  C        4.4614715726    -0.0590933339    -0.9079033899
| 12>  C        3.9927767136     1.1192604306    -1.3899294495
| 13>  O        2.6398953617     1.0697752299    -1.5321555321
| 14>  H        0.9174048630     2.0148467926     0.1287499862
| 15>  H       -0.5766267909     2.0057115646    -0.8135731738
| 16>  H       -0.6490949941     1.9346521256     0.9527545718
| 17>  H        0.4265328888    -0.3111602755     0.9296319564
| 18>  H       -2.0003401875    -0.1914089330    -0.9467851095
| 19>  H       -1.4746113340    -1.6093416079    -0.0272960911
| 20>  H       -2.0740737970    -0.1748384788     0.8194357649
| 21>  H        0.6540962354    -1.5535662804    -1.2401020714
| 22>  H        0.3500160727    -0.0558620763    -2.1124384168
| 23>  H        3.2960966520    -1.9181546795    -0.3819927891
| 24>  H        5.4915062547    -0.3051086171    -0.7025324318
| 25>  H        4.4589888688     2.0473427490    -1.6765479636
| 26> *
| 27>
| 28>                          ****END OF INPUT****

CARTESIAN COORDINATES (ANGSTROEM)
---------------------------------
  C     -0.088295    1.591453    0.077037
  C     -0.059259    0.059281    0.016773
  C     -1.481130   -0.514032   -0.036134
  C      0.769319   -0.465527   -1.183938
  C      2.229780   -0.172219   -1.131062
  C      3.312902   -0.900510   -0.740591
  C      4.461472   -0.059093   -0.907903
  C      3.992777    1.119260   -1.389929
  O      2.639895    1.069775   -1.532156
  H      0.917405    2.014847    0.128750
  H     -0.576627    2.005712   -0.813573
  H     -0.649095    1.934652    0.952755
  H      0.426533   -0.311160    0.929632
  H     -2.000340   -0.191409   -0.946785
  H     -1.474611   -1.609342   -0.027296
  H     -2.074074   -0.174838    0.819436
  H      0.654096   -1.553566   -1.240102
  H      0.350016   -0.055862   -2.112438
  H      3.296097   -1.918155   -0.381993
  H      5.491506   -0.305109   -0.702532
  H      4.458989    2.047343   -1.676548

 Total Charge           Charge          ....    0
 Multiplicity           Mult            ....    1
 Number of Electrons    NEL             ....   68
 Basis Dimension        Dim             ....  351

ORBITAL ENERGIES
----------------

  NO   OCC          E(Eh)            E(eV)
   0   2.0000     -20.612982      -560.9077
   1   2.0000     -11.285138      -307.0842
   2   2.0000     -11.278554      -306.9051
   3   2.0000     -11.232444      -305.6503
   4   2.0000     -11.230612      -305.6005
   5   2.0000     -11.223763      -305.4141
   6   2.0000     -11.218523      -305.2715
   7   2.0000     -11.213385      -305.1317
   8   2.0000     -11.206749      -304.9511
   9   2.0000      -1.450298       -39.4646
  10   2.0000      -1.097169       -29.8555
  11   2.0000      -1.074987       -29.2519
  12   2.0000      -1.016910       -27.6715
  13   2.0000      -0.927306       -25.2333
  14   2.0000      -0.920266       -25.0417
  15   2.0000      -0.803217       -21.8566
  16   2.0000      -0.781211       -21.2578
  17   2.0000      -0.754659       -20.5353
  18   2.0000      -0.705231       -19.1903
  19   2.0000      -0.638442       -17.3729
  20   2.0000      -0.634745       -17.2723
  21   2.0000      -0.593168       -16.1409
  22   2.0000      -0.584939       -15.9170
  23   2.0000      -0.580547       -15.7975
  24   2.0000      -0.558915       -15.2088
  25   2.0000      -0.551672       -15.0118
  26   2.0000      -0.534080       -14.5331
  27   2.0000      -0.523383       -14.2420
  28   2.0000      -0.517589       -14.0843
  29   2.0000      -0.473469       -12.8837
  30   2.0000      -0.467500       -12.7213
  31   2.0000      -0.463649       -12.6165
  32   2.0000      -0.391372       -10.6498
  33   2.0000      -0.305035        -8.3004
  34   0.0000       0.133336         3.6283
  35   0.0000       0.152264         4.1433
  36   0.0000       0.169538         4.6134
  37   0.0000       0.177025         4.8171
  38   0.0000       0.178363         4.8535

MULLIKEN ATOMIC CHARGES
-----------------------
   0 C :   -0.413301
   1 C :   -0.012390
   2 C :   -0.389091
   3 C :   -0.288329
   4 C :    0.261057
   5 C :   -0.275384
   6 C :   -0.144153
   7 C :   -0.047576
   8 O :   -0.229744
   9 H :    0.143187
  10 H :    0.117357
  11 H :    0.126807
  12 H :    0.088275
  13 H :    0.121819
  14 H :    0.127216
  15 H :    0.132080
  16 H :    0.135157
  17 H :    0.131560
  18 H :    0.134128
  19 H :    0.137850
  20 H :    0.143475
Sum of atomic charges:   -0.0000000

LOEWDIN ATOMIC CHARGES
----------------------
   0 C :   -0.295240
   1 C :   -0.301158
   2 C :   -0.297057
   3 C :   -0.215050
   4 C :   -0.247266
   5 C :   -0.167789
   6 C :   -0.194816
   7 C :   -0.249818
   8 O :    0.354299
   9 H :    0.125215
  10 H :    0.123581
  11 H :    0.122148
  12 H :    0.150788
  13 H :    0.123228
  14 H :    0.121228
  15 H :    0.123553
  16 H :    0.154862
  17 H :    0.152357
  18 H :    0.143644
  19 H :    0.142231
  20 H :    0.131061

  Mayer bond orders larger than 0.1
B(  0-C ,  1-C ) :   0.9327 B(  0-C ,  9-H ) :   0.9337 B(  0-C , 10-H ) :   0.9312
B(  0-C , 11-H ) :   0.9372 B(  1-C ,  2-C ) :   0.9117 B(  1-C ,  3-C ) :   0.8993
B(  1-C , 12-H ) :   0.9271 B(  2-C , 13-H ) :   0.9311 B(  2-C , 14-H ) :   0.9394
B(  2-C , 15-H ) :   0.9404 B(  3-C ,  4-C ) :   0.8925 B(  3-C , 16-H ) :   0.9378
B(  3-C , 17-H ) :   0.9282 B(  4-C ,  5-C ) :   1.4968 B(  4-C ,  8-O ) :   1.0030
B(  5-C ,  6-C ) :   1.2090 B(  5-C , 18-H ) :   0.9275 B(  6-C ,  7-C ) :   1.5483
B(  6-C , 19-H ) :   0.9253 B(  7-C ,  8-O ) :   1.0528 B(  7-C , 20-H ) :   0.9378

MP2 TOTAL ENERGY:     -386.445973079 Eh
FINAL SINGLE POINT ENERGY      -386.445973079196

DIPOLE MOMENT
-------------
                                X             Y             Z
Electronic contribution:     10.63417       0.48094      -3.56237
Nuclear contribution   :    -10.65151      -0.66157       3.68336
                        -----------------------------------------
Total Dipole Moment    :     -0.01734      -0.18063       0.12100
                        -----------------------------------------
Magnitude (a.u.)       :      0.21810
Magnitude (Debye)      :      0.55436

                             ****ORCA TERMINATED NORMALLY****
TOTAL RUN TIME: 0 days 0 hours 18 minutes 51 seconds 284 msec
