                         Program Version 3.0.3 - RELEASE   -
|  1> ! RI-MP2 RIJK def2-TZVP def2-TZVP/C def2-TZVP/JK TIGHTSCF
|  2> % maxcore 2000
|  3> % mp2 density relaxed end
|  4> *xyz 0 1
|  5>  O       -0.0183489871     0.0424975585    -0.3378754934
|  6>  C        0.0960212523     1.2076314115    -0.1812476046
|  7>  C       -0.8482478203     2.4366637449    -0.0672099696
|  8>  O        0.3288806616     3.2897032521     0.0596578828
|  9>  C        1.2784378865     2.2129493414    -0.0199608979
| 10>  C        2.0975480858     2.0545122974     1.1761586826
| 11>  N        2.7352780522     1.9107759459     2.1290238483
| 12>  C       -1.6839284288     2.7299364124    -1.2079701103
| 13>  C       -2.3721120480     2.9503422973    -2.1675903084
| 14>  H       -1.4265371580     2.4304240433     0.8664994491
| 15>  H        1.9160681933     2.2835204574    -0.9102968251
| 16>  H       -2.9861145095     3.1510531776    -3.0116028535
| 17> *
| 18>
| 19>                          ****END OF INPUT****

CARTESIAN COORDINATES (ANGSTROEM)
---------------------------------
  O     -0.018349    0.042498   -0.337875
  C      0.096021    1.207631   -0.181248
  C     -0.848248    2.436664   -0.067210
  O      0.328881    3.289703    0.059658
  C      1.278438    2.212949   -0.019961
  C      2.097548    2.054512    1.176159
  N      2.735278    1.910776    2.129024
  C     -1.683928    2.729936   -1.207970
  C     -2.372112    2.950342   -2.167590
  H     -1.426537    2.430424    0.866499
  H      1.916068    2.283520   -0.910297
  H     -2.986115    3.151053   -3.011603

 Total Charge           Charge          ....    0
 Multiplicity           Mult            ....    1
 Number of Electrons    NEL             ....   62
 Basis Dimension        Dim             ....  297

ORBITAL ENERGIES
----------------

  NO   OCC          E(Eh)            E(eV)
   0   2.0000     -20.621257      -561.1329
   1   2.0000     -20.617434      -561.0289
   2   2.0000     -15.602604      -424.5685
   3   2.0000     -11.396451      -310.1132
   4   2.0000     -11.375376      -309.5397
   5   2.0000     -11.365129      -309.2609
   6   2.0000     -11.299513      -307.4754
   7   2.0000     -11.271189      -306.7046
   8   2.0000     -11.267319      -306.5993
   9   2.0000      -1.472474       -40.0681
  10   2.0000      -1.441997       -39.2387
  11   2.0000      -1.244324       -33.8598
  12   2.0000      -1.099469       -29.9181
  13   2.0000      -1.049334       -28.5538
  14   2.0000      -1.009552       -27.4713
  15   2.0000      -0.857908       -23.3449
  16   2.0000      -0.786822       -21.4105
  17   2.0000      -0.741720       -20.1832
  18   2.0000      -0.731577       -19.9072
  19   2.0000      -0.717464       -19.5232
  20   2.0000      -0.685396       -18.6506
  21   2.0000      -0.658105       -17.9080
  22   2.0000      -0.587636       -15.9904
  23   2.0000      -0.585086       -15.9210
  24   2.0000      -0.575963       -15.6728
  25   2.0000      -0.517690       -14.0871
  26   2.0000      -0.507490       -13.8095
  27   2.0000      -0.494684       -13.4610
  28   2.0000      -0.468271       -12.7423
  29   2.0000      -0.434239       -11.8162
  30   2.0000      -0.412823       -11.2335
  31   0.0000       0.085200         2.3184
  32   0.0000       0.094833         2.5805
  33   0.0000       0.115874         3.1531
  34   0.0000       0.147691         4.0189
  35   0.0000       0.151847         4.1320

MULLIKEN ATOMIC CHARGES
-----------------------
   0 O :   -0.182103
   1 C :    0.146991
   2 C :   -0.024700
   3 O :   -0.297860
   4 C :    0.205033
   5 C :   -0.196043
   6 N :   -0.042466
   7 C :   -0.085074
   8 C :   -0.060896
   9 H :    0.161142
  10 H :    0.168005
  11 H :    0.207972
Sum of atomic charges:    0.0000000

LOEWDIN ATOMIC CHARGES
----------------------
   0 O :    0.233775
   1 C :   -0.242724
   2 C :   -0.225913
   3 O :    0.197371
   4 C :   -0.243118
   5 C :   -0.159523
   6 N :    0.093889
   7 C :   -0.085334
   8 C :   -0.045022
   9 H :    0.170764
  10 H :    0.171796
  11 H :    0.134040

  Mayer bond orders larger than 0.1
B(  0-O ,  1-C ) :   2.0944 B(  1-C ,  2-C ) :   0.8879 B(  1-C ,  4-C ) :   0.8461
B(  2-C ,  3-O ) :   0.9385 B(  2-C ,  7-C ) :   1.2015 B(  2-C ,  8-C ) :  -0.1060
B(  2-C ,  9-H ) :   0.8822 B(  3-O ,  4-C ) :   0.9554 B(  4-C ,  5-C ) :   0.9389
B(  4-C , 10-H ) :   0.8783 B(  5-C ,  6-N ) :   2.8111 B(  7-C ,  8-C ) :   2.5631
B(  8-C , 11-H ) :   0.8875

MP2 TOTAL ENERGY:     -434.701055944 Eh
FINAL SINGLE POINT ENERGY      -434.701055943695

DIPOLE MOMENT
-------------
                                X             Y             Z
Electronic contribution:      1.93815      -1.21197       1.55362
Nuclear contribution   :     -2.87703       1.52594      -2.68592
                        -----------------------------------------
Total Dipole Moment    :     -0.93888       0.31397      -1.13230
                        -----------------------------------------
Magnitude (a.u.)       :      1.50406
Magnitude (Debye)      :      3.82301

                             ****ORCA TERMINATED NORMALLY****
TOTAL RUN TIME: 0 days 0 hours 11 minutes 10 seconds 831 msec
