                         Program Version 3.0.3 - RELEASE   -
|  1> ! RI-MP2 RIJK def2-TZVP def2-TZVP/C def2-TZVP/JK TIGHTSCF
|  2> % maxcore 2000
|  3> % mp2 density relaxed end
|  4> *xyz 0 1
|  5>  C        0.0247130630     1.4534984934     0.3002506326
|  6>  C        0.3451311928    -0.0392568967     0.1781671383
|  7>  C        0.6665549233    -0.5098402960    -1.2585348645
|  8>  C        1.9687857002     0.0964566293    -1.7957201750
|  9>  C        0.6404477523    -2.0477939108    -1.3113114087
| 10>  C        1.5826493262    -2.8629601610    -2.1392710376
| 11>  N        1.7012340994    -2.8645124297    -0.6786936556
| 12>  C       -0.6916120317    -2.5953412631    -1.1145501025
| 13>  N       -1.7683669013    -2.9969497863    -0.9880629702
| 14>  H        0.8790747796     2.0868998858     0.0429223849
| 15>  H       -0.8084352166     1.7324970540    -0.3542736932
| 16>  H       -0.2645411395     1.6998878691     1.3261087471
| 17>  H        1.1878476862    -0.2926939901     0.8353062063
| 18>  H       -0.5113837092    -0.6138237213     0.5479833117
| 19>  H       -0.1512409073    -0.1714755835    -1.9087519013
| 20>  H        2.8473324041    -0.2527864604    -1.2394755191
| 21>  H        2.1195932352    -0.1321031423    -2.8538419106
| 22>  H        1.9449291243     1.1842199924    -1.7006047300
| 23>  H        1.2349268728    -3.7971671612    -2.5690047789
| 24>  H        2.3226205242    -2.3328934719    -2.7290120402
| 25>  H        2.4594988320    -2.2515559095    -0.3866554035
| 26> *
| 27>
| 28>                          ****END OF INPUT****

CARTESIAN COORDINATES (ANGSTROEM)
---------------------------------
  C      0.024713    1.453498    0.300251
  C      0.345131   -0.039257    0.178167
  C      0.666555   -0.509840   -1.258535
  C      1.968786    0.096457   -1.795720
  C      0.640448   -2.047794   -1.311311
  C      1.582649   -2.862960   -2.139271
  N      1.701234   -2.864512   -0.678694
  C     -0.691612   -2.595341   -1.114550
  N     -1.768367   -2.996950   -0.988063
  H      0.879075    2.086900    0.042922
  H     -0.808435    1.732497   -0.354274
  H     -0.264541    1.699888    1.326109
  H      1.187848   -0.292694    0.835306
  H     -0.511384   -0.613824    0.547983
  H     -0.151241   -0.171476   -1.908752
  H      2.847332   -0.252786   -1.239476
  H      2.119593   -0.132103   -2.853842
  H      1.944929    1.184220   -1.700605
  H      1.234927   -3.797167   -2.569005
  H      2.322621   -2.332893   -2.729012
  H      2.459499   -2.251556   -0.386655

 Total Charge           Charge          ....    0
 Multiplicity           Mult            ....    1
 Number of Electrons    NEL             ....   68
 Basis Dimension        Dim             ....  351

ORBITAL ENERGIES
----------------

  NO   OCC          E(Eh)            E(eV)
   0   2.0000     -15.588626      -424.1881
   1   2.0000     -15.567204      -423.6051
   2   2.0000     -11.316910      -307.9488
   3   2.0000     -11.285681      -307.0990
   4   2.0000     -11.269420      -306.6565
   5   2.0000     -11.262670      -306.4728
   6   2.0000     -11.240627      -305.8730
   7   2.0000     -11.236024      -305.7477
   8   2.0000     -11.225420      -305.4592
   9   2.0000      -1.300764       -35.3956
  10   2.0000      -1.210910       -32.9505
  11   2.0000      -1.105286       -30.0764
  12   2.0000      -1.005285       -27.3552
  13   2.0000      -0.963868       -26.2282
  14   2.0000      -0.912993       -24.8438
  15   2.0000      -0.864189       -23.5158
  16   2.0000      -0.802606       -21.8400
  17   2.0000      -0.714191       -19.4341
  18   2.0000      -0.711752       -19.3677
  19   2.0000      -0.646225       -17.5847
  20   2.0000      -0.605270       -16.4702
  21   2.0000      -0.604337       -16.4448
  22   2.0000      -0.571499       -15.5513
  23   2.0000      -0.561198       -15.2710
  24   2.0000      -0.556153       -15.1337
  25   2.0000      -0.546902       -14.8820
  26   2.0000      -0.539344       -14.6763
  27   2.0000      -0.514145       -13.9906
  28   2.0000      -0.494807       -13.4644
  29   2.0000      -0.485425       -13.2091
  30   2.0000      -0.480940       -13.0871
  31   2.0000      -0.455772       -12.4022
  32   2.0000      -0.452877       -12.3234
  33   2.0000      -0.407913       -11.0999
  34   0.0000       0.119084         3.2404
  35   0.0000       0.138364         3.7651
  36   0.0000       0.151041         4.1100
  37   0.0000       0.165048         4.4912
  38   0.0000       0.172064         4.6821

MULLIKEN ATOMIC CHARGES
-----------------------
   0 C :   -0.412592
   1 C :   -0.208761
   2 C :   -0.055915
   3 C :   -0.445773
   4 C :    0.264091
   5 C :   -0.179741
   6 N :   -0.361828
   7 C :   -0.238614
   8 N :   -0.045486
   9 H :    0.124523
  10 H :    0.131648
  11 H :    0.144283
  12 H :    0.105679
  13 H :    0.145007
  14 H :    0.109023
  15 H :    0.121449
  16 H :    0.145619
  17 H :    0.154370
  18 H :    0.143614
  19 H :    0.138769
  20 H :    0.220634
Sum of atomic charges:   -0.0000000

LOEWDIN ATOMIC CHARGES
----------------------
   0 C :   -0.315607
   1 C :   -0.259902
   2 C :   -0.237076
   3 C :   -0.286053
   4 C :   -0.273117
   5 C :   -0.215774
   6 N :    0.034848
   7 C :   -0.148782
   8 N :    0.069097
   9 H :    0.117853
  10 H :    0.124128
  11 H :    0.125545
  12 H :    0.138096
  13 H :    0.149987
  14 H :    0.167755
  15 H :    0.121405
  16 H :    0.125703
  17 H :    0.131011
  18 H :    0.135180
  19 H :    0.127053
  20 H :    0.168651

  Mayer bond orders larger than 0.1
B(  0-C ,  1-C ) :   0.9161 B(  0-C ,  9-H ) :   0.9408 B(  0-C , 10-H ) :   0.9372
B(  0-C , 11-H ) :   0.9416 B(  1-C ,  2-C ) :   0.9343 B(  1-C , 12-H ) :   0.9143
B(  1-C , 13-H ) :   0.9295 B(  2-C ,  3-C ) :   0.8919 B(  2-C ,  4-C ) :   0.9041
B(  2-C , 14-H ) :   0.9125 B(  3-C , 15-H ) :   0.9303 B(  3-C , 16-H ) :   0.9407
B(  3-C , 17-H ) :   0.9374 B(  4-C ,  5-C ) :   0.9094 B(  4-C ,  6-N ) :   0.8508
B(  4-C ,  7-C ) :   0.8903 B(  5-C ,  6-N ) :   0.9472 B(  5-C , 18-H ) :   0.9113
B(  5-C , 19-H ) :   0.9142 B(  6-N , 20-H ) :   0.8691 B(  7-C ,  8-N ) :   2.8886

MP2 TOTAL ENERGY:     -382.587429161 Eh
FINAL SINGLE POINT ENERGY      -382.587429161157

DIPOLE MOMENT
-------------
                                X             Y             Z
Electronic contribution:     -4.88335     -10.61609      -1.09551
Nuclear contribution   :      6.36789      11.84854       0.58768
                        -----------------------------------------
Total Dipole Moment    :      1.48455       1.23245      -0.50783
                        -----------------------------------------
Magnitude (a.u.)       :      1.99517
Magnitude (Debye)      :      5.07132

                             ****ORCA TERMINATED NORMALLY****
TOTAL RUN TIME: 0 days 0 hours 20 minutes 26 seconds 534 msec
