                         Program Version 3.0.3 - RELEASE   -
|  1> ! RI-MP2 RIJK def2-TZVP def2-TZVP/C def2-TZVP/JK TIGHTSCF
|  2> % maxcore 2000
|  3> % mp2 density relaxed end
|  4> *xyz 0 1
|  5>  C       -0.0558331031     1.5893588700    -0.0049055483
|  6>  C        0.0173602197     0.0594624669     0.0450020772
|  7>  C        0.7551236504    -0.5757188945    -1.1840565148
|  8>  C        1.5309056257    -1.8384714970    -0.6838067776
|  9>  C        1.6623703239    -1.5552999099     0.7868791646
| 10>  C        0.8331116457    -0.5258590080     1.1593877209
| 11>  N        0.9706341636    -0.3667565532     2.4940144834
| 12>  N        1.8660045538    -1.2403058677     3.0210834139
| 13>  C        2.2821017402    -1.9702137595     1.9829591416
| 14>  H        0.9473717439     2.0271626689    -0.0345982685
| 15>  H       -0.5984083608     1.9219661593    -0.8957252079
| 16>  H       -0.5774191243     1.9966871471     0.8681728352
| 17>  H       -1.0099481620    -0.3310981061     0.0971336489
| 18>  H        0.0657627145    -0.8001678207    -2.0026787585
| 19>  H        1.4766739186     0.1571479822    -1.5622122205
| 20>  H        0.9567757508    -2.7557304728    -0.8694928190
| 21>  H        2.4850791818    -1.9564626724    -1.2074927371
| 22>  H        0.5341842825     0.3007301681     3.1062333312
| 23>  H        3.0103667849    -2.7504496108     2.1511274853
| 24> *
| 25>
| 26>                          ****END OF INPUT****

CARTESIAN COORDINATES (ANGSTROEM)
---------------------------------
  C     -0.055833    1.589359   -0.004906
  C      0.017360    0.059462    0.045002
  C      0.755124   -0.575719   -1.184057
  C      1.530906   -1.838471   -0.683807
  C      1.662370   -1.555300    0.786879
  C      0.833112   -0.525859    1.159388
  N      0.970634   -0.366757    2.494014
  N      1.866005   -1.240306    3.021083
  C      2.282102   -1.970214    1.982959
  H      0.947372    2.027163   -0.034598
  H     -0.598408    1.921966   -0.895725
  H     -0.577419    1.996687    0.868173
  H     -1.009948   -0.331098    0.097134
  H      0.065763   -0.800168   -2.002679
  H      1.476674    0.157148   -1.562212
  H      0.956776   -2.755730   -0.869493
  H      2.485079   -1.956463   -1.207493
  H      0.534184    0.300730    3.106233
  H      3.010367   -2.750450    2.151127

 Total Charge           Charge          ....    0
 Multiplicity           Mult            ....    1
 Number of Electrons    NEL             ....   66
 Basis Dimension        Dim             ....  339

ORBITAL ENERGIES
----------------

  NO   OCC          E(Eh)            E(eV)
   0   2.0000     -15.626889      -425.2293
   1   2.0000     -15.576014      -423.8449
   2   2.0000     -11.258142      -306.3496
   3   2.0000     -11.251118      -306.1585
   4   2.0000     -11.245796      -306.0137
   5   2.0000     -11.232282      -305.6459
   6   2.0000     -11.231750      -305.6315
   7   2.0000     -11.227904      -305.5268
   8   2.0000     -11.205609      -304.9201
   9   2.0000      -1.359605       -36.9967
  10   2.0000      -1.137809       -30.9614
  11   2.0000      -1.087214       -29.5846
  12   2.0000      -1.020638       -27.7730
  13   2.0000      -0.979596       -26.6562
  14   2.0000      -0.894369       -24.3370
  15   2.0000      -0.816601       -22.2208
  16   2.0000      -0.800365       -21.7790
  17   2.0000      -0.758275       -20.6337
  18   2.0000      -0.702580       -19.1182
  19   2.0000      -0.641525       -17.4568
  20   2.0000      -0.596395       -16.2287
  21   2.0000      -0.588844       -16.0233
  22   2.0000      -0.588174       -16.0050
  23   2.0000      -0.585325       -15.9275
  24   2.0000      -0.539410       -14.6781
  25   2.0000      -0.529861       -14.4182
  26   2.0000      -0.521653       -14.1949
  27   2.0000      -0.493251       -13.4220
  28   2.0000      -0.482232       -13.1222
  29   2.0000      -0.471217       -12.8225
  30   2.0000      -0.437401       -11.9023
  31   2.0000      -0.355377        -9.6703
  32   2.0000      -0.317826        -8.6485
  33   0.0000       0.123200         3.3524
  34   0.0000       0.143021         3.8918
  35   0.0000       0.155406         4.2288
  36   0.0000       0.162994         4.4353
  37   0.0000       0.179076         4.8729

MULLIKEN ATOMIC CHARGES
-----------------------
   0 C :   -0.423259
   1 C :    0.011850
   2 C :   -0.257532
   3 C :   -0.169248
   4 C :   -0.020512
   5 C :    0.013631
   6 N :   -0.147554
   7 N :   -0.196459
   8 C :   -0.174473
   9 H :    0.136513
  10 H :    0.138882
  11 H :    0.124310
  12 H :    0.100747
  13 H :    0.127227
  14 H :    0.113182
  15 H :    0.117144
  16 H :    0.126029
  17 H :    0.252145
  18 H :    0.127376
Sum of atomic charges:   -0.0000000

LOEWDIN ATOMIC CHARGES
----------------------
   0 C :   -0.292736
   1 C :   -0.231822
   2 C :   -0.199401
   3 C :   -0.210265
   4 C :   -0.168560
   5 C :   -0.203147
   6 N :    0.146170
   7 N :    0.018499
   8 C :   -0.256891
   9 H :    0.125997
  10 H :    0.126090
  11 H :    0.120925
  12 H :    0.156347
  13 H :    0.131058
  14 H :    0.140565
  15 H :    0.139938
  16 H :    0.138008
  17 H :    0.186611
  18 H :    0.132612

  Mayer bond orders larger than 0.1
B(  0-C ,  1-C ) :   0.8864 B(  0-C ,  9-H ) :   0.9329 B(  0-C , 10-H ) :   0.9394
B(  0-C , 11-H ) :   0.9392 B(  1-C ,  2-C ) :   0.9288 B(  1-C ,  5-C ) :   0.9346
B(  1-C , 12-H ) :   0.9095 B(  2-C ,  3-C ) :   0.9469 B(  2-C , 13-H ) :   0.9353
B(  2-C , 14-H ) :   0.9223 B(  3-C ,  4-C ) :   0.9232 B(  3-C , 15-H ) :   0.9030
B(  3-C , 16-H ) :   0.9289 B(  4-C ,  5-C ) :   1.3379 B(  4-C ,  8-C ) :   1.2765
B(  5-C ,  6-N ) :   1.1923 B(  5-C ,  7-N ) :   0.1039 B(  6-N ,  7-N ) :   1.0541
B(  6-N , 17-H ) :   0.8685 B(  7-N ,  8-C ) :   1.5468 B(  8-C , 18-H ) :   0.9450

MP2 TOTAL ENERGY:     -381.427120603 Eh
FINAL SINGLE POINT ENERGY      -381.427120603244

DIPOLE MOMENT
-------------
                                X             Y             Z
Electronic contribution:      2.59546      -3.73896       7.43431
Nuclear contribution   :     -3.25164       4.28464      -8.15017
                        -----------------------------------------
Total Dipole Moment    :     -0.65618       0.54568      -0.71587
                        -----------------------------------------
Magnitude (a.u.)       :      1.11391
Magnitude (Debye)      :      2.83133

                             ****ORCA TERMINATED NORMALLY****
TOTAL RUN TIME: 0 days 0 hours 19 minutes 10 seconds 271 msec
