                         Program Version 3.0.3 - RELEASE   -
|  1> ! RI-MP2 RIJK def2-TZVP def2-TZVP/C def2-TZVP/JK TIGHTSCF
|  2> % maxcore 2000
|  3> % mp2 density relaxed end
|  4> *xyz 0 1
|  5>  O       -0.3425002002     0.4620426264     1.0154549988
|  6>  C       -0.1336085992     1.2432423207     0.1166991960
|  7>  C        1.1765968990     1.9341833019    -0.0877503087
|  8>  C        1.4697212400     2.4773425929    -1.4693961213
|  9>  C        1.8047843067     1.3510470804    -2.4723342801
| 10>  C        2.1060745708     1.8549380072    -3.8052513440
| 11>  C        2.3473288577     2.3007849398    -4.8950707453
| 12>  C        1.7020536340     2.6098528049     1.1500989199
| 13>  N        2.3117468609     1.3788000704     0.6694345396
| 14>  H       -0.9266106843     1.4998504054    -0.6187048938
| 15>  H        0.6084314783     3.0513896950    -1.8317536837
| 16>  H        2.3138522546     3.1699029082    -1.4187871124
| 17>  H        2.6577314206     0.7842564623    -2.0809477137
| 18>  H        0.9666891900     0.6432342972    -2.5313525812
| 19>  H        2.5659617513     2.6795837881    -5.8624936054
| 20>  H        2.2978468374     3.5100802201     1.0255793843
| 21>  H        1.0839490385     2.5723728062     2.0427262789
| 22>  H        1.9526208339     0.5994259128     1.2229119719
| 23> *
| 24>
| 25>                          ****END OF INPUT****

CARTESIAN COORDINATES (ANGSTROEM)
---------------------------------
  O     -0.342500    0.462043    1.015455
  C     -0.133609    1.243242    0.116699
  C      1.176597    1.934183   -0.087750
  C      1.469721    2.477343   -1.469396
  C      1.804784    1.351047   -2.472334
  C      2.106075    1.854938   -3.805251
  C      2.347329    2.300785   -4.895071
  C      1.702054    2.609853    1.150099
  N      2.311747    1.378800    0.669435
  H     -0.926611    1.499850   -0.618705
  H      0.608431    3.051390   -1.831754
  H      2.313852    3.169903   -1.418787
  H      2.657731    0.784256   -2.080948
  H      0.966689    0.643234   -2.531353
  H      2.565962    2.679584   -5.862494
  H      2.297847    3.510080    1.025579
  H      1.083949    2.572373    2.042726
  H      1.952621    0.599426    1.222912

 Total Charge           Charge          ....    0
 Multiplicity           Mult            ....    1
 Number of Electrons    NEL             ....   66
 Basis Dimension        Dim             ....  333

ORBITAL ENERGIES
----------------

  NO   OCC          E(Eh)            E(eV)
   0   2.0000     -20.570416      -559.7495
   1   2.0000     -15.576976      -423.8711
   2   2.0000     -11.347622      -308.7845
   3   2.0000     -11.286117      -307.1109
   4   2.0000     -11.280292      -306.9523
   5   2.0000     -11.261144      -306.4313
   6   2.0000     -11.251612      -306.1719
   7   2.0000     -11.237985      -305.8011
   8   2.0000     -11.224648      -305.4382
   9   2.0000      -1.411606       -38.4117
  10   2.0000      -1.286235       -35.0002
  11   2.0000      -1.098373       -29.8882
  12   2.0000      -1.022882       -27.8340
  13   2.0000      -0.956370       -26.0241
  14   2.0000      -0.893923       -24.3249
  15   2.0000      -0.879281       -23.9264
  16   2.0000      -0.771003       -20.9801
  17   2.0000      -0.731489       -19.9048
  18   2.0000      -0.725091       -19.7307
  19   2.0000      -0.677222       -18.4281
  20   2.0000      -0.655125       -17.8269
  21   2.0000      -0.633670       -17.2430
  22   2.0000      -0.617983       -16.8162
  23   2.0000      -0.576792       -15.6953
  24   2.0000      -0.563033       -15.3209
  25   2.0000      -0.543280       -14.7834
  26   2.0000      -0.533174       -14.5084
  27   2.0000      -0.504197       -13.7199
  28   2.0000      -0.480534       -13.0760
  29   2.0000      -0.437590       -11.9074
  30   2.0000      -0.412527       -11.2254
  31   2.0000      -0.390314       -10.6210
  32   2.0000      -0.384682       -10.4677
  33   0.0000       0.103593         2.8189
  34   0.0000       0.136503         3.7144
  35   0.0000       0.159474         4.3395
  36   0.0000       0.163593         4.4516
  37   0.0000       0.166090         4.5195

MULLIKEN ATOMIC CHARGES
-----------------------
   0 O :   -0.290953
   1 C :    0.084618
   2 C :    0.139582
   3 C :   -0.201285
   4 C :   -0.421759
   5 C :   -0.012360
   6 C :   -0.115747
   7 C :   -0.176368
   8 N :   -0.380630
   9 H :    0.092854
  10 H :    0.131033
  11 H :    0.131416
  12 H :    0.169688
  13 H :    0.145621
  14 H :    0.191255
  15 H :    0.131120
  16 H :    0.144996
  17 H :    0.236920
Sum of atomic charges:    0.0000000

LOEWDIN ATOMIC CHARGES
----------------------
   0 O :    0.127546
   1 C :   -0.263811
   2 C :   -0.315665
   3 C :   -0.206150
   4 C :   -0.240352
   5 C :   -0.112543
   6 C :   -0.105631
   7 C :   -0.221947
   8 N :    0.029948
   9 H :    0.121772
  10 H :    0.149172
  11 H :    0.153590
  12 H :    0.164139
  13 H :    0.156704
  14 H :    0.126426
  15 H :    0.129905
  16 H :    0.130135
  17 H :    0.176761

  Mayer bond orders larger than 0.1
B(  0-O ,  1-C ) :   1.9272 B(  1-C ,  2-C ) :   0.9031 B(  1-C ,  9-H ) :   0.9435
B(  2-C ,  3-C ) :   0.8780 B(  2-C ,  7-C ) :   0.8935 B(  2-C ,  8-N ) :   0.8345
B(  3-C ,  4-C ) :   0.9251 B(  3-C , 10-H ) :   0.9339 B(  3-C , 11-H ) :   0.9218
B(  4-C ,  5-C ) :   1.1137 B(  4-C ,  6-C ) :  -0.1258 B(  4-C , 12-H ) :   0.9211
B(  4-C , 13-H ) :   0.9215 B(  5-C ,  6-C ) :   2.6168 B(  6-C , 14-H ) :   0.8925
B(  7-C ,  8-N ) :   0.9596 B(  7-C , 15-H ) :   0.9116 B(  7-C , 16-H ) :   0.9096
B(  8-N , 17-H ) :   0.8539

MP2 TOTAL ENERGY:     -401.199419030 Eh
FINAL SINGLE POINT ENERGY      -401.199419029500

DIPOLE MOMENT
-------------
                                X             Y             Z
Electronic contribution:     -1.45589      -2.20592       0.86970
Nuclear contribution   :      1.26182       2.89480      -1.01489
                        -----------------------------------------
Total Dipole Moment    :     -0.19407       0.68888      -0.14519
                        -----------------------------------------
Magnitude (a.u.)       :      0.73027
Magnitude (Debye)      :      1.85621

                             ****ORCA TERMINATED NORMALLY****
TOTAL RUN TIME: 0 days 0 hours 15 minutes 52 seconds 970 msec
