                         Program Version 3.0.3 - RELEASE   -
|  1> ! RI-MP2 RIJK def2-TZVP def2-TZVP/C def2-TZVP/JK TIGHTSCF
|  2> % maxcore 2000
|  3> % mp2 density relaxed end
|  4> *xyz 0 1
|  5>  C       -0.0671228674    -1.2296821292    -0.0042900825
|  6>  C       -0.0609394302    -0.0281490584     0.0025254549
|  7>  C       -0.0173173332     1.4280858524     0.0104752037
|  8>  C        1.4238281366     1.9740445501    -0.0008780296
|  9>  C        1.4430027362     3.5174224584     0.0078339372
| 10>  C        2.7882586185     4.0648883695    -0.0024784683
| 11>  C        3.9155594871     4.4998901422    -0.0115697703
| 12>  C        5.1870960474     4.9962403042    -0.0219204965
| 13>  N        6.2693386611     5.4187479145    -0.0307223637
| 14>  H       -0.0852796726    -2.2914326167    -0.0103285621
| 15>  H       -0.5637810748     1.8165545288    -0.8592996807
| 16>  H       -0.5461204549     1.8064433660     0.8954894476
| 17>  H        1.9667821435     1.5959005402     0.8700658439
| 18>  H        1.9491009708     1.6060305801    -0.8868737989
| 19>  H        0.8950001466     3.9022741922    -0.8626818559
| 20>  H        0.9126429853     3.8921452656     0.8935610112
| 21> *
| 22>
| 23>                          ****END OF INPUT****

CARTESIAN COORDINATES (ANGSTROEM)
---------------------------------
  C     -0.067123   -1.229682   -0.004290
  C     -0.060939   -0.028149    0.002525
  C     -0.017317    1.428086    0.010475
  C      1.423828    1.974045   -0.000878
  C      1.443003    3.517422    0.007834
  C      2.788259    4.064888   -0.002478
  C      3.915559    4.499890   -0.011570
  C      5.187096    4.996240   -0.021920
  N      6.269339    5.418748   -0.030722
  H     -0.085280   -2.291433   -0.010329
  H     -0.563781    1.816555   -0.859300
  H     -0.546120    1.806443    0.895489
  H      1.966782    1.595901    0.870066
  H      1.949101    1.606031   -0.886874
  H      0.895000    3.902274   -0.862682
  H      0.912643    3.892145    0.893561

 Total Charge           Charge          ....    0
 Multiplicity           Mult            ....    1
 Number of Electrons    NEL             ....   62
 Basis Dimension        Dim             ....  321

ORBITAL ENERGIES
----------------

  NO   OCC          E(Eh)            E(eV)
   0   2.0000     -15.592078      -424.2820
   1   2.0000     -11.300188      -307.4938
   2   2.0000     -11.295406      -307.3636
   3   2.0000     -11.287781      -307.1561
   4   2.0000     -11.276868      -306.8592
   5   2.0000     -11.274795      -306.8028
   6   2.0000     -11.264278      -306.5166
   7   2.0000     -11.245894      -306.0163
   8   2.0000     -11.233354      -305.6751
   9   2.0000      -1.232615       -33.5412
  10   2.0000      -1.138250       -30.9733
  11   2.0000      -1.092162       -29.7192
  12   2.0000      -1.041961       -28.3532
  13   2.0000      -0.982521       -26.7358
  14   2.0000      -0.888893       -24.1880
  15   2.0000      -0.855918       -23.2907
  16   2.0000      -0.736676       -20.0460
  17   2.0000      -0.691664       -18.8211
  18   2.0000      -0.683760       -18.6060
  19   2.0000      -0.639299       -17.3962
  20   2.0000      -0.608065       -16.5463
  21   2.0000      -0.581299       -15.8180
  22   2.0000      -0.576256       -15.6807
  23   2.0000      -0.544584       -14.8189
  24   2.0000      -0.535338       -14.5673
  25   2.0000      -0.525693       -14.3048
  26   2.0000      -0.519931       -14.1480
  27   2.0000      -0.409997       -11.1566
  28   2.0000      -0.404372       -11.0035
  29   2.0000      -0.398218       -10.8361
  30   2.0000      -0.393875       -10.7179
  31   0.0000       0.092463         2.5160
  32   0.0000       0.098145         2.6707
  33   0.0000       0.115510         3.1432
  34   0.0000       0.149206         4.0601
  35   0.0000       0.157562         4.2875

MULLIKEN ATOMIC CHARGES
-----------------------
   0 C :   -0.102163
   1 C :   -0.025311
   2 C :   -0.387520
   3 C :   -0.178477
   4 C :   -0.391717
   5 C :   -0.063025
   6 C :    0.327374
   7 C :   -0.220833
   8 N :   -0.040150
   9 H :    0.195000
  10 H :    0.145270
  11 H :    0.145264
  12 H :    0.138751
  13 H :    0.138751
  14 H :    0.159389
  15 H :    0.159396
Sum of atomic charges:    0.0000000

LOEWDIN ATOMIC CHARGES
----------------------
   0 C :   -0.098395
   1 C :   -0.113619
   2 C :   -0.248656
   3 C :   -0.228119
   4 C :   -0.240279
   5 C :    0.003035
   6 C :   -0.059688
   7 C :   -0.178035
   8 N :    0.096440
   9 H :    0.127808
  10 H :    0.157795
  11 H :    0.157795
  12 H :    0.147980
  13 H :    0.147980
  14 H :    0.163980
  15 H :    0.163977

  Mayer bond orders larger than 0.1
B(  0-C ,  1-C ) :   2.6142 B(  0-C ,  2-C ) :  -0.1238 B(  0-C ,  9-H ) :   0.8914
B(  1-C ,  2-C ) :   1.1370 B(  2-C ,  3-C ) :   0.9371 B(  2-C , 10-H ) :   0.9186
B(  2-C , 11-H ) :   0.9185 B(  3-C ,  4-C ) :   0.9371 B(  3-C , 12-H ) :   0.9238
B(  3-C , 13-H ) :   0.9238 B(  4-C ,  5-C ) :   1.0800 B(  4-C ,  6-C ) :  -0.1653
B(  4-C , 14-H ) :   0.9162 B(  4-C , 15-H ) :   0.9162 B(  5-C ,  6-C ) :   2.5373
B(  5-C ,  8-N ) :   0.1120 B(  6-C ,  7-C ) :   0.9553 B(  7-C ,  8-N ) :   2.7630

MP2 TOTAL ENERGY:     -362.886366748 Eh
FINAL SINGLE POINT ENERGY      -362.886366747898

DIPOLE MOMENT
-------------
                                X             Y             Z
Electronic contribution:      8.96274       5.68995      -0.05822
Nuclear contribution   :    -10.74693      -6.31371       0.07286
                        -----------------------------------------
Total Dipole Moment    :     -1.78419      -0.62375       0.01464
                        -----------------------------------------
Magnitude (a.u.)       :      1.89014
Magnitude (Debye)      :      4.80435

                             ****ORCA TERMINATED NORMALLY****
TOTAL RUN TIME: 0 days 0 hours 11 minutes 43 seconds 221 msec
