                         Program Version 3.0.3 - RELEASE   -
|  1> ! RI-MP2 RIJK def2-TZVP def2-TZVP/C def2-TZVP/JK TIGHTSCF
|  2> % maxcore 2000
|  3> % mp2 density relaxed end
|  4> *xyz 0 1
|  5>  N        0.2037423007     1.3758697046     0.2375002473
|  6>  C       -0.0109915087    -0.0041823194     0.0472217096
|  7>  C       -1.1467753220    -0.7610395662    -0.1326309588
|  8>  C       -0.7399768664    -2.1279018163    -0.1783959517
|  9>  C        0.6272632375    -2.1719670962    -0.0300233901
| 10>  N        1.0578523330    -0.8641669758     0.1053785877
| 11>  C        1.5755782566    -3.3060923727    -0.0453153762
| 12>  C        2.1417819455    -3.8408018061     1.2291442687
| 13>  N        1.1502140566    -4.6177503316     0.4692416394
| 14>  H        0.6185568849     1.8184976712    -0.5779886306
| 15>  H       -0.6718296504     1.8468303136     0.4291487857
| 16>  H       -2.1501769152    -0.3774798049    -0.2387416723
| 17>  H       -1.3781316787    -2.9826706679    -0.3464547617
| 18>  H        1.9910709962    -0.5814020650     0.3522212047
| 19>  H        2.2022906186    -3.3920755238    -0.9334003411
| 20>  H        3.1424771472    -4.2640067169     1.2410430299
| 21>  H        1.8301394392    -3.3660551005     2.1553736260
| 22>  H        0.2403579054    -4.5094722062     0.9121091836
| 23> *
| 24>
| 25>                          ****END OF INPUT****

CARTESIAN COORDINATES (ANGSTROEM)
---------------------------------
  N      0.203742    1.375870    0.237500
  C     -0.010992   -0.004182    0.047222
  C     -1.146775   -0.761040   -0.132631
  C     -0.739977   -2.127902   -0.178396
  C      0.627263   -2.171967   -0.030023
  N      1.057852   -0.864167    0.105379
  C      1.575578   -3.306092   -0.045315
  C      2.141782   -3.840802    1.229144
  N      1.150214   -4.617750    0.469242
  H      0.618557    1.818498   -0.577989
  H     -0.671830    1.846830    0.429149
  H     -2.150177   -0.377480   -0.238742
  H     -1.378132   -2.982671   -0.346455
  H      1.991071   -0.581402    0.352221
  H      2.202291   -3.392076   -0.933400
  H      3.142477   -4.264007    1.241043
  H      1.830139   -3.366055    2.155374
  H      0.240358   -4.509472    0.912109

 Total Charge           Charge          ....    0
 Multiplicity           Mult            ....    1
 Number of Electrons    NEL             ....   66
 Basis Dimension        Dim             ....  333

ORBITAL ENERGIES
----------------

  NO   OCC          E(Eh)            E(eV)
   0   2.0000     -15.596936      -424.4142
   1   2.0000     -15.568737      -423.6469
   2   2.0000     -15.557726      -423.3472
   3   2.0000     -11.289672      -307.2076
   4   2.0000     -11.266046      -306.5647
   5   2.0000     -11.255227      -306.2703
   6   2.0000     -11.253451      -306.2220
   7   2.0000     -11.209425      -305.0240
   8   2.0000     -11.202101      -304.8247
   9   2.0000      -1.303420       -35.4679
  10   2.0000      -1.259513       -34.2731
  11   2.0000      -1.189558       -32.3695
  12   2.0000      -1.042115       -28.3574
  13   2.0000      -0.979350       -26.6495
  14   2.0000      -0.890589       -24.2342
  15   2.0000      -0.841587       -22.9007
  16   2.0000      -0.785991       -21.3879
  17   2.0000      -0.773268       -21.0417
  18   2.0000      -0.729062       -19.8388
  19   2.0000      -0.677197       -18.4275
  20   2.0000      -0.647828       -17.6283
  21   2.0000      -0.634536       -17.2666
  22   2.0000      -0.597986       -16.2720
  23   2.0000      -0.578130       -15.7317
  24   2.0000      -0.567797       -15.4505
  25   2.0000      -0.551189       -14.9986
  26   2.0000      -0.518922       -14.1206
  27   2.0000      -0.486194       -13.2300
  28   2.0000      -0.474622       -12.9151
  29   2.0000      -0.446645       -12.1538
  30   2.0000      -0.394480       -10.7344
  31   2.0000      -0.350947        -9.5498
  32   2.0000      -0.277449        -7.5498
  33   0.0000       0.126875         3.4525
  34   0.0000       0.151131         4.1125
  35   0.0000       0.159512         4.3405
  36   0.0000       0.163504         4.4492
  37   0.0000       0.179388         4.8814

MULLIKEN ATOMIC CHARGES
-----------------------
   0 N :   -0.542590
   1 C :    0.187978
   2 C :   -0.236590
   3 C :   -0.203587
   4 C :    0.119819
   5 N :   -0.287459
   6 C :   -0.157402
   7 C :   -0.156199
   8 N :   -0.344908
   9 H :    0.253387
  10 H :    0.252426
  11 H :    0.125048
  12 H :    0.134959
  13 H :    0.244157
  14 H :    0.134864
  15 H :    0.120721
  16 H :    0.131616
  17 H :    0.223760
Sum of atomic charges:    0.0000000

LOEWDIN ATOMIC CHARGES
----------------------
   0 N :   -0.115177
   1 C :   -0.332729
   2 C :   -0.197514
   3 C :   -0.176684
   4 C :   -0.231226
   5 N :    0.214954
   6 C :   -0.256666
   7 C :   -0.264324
   8 N :   -0.008012
   9 H :    0.166032
  10 H :    0.170759
  11 H :    0.136586
  12 H :    0.140238
  13 H :    0.193563
  14 H :    0.146862
  15 H :    0.122533
  16 H :    0.122903
  17 H :    0.167901

  Mayer bond orders larger than 0.1
B(  0-N ,  1-C ) :   1.0291 B(  0-N ,  9-H ) :   0.8723 B(  0-N , 10-H ) :   0.8876
B(  1-C ,  2-C ) :   1.4883 B(  1-C ,  5-N ) :   1.1355 B(  2-C ,  3-C ) :   1.2400
B(  2-C , 11-H ) :   0.9338 B(  3-C ,  4-C ) :   1.4701 B(  3-C , 12-H ) :   0.9331
B(  4-C ,  5-N ) :   1.0641 B(  4-C ,  6-C ) :   0.9452 B(  5-N , 13-H ) :   0.8663
B(  6-C ,  7-C ) :   0.9360 B(  6-C ,  8-N ) :   0.9525 B(  6-C , 14-H ) :   0.9170
B(  7-C ,  8-N ) :   0.9330 B(  7-C , 15-H ) :   0.9205 B(  7-C , 16-H ) :   0.9150
B(  8-N , 17-H ) :   0.8741

MP2 TOTAL ENERGY:     -397.437852458 Eh
FINAL SINGLE POINT ENERGY      -397.437852457592

DIPOLE MOMENT
-------------
                                X             Y             Z
Electronic contribution:     -0.51302       0.83665      -1.05643
Nuclear contribution   :      0.73519       0.26786       1.08975
                        -----------------------------------------
Total Dipole Moment    :      0.22216       1.10451       0.03332
                        -----------------------------------------
Magnitude (a.u.)       :      1.12713
Magnitude (Debye)      :      2.86493

                             ****ORCA TERMINATED NORMALLY****
TOTAL RUN TIME: 0 days 0 hours 15 minutes 9 seconds 588 msec
