                         Program Version 3.0.3 - RELEASE   -
|  1> ! RI-MP2 RIJK def2-TZVP def2-TZVP/C def2-TZVP/JK TIGHTSCF
|  2> % maxcore 2000
|  3> % mp2 density relaxed end
|  4> *xyz 0 1
|  5>  O        0.0112263522     0.1861407668     0.7822630596
|  6>  C       -0.0021780369     1.2093476032     0.1595895412
|  7>  C       -1.2947248602     1.9742861515    -0.0846783202
|  8>  C       -1.1583574053     3.2440321782    -0.8836342290
|  9>  C        0.0278648885     3.6527114338    -1.3378357203
| 10>  C        1.2851474887     2.8956347229    -1.0924045288
| 11>  O        1.1618281446     1.6917086400    -0.3358714268
| 12>  C       -2.3483617680     3.9935821098    -1.1361599275
| 13>  N       -3.3333555825     4.5737259277    -1.3205906203
| 14>  H       -1.9881914450     1.2796918734    -0.5721698263
| 15>  H       -1.7346036538     2.1777040929     0.8982406686
| 16>  H        0.1245654433     4.5674214550    -1.9131419371
| 17>  H        1.7513278680     2.6259664863    -2.0500283074
| 18>  H        2.0076761166     3.5331678486    -0.5645860457
| 19> *
| 20>
| 21>                          ****END OF INPUT****

CARTESIAN COORDINATES (ANGSTROEM)
---------------------------------
  O      0.011226    0.186141    0.782263
  C     -0.002178    1.209348    0.159590
  C     -1.294725    1.974286   -0.084678
  C     -1.158357    3.244032   -0.883634
  C      0.027865    3.652711   -1.337836
  C      1.285147    2.895635   -1.092405
  O      1.161828    1.691709   -0.335871
  C     -2.348362    3.993582   -1.136160
  N     -3.333356    4.573726   -1.320591
  H     -1.988191    1.279692   -0.572170
  H     -1.734604    2.177704    0.898241
  H      0.124565    4.567421   -1.913142
  H      1.751328    2.625966   -2.050028
  H      2.007676    3.533168   -0.564586

 Total Charge           Charge          ....    0
 Multiplicity           Mult            ....    1
 Number of Electrons    NEL             ....   64
 Basis Dimension        Dim             ....  309

ORBITAL ENERGIES
----------------

  NO   OCC          E(Eh)            E(eV)
   0   2.0000     -20.625807      -561.2567
   1   2.0000     -20.554015      -559.3032
   2   2.0000     -15.593532      -424.3216
   3   2.0000     -11.404743      -310.3388
   4   2.0000     -11.339348      -308.5593
   5   2.0000     -11.313708      -307.8616
   6   2.0000     -11.302309      -307.5515
   7   2.0000     -11.294691      -307.3442
   8   2.0000     -11.288588      -307.1781
   9   2.0000      -1.479510       -40.2595
  10   2.0000      -1.383142       -37.6372
  11   2.0000      -1.241652       -33.7871
  12   2.0000      -1.161883       -31.6165
  13   2.0000      -1.067371       -29.0446
  14   2.0000      -0.979224       -26.6460
  15   2.0000      -0.901225       -24.5236
  16   2.0000      -0.777355       -21.1529
  17   2.0000      -0.739593       -20.1253
  18   2.0000      -0.726924       -19.7806
  19   2.0000      -0.713243       -19.4083
  20   2.0000      -0.676120       -18.3982
  21   2.0000      -0.641573       -17.4581
  22   2.0000      -0.627984       -17.0883
  23   2.0000      -0.589607       -16.0440
  24   2.0000      -0.585168       -15.9232
  25   2.0000      -0.577638       -15.7183
  26   2.0000      -0.542529       -14.7630
  27   2.0000      -0.517006       -14.0684
  28   2.0000      -0.488611       -13.2958
  29   2.0000      -0.475027       -12.9261
  30   2.0000      -0.460442       -12.5293
  31   2.0000      -0.398925       -10.8553
  32   0.0000       0.072444         1.9713
  33   0.0000       0.108763         2.9596
  34   0.0000       0.136982         3.7275
  35   0.0000       0.143575         3.9069
  36   0.0000       0.153271         4.1707

MULLIKEN ATOMIC CHARGES
-----------------------
   0 O :   -0.268758
   1 C :    0.231011
   2 C :   -0.226154
   3 C :    0.088429
   4 C :   -0.181561
   5 C :   -0.023723
   6 O :   -0.202995
   7 C :   -0.175103
   8 N :   -0.044757
   9 H :    0.171822
  10 H :    0.171820
  11 H :    0.167256
  12 H :    0.146357
  13 H :    0.146359
Sum of atomic charges:   -0.0000000

LOEWDIN ATOMIC CHARGES
----------------------
   0 O :    0.150068
   1 C :   -0.464652
   2 C :   -0.171886
   3 C :   -0.168948
   4 C :   -0.098699
   5 C :   -0.263214
   6 O :    0.273903
   7 C :   -0.147837
   8 N :    0.085577
   9 H :    0.174051
  10 H :    0.174052
  11 H :    0.163770
  12 H :    0.146909
  13 H :    0.146907

  Mayer bond orders larger than 0.1
B(  0-O ,  1-C ) :   2.0451 B(  1-C ,  2-C ) :   0.9478 B(  1-C ,  6-O ) :   1.1394
B(  2-C ,  3-C ) :   0.8801 B(  2-C ,  9-H ) :   0.8962 B(  2-C , 10-H ) :   0.8962
B(  3-C ,  4-C ) :   1.6886 B(  3-C ,  7-C ) :   0.9128 B(  4-C ,  5-C ) :   0.9519
B(  4-C , 11-H ) :   0.9061 B(  5-C ,  6-O ) :   0.9079 B(  5-C , 12-H ) :   0.9198
B(  5-C , 13-H ) :   0.9198 B(  7-C ,  8-N ) :   2.8250

MP2 TOTAL ENERGY:     -436.006625675 Eh
FINAL SINGLE POINT ENERGY      -436.006625675196

DIPOLE MOMENT
-------------
                                X             Y             Z
Electronic contribution:     -1.83860      -0.71947       0.75671
Nuclear contribution   :      2.82493       1.37428      -1.32682
                        -----------------------------------------
Total Dipole Moment    :      0.98633       0.65481      -0.57011
                        -----------------------------------------
Magnitude (a.u.)       :      1.31402
Magnitude (Debye)      :      3.33998

                             ****ORCA TERMINATED NORMALLY****
TOTAL RUN TIME: 0 days 0 hours 15 minutes 17 seconds 141 msec
