                         Program Version 3.0.3 - RELEASE   -
|  1> ! RI-MP2 RIJK def2-TZVP def2-TZVP/C def2-TZVP/JK TIGHTSCF
|  2> % maxcore 2000
|  3> % mp2 density relaxed end
|  4> *xyz 0 1
|  5>  C       -0.0324554042     1.3769852158    -0.2758947469
|  6>  C        1.4913639073     1.5085098471     0.0021751887
|  7>  C        1.3899735152     0.2422717659     0.8982832239
|  8>  C        0.0763711336    -0.1067649142     0.1553485071
|  9>  O        0.2496041864    -1.0139953164    -0.9312488534
| 10>  C        1.2026822263    -0.7989105223    -1.8779831480
| 11>  N        2.0700409431     0.0975336675    -2.0624056044
| 12>  C        2.3331530591     1.2685499187    -1.2494832040
| 13>  H       -0.6369388177     1.9451122630     0.4359115517
| 14>  H       -0.3920508745     1.5728157179    -1.2891942456
| 15>  H        1.8240304591     2.4297119295     0.4894154752
| 16>  H        2.1972422248    -0.4927406405     0.8481992172
| 17>  H        1.1911533994     0.4867898128     1.9449532466
| 18>  H       -0.7430352899    -0.5344063312     0.7347312840
| 19>  H        1.1374983153    -1.6199446639    -2.5924691973
| 20>  H        2.2452798924     2.1411499803    -1.9124511942
| 21>  H        3.3939943345     1.2247814798    -0.9642128106
| 22> *
| 23>
| 24>                          ****END OF INPUT****

CARTESIAN COORDINATES (ANGSTROEM)
---------------------------------
  C     -0.032455    1.376985   -0.275895
  C      1.491364    1.508510    0.002175
  C      1.389974    0.242272    0.898283
  C      0.076371   -0.106765    0.155349
  O      0.249604   -1.013995   -0.931249
  C      1.202682   -0.798911   -1.877983
  N      2.070041    0.097534   -2.062406
  C      2.333153    1.268550   -1.249483
  H     -0.636939    1.945112    0.435912
  H     -0.392051    1.572816   -1.289194
  H      1.824030    2.429712    0.489415
  H      2.197242   -0.492741    0.848199
  H      1.191153    0.486790    1.944953
  H     -0.743035   -0.534406    0.734731
  H      1.137498   -1.619945   -2.592469
  H      2.245280    2.141150   -1.912451
  H      3.393994    1.224781   -0.964213

 Total Charge           Charge          ....    0
 Multiplicity           Mult            ....    1
 Number of Electrons    NEL             ....   60
 Basis Dimension        Dim             ....  302

ORBITAL ENERGIES
----------------

  NO   OCC          E(Eh)            E(eV)
   0   2.0000     -20.589401      -560.2661
   1   2.0000     -15.540010      -422.8652
   2   2.0000     -11.327881      -308.2473
   3   2.0000     -11.294540      -307.3400
   4   2.0000     -11.254004      -306.2370
   5   2.0000     -11.236120      -305.7504
   6   2.0000     -11.229308      -305.5650
   7   2.0000     -11.229279      -305.5642
   8   2.0000      -1.418999       -38.6129
   9   2.0000      -1.211543       -32.9678
  10   2.0000      -1.142551       -31.0904
  11   2.0000      -0.971858       -26.4456
  12   2.0000      -0.925442       -25.1826
  13   2.0000      -0.916147       -24.9296
  14   2.0000      -0.773548       -21.0493
  15   2.0000      -0.737827       -20.0773
  16   2.0000      -0.707974       -19.2650
  17   2.0000      -0.667901       -18.1745
  18   2.0000      -0.629210       -17.1217
  19   2.0000      -0.626697       -17.0533
  20   2.0000      -0.606437       -16.5020
  21   2.0000      -0.593982       -16.1631
  22   2.0000      -0.547242       -14.8912
  23   2.0000      -0.537972       -14.6390
  24   2.0000      -0.493871       -13.4389
  25   2.0000      -0.463236       -12.6053
  26   2.0000      -0.458934       -12.4882
  27   2.0000      -0.440321       -11.9817
  28   2.0000      -0.395307       -10.7569
  29   2.0000      -0.380091       -10.3428
  30   0.0000       0.133139         3.6229
  31   0.0000       0.158946         4.3251
  32   0.0000       0.170680         4.6444
  33   0.0000       0.173062         4.7093
  34   0.0000       0.183098         4.9823

MULLIKEN ATOMIC CHARGES
-----------------------
   0 C :   -0.298406
   1 C :   -0.024528
   2 C :   -0.298406
   3 C :    0.106456
   4 O :   -0.268856
   5 C :    0.072987
   6 N :   -0.274220
   7 C :   -0.162880
   8 H :    0.127007
   9 H :    0.134640
  10 H :    0.108608
  11 H :    0.134640
  12 H :    0.127007
  13 H :    0.122939
  14 H :    0.134238
  15 H :    0.129386
  16 H :    0.129386
Sum of atomic charges:   -0.0000000

LOEWDIN ATOMIC CHARGES
----------------------
   0 C :   -0.199291
   1 C :   -0.241661
   2 C :   -0.199291
   3 C :   -0.271536
   4 O :    0.243227
   5 C :   -0.372403
   6 N :    0.079952
   7 C :   -0.288334
   8 H :    0.140898
   9 H :    0.136115
  10 H :    0.141243
  11 H :    0.136115
  12 H :    0.140898
  13 H :    0.134266
  14 H :    0.134262
  15 H :    0.142770
  16 H :    0.142770

  Mayer bond orders larger than 0.1
B(  0-C ,  1-C ) :   0.9009 B(  0-C ,  3-C ) :   0.9109 B(  0-C ,  8-H ) :   0.9138
B(  0-C ,  9-H ) :   0.9185 B(  1-C ,  2-C ) :   0.9009 B(  1-C ,  7-C ) :   0.9091
B(  1-C , 10-H ) :   0.9168 B(  2-C ,  3-C ) :   0.9109 B(  2-C , 11-H ) :   0.9185
B(  2-C , 12-H ) :   0.9138 B(  3-C ,  4-O ) :   0.8708 B(  3-C , 13-H ) :   0.9428
B(  4-O ,  5-C ) :   1.0584 B(  5-C ,  6-N ) :   1.8564 B(  5-C , 14-H ) :   0.9284
B(  6-N ,  7-C ) :   0.9479 B(  7-C , 15-H ) :   0.9288 B(  7-C , 16-H ) :   0.9288

MP2 TOTAL ENERGY:     -363.235172675 Eh
FINAL SINGLE POINT ENERGY      -363.235172674573

DIPOLE MOMENT
-------------
                                X             Y             Z
Electronic contribution:     -0.66539      -3.61389      -2.68637
Nuclear contribution   :      0.39442       4.08608       3.47094
                        -----------------------------------------
Total Dipole Moment    :     -0.27097       0.47218       0.78457
                        -----------------------------------------
Magnitude (a.u.)       :      0.95495
Magnitude (Debye)      :      2.42728

                             ****ORCA TERMINATED NORMALLY****
TOTAL RUN TIME: 0 days 0 hours 14 minutes 8 seconds 34 msec
