                         Program Version 3.0.3 - RELEASE   -
|  1> ! RI-MP2 RIJK def2-TZVP def2-TZVP/C def2-TZVP/JK TIGHTSCF
|  2> % maxcore 2000
|  3> % mp2 density relaxed end
|  4> *xyz 0 1
|  5>  N        0.0231536993     1.4650119247    -0.0444543229
|  6>  C        0.0081372974     0.0009605404     0.0350579186
|  7>  C        0.4983366890    -0.6597767327    -1.1946258922
|  8>  N        0.8916839831    -1.1092416006    -2.1845383774
|  9>  C        0.7915880974    -0.4303904802     1.2579723153
| 10>  C        2.1943710719    -0.8966766137     1.2486401777
| 11>  N        1.1304327629    -1.8712001812     1.5686285980
| 12>  C        0.7577529446    -1.5960163979     3.0056183336
| 13>  C        0.3163031690    -0.1444282393     2.6812700571
| 14>  H        0.9682531488     1.7861428674    -0.2355717349
| 15>  H       -0.5548473905     1.7795440508    -0.8179799719
| 16>  H       -1.0354181524    -0.3089979926     0.1737985013
| 17>  H        2.6607811326    -1.0892035176     0.2877648448
| 18>  H        2.8748947215    -0.5789151041     2.0364521350
| 19>  H       -0.0577055597    -2.2529037747     3.3125731586
| 20>  H        1.5961104200    -1.7194578325     3.6982042742
| 21>  H        0.8069662016     0.6798565373     3.2040461757
| 22>  H       -0.7644758263    -0.0046473734     2.7468650794
| 23> *
| 24>
| 25>                          ****END OF INPUT****

CARTESIAN COORDINATES (ANGSTROEM)
---------------------------------
  N      0.023154    1.465012   -0.044454
  C      0.008137    0.000961    0.035058
  C      0.498337   -0.659777   -1.194626
  N      0.891684   -1.109242   -2.184538
  C      0.791588   -0.430390    1.257972
  C      2.194371   -0.896677    1.248640
  N      1.130433   -1.871200    1.568629
  C      0.757753   -1.596016    3.005618
  C      0.316303   -0.144428    2.681270
  H      0.968253    1.786143   -0.235572
  H     -0.554847    1.779544   -0.817980
  H     -1.035418   -0.308998    0.173799
  H      2.660781   -1.089204    0.287765
  H      2.874895   -0.578915    2.036452
  H     -0.057706   -2.252904    3.312573
  H      1.596110   -1.719458    3.698204
  H      0.806966    0.679857    3.204046
  H     -0.764476   -0.004647    2.746865

 Total Charge           Charge          ....    0
 Multiplicity           Mult            ....    1
 Number of Electrons    NEL             ....   66
 Basis Dimension        Dim             ....  333

ORBITAL ENERGIES
----------------

  NO   OCC          E(Eh)            E(eV)
   0   2.0000     -15.577610      -423.8883
   1   2.0000     -15.573441      -423.7749
   2   2.0000     -15.572855      -423.7589
   3   2.0000     -11.321784      -308.0814
   4   2.0000     -11.287687      -307.1536
   5   2.0000     -11.272780      -306.7479
   6   2.0000     -11.268052      -306.6193
   7   2.0000     -11.266494      -306.5769
   8   2.0000     -11.244297      -305.9729
   9   2.0000      -1.309643       -35.6372
  10   2.0000      -1.235940       -33.6316
  11   2.0000      -1.204008       -32.7627
  12   2.0000      -1.022323       -27.8188
  13   2.0000      -1.008476       -27.4420
  14   2.0000      -0.924941       -25.1689
  15   2.0000      -0.840169       -22.8622
  16   2.0000      -0.762255       -20.7420
  17   2.0000      -0.728366       -19.8198
  18   2.0000      -0.701169       -19.0798
  19   2.0000      -0.677736       -18.4421
  20   2.0000      -0.645177       -17.5562
  21   2.0000      -0.619789       -16.8653
  22   2.0000      -0.590675       -16.0731
  23   2.0000      -0.564143       -15.3511
  24   2.0000      -0.562655       -15.3106
  25   2.0000      -0.545632       -14.8474
  26   2.0000      -0.507489       -13.8095
  27   2.0000      -0.478560       -13.0223
  28   2.0000      -0.465992       -12.6803
  29   2.0000      -0.459858       -12.5134
  30   2.0000      -0.440341       -11.9823
  31   2.0000      -0.432745       -11.7756
  32   2.0000      -0.383408       -10.4331
  33   0.0000       0.114586         3.1180
  34   0.0000       0.140171         3.8143
  35   0.0000       0.151102         4.1117
  36   0.0000       0.170202         4.6314
  37   0.0000       0.174102         4.7375

MULLIKEN ATOMIC CHARGES
-----------------------
   0 N :   -0.526409
   1 C :    0.127036
   2 C :   -0.215602
   3 N :   -0.057336
   4 C :    0.062519
   5 C :   -0.184853
   6 N :   -0.243800
   7 C :   -0.143181
   8 C :   -0.207799
   9 H :    0.239738
  10 H :    0.242243
  11 H :    0.128374
  12 H :    0.153279
  13 H :    0.128979
  14 H :    0.127470
  15 H :    0.119561
  16 H :    0.126662
  17 H :    0.123117
Sum of atomic charges:    0.0000000

LOEWDIN ATOMIC CHARGES
----------------------
   0 N :   -0.114810
   1 C :   -0.290221
   2 C :   -0.172505
   3 N :    0.064524
   4 C :   -0.243004
   5 C :   -0.221159
   6 N :    0.122889
   7 C :   -0.237814
   8 C :   -0.203341
   9 H :    0.163688
  10 H :    0.161369
  11 H :    0.175294
  12 H :    0.141784
  13 H :    0.129410
  14 H :    0.128158
  15 H :    0.122037
  16 H :    0.132744
  17 H :    0.140956

  Mayer bond orders larger than 0.1
B(  0-N ,  1-C ) :   0.9448 B(  0-N ,  9-H ) :   0.8869 B(  0-N , 10-H ) :   0.8920
B(  1-C ,  2-C ) :   0.9364 B(  1-C ,  4-C ) :   0.9427 B(  1-C , 11-H ) :   0.8902
B(  2-C ,  3-N ) :   2.8586 B(  4-C ,  5-C ) :   0.9296 B(  4-C ,  6-N ) :   0.8569
B(  4-C ,  8-C ) :   0.8937 B(  5-C ,  6-N ) :   0.9117 B(  5-C , 12-H ) :   0.9144
B(  5-C , 13-H ) :   0.9098 B(  6-N ,  7-C ) :   0.9090 B(  7-C ,  8-C ) :   0.9698
B(  7-C , 14-H ) :   0.9196 B(  7-C , 15-H ) :   0.9362 B(  8-C , 16-H ) :   0.9157
B(  8-C , 17-H ) :   0.9244

MP2 TOTAL ENERGY:     -397.399539311 Eh
FINAL SINGLE POINT ENERGY      -397.399539311021

DIPOLE MOMENT
-------------
                                X             Y             Z
Electronic contribution:     -0.12190      -1.99788      -6.16691
Nuclear contribution   :     -0.08096       3.03959       7.34629
                        -----------------------------------------
Total Dipole Moment    :     -0.20286       1.04170       1.17938
                        -----------------------------------------
Magnitude (a.u.)       :      1.58658
Magnitude (Debye)      :      4.03277

                             ****ORCA TERMINATED NORMALLY****
TOTAL RUN TIME: 0 days 0 hours 19 minutes 38 seconds 166 msec
