                         Program Version 3.0.3 - RELEASE   -
|  1> ! RI-MP2 RIJK def2-TZVP def2-TZVP/C def2-TZVP/JK TIGHTSCF
|  2> % maxcore 2000
|  3> % mp2 density relaxed end
|  4> *xyz 0 1
|  5>  C       -0.0920128978     1.3802616381     0.0828333251
|  6>  O        0.0041264568    -0.0285585569     0.0512227676
|  7>  C        0.6259899276    -0.5403059691    -1.0449389481
|  8>  C        1.1652238017     0.0640367608    -2.1630371500
|  9>  N        1.6110266306    -0.9437609354    -2.9633570720
| 10>  C        2.4027124892    -0.8305106617    -4.1623231771
| 11>  N        1.4055191451    -2.1669549896    -2.4123718850
| 12>  C        0.8037383667    -1.9306668802    -1.2524167841
| 13>  N        0.4569318015    -2.9458360024    -0.3629694448
| 14>  H        0.9028810596     1.8473481403     0.0722395508
| 15>  H       -0.6691887765     1.7605722070    -0.7721546855
| 16>  H       -0.6041488259     1.6439076486     1.0098174938
| 17>  H        1.2586015483     1.0987304550    -2.4477209092
| 18>  H        3.4786405095    -0.8716847572    -3.9502419318
| 19>  H        2.1477996235    -1.6547396998    -4.8316530829
| 20>  H        2.1753543044     0.1168246240    -4.6573302765
| 21>  H        0.3552942915    -3.8384253441    -0.8280759620
| 22>  H       -0.3683392158    -2.7208153374     0.1766150018
| 23> *
| 24>
| 25>                          ****END OF INPUT****

CARTESIAN COORDINATES (ANGSTROEM)
---------------------------------
  C     -0.092013    1.380262    0.082833
  O      0.004126   -0.028559    0.051223
  C      0.625990   -0.540306   -1.044939
  C      1.165224    0.064037   -2.163037
  N      1.611027   -0.943761   -2.963357
  C      2.402712   -0.830511   -4.162323
  N      1.405519   -2.166955   -2.412372
  C      0.803738   -1.930667   -1.252417
  N      0.456932   -2.945836   -0.362969
  H      0.902881    1.847348    0.072240
  H     -0.669189    1.760572   -0.772155
  H     -0.604149    1.643908    1.009817
  H      1.258602    1.098730   -2.447721
  H      3.478641   -0.871685   -3.950242
  H      2.147800   -1.654740   -4.831653
  H      2.175354    0.116825   -4.657330
  H      0.355294   -3.838425   -0.828076
  H     -0.368339   -2.720815    0.176615

 Total Charge           Charge          ....    0
 Multiplicity           Mult            ....    1
 Number of Electrons    NEL             ....   68
 Basis Dimension        Dim             ....  333

ORBITAL ENERGIES
----------------

  NO   OCC          E(Eh)            E(eV)
   0   2.0000     -20.581220      -560.0435
   1   2.0000     -15.618495      -425.0009
   2   2.0000     -15.562935      -423.4890
   3   2.0000     -15.553411      -423.2298
   4   2.0000     -11.284689      -307.0720
   5   2.0000     -11.279779      -306.9384
   6   2.0000     -11.271695      -306.7184
   7   2.0000     -11.264665      -306.5271
   8   2.0000     -11.264409      -306.5201
   9   2.0000      -1.408403       -38.3246
  10   2.0000      -1.360187       -37.0126
  11   2.0000      -1.206895       -32.8413
  12   2.0000      -1.088342       -29.6153
  13   2.0000      -1.047007       -28.4905
  14   2.0000      -0.963116       -26.2077
  15   2.0000      -0.904453       -24.6114
  16   2.0000      -0.793361       -21.5884
  17   2.0000      -0.780111       -21.2279
  18   2.0000      -0.719947       -19.5908
  19   2.0000      -0.669311       -18.2129
  20   2.0000      -0.663563       -18.0565
  21   2.0000      -0.653561       -17.7843
  22   2.0000      -0.635637       -17.2966
  23   2.0000      -0.625833       -17.0298
  24   2.0000      -0.603159       -16.4128
  25   2.0000      -0.561703       -15.2847
  26   2.0000      -0.553786       -15.0693
  27   2.0000      -0.550027       -14.9670
  28   2.0000      -0.505544       -13.7566
  29   2.0000      -0.489179       -13.3112
  30   2.0000      -0.465525       -12.6676
  31   2.0000      -0.446333       -12.1453
  32   2.0000      -0.328717        -8.9449
  33   2.0000      -0.293158        -7.9772
  34   0.0000       0.133645         3.6367
  35   0.0000       0.151186         4.1140
  36   0.0000       0.154226         4.1967
  37   0.0000       0.158379         4.3097
  38   0.0000       0.190061         5.1718

MULLIKEN ATOMIC CHARGES
-----------------------
   0 C :   -0.234771
   1 O :   -0.316203
   2 C :    0.150675
   3 C :   -0.210454
   4 N :    0.089094
   5 C :   -0.306961
   6 N :   -0.271423
   7 C :    0.131515
   8 N :   -0.521646
   9 H :    0.127086
  10 H :    0.125336
  11 H :    0.148217
  12 H :    0.150324
  13 H :    0.140331
  14 H :    0.159369
  15 H :    0.138095
  16 H :    0.248257
  17 H :    0.253159
Sum of atomic charges:   -0.0000000

LOEWDIN ATOMIC CHARGES
----------------------
   0 C :   -0.331710
   1 O :    0.214804
   2 C :   -0.294087
   3 C :   -0.241013
   4 N :    0.155765
   5 C :   -0.286015
   6 N :    0.044615
   7 C :   -0.360241
   8 N :   -0.083741
   9 H :    0.108402
  10 H :    0.107564
  11 H :    0.115968
  12 H :    0.137717
  13 H :    0.119442
  14 H :    0.128208
  15 H :    0.123857
  16 H :    0.169856
  17 H :    0.170609

  Mayer bond orders larger than 0.1
B(  0-C ,  1-O ) :   0.8898 B(  0-C ,  9-H ) :   0.9347 B(  0-C , 10-H ) :   0.9345
B(  0-C , 11-H ) :   0.9392 B(  1-O ,  2-C ) :   1.0453 B(  2-C ,  3-C ) :   1.4109
B(  2-C ,  7-C ) :   1.2440 B(  3-C ,  4-N ) :   1.1685 B(  3-C , 12-H ) :   0.9033
B(  4-N ,  5-C ) :   0.8774 B(  4-N ,  6-N ) :   1.0042 B(  5-C , 13-H ) :   0.9235
B(  5-C , 14-H ) :   0.9323 B(  5-C , 15-H ) :   0.9315 B(  6-N ,  7-C ) :   1.5232
B(  7-C ,  8-N ) :   1.0461 B(  8-N , 16-H ) :   0.8744 B(  8-N , 17-H ) :   0.8691

MP2 TOTAL ENERGY:     -434.545223316 Eh
FINAL SINGLE POINT ENERGY      -434.545223315884

DIPOLE MOMENT
-------------
                                X             Y             Z
Electronic contribution:     -0.68470      -3.86218       1.56610
Nuclear contribution   :      0.40194       4.85758      -2.02561
                        -----------------------------------------
Total Dipole Moment    :     -0.28275       0.99540      -0.45951
                        -----------------------------------------
Magnitude (a.u.)       :      1.13222
Magnitude (Debye)      :      2.87787

                             ****ORCA TERMINATED NORMALLY****
TOTAL RUN TIME: 0 days 0 hours 17 minutes 35 seconds 750 msec
