                         Program Version 3.0.3 - RELEASE   -
|  1> ! RI-MP2 RIJK def2-TZVP def2-TZVP/C def2-TZVP/JK TIGHTSCF
|  2> % maxcore 2000
|  3> % mp2 density relaxed end
|  4> *xyz 0 1
|  5>  O        0.6057486044     0.0801289541     1.4381997174
|  6>  C        0.1228120902    -0.0845967599     0.1190933891
|  7>  C       -1.3261166431    -0.6228838531     0.0615364782
|  8>  C       -2.1392473801    -0.1307623038     1.2612009407
|  9>  O       -1.9365950317     1.2650201494     1.5203021506
| 10>  C       -2.0703651791    -0.6482747378    -1.3212814297
| 11>  C       -1.1545936703    -1.7917097330    -1.8153281431
| 12>  C       -1.6242976239    -2.0972112874    -0.3721879566
| 13>  O       -2.9897367678    -1.6769199219    -0.7850695380
| 14>  H        0.0816748654     0.7965432379     1.8199909128
| 15>  H        0.1663118797     0.8654877971    -0.4369523659
| 16>  H        0.8197449570    -0.7688975177    -0.3694663313
| 17>  H       -3.1974363179    -0.3641393452     1.1255078768
| 18>  H       -1.7856641566    -0.6372106903     2.1629857735
| 19>  H       -2.3353544901     1.7661643008     0.8020996310
| 20>  H       -2.5146378866     0.1728332256    -1.8883794475
| 21>  H       -1.6098117298    -2.4295374462    -2.5730600225
| 22>  H       -0.1007455025    -1.5924895822    -2.0113823665
| 23>  H       -1.5400385072    -3.0183378865     0.2060240708
| 24> *
| 25>
| 26>                          ****END OF INPUT****

CARTESIAN COORDINATES (ANGSTROEM)
---------------------------------
  O      0.605749    0.080129    1.438200
  C      0.122812   -0.084597    0.119093
  C     -1.326117   -0.622884    0.061536
  C     -2.139247   -0.130762    1.261201
  O     -1.936595    1.265020    1.520302
  C     -2.070365   -0.648275   -1.321281
  C     -1.154594   -1.791710   -1.815328
  C     -1.624298   -2.097211   -0.372188
  O     -2.989737   -1.676920   -0.785070
  H      0.081675    0.796543    1.819991
  H      0.166312    0.865488   -0.436952
  H      0.819745   -0.768898   -0.369466
  H     -3.197436   -0.364139    1.125508
  H     -1.785664   -0.637211    2.162986
  H     -2.335354    1.766164    0.802100
  H     -2.514638    0.172833   -1.888379
  H     -1.609812   -2.429537   -2.573060
  H     -0.100746   -1.592490   -2.011382
  H     -1.540039   -3.018338    0.206024

 Total Charge           Charge          ....    0
 Multiplicity           Mult            ....    1
 Number of Electrons    NEL             ....   70
 Basis Dimension        Dim             ....  339

ORBITAL ENERGIES
----------------

  NO   OCC          E(Eh)            E(eV)
   0   2.0000     -20.571793      -559.7869
   1   2.0000     -20.556698      -559.3762
   2   2.0000     -20.549256      -559.1737
   3   2.0000     -11.310690      -307.7795
   4   2.0000     -11.309864      -307.7571
   5   2.0000     -11.281918      -306.9966
   6   2.0000     -11.278320      -306.8987
   7   2.0000     -11.256924      -306.3165
   8   2.0000     -11.245853      -306.0152
   9   2.0000      -1.405424       -38.2435
  10   2.0000      -1.376011       -37.4432
  11   2.0000      -1.353289       -36.8249
  12   2.0000      -1.096882       -29.8477
  13   2.0000      -0.999812       -27.2063
  14   2.0000      -0.923179       -25.1210
  15   2.0000      -0.894122       -24.3303
  16   2.0000      -0.858407       -23.3584
  17   2.0000      -0.735034       -20.0013
  18   2.0000      -0.719022       -19.5656
  19   2.0000      -0.713260       -19.4088
  20   2.0000      -0.671338       -18.2680
  21   2.0000      -0.663578       -18.0569
  22   2.0000      -0.619766       -16.8647
  23   2.0000      -0.610077       -16.6010
  24   2.0000      -0.575494       -15.6600
  25   2.0000      -0.560141       -15.2422
  26   2.0000      -0.557737       -15.1768
  27   2.0000      -0.532819       -14.4988
  28   2.0000      -0.508235       -13.8298
  29   2.0000      -0.496781       -13.5181
  30   2.0000      -0.479498       -13.0478
  31   2.0000      -0.473289       -12.8789
  32   2.0000      -0.439002       -11.9458
  33   2.0000      -0.428206       -11.6521
  34   2.0000      -0.411262       -11.1910
  35   0.0000       0.118038         3.2120
  36   0.0000       0.154026         4.1913
  37   0.0000       0.161945         4.4068
  38   0.0000       0.170648         4.6436
  39   0.0000       0.187437         5.1004

MULLIKEN ATOMIC CHARGES
-----------------------
   0 O :   -0.477793
   1 C :   -0.066583
   2 C :    0.089874
   3 C :   -0.155188
   4 O :   -0.497820
   5 C :   -0.050541
   6 C :   -0.175191
   7 C :   -0.063366
   8 O :   -0.318239
   9 H :    0.343091
  10 H :    0.107593
  11 H :    0.119424
  12 H :    0.160225
  13 H :    0.141765
  14 H :    0.320376
  15 H :    0.134664
  16 H :    0.127538
  17 H :    0.118013
  18 H :    0.142158
Sum of atomic charges:    0.0000000

LOEWDIN ATOMIC CHARGES
----------------------
   0 O :   -0.039691
   1 C :   -0.312384
   2 C :   -0.225524
   3 C :   -0.301012
   4 O :   -0.057388
   5 C :   -0.201325
   6 C :   -0.196751
   7 C :   -0.182282
   8 O :    0.127495
   9 H :    0.176908
  10 H :    0.121910
  11 H :    0.130877
  12 H :    0.132497
  13 H :    0.137835
  14 H :    0.174897
  15 H :    0.123237
  16 H :    0.135256
  17 H :    0.127595
  18 H :    0.127848

  Mayer bond orders larger than 0.1
B(  0-O ,  1-C ) :   0.9724 B(  0-O ,  9-H ) :   0.8198 B(  1-C ,  2-C ) :   0.8773
B(  1-C , 10-H ) :   0.9473 B(  1-C , 11-H ) :   0.9265 B(  2-C ,  3-C ) :   0.8879
B(  2-C ,  5-C ) :   0.9052 B(  2-C ,  7-C ) :   0.8789 B(  3-C ,  4-O ) :   0.8354
B(  3-C , 12-H ) :   0.9329 B(  3-C , 13-H ) :   0.9371 B(  4-O , 14-H ) :   0.8459
B(  5-C ,  6-C ) :   0.9269 B(  5-C ,  8-O ) :   0.9019 B(  5-C , 15-H ) :   0.8748
B(  6-C ,  7-C ) :   0.9159 B(  6-C , 16-H ) :   0.9254 B(  6-C , 17-H ) :   0.9214
B(  7-C ,  8-O ) :   0.8916 B(  7-C , 18-H ) :   0.8833

MP2 TOTAL ENERGY:     -459.347162203 Eh
FINAL SINGLE POINT ENERGY      -459.347162202853

DIPOLE MOMENT
-------------
                                X             Y             Z
Electronic contribution:     -1.77518      -0.27758       0.89539
Nuclear contribution   :      1.67336       0.54872      -1.69414
                        -----------------------------------------
Total Dipole Moment    :     -0.10181       0.27114      -0.79875
                        -----------------------------------------
Magnitude (a.u.)       :      0.84963
Magnitude (Debye)      :      2.15960

                             ****ORCA TERMINATED NORMALLY****
TOTAL RUN TIME: 0 days 0 hours 16 minutes 58 seconds 299 msec
