                         Program Version 3.0.3 - RELEASE   -
|  1> ! RI-MP2 RIJK def2-TZVP def2-TZVP/C def2-TZVP/JK TIGHTSCF
|  2> % maxcore 2000
|  3> % mp2 density relaxed end
|  4> *xyz 0 1
|  5>  O       -0.0816675182     1.4692261017     0.3219772454
|  6>  C       -0.0826944066     0.0803142061     0.0128625558
|  7>  C        0.6682866262    -0.7504584653     1.0617404536
|  8>  O       -0.2611622797    -1.0703529244     2.0926233283
|  9>  C       -1.5615976530    -0.6177581883     1.7195969645
| 10>  C       -1.5235081434    -0.4303439473     0.1947981352
| 11>  C       -2.6059165963     0.4516529516    -0.3752954489
| 12>  C       -3.0626740273     0.2766683821    -1.8020996179
| 13>  C       -3.9724978877    -0.1196517542    -0.6660164400
| 14>  H        0.8315326887     1.7683551689     0.3626443439
| 15>  H        0.3006510447    -0.0939920406    -1.0019416540
| 16>  H        1.0642483522    -1.6772033431     0.6201616429
| 17>  H        1.5145706462    -0.1915263934     1.4851394583
| 18>  H       -2.2933460952    -1.3648575164     2.0418412782
| 19>  H       -1.7932647772     0.3350279734     2.2171038336
| 20>  H       -1.5789868654    -1.4210823409    -0.2752961169
| 21>  H       -2.5780185463     1.4715697933    -0.0080204093
| 22>  H       -3.3071467714     1.1640975018    -2.3749500666
| 23>  H       -2.6114016812    -0.5177566418    -2.3880536151
| 24>  H       -4.1289590588    -1.1795516193    -0.4917172240
| 25>  H       -4.8421465602     0.4946862661    -0.4609968371
| 26> *
| 27>
| 28>                          ****END OF INPUT****

CARTESIAN COORDINATES (ANGSTROEM)
---------------------------------
  O     -0.081668    1.469226    0.321977
  C     -0.082694    0.080314    0.012863
  C      0.668287   -0.750458    1.061740
  O     -0.261162   -1.070353    2.092623
  C     -1.561598   -0.617758    1.719597
  C     -1.523508   -0.430344    0.194798
  C     -2.605917    0.451653   -0.375295
  C     -3.062674    0.276668   -1.802100
  C     -3.972498   -0.119652   -0.666016
  H      0.831533    1.768355    0.362644
  H      0.300651   -0.093992   -1.001942
  H      1.064248   -1.677203    0.620162
  H      1.514571   -0.191526    1.485139
  H     -2.293346   -1.364858    2.041841
  H     -1.793265    0.335028    2.217104
  H     -1.578987   -1.421082   -0.275296
  H     -2.578019    1.471570   -0.008020
  H     -3.307147    1.164098   -2.374950
  H     -2.611402   -0.517757   -2.388054
  H     -4.128959   -1.179552   -0.491717
  H     -4.842147    0.494686   -0.460997

 Total Charge           Charge          ....    0
 Multiplicity           Mult            ....    1
 Number of Electrons    NEL             ....   70
 Basis Dimension        Dim             ....  351

ORBITAL ENERGIES
----------------

  NO   OCC          E(Eh)            E(eV)
   0   2.0000     -20.560381      -559.4764
   1   2.0000     -20.546280      -559.0927
   2   2.0000     -11.284126      -307.0567
   3   2.0000     -11.274248      -306.7879
   4   2.0000     -11.265222      -306.5423
   5   2.0000     -11.231999      -305.6382
   6   2.0000     -11.228003      -305.5295
   7   2.0000     -11.223422      -305.4048
   8   2.0000     -11.222756      -305.3867
   9   2.0000      -1.381617       -37.5957
  10   2.0000      -1.355172       -36.8761
  11   2.0000      -1.145611       -31.1737
  12   2.0000      -1.043906       -28.4061
  13   2.0000      -0.990446       -26.9514
  14   2.0000      -0.845837       -23.0164
  15   2.0000      -0.826973       -22.5031
  16   2.0000      -0.811065       -22.0702
  17   2.0000      -0.768409       -20.9095
  18   2.0000      -0.715882       -19.4801
  19   2.0000      -0.681624       -18.5479
  20   2.0000      -0.661147       -17.9907
  21   2.0000      -0.640096       -17.4179
  22   2.0000      -0.607598       -16.5336
  23   2.0000      -0.596160       -16.2223
  24   2.0000      -0.589426       -16.0391
  25   2.0000      -0.543769       -14.7967
  26   2.0000      -0.536534       -14.5998
  27   2.0000      -0.513933       -13.9848
  28   2.0000      -0.505102       -13.7445
  29   2.0000      -0.485672       -13.2158
  30   2.0000      -0.479845       -13.0572
  31   2.0000      -0.446605       -12.1527
  32   2.0000      -0.414783       -11.2868
  33   2.0000      -0.410027       -11.1574
  34   2.0000      -0.395394       -10.7592
  35   0.0000       0.129436         3.5221
  36   0.0000       0.151165         4.1134
  37   0.0000       0.161534         4.3956
  38   0.0000       0.168664         4.5896
  39   0.0000       0.186283         5.0690

MULLIKEN ATOMIC CHARGES
-----------------------
   0 O :   -0.472640
   1 C :    0.008944
   2 C :   -0.003042
   3 O :   -0.319082
   4 C :   -0.018258
   5 C :   -0.109366
   6 C :   -0.088449
   7 C :   -0.266265
   8 C :   -0.256012
   9 H :    0.313591
  10 H :    0.101015
  11 H :    0.088015
  12 H :    0.082489
  13 H :    0.103915
  14 H :    0.089869
  15 H :    0.099666
  16 H :    0.137863
  17 H :    0.130182
  18 H :    0.122070
  19 H :    0.124738
  20 H :    0.130756
Sum of atomic charges:   -0.0000000

LOEWDIN ATOMIC CHARGES
----------------------
   0 O :   -0.010940
   1 C :   -0.321812
   2 C :   -0.293682
   3 O :    0.138786
   4 C :   -0.271461
   5 C :   -0.226078
   6 C :   -0.206703
   7 C :   -0.227002
   8 C :   -0.227247
   9 H :    0.173704
  10 H :    0.134320
  11 H :    0.122777
  12 H :    0.121128
  13 H :    0.124588
  14 H :    0.125924
  15 H :    0.163528
  16 H :    0.155356
  17 H :    0.131191
  18 H :    0.130971
  19 H :    0.131897
  20 H :    0.130756

  Mayer bond orders larger than 0.1
B(  0-O ,  1-C ) :   0.9904 B(  0-O ,  9-H ) :   0.8447 B(  1-C ,  2-C ) :   0.9727
B(  1-C ,  5-C ) :   0.8861 B(  1-C , 10-H ) :   0.9315 B(  2-C ,  3-O ) :   0.9726
B(  2-C , 11-H ) :   0.9150 B(  2-C , 12-H ) :   0.9048 B(  3-O ,  4-C ) :   0.9597
B(  4-C ,  5-C ) :   0.9642 B(  4-C , 13-H ) :   0.9090 B(  4-C , 14-H ) :   0.9222
B(  5-C ,  6-C ) :   0.9095 B(  5-C , 15-H ) :   0.9080 B(  6-C ,  7-C ) :   0.8775
B(  6-C ,  8-C ) :   0.8649 B(  6-C , 16-H ) :   0.9227 B(  7-C ,  8-C ) :   0.9147
B(  7-C , 17-H ) :   0.9298 B(  7-C , 18-H ) :   0.9285 B(  8-C , 19-H ) :   0.9258
B(  8-C , 20-H ) :   0.9310

MP2 TOTAL ENERGY:     -423.508625992 Eh
FINAL SINGLE POINT ENERGY      -423.508625992074

DIPOLE MOMENT
-------------
                                X             Y             Z
Electronic contribution:      3.49718       0.47027       3.10719
Nuclear contribution   :     -3.17732      -0.41210      -3.75325
                        -----------------------------------------
Total Dipole Moment    :      0.31986       0.05817      -0.64606
                        -----------------------------------------
Magnitude (a.u.)       :      0.72324
Magnitude (Debye)      :      1.83834

                             ****ORCA TERMINATED NORMALLY****
TOTAL RUN TIME: 0 days 0 hours 16 minutes 55 seconds 400 msec
