                         Program Version 3.0.3 - RELEASE   -
|  1> ! RI-MP2 RIJK def2-TZVP def2-TZVP/C def2-TZVP/JK TIGHTSCF
|  2> % maxcore 2000
|  3> % mp2 density relaxed end
|  4> *xyz 0 1
|  5>  O        0.0660319625     0.0148159823    -0.1946734032
|  6>  C        0.0152462804     1.2163339195    -0.0789308395
|  7>  N       -1.0909678766     2.0300877345    -0.2716567064
|  8>  C       -0.8383702083     3.3857904567     0.1776205228
|  9>  C        0.7135941166     3.4618000897     0.0604806087
| 10>  N        1.0675369098     2.0604702602     0.2886810413
| 11>  C        1.1693436623     3.9743683031    -1.2346371161
| 12>  C        1.5693793002     4.3931306028    -2.2876330858
| 13>  H       -1.9991126528     1.6053162216    -0.1776623138
| 14>  H       -1.3258750277     4.1316902070    -0.4531793741
| 15>  H       -1.1373959640     3.5491151184     1.2224018275
| 16>  H        1.1183965467     4.0957103527     0.8561985646
| 17>  H        1.9931710811     1.7433348969     0.0424693501
| 18>  H        1.9173697998     4.7578964148    -3.2226945463
| 19> *
| 20>
| 21>                          ****END OF INPUT****

CARTESIAN COORDINATES (ANGSTROEM)
---------------------------------
  O      0.066032    0.014816   -0.194673
  C      0.015246    1.216334   -0.078931
  N     -1.090968    2.030088   -0.271657
  C     -0.838370    3.385790    0.177621
  C      0.713594    3.461800    0.060481
  N      1.067537    2.060470    0.288681
  C      1.169344    3.974368   -1.234637
  C      1.569379    4.393131   -2.287633
  H     -1.999113    1.605316   -0.177662
  H     -1.325875    4.131690   -0.453179
  H     -1.137396    3.549115    1.222402
  H      1.118397    4.095710    0.856199
  H      1.993171    1.743335    0.042469
  H      1.917370    4.757896   -3.222695

 Total Charge           Charge          ....    0
 Multiplicity           Mult            ....    1
 Number of Electrons    NEL             ....   58
 Basis Dimension        Dim             ....  284

ORBITAL ENERGIES
----------------

  NO   OCC          E(Eh)            E(eV)
   0   2.0000     -20.515187      -558.2466
   1   2.0000     -15.587720      -424.1634
   2   2.0000     -15.585306      -424.0977
   3   2.0000     -11.374763      -309.5230
   4   2.0000     -11.317406      -307.9623
   5   2.0000     -11.292264      -307.2781
   6   2.0000     -11.248400      -306.0845
   7   2.0000     -11.242130      -305.9139
   8   2.0000      -1.398584       -38.0574
   9   2.0000      -1.291966       -35.1562
  10   2.0000      -1.191498       -32.4223
  11   2.0000      -1.070233       -29.1225
  12   2.0000      -1.002750       -27.2862
  13   2.0000      -0.887703       -24.1556
  14   2.0000      -0.834213       -22.7001
  15   2.0000      -0.754172       -20.5221
  16   2.0000      -0.712644       -19.3920
  17   2.0000      -0.702234       -19.1088
  18   2.0000      -0.668154       -18.1814
  19   2.0000      -0.621380       -16.9086
  20   2.0000      -0.607682       -16.5359
  21   2.0000      -0.604673       -16.4540
  22   2.0000      -0.572775       -15.5860
  23   2.0000      -0.556526       -15.1438
  24   2.0000      -0.447623       -12.1804
  25   2.0000      -0.424704       -11.5568
  26   2.0000      -0.410184       -11.1617
  27   2.0000      -0.405147       -11.0246
  28   2.0000      -0.399923       -10.8825
  29   0.0000       0.123144         3.3509
  30   0.0000       0.148292         4.0352
  31   0.0000       0.152188         4.1412
  32   0.0000       0.158107         4.3023
  33   0.0000       0.169223         4.6048

MULLIKEN ATOMIC CHARGES
-----------------------
   0 O :   -0.349217
   1 C :    0.298935
   2 N :   -0.360996
   3 C :   -0.108292
   4 C :    0.020068
   5 N :   -0.334100
   6 C :   -0.121077
   7 C :   -0.145434
   8 H :    0.244238
   9 H :    0.141242
  10 H :    0.123738
  11 H :    0.143863
  12 H :    0.249321
  13 H :    0.197711
Sum of atomic charges:   -0.0000000

LOEWDIN ATOMIC CHARGES
----------------------
   0 O :    0.072939
   1 C :   -0.535787
   2 N :    0.085764
   3 C :   -0.231149
   4 C :   -0.260934
   5 N :    0.108392
   6 C :   -0.092755
   7 C :   -0.080647
   8 H :    0.185640
   9 H :    0.137452
  10 H :    0.128939
  11 H :    0.163287
  12 H :    0.189085
  13 H :    0.129775

  Mayer bond orders larger than 0.1
B(  0-O ,  1-C ) :   2.0182 B(  1-C ,  2-N ) :   1.1027 B(  1-C ,  5-N ) :   1.0883
B(  2-N ,  3-C ) :   0.9176 B(  2-N ,  8-H ) :   0.8725 B(  3-C ,  4-C ) :   0.8771
B(  3-C ,  9-H ) :   0.9306 B(  3-C , 10-H ) :   0.9254 B(  4-C ,  5-N ) :   0.8823
B(  4-C ,  6-C ) :   1.1098 B(  4-C , 11-H ) :   0.9493 B(  5-N , 12-H ) :   0.8716
B(  6-C ,  7-C ) :   2.6128 B(  7-C , 13-H ) :   0.8928

MP2 TOTAL ENERGY:     -378.093862639 Eh
FINAL SINGLE POINT ENERGY      -378.093862638568

DIPOLE MOMENT
-------------
                                X             Y             Z
Electronic contribution:      0.96955      -2.99019      -0.54231
Nuclear contribution   :     -1.15606       4.55772       0.68363
                        -----------------------------------------
Total Dipole Moment    :     -0.18651       1.56754       0.14132
                        -----------------------------------------
Magnitude (a.u.)       :      1.58490
Magnitude (Debye)      :      4.02851

                             ****ORCA TERMINATED NORMALLY****
TOTAL RUN TIME: 0 days 0 hours 10 minutes 24 seconds 869 msec
