                         Program Version 3.0.3 - RELEASE   -
|  1> ! RI-MP2 RIJK def2-TZVP def2-TZVP/C def2-TZVP/JK TIGHTSCF
|  2> % maxcore 2000
|  3> % mp2 density relaxed end
|  4> *xyz 0 1
|  5>  C       -0.1741974350     1.7574600821    -2.2213228966
|  6>  C       -0.1812363022     0.2310715617    -2.1048105711
|  7>  C        1.2141959475    -0.3724807613    -1.8972432119
|  8>  O        1.8491916419     0.1632414900    -0.7336872844
|  9>  C        1.1757652867    -1.9004656224    -1.9261995645
| 10>  C        2.4334769450    -2.7612477674    -1.6277875015
| 11>  C        1.5495737211    -3.5195034744    -0.6360847662
| 12>  C        1.0505198289    -2.6079152221     0.4039424144
| 13>  N        0.3390777343    -2.6382313129    -0.9005827853
| 14>  H        0.2818517643     2.2194718085    -1.3413224108
| 15>  H        0.4006671967     2.0818604358    -3.0957580203
| 16>  H       -1.1905226382     2.1490373825    -2.3245876595
| 17>  H       -0.8228828603    -0.0890519158    -1.2720647059
| 18>  H       -0.6230748757    -0.2107639776    -3.0057878934
| 19>  H        1.8623513708    -0.0624109807    -2.7301895202
| 20>  H        1.1854982918     0.2094305900    -0.0375469930
| 21>  H        0.7608619586    -2.1833486317    -2.8998752791
| 22>  H        2.7681676015    -3.3474504252    -2.4850829539
| 23>  H        3.2913396485    -2.2469326651    -1.1871335815
| 24>  H        1.4551512428    -4.5983443286    -0.5704406148
| 25>  H        0.4423011959    -3.0288193285     1.1987406404
| 26>  H        1.6529985550    -1.7516997968     0.6851770491
| 27> *
| 28>
| 29>                          ****END OF INPUT****

CARTESIAN COORDINATES (ANGSTROEM)
---------------------------------
  C     -0.174197    1.757460   -2.221323
  C     -0.181236    0.231072   -2.104811
  C      1.214196   -0.372481   -1.897243
  O      1.849192    0.163241   -0.733687
  C      1.175765   -1.900466   -1.926200
  C      2.433477   -2.761248   -1.627788
  C      1.549574   -3.519503   -0.636085
  C      1.050520   -2.607915    0.403942
  N      0.339078   -2.638231   -0.900583
  H      0.281852    2.219472   -1.341322
  H      0.400667    2.081860   -3.095758
  H     -1.190523    2.149037   -2.324588
  H     -0.822883   -0.089052   -1.272065
  H     -0.623075   -0.210764   -3.005788
  H      1.862351   -0.062411   -2.730190
  H      1.185498    0.209431   -0.037547
  H      0.760862   -2.183349   -2.899875
  H      2.768168   -3.347450   -2.485083
  H      3.291340   -2.246933   -1.187134
  H      1.455151   -4.598344   -0.570441
  H      0.442301   -3.028819    1.198741
  H      1.652999   -1.751700    0.685177

 Total Charge           Charge          ....    0
 Multiplicity           Mult            ....    1
 Number of Electrons    NEL             ....   70
 Basis Dimension        Dim             ....  357

ORBITAL ENERGIES
----------------

  NO   OCC          E(Eh)            E(eV)
   0   2.0000     -20.554920      -559.3278
   1   2.0000     -15.556310      -423.3087
   2   2.0000     -11.279488      -306.9305
   3   2.0000     -11.259924      -306.3981
   4   2.0000     -11.257930      -306.3439
   5   2.0000     -11.250670      -306.1463
   6   2.0000     -11.227712      -305.5216
   7   2.0000     -11.223731      -305.4133
   8   2.0000     -11.213791      -305.1428
   9   2.0000      -1.362258       -37.0689
  10   2.0000      -1.281291       -34.8657
  11   2.0000      -1.061592       -28.8874
  12   2.0000      -1.010603       -27.4999
  13   2.0000      -0.952001       -25.9053
  14   2.0000      -0.897635       -24.4259
  15   2.0000      -0.829389       -22.5688
  16   2.0000      -0.802714       -21.8430
  17   2.0000      -0.743046       -20.2193
  18   2.0000      -0.685406       -18.6509
  19   2.0000      -0.658111       -17.9081
  20   2.0000      -0.642505       -17.4835
  21   2.0000      -0.636921       -17.3315
  22   2.0000      -0.608299       -16.5527
  23   2.0000      -0.571296       -15.5458
  24   2.0000      -0.556151       -15.1336
  25   2.0000      -0.544564       -14.8183
  26   2.0000      -0.533677       -14.5221
  27   2.0000      -0.524139       -14.2625
  28   2.0000      -0.487494       -13.2654
  29   2.0000      -0.483414       -13.1544
  30   2.0000      -0.478465       -13.0197
  31   2.0000      -0.457119       -12.4389
  32   2.0000      -0.442088       -12.0298
  33   2.0000      -0.399095       -10.8599
  34   2.0000      -0.367407        -9.9977
  35   0.0000       0.134604         3.6628
  36   0.0000       0.150844         4.1047
  37   0.0000       0.163299         4.4436
  38   0.0000       0.172827         4.7029
  39   0.0000       0.177600         4.8328

MULLIKEN ATOMIC CHARGES
-----------------------
   0 C :   -0.363599
   1 C :   -0.248124
   2 C :    0.024594
   3 O :   -0.482535
   4 C :    0.053379
   5 C :   -0.218391
   6 C :   -0.067343
   7 C :   -0.210733
   8 N :   -0.276367
   9 H :    0.125636
  10 H :    0.121105
  11 H :    0.135200
  12 H :    0.131774
  13 H :    0.112069
  14 H :    0.091452
  15 H :    0.316722
  16 H :    0.103619
  17 H :    0.128850
  18 H :    0.127084
  19 H :    0.129064
  20 H :    0.129217
  21 H :    0.137328
Sum of atomic charges:   -0.0000000

LOEWDIN ATOMIC CHARGES
----------------------
   0 C :   -0.318911
   1 C :   -0.280807
   2 C :   -0.334286
   3 O :   -0.019790
   4 C :   -0.241838
   5 C :   -0.210219
   6 C :   -0.219255
   7 C :   -0.260907
   8 N :    0.102600
   9 H :    0.120864
  10 H :    0.121870
  11 H :    0.121091
  12 H :    0.141305
  13 H :    0.143279
  14 H :    0.151055
  15 H :    0.172423
  16 H :    0.154002
  17 H :    0.133703
  18 H :    0.136929
  19 H :    0.130642
  20 H :    0.131307
  21 H :    0.124943

  Mayer bond orders larger than 0.1
B(  0-C ,  1-C ) :   0.9228 B(  0-C ,  9-H ) :   0.9346 B(  0-C , 10-H ) :   0.9362
B(  0-C , 11-H ) :   0.9434 B(  1-C ,  2-C ) :   0.9571 B(  1-C , 12-H ) :   0.9188
B(  1-C , 13-H ) :   0.9284 B(  2-C ,  3-O ) :   0.9091 B(  2-C ,  4-C ) :   0.9108
B(  2-C , 14-H ) :   0.9280 B(  3-O , 15-H ) :   0.8421 B(  4-C ,  5-C ) :   0.9535
B(  4-C ,  8-N ) :   0.8863 B(  4-C , 16-H ) :   0.9107 B(  5-C ,  6-C ) :   0.9535
B(  5-C , 17-H ) :   0.9358 B(  5-C , 18-H ) :   0.9093 B(  6-C ,  7-C ) :   0.9518
B(  6-C ,  8-N ) :   0.8711 B(  6-C , 19-H ) :   0.9069 B(  7-C ,  8-N ) :   0.8798
B(  7-C , 20-H ) :   0.9328 B(  7-C , 21-H ) :   0.9018

MP2 TOTAL ENERGY:     -403.610678893 Eh
FINAL SINGLE POINT ENERGY      -403.610678892666

DIPOLE MOMENT
-------------
                                X             Y             Z
Electronic contribution:      1.81939      -4.77996       2.10395
Nuclear contribution   :     -1.77715       4.73304      -2.17006
                        -----------------------------------------
Total Dipole Moment    :      0.04224      -0.04693      -0.06611
                        -----------------------------------------
Magnitude (a.u.)       :      0.09142
Magnitude (Debye)      :      0.23236

                             ****ORCA TERMINATED NORMALLY****
TOTAL RUN TIME: 0 days 0 hours 19 minutes 44 seconds 348 msec
