                         Program Version 3.0.3 - RELEASE   -
|  1> ! RI-MP2 RIJK def2-TZVP def2-TZVP/C def2-TZVP/JK TIGHTSCF
|  2> % maxcore 2000
|  3> % mp2 density relaxed end
|  4> *xyz 0 1
|  5>  C       -1.4147620963     1.4193923479    -1.2773747984
|  6>  C       -1.6393836544    -0.0751384217    -1.2423259223
|  7>  O       -2.1856600797    -0.7149789833    -2.1071855101
|  8>  O       -1.1496845577    -0.5981094922    -0.1004748055
|  9>  C       -1.2820382106    -2.0231555848     0.1140486307
| 10>  C       -0.3124925848    -2.7814097604    -0.7822963077
| 11>  C       -1.1520953891    -2.3614107754     1.6184642393
| 12>  C       -2.3734251499    -3.3115047341     1.4726318004
| 13>  C       -2.7263020573    -2.5917477749     0.1419260378
| 14>  H       -1.8059477163     1.8231576994    -2.2104158421
| 15>  H       -1.9135685830     1.8935946068    -0.4272513110
| 16>  H       -0.3473269533     1.6411876626    -1.1911913188
| 17>  H        0.7099541376    -2.4249207783    -0.6204450640
| 18>  H       -0.3397784474    -3.8501152089    -0.5479466012
| 19>  H       -0.5769383442    -2.6507261034    -1.8332100712
| 20>  H       -0.2011290462    -2.7834583362     1.9528770499
| 21>  H       -1.3877942073    -1.4844788851     2.2259148719
| 22>  H       -2.0761120108    -4.3519610421     1.3195374368
| 23>  H       -3.1205872104    -3.2808652090     2.2675108824
| 24>  H       -3.4561013092    -1.7938068131     0.2952765573
| 25>  H       -3.0367140696    -3.1922387138    -0.7139873743
| 26> *
| 27>
| 28>                          ****END OF INPUT****

CARTESIAN COORDINATES (ANGSTROEM)
---------------------------------
  C     -1.414762    1.419392   -1.277375
  C     -1.639384   -0.075138   -1.242326
  O     -2.185660   -0.714979   -2.107186
  O     -1.149685   -0.598109   -0.100475
  C     -1.282038   -2.023156    0.114049
  C     -0.312493   -2.781410   -0.782296
  C     -1.152095   -2.361411    1.618464
  C     -2.373425   -3.311505    1.472632
  C     -2.726302   -2.591748    0.141926
  H     -1.805948    1.823158   -2.210416
  H     -1.913569    1.893595   -0.427251
  H     -0.347327    1.641188   -1.191191
  H      0.709954   -2.424921   -0.620445
  H     -0.339778   -3.850115   -0.547947
  H     -0.576938   -2.650726   -1.833210
  H     -0.201129   -2.783458    1.952877
  H     -1.387794   -1.484479    2.225915
  H     -2.076112   -4.351961    1.319537
  H     -3.120587   -3.280865    2.267511
  H     -3.456101   -1.793807    0.295277
  H     -3.036714   -3.192239   -0.713987

 Total Charge           Charge          ....    0
 Multiplicity           Mult            ....    1
 Number of Electrons    NEL             ....   70
 Basis Dimension        Dim             ....  351

ORBITAL ENERGIES
----------------

  NO   OCC          E(Eh)            E(eV)
   0   2.0000     -20.592110      -560.3398
   1   2.0000     -20.536194      -558.8182
   2   2.0000     -11.375684      -309.5481
   3   2.0000     -11.294842      -307.3483
   4   2.0000     -11.237339      -305.7835
   5   2.0000     -11.224747      -305.4409
   6   2.0000     -11.223657      -305.4112
   7   2.0000     -11.221336      -305.3481
   8   2.0000     -11.215521      -305.1898
   9   2.0000      -1.451835       -39.5064
  10   2.0000      -1.354226       -36.8504
  11   2.0000      -1.138556       -30.9817
  12   2.0000      -1.018304       -27.7095
  13   2.0000      -0.978025       -26.6134
  14   2.0000      -0.908746       -24.7282
  15   2.0000      -0.871482       -23.7142
  16   2.0000      -0.793282       -21.5863
  17   2.0000      -0.719948       -19.5908
  18   2.0000      -0.681900       -18.5554
  19   2.0000      -0.677685       -18.4407
  20   2.0000      -0.660331       -17.9685
  21   2.0000      -0.633520       -17.2389
  22   2.0000      -0.598941       -16.2980
  23   2.0000      -0.586183       -15.9509
  24   2.0000      -0.570241       -15.5170
  25   2.0000      -0.562670       -15.3110
  26   2.0000      -0.549355       -14.9487
  27   2.0000      -0.531171       -14.4539
  28   2.0000      -0.515287       -14.0217
  29   2.0000      -0.487269       -13.2593
  30   2.0000      -0.476170       -12.9572
  31   2.0000      -0.470192       -12.7946
  32   2.0000      -0.454189       -12.3591
  33   2.0000      -0.429590       -11.6897
  34   2.0000      -0.423264       -11.5176
  35   0.0000       0.131654         3.5825
  36   0.0000       0.150590         4.0978
  37   0.0000       0.164413         4.4739
  38   0.0000       0.174495         4.7483
  39   0.0000       0.180402         4.9090

MULLIKEN ATOMIC CHARGES
-----------------------
   0 C :   -0.403760
   1 C :    0.333310
   2 O :   -0.342792
   3 O :   -0.262415
   4 C :    0.261892
   5 C :   -0.477434
   6 C :   -0.227115
   7 C :   -0.249978
   8 C :   -0.246287
   9 H :    0.152574
  10 H :    0.147407
  11 H :    0.148738
  12 H :    0.133135
  13 H :    0.134241
  14 H :    0.165204
  15 H :    0.119712
  16 H :    0.122155
  17 H :    0.122249
  18 H :    0.118559
  19 H :    0.119580
  20 H :    0.131025
Sum of atomic charges:   -0.0000000

LOEWDIN ATOMIC CHARGES
----------------------
   0 C :   -0.274123
   1 C :   -0.502365
   2 O :    0.120380
   3 O :    0.282098
   4 C :   -0.319636
   5 C :   -0.267941
   6 C :   -0.199887
   7 C :   -0.239726
   8 C :   -0.203944
   9 H :    0.134610
  10 H :    0.137861
  11 H :    0.137963
  12 H :    0.128527
  13 H :    0.132948
  14 H :    0.134053
  15 H :    0.127763
  16 H :    0.140804
  17 H :    0.131700
  18 H :    0.124552
  19 H :    0.142266
  20 H :    0.132098

  Mayer bond orders larger than 0.1
B(  0-C ,  1-C ) :   0.9239 B(  0-C ,  9-H ) :   0.9455 B(  0-C , 10-H ) :   0.9170
B(  0-C , 11-H ) :   0.9188 B(  1-C ,  2-O ) :   1.9134 B(  1-C ,  3-O ) :   1.0956
B(  3-O ,  4-C ) :   0.8397 B(  4-C ,  5-C ) :   0.9093 B(  4-C ,  6-C ) :   0.8866
B(  4-C ,  8-C ) :   0.9207 B(  5-C , 12-H ) :   0.9369 B(  5-C , 13-H ) :   0.9231
B(  5-C , 14-H ) :   0.9362 B(  6-C ,  7-C ) :   0.9380 B(  6-C , 15-H ) :   0.9279
B(  6-C , 16-H ) :   0.9197 B(  7-C ,  8-C ) :   0.9463 B(  7-C , 17-H ) :   0.9277
B(  7-C , 18-H ) :   0.9268 B(  8-C , 19-H ) :   0.9176 B(  8-C , 20-H ) :   0.9315

MP2 TOTAL ENERGY:     -423.554965976 Eh
FINAL SINGLE POINT ENERGY      -423.554965976245

DIPOLE MOMENT
-------------
                                X             Y             Z
Electronic contribution:     -0.98709       3.22092      -2.86183
Nuclear contribution   :      1.27167      -3.14112       3.46911
                        -----------------------------------------
Total Dipole Moment    :      0.28459       0.07980       0.60728
                        -----------------------------------------
Magnitude (a.u.)       :      0.67538
Magnitude (Debye)      :      1.71669

                             ****ORCA TERMINATED NORMALLY****
TOTAL RUN TIME: 0 days 0 hours 21 minutes 9 seconds 33 msec
