                         Program Version 3.0.3 - RELEASE   -
|  1> ! RI-MP2 RIJK def2-TZVP def2-TZVP/C def2-TZVP/JK TIGHTSCF
|  2> % maxcore 2000
|  3> % mp2 density relaxed end
|  4> *xyz 0 1
|  5>  C       -0.0332102063     1.3590944255     0.0739866306
|  6>  O        0.0267766955    -0.0724819563     0.0040162298
|  7>  C        0.6117046782    -0.5608029920    -1.1062596747
|  8>  O        1.0630658762     0.1186033736    -1.9965805726
|  9>  C        0.6278514235    -2.0011851635    -1.0915440937
| 10>  C        0.6854795797    -3.2096406299    -1.1640066673
| 11>  C        0.7409380858    -4.5628968523    -1.2276465658
| 12>  C        0.7909241728    -5.7713518468    -1.2851756425
| 13>  C        0.8499486445    -7.2186145942    -1.3535999394
| 14>  H        0.9717894289     1.7880137113     0.0532791617
| 15>  H       -0.6048138338     1.7619876621    -0.7658772429
| 16>  H       -0.5275951206     1.5852589840     1.0183276239
| 17>  H        1.4354354804    -7.5513295466    -2.2176584773
| 18>  H        1.3119259566    -7.6354733736    -0.4517671533
| 19>  H       -0.1547217611    -7.6468240913    -1.4424542764
| 20> *
| 21>
| 22>                          ****END OF INPUT****

CARTESIAN COORDINATES (ANGSTROEM)
---------------------------------
  C     -0.033210    1.359094    0.073987
  O      0.026777   -0.072482    0.004016
  C      0.611705   -0.560803   -1.106260
  O      1.063066    0.118603   -1.996581
  C      0.627851   -2.001185   -1.091544
  C      0.685480   -3.209641   -1.164007
  C      0.740938   -4.562897   -1.227647
  C      0.790924   -5.771352   -1.285176
  C      0.849949   -7.218615   -1.353600
  H      0.971789    1.788014    0.053279
  H     -0.604814    1.761988   -0.765877
  H     -0.527595    1.585259    1.018328
  H      1.435435   -7.551330   -2.217658
  H      1.311926   -7.635473   -0.451767
  H     -0.154722   -7.646824   -1.442454

 Total Charge           Charge          ....    0
 Multiplicity           Mult            ....    1
 Number of Electrons    NEL             ....   64
 Basis Dimension        Dim             ....  315

ORBITAL ENERGIES
----------------

  NO   OCC          E(Eh)            E(eV)
   0   2.0000     -20.613408      -560.9194
   1   2.0000     -20.556288      -559.3650
   2   2.0000     -11.409249      -310.4614
   3   2.0000     -11.290620      -307.2334
   4   2.0000     -11.281884      -306.9957
   5   2.0000     -11.272890      -306.7509
   6   2.0000     -11.269082      -306.6473
   7   2.0000     -11.261181      -306.4323
   8   2.0000     -11.256458      -306.3038
   9   2.0000      -1.472007       -40.0553
  10   2.0000      -1.371193       -37.3121
  11   2.0000      -1.110193       -30.2099
  12   2.0000      -1.067485       -29.0478
  13   2.0000      -1.007111       -27.4049
  14   2.0000      -0.972867       -26.4730
  15   2.0000      -0.877340       -23.8736
  16   2.0000      -0.807144       -21.9635
  17   2.0000      -0.752308       -20.4713
  18   2.0000      -0.686785       -18.6884
  19   2.0000      -0.680899       -18.5282
  20   2.0000      -0.655931       -17.8488
  21   2.0000      -0.611229       -16.6324
  22   2.0000      -0.610510       -16.6128
  23   2.0000      -0.608519       -16.5587
  24   2.0000      -0.566463       -15.4142
  25   2.0000      -0.540423       -14.7057
  26   2.0000      -0.496247       -13.5036
  27   2.0000      -0.486206       -13.2303
  28   2.0000      -0.474564       -12.9136
  29   2.0000      -0.470846       -12.8124
  30   2.0000      -0.364763        -9.9257
  31   2.0000      -0.362121        -9.8538
  32   0.0000       0.069322         1.8864
  33   0.0000       0.110366         3.0032
  34   0.0000       0.124815         3.3964
  35   0.0000       0.151316         4.1175
  36   0.0000       0.180670         4.9163

MULLIKEN ATOMIC CHARGES
-----------------------
   0 C :   -0.228272
   1 O :   -0.234312
   2 C :    0.195973
   3 O :   -0.302675
   4 C :    0.063598
   5 C :    0.016770
   6 C :   -0.031432
   7 C :    0.026912
   8 C :   -0.458125
   9 H :    0.144334
  10 H :    0.144333
  11 H :    0.147046
  12 H :    0.172626
  13 H :    0.171606
  14 H :    0.171615
Sum of atomic charges:    0.0000000

LOEWDIN ATOMIC CHARGES
----------------------
   0 C :   -0.304790
   1 O :    0.243798
   2 C :   -0.487770
   3 O :    0.148380
   4 C :    0.021367
   5 C :   -0.026369
   6 C :   -0.063703
   7 C :   -0.035877
   8 C :   -0.284363
   9 H :    0.115394
  10 H :    0.115394
  11 H :    0.116509
  12 H :    0.147339
  13 H :    0.147296
  14 H :    0.147394

  Mayer bond orders larger than 0.1
B(  0-C ,  1-O ) :   0.8385 B(  0-C ,  9-H ) :   0.9402 B(  0-C , 10-H ) :   0.9402
B(  0-C , 11-H ) :   0.9323 B(  1-O ,  2-C ) :   1.2198 B(  2-C ,  3-O ) :   1.9480
B(  2-C ,  4-C ) :   0.9252 B(  4-C ,  5-C ) :   2.6102 B(  4-C ,  7-C ) :   0.1121
B(  5-C ,  6-C ) :   1.3002 B(  6-C ,  7-C ) :   2.5592 B(  7-C ,  8-C ) :   0.8253
B(  8-C , 12-H ) :   0.9418 B(  8-C , 13-H ) :   0.9415 B(  8-C , 14-H ) :   0.9417

MP2 TOTAL ENERGY:     -419.875697751 Eh
FINAL SINGLE POINT ENERGY      -419.875697751314

DIPOLE MOMENT
-------------
                                X             Y             Z
Electronic contribution:      0.72991       2.82672      -1.48902
Nuclear contribution   :     -1.00217      -3.58653       2.03619
                        -----------------------------------------
Total Dipole Moment    :     -0.27225      -0.75981       0.54717
                        -----------------------------------------
Magnitude (a.u.)       :      0.97511
Magnitude (Debye)      :      2.47852

                             ****ORCA TERMINATED NORMALLY****
TOTAL RUN TIME: 0 days 0 hours 11 minutes 13 seconds 674 msec
