                         Program Version 3.0.3 - RELEASE   -
|  1> ! RI-MP2 RIJK def2-TZVP def2-TZVP/C def2-TZVP/JK TIGHTSCF
|  2> % maxcore 2000
|  3> % mp2 density relaxed end
|  4> *xyz 0 1
|  5>  C       -0.2586073590     1.2781916060     0.1302245652
|  6>  N       -0.3959678582    -0.1319540049     0.4418729885
|  7>  C        0.5542666890    -0.6556306733     1.1069051785
|  8>  N        1.7507900800    -0.1492057848     1.6045677926
|  9>  N        2.4455936022    -1.0626961481     2.3841636825
| 10>  C        1.7576480980    -2.1556485632     2.2792244616
| 11>  C        2.1224145457    -3.4685920299     2.8930005382
| 12>  O        1.0022419242    -4.0983204382     3.4987188903
| 13>  N        0.6331048041    -1.9890270990     1.5080010492
| 14>  H        0.6385335139     1.4975836778    -0.4728192947
| 15>  H       -1.1263919771     1.6078509373    -0.4470269768
| 16>  H       -0.2092222829     1.9170483077     1.0298769350
| 17>  H        1.9598392064     0.8265385736     1.7158912941
| 18>  H        2.4617882943    -4.1659164305     2.1187194523
| 19>  H        2.9561309982    -3.3053774349     3.5866575136
| 20>  H        0.7309598492    -3.5597172612     4.2500544565
| 21>  H       -0.1083627781    -2.6558259944     1.3824686233
| 22> *
| 23>
| 24>                          ****END OF INPUT****

CARTESIAN COORDINATES (ANGSTROEM)
---------------------------------
  C     -0.258607    1.278192    0.130225
  N     -0.395968   -0.131954    0.441873
  C      0.554267   -0.655631    1.106905
  N      1.750790   -0.149206    1.604568
  N      2.445594   -1.062696    2.384164
  C      1.757648   -2.155649    2.279224
  C      2.122415   -3.468592    2.893001
  O      1.002242   -4.098320    3.498719
  N      0.633105   -1.989027    1.508001
  H      0.638534    1.497584   -0.472819
  H     -1.126392    1.607851   -0.447027
  H     -0.209222    1.917048    1.029877
  H      1.959839    0.826539    1.715891
  H      2.461788   -4.165916    2.118719
  H      2.956131   -3.305377    3.586658
  H      0.730960   -3.559717    4.250054
  H     -0.108363   -2.655826    1.382469

 Total Charge           Charge          ....    0
 Multiplicity           Mult            ....    1
 Number of Electrons    NEL             ....   68
 Basis Dimension        Dim             ....  327

ORBITAL ENERGIES
----------------

  NO   OCC          E(Eh)            E(eV)
   0   2.0000     -20.587790      -560.2222
   1   2.0000     -15.618739      -425.0075
   2   2.0000     -15.611834      -424.8196
   3   2.0000     -15.602131      -424.5556
   4   2.0000     -15.512723      -422.1227
   5   2.0000     -11.350398      -308.8600
   6   2.0000     -11.325435      -308.1808
   7   2.0000     -11.313898      -307.8668
   8   2.0000     -11.238866      -305.8251
   9   2.0000      -1.411646       -38.4128
  10   2.0000      -1.388973       -37.7959
  11   2.0000      -1.235355       -33.6157
  12   2.0000      -1.209756       -32.9191
  13   2.0000      -1.102255       -29.9939
  14   2.0000      -0.979882       -26.6640
  15   2.0000      -0.930100       -25.3093
  16   2.0000      -0.858731       -23.3673
  17   2.0000      -0.815570       -22.1928
  18   2.0000      -0.750959       -20.4346
  19   2.0000      -0.695784       -18.9333
  20   2.0000      -0.675227       -18.3739
  21   2.0000      -0.664484       -18.0815
  22   2.0000      -0.651179       -17.7195
  23   2.0000      -0.622169       -16.9301
  24   2.0000      -0.619586       -16.8598
  25   2.0000      -0.569375       -15.4935
  26   2.0000      -0.546895       -14.8818
  27   2.0000      -0.537824       -14.6349
  28   2.0000      -0.504938       -13.7401
  29   2.0000      -0.488470       -13.2920
  30   2.0000      -0.473411       -12.8822
  31   2.0000      -0.433599       -11.7988
  32   2.0000      -0.397896       -10.8273
  33   2.0000      -0.308474        -8.3940
  34   0.0000       0.116396         3.1673
  35   0.0000       0.137347         3.7374
  36   0.0000       0.161068         4.3829
  37   0.0000       0.169792         4.6203
  38   0.0000       0.171405         4.6642

MULLIKEN ATOMIC CHARGES
-----------------------
   0 C :   -0.321045
   1 N :   -0.292451
   2 C :    0.230506
   3 N :   -0.227596
   4 N :   -0.196241
   5 C :    0.096508
   6 C :   -0.035304
   7 O :   -0.471794
   8 N :   -0.295396
   9 H :    0.121430
  10 H :    0.145669
  11 H :    0.111391
  12 H :    0.264199
  13 H :    0.132997
  14 H :    0.142767
  15 H :    0.324389
  16 H :    0.269968
Sum of atomic charges:    0.0000000

LOEWDIN ATOMIC CHARGES
----------------------
   0 C :   -0.357024
   1 N :    0.001849
   2 C :   -0.422777
   3 N :    0.085469
   4 N :    0.048264
   5 C :   -0.363160
   6 C :   -0.307209
   7 O :   -0.042429
   8 N :    0.188913
   9 H :    0.105464
  10 H :    0.116566
  11 H :    0.102258
  12 H :    0.183946
  13 H :    0.142068
  14 H :    0.136571
  15 H :    0.179788
  16 H :    0.201442

  Mayer bond orders larger than 0.1
B(  0-C ,  1-N ) :   0.9069 B(  0-C ,  9-H ) :   0.9284 B(  0-C , 10-H ) :   0.9492
B(  0-C , 11-H ) :   0.9269 B(  1-N ,  2-C ) :   1.9272 B(  2-C ,  3-N ) :   1.0825
B(  2-C ,  8-N ) :   1.0363 B(  3-N ,  4-N ) :   0.9285 B(  3-N , 12-H ) :   0.8694
B(  4-N ,  5-C ) :   1.7629 B(  5-C ,  6-C ) :   0.9062 B(  5-C ,  8-N ) :   1.1065
B(  6-C ,  7-O ) :   0.8808 B(  6-C , 13-H ) :   0.9166 B(  6-C , 14-H ) :   0.9471
B(  7-O , 15-H ) :   0.8415 B(  8-N , 16-H ) :   0.8526

MP2 TOTAL ENERGY:     -450.590009611 Eh
FINAL SINGLE POINT ENERGY      -450.590009610563

DIPOLE MOMENT
-------------
                                X             Y             Z
Electronic contribution:      1.42949      -3.09016       1.67487
Nuclear contribution   :     -1.09366       3.17631      -1.06900
                        -----------------------------------------
Total Dipole Moment    :      0.33583       0.08615       0.60587
                        -----------------------------------------
Magnitude (a.u.)       :      0.69806
Magnitude (Debye)      :      1.77432

                             ****ORCA TERMINATED NORMALLY****
TOTAL RUN TIME: 0 days 0 hours 16 minutes 39 seconds 659 msec
