                         Program Version 3.0.3 - RELEASE   -
|  1> ! RI-MP2 RIJK def2-TZVP def2-TZVP/C def2-TZVP/JK TIGHTSCF
|  2> % maxcore 2000
|  3> % mp2 density relaxed end
|  4> *xyz 0 1
|  5>  O       -0.2307511589     1.3898426871    -0.0837124822
|  6>  C        0.0044524386     0.0103149290    -0.0072652694
|  7>  C        0.6122510713    -0.5365348046    -1.3117526752
|  8>  C       -0.2868379082    -0.2621905483    -2.5238265436
|  9>  C        0.3196286733    -0.7749091742    -3.8066699387
| 10>  C        0.2163991194    -0.0420512481    -5.0741509353
| 11>  O        1.4319850118    -0.0373174105    -4.3238621272
| 12>  C        0.9087257006    -0.3047948634     1.1662061642
| 13>  O        1.3446551881     0.5613933923     1.8854104070
| 14>  H        0.2735577172     1.7821492757     0.6466642262
| 15>  H       -0.9454253691    -0.5270487030     0.1788452179
| 16>  H        1.5876340741    -0.0646049412    -1.4758863474
| 17>  H        0.7828274306    -1.6162207765    -1.2026625287
| 18>  H       -1.2664473205    -0.7374230091    -2.3771123848
| 19>  H       -0.4558170779     0.8155315806    -2.6027749303
| 20>  H        0.4540572094    -1.8579060877    -3.8617352938
| 21>  H        0.2512781053    -0.5815062548    -6.0197735468
| 22>  H       -0.3194026627     0.9060316507    -5.1002674912
| 23>  H        1.1538186976    -1.3750043640     1.3259534993
| 24> *
| 25>
| 26>                          ****END OF INPUT****

CARTESIAN COORDINATES (ANGSTROEM)
---------------------------------
  O     -0.230751    1.389843   -0.083712
  C      0.004452    0.010315   -0.007265
  C      0.612251   -0.536535   -1.311753
  C     -0.286838   -0.262191   -2.523827
  C      0.319629   -0.774909   -3.806670
  C      0.216399   -0.042051   -5.074151
  O      1.431985   -0.037317   -4.323862
  C      0.908726   -0.304795    1.166206
  O      1.344655    0.561393    1.885410
  H      0.273558    1.782149    0.646664
  H     -0.945425   -0.527049    0.178845
  H      1.587634   -0.064605   -1.475886
  H      0.782827   -1.616221   -1.202663
  H     -1.266447   -0.737423   -2.377112
  H     -0.455817    0.815532   -2.602775
  H      0.454057   -1.857906   -3.861735
  H      0.251278   -0.581506   -6.019774
  H     -0.319403    0.906032   -5.100267
  H      1.153819   -1.375004    1.325953

 Total Charge           Charge          ....    0
 Multiplicity           Mult            ....    1
 Number of Electrons    NEL             ....   70
 Basis Dimension        Dim             ....  339

ORBITAL ENERGIES
----------------

  NO   OCC          E(Eh)            E(eV)
   0   2.0000     -20.579493      -559.9965
   1   2.0000     -20.568977      -559.7103
   2   2.0000     -20.561967      -559.5196
   3   2.0000     -11.348623      -308.8117
   4   2.0000     -11.303768      -307.5912
   5   2.0000     -11.291041      -307.2448
   6   2.0000     -11.284740      -307.0734
   7   2.0000     -11.243557      -305.9527
   8   2.0000     -11.236947      -305.7729
   9   2.0000      -1.425584       -38.7921
  10   2.0000      -1.412498       -38.4360
  11   2.0000      -1.369174       -37.2571
  12   2.0000      -1.087408       -29.5899
  13   2.0000      -1.003628       -27.3101
  14   2.0000      -0.924598       -25.1596
  15   2.0000      -0.872157       -23.7326
  16   2.0000      -0.808020       -21.9874
  17   2.0000      -0.801860       -21.8197
  18   2.0000      -0.734172       -19.9778
  19   2.0000      -0.703660       -19.1476
  20   2.0000      -0.688941       -18.7470
  21   2.0000      -0.657501       -17.8915
  22   2.0000      -0.649774       -17.6812
  23   2.0000      -0.610743       -16.6192
  24   2.0000      -0.588740       -16.0204
  25   2.0000      -0.558919       -15.2090
  26   2.0000      -0.545374       -14.8404
  27   2.0000      -0.539281       -14.6746
  28   2.0000      -0.531593       -14.4654
  29   2.0000      -0.522267       -14.2116
  30   2.0000      -0.499543       -13.5933
  31   2.0000      -0.459877       -12.5139
  32   2.0000      -0.448465       -12.2034
  33   2.0000      -0.444052       -12.0833
  34   2.0000      -0.427615       -11.6360
  35   0.0000       0.115644         3.1468
  36   0.0000       0.134721         3.6659
  37   0.0000       0.156518         4.2591
  38   0.0000       0.164459         4.4752
  39   0.0000       0.174532         4.7493

MULLIKEN ATOMIC CHARGES
-----------------------
   0 O :   -0.480233
   1 C :    0.085183
   2 C :   -0.230560
   3 C :   -0.245139
   4 C :    0.058969
   5 C :   -0.074399
   6 O :   -0.338900
   7 C :    0.119599
   8 O :   -0.292320
   9 H :    0.334402
  10 H :    0.096132
  11 H :    0.134693
  12 H :    0.114005
  13 H :    0.110418
  14 H :    0.150792
  15 H :    0.122678
  16 H :    0.115839
  17 H :    0.118497
  18 H :    0.100347
Sum of atomic charges:    0.0000000

LOEWDIN ATOMIC CHARGES
----------------------
   0 O :   -0.001162
   1 C :   -0.370079
   2 C :   -0.238344
   3 C :   -0.248705
   4 C :   -0.296401
   5 C :   -0.266189
   6 O :    0.140691
   7 C :   -0.269933
   8 O :    0.128444
   9 H :    0.183482
  10 H :    0.151476
  11 H :    0.149769
  12 H :    0.141831
  13 H :    0.145090
  14 H :    0.153868
  15 H :    0.136255
  16 H :    0.118604
  17 H :    0.120901
  18 H :    0.120402

  Mayer bond orders larger than 0.1
B(  0-O ,  1-C ) :   1.0924 B(  0-O ,  2-C ) :  -0.1030 B(  0-O ,  9-H ) :   0.8049
B(  1-C ,  2-C ) :   0.8648 B(  1-C ,  7-C ) :   0.8788 B(  1-C , 10-H ) :   0.9299
B(  2-C ,  3-C ) :   0.9255 B(  2-C , 11-H ) :   0.9109 B(  2-C , 12-H ) :   0.9200
B(  3-C ,  4-C ) :   0.9186 B(  3-C , 13-H ) :   0.9269 B(  3-C , 14-H ) :   0.9339
B(  4-C ,  5-C ) :   0.9936 B(  4-C ,  6-O ) :   0.8649 B(  4-C , 15-H ) :   0.9115
B(  5-C ,  6-O ) :   0.9175 B(  5-C , 16-H ) :   0.9223 B(  5-C , 17-H ) :   0.9078
B(  7-C ,  8-O ) :   1.9249 B(  7-C , 18-H ) :   0.9318

MP2 TOTAL ENERGY:     -459.410356782 Eh
FINAL SINGLE POINT ENERGY      -459.410356781791

DIPOLE MOMENT
-------------
                                X             Y             Z
Electronic contribution:      2.45931       2.29221       4.51560
Nuclear contribution   :     -3.14466      -3.34478      -4.78649
                        -----------------------------------------
Total Dipole Moment    :     -0.68535      -1.05257      -0.27089
                        -----------------------------------------
Magnitude (a.u.)       :      1.28491
Magnitude (Debye)      :      3.26598

                             ****ORCA TERMINATED NORMALLY****
TOTAL RUN TIME: 0 days 0 hours 17 minutes 29 seconds 750 msec
