                         Program Version 3.0.3 - RELEASE   -
|  1> ! RI-MP2 RIJK def2-TZVP def2-TZVP/C def2-TZVP/JK TIGHTSCF
|  2> % maxcore 2000
|  3> % mp2 density relaxed end
|  4> *xyz 0 1
|  5>  C        0.9537376242    -0.8178651229    -1.4046559380
|  6>  C        0.2035047644    -0.1477674527    -0.2451765278
|  7>  C        0.6671247731    -0.6357112808     1.1265605516
|  8>  C        1.9704396231     0.0194485131     1.5477139190
|  9>  O        2.5311583958     0.8647388295     0.8906990823
| 10>  C       -0.3487199640    -0.8259792051     2.3181093514
| 11>  C       -0.9762681540    -2.0538181989     1.6162167463
| 12>  C        0.5638304713    -2.1527424036     1.5484077987
| 13>  O        0.6116316371    -1.7435554959     2.9706008897
| 14>  H        0.7820944414    -1.9000339741    -1.4228631026
| 15>  H        0.6199770452    -0.4141508585    -2.3650466655
| 16>  H        2.0296214544    -0.6430192659    -1.3248291476
| 17>  H        0.3815316382     0.9311466822    -0.2849239459
| 18>  H       -0.8724419363    -0.2940745462    -0.3689403981
| 19>  H        2.3798351154    -0.3263594096     2.5128747381
| 20>  H       -0.8147199361    -0.0611475926     2.9404183204
| 21>  H       -1.4375047964    -2.7670351818     2.2997901912
| 22>  H       -1.5456812528    -1.9182881730     0.6976340109
| 23>  H        1.1981101460    -2.9865307432     1.2462260660
| 24> *
| 25>
| 26>                          ****END OF INPUT****

CARTESIAN COORDINATES (ANGSTROEM)
---------------------------------
  C      0.953738   -0.817865   -1.404656
  C      0.203505   -0.147767   -0.245177
  C      0.667125   -0.635711    1.126561
  C      1.970440    0.019449    1.547714
  O      2.531158    0.864739    0.890699
  C     -0.348720   -0.825979    2.318109
  C     -0.976268   -2.053818    1.616217
  C      0.563830   -2.152742    1.548408
  O      0.611632   -1.743555    2.970601
  H      0.782094   -1.900034   -1.422863
  H      0.619977   -0.414151   -2.365047
  H      2.029621   -0.643019   -1.324829
  H      0.381532    0.931147   -0.284924
  H     -0.872442   -0.294075   -0.368940
  H      2.379835   -0.326359    2.512875
  H     -0.814720   -0.061148    2.940418
  H     -1.437505   -2.767035    2.299790
  H     -1.545681   -1.918288    0.697634
  H      1.198110   -2.986531    1.246226

 Total Charge           Charge          ....    0
 Multiplicity           Mult            ....    1
 Number of Electrons    NEL             ....   68
 Basis Dimension        Dim             ....  339

ORBITAL ENERGIES
----------------

  NO   OCC          E(Eh)            E(eV)
   0   2.0000     -20.566303      -559.6375
   1   2.0000     -20.553790      -559.2971
   2   2.0000     -11.324949      -308.1675
   3   2.0000     -11.322453      -308.0996
   4   2.0000     -11.321622      -308.0770
   5   2.0000     -11.266322      -306.5722
   6   2.0000     -11.253033      -306.2106
   7   2.0000     -11.232096      -305.6409
   8   2.0000     -11.220060      -305.3134
   9   2.0000      -1.417055       -38.5600
  10   2.0000      -1.390888       -37.8480
  11   2.0000      -1.113391       -30.2969
  12   2.0000      -1.032257       -28.0891
  13   2.0000      -0.967567       -26.3288
  14   2.0000      -0.903318       -24.5805
  15   2.0000      -0.855810       -23.2878
  16   2.0000      -0.821099       -22.3432
  17   2.0000      -0.726641       -19.7729
  18   2.0000      -0.719047       -19.5663
  19   2.0000      -0.687545       -18.7091
  20   2.0000      -0.647019       -17.6063
  21   2.0000      -0.617916       -16.8143
  22   2.0000      -0.590123       -16.0581
  23   2.0000      -0.581170       -15.8144
  24   2.0000      -0.558943       -15.2096
  25   2.0000      -0.551473       -15.0063
  26   2.0000      -0.537372       -14.6226
  27   2.0000      -0.518255       -14.1024
  28   2.0000      -0.493596       -13.4314
  29   2.0000      -0.487244       -13.2586
  30   2.0000      -0.482274       -13.1233
  31   2.0000      -0.444696       -12.1008
  32   2.0000      -0.442221       -12.0334
  33   2.0000      -0.399093       -10.8599
  34   0.0000       0.116988         3.1834
  35   0.0000       0.138691         3.7740
  36   0.0000       0.158226         4.3055
  37   0.0000       0.166818         4.5393
  38   0.0000       0.168891         4.5958

MULLIKEN ATOMIC CHARGES
-----------------------
   0 C :   -0.438004
   1 C :   -0.188150
   2 C :    0.140815
   3 C :    0.022350
   4 O :   -0.279093
   5 C :   -0.048099
   6 C :   -0.167147
   7 C :   -0.067425
   8 O :   -0.317965
   9 H :    0.120852
  10 H :    0.137558
  11 H :    0.153015
  12 H :    0.131643
  13 H :    0.116339
  14 H :    0.134066
  15 H :    0.145856
  16 H :    0.129171
  17 H :    0.125257
  18 H :    0.148960
Sum of atomic charges:    0.0000000

LOEWDIN ATOMIC CHARGES
----------------------
   0 C :   -0.308055
   1 C :   -0.249643
   2 C :   -0.202975
   3 C :   -0.253185
   4 O :    0.131860
   5 C :   -0.181882
   6 C :   -0.192301
   7 C :   -0.185920
   8 O :    0.134405
   9 H :    0.118773
  10 H :    0.123473
  11 H :    0.128086
  12 H :    0.150735
  13 H :    0.136809
  14 H :    0.127638
  15 H :    0.128486
  16 H :    0.136020
  17 H :    0.129045
  18 H :    0.128631

  Mayer bond orders larger than 0.1
B(  0-C ,  1-C ) :   0.9015 B(  0-C ,  9-H ) :   0.9382 B(  0-C , 10-H ) :   0.9394
B(  0-C , 11-H ) :   0.9379 B(  1-C ,  2-C ) :   0.9176 B(  1-C , 12-H ) :   0.9101
B(  1-C , 13-H ) :   0.9334 B(  2-C ,  3-C ) :   0.8480 B(  2-C ,  5-C ) :   0.8802
B(  2-C ,  7-C ) :   0.8727 B(  3-C ,  4-O ) :   1.9528 B(  3-C , 14-H ) :   0.9500
B(  5-C ,  6-C ) :   0.9187 B(  5-C ,  8-O ) :   0.8903 B(  5-C , 15-H ) :   0.8837
B(  6-C ,  7-C ) :   0.9081 B(  6-C , 16-H ) :   0.9208 B(  6-C , 17-H ) :   0.9233
B(  7-C ,  8-O ) :   0.8965 B(  7-C , 18-H ) :   0.8810

MP2 TOTAL ENERGY:     -422.253059050 Eh
FINAL SINGLE POINT ENERGY      -422.253059050232

DIPOLE MOMENT
-------------
                                X             Y             Z
Electronic contribution:      3.09897       1.44492       6.69291
Nuclear contribution   :     -4.07485      -1.99458      -6.99042
                        -----------------------------------------
Total Dipole Moment    :     -0.97588      -0.54966      -0.29751
                        -----------------------------------------
Magnitude (a.u.)       :      1.15887
Magnitude (Debye)      :      2.94561

                             ****ORCA TERMINATED NORMALLY****
TOTAL RUN TIME: 0 days 0 hours 18 minutes 5 seconds 56 msec
