                         Program Version 3.0.3 - RELEASE   -
|  1> ! RI-MP2 RIJK def2-TZVP def2-TZVP/C def2-TZVP/JK TIGHTSCF
|  2> % maxcore 2000
|  3> % mp2 density relaxed end
|  4> *xyz 0 1
|  5>  N       -1.9850235993    -2.8723829566    -0.7808489278
|  6>  C       -1.0508165397    -2.0311635630    -0.5799077420
|  7>  N       -1.2565024677    -0.6926261931    -0.3353524935
|  8>  C       -2.4513110809     0.0224149737    -0.2493584379
|  9>  C       -2.3937864575     1.3955115327     0.0191626893
| 10>  N       -3.4727936032     2.1606723889     0.1192664471
| 11>  C       -4.6447511871     1.5430451120    -0.0526025996
| 12>  N       -4.8265234687     0.2505761746    -0.3108435156
| 13>  C       -3.7379206616    -0.5151001913    -0.4106449723
| 14>  H       -1.5970720727    -3.7987825476    -0.9395408759
| 15>  H        0.0208154848    -2.2640569133    -0.5770705487
| 16>  H       -0.4207827152    -0.1473758653    -0.1933487890
| 17>  H       -1.4282923548     1.8852112576     0.1571189233
| 18>  H       -5.5364138847     2.1589945724     0.0268794755
| 19>  H       -3.8682340217    -1.5684293517    -0.6201514629
| 20> *
| 21>
| 22>                          ****END OF INPUT****

CARTESIAN COORDINATES (ANGSTROEM)
---------------------------------
  N     -1.985024   -2.872383   -0.780849
  C     -1.050817   -2.031164   -0.579908
  N     -1.256502   -0.692626   -0.335352
  C     -2.451311    0.022415   -0.249358
  C     -2.393786    1.395512    0.019163
  N     -3.472794    2.160672    0.119266
  C     -4.644751    1.543045   -0.052603
  N     -4.826523    0.250576   -0.310844
  C     -3.737921   -0.515100   -0.410645
  H     -1.597072   -3.798783   -0.939541
  H      0.020815   -2.264057   -0.577071
  H     -0.420783   -0.147376   -0.193349
  H     -1.428292    1.885211    0.157119
  H     -5.536414    2.158995    0.026879
  H     -3.868234   -1.568429   -0.620151

 Total Charge           Charge          ....    0
 Multiplicity           Mult            ....    1
 Number of Electrons    NEL             ....   64
 Basis Dimension        Dim             ....  315

ORBITAL ENERGIES
----------------

  NO   OCC          E(Eh)            E(eV)
   0   2.0000     -15.614361      -424.8884
   1   2.0000     -15.573152      -423.7670
   2   2.0000     -15.568410      -423.6380
   3   2.0000     -15.544730      -422.9936
   4   2.0000     -11.337150      -308.4995
   5   2.0000     -11.300059      -307.4902
   6   2.0000     -11.296441      -307.3918
   7   2.0000     -11.294134      -307.3290
   8   2.0000     -11.282510      -307.0127
   9   2.0000      -1.319478       -35.9048
  10   2.0000      -1.292598       -35.1734
  11   2.0000      -1.192047       -32.4372
  12   2.0000      -1.187244       -32.3065
  13   2.0000      -1.056294       -28.7432
  14   2.0000      -0.910966       -24.7886
  15   2.0000      -0.898858       -24.4592
  16   2.0000      -0.822012       -22.3681
  17   2.0000      -0.767806       -20.8931
  18   2.0000      -0.724665       -19.7192
  19   2.0000      -0.697771       -18.9873
  20   2.0000      -0.667726       -18.1697
  21   2.0000      -0.639584       -17.4040
  22   2.0000      -0.605114       -16.4660
  23   2.0000      -0.591154       -16.0861
  24   2.0000      -0.582883       -15.8611
  25   2.0000      -0.550316       -14.9749
  26   2.0000      -0.480652       -13.0792
  27   2.0000      -0.444189       -12.0870
  28   2.0000      -0.429784       -11.6950
  29   2.0000      -0.417791       -11.3687
  30   2.0000      -0.407105       -11.0779
  31   2.0000      -0.322292        -8.7700
  32   0.0000       0.094935         2.5833
  33   0.0000       0.111098         3.0231
  34   0.0000       0.113878         3.0988
  35   0.0000       0.150005         4.0818
  36   0.0000       0.168592         4.5876

MULLIKEN ATOMIC CHARGES
-----------------------
   0 N :   -0.434292
   1 C :    0.090709
   2 N :   -0.281079
   3 C :    0.214232
   4 C :   -0.104563
   5 N :   -0.248633
   6 C :    0.073798
   7 N :   -0.230700
   8 C :   -0.093495
   9 H :    0.221641
  10 H :    0.105962
  11 H :    0.239773
  12 H :    0.118917
  13 H :    0.136434
  14 H :    0.191296
Sum of atomic charges:   -0.0000000

LOEWDIN ATOMIC CHARGES
----------------------
   0 N :   -0.099366
   1 C :   -0.350091
   2 N :    0.140757
   3 C :   -0.198789
   4 C :   -0.192699
   5 N :    0.126828
   6 C :   -0.297961
   7 N :    0.131592
   8 C :   -0.169143
   9 H :    0.165944
  10 H :    0.120777
  11 H :    0.198450
  12 H :    0.139221
  13 H :    0.133583
  14 H :    0.150897

  Mayer bond orders larger than 0.1
B(  0-N ,  1-C ) :   1.8492 B(  0-N ,  9-H ) :   0.8598 B(  1-C ,  2-N ) :   1.0656
B(  1-C , 10-H ) :   0.9181 B(  2-N ,  3-C ) :   1.0013 B(  2-N , 11-H ) :   0.8728
B(  3-C ,  4-C ) :   1.2318 B(  3-C ,  8-C ) :   1.2995 B(  4-C ,  5-N ) :   1.4509
B(  4-C , 12-H ) :   0.9658 B(  5-N ,  6-C ) :   1.3407 B(  6-C ,  7-N ) :   1.3783
B(  6-C , 13-H ) :   0.9375 B(  7-N ,  8-C ) :   1.4054 B(  8-C , 14-H ) :   0.9146

MP2 TOTAL ENERGY:     -412.319612347 Eh
FINAL SINGLE POINT ENERGY      -412.319612347167

DIPOLE MOMENT
-------------
                                X             Y             Z
Electronic contribution:     -2.01445       2.38595       0.36612
Nuclear contribution   :      3.91327      -2.81845      -0.36527
                        -----------------------------------------
Total Dipole Moment    :      1.89882      -0.43249       0.00084
                        -----------------------------------------
Magnitude (a.u.)       :      1.94745
Magnitude (Debye)      :      4.95002

                             ****ORCA TERMINATED NORMALLY****
TOTAL RUN TIME: 0 days 0 hours 13 minutes 55 seconds 605 msec
