                         Program Version 3.0.3 - RELEASE   -
|  1> ! RI-MP2 RIJK def2-TZVP def2-TZVP/C def2-TZVP/JK TIGHTSCF
|  2> % maxcore 2000
|  3> % mp2 density relaxed end
|  4> *xyz 0 1
|  5>  C       -0.0967978503     1.5647547785    -0.1054536885
|  6>  C        0.0351716101     0.0652684606     0.0092948177
|  7>  C        1.3312927753    -0.6853685386    -0.2000318235
|  8>  N        2.5742252864     0.0248502342    -0.0254171337
|  9>  C        2.6891469081     0.4999415398     1.2433412072
| 10>  C        1.6484445439     0.1054331652     2.0329850493
| 11>  C        1.5558019197     0.3079235457     3.4545638634
| 12>  O        0.6532520284    -0.0985303045     4.1651248408
| 13>  C        0.6757368986    -0.6515299522     1.1898541838
| 14>  H        0.7503699853     2.0868679590     0.3447074975
| 15>  H       -0.1668349118     1.8737217582    -1.1543821671
| 16>  H       -1.0014387745     1.9082052248     0.4068715054
| 17>  H       -0.8144210259    -0.4843666430    -0.3882322827
| 18>  H        1.3749563352    -1.5587953469    -0.8418385115
| 19>  H        3.1530348526     0.3225609251    -0.7911595476
| 20>  H        3.5421524981     1.1066709807     1.5213644262
| 21>  H        2.4071888287     0.8847726946     3.8877634561
| 22>  H        0.1651046920    -1.5035097410     1.6219215472
| 23> *
| 24>
| 25>                          ****END OF INPUT****

CARTESIAN COORDINATES (ANGSTROEM)
---------------------------------
  C     -0.096798    1.564755   -0.105454
  C      0.035172    0.065268    0.009295
  C      1.331293   -0.685369   -0.200032
  N      2.574225    0.024850   -0.025417
  C      2.689147    0.499942    1.243341
  C      1.648445    0.105433    2.032985
  C      1.555802    0.307924    3.454564
  O      0.653252   -0.098530    4.165125
  C      0.675737   -0.651530    1.189854
  H      0.750370    2.086868    0.344707
  H     -0.166835    1.873722   -1.154382
  H     -1.001439    1.908205    0.406872
  H     -0.814421   -0.484367   -0.388232
  H      1.374956   -1.558795   -0.841839
  H      3.153035    0.322561   -0.791160
  H      3.542152    1.106671    1.521364
  H      2.407189    0.884773    3.887763
  H      0.165105   -1.503510    1.621922

 Total Charge           Charge          ....    0
 Multiplicity           Mult            ....    1
 Number of Electrons    NEL             ....   66
 Basis Dimension        Dim             ....  333

ORBITAL ENERGIES
----------------

  NO   OCC          E(Eh)            E(eV)
   0   2.0000     -20.520412      -558.3888
   1   2.0000     -15.599318      -424.4790
   2   2.0000     -11.311537      -307.8026
   3   2.0000     -11.304534      -307.6120
   4   2.0000     -11.276619      -306.8524
   5   2.0000     -11.240774      -305.8770
   6   2.0000     -11.238037      -305.8025
   7   2.0000     -11.219378      -305.2948
   8   2.0000     -11.219122      -305.2878
   9   2.0000      -1.357767       -36.9467
  10   2.0000      -1.297517       -35.3072
  11   2.0000      -1.126956       -30.6660
  12   2.0000      -1.053689       -28.6723
  13   2.0000      -0.971320       -26.4310
  14   2.0000      -0.876425       -23.8487
  15   2.0000      -0.825572       -22.4650
  16   2.0000      -0.817525       -22.2460
  17   2.0000      -0.729269       -19.8444
  18   2.0000      -0.717948       -19.5364
  19   2.0000      -0.673191       -18.3185
  20   2.0000      -0.650380       -17.6978
  21   2.0000      -0.601547       -16.3689
  22   2.0000      -0.600155       -16.3310
  23   2.0000      -0.575176       -15.6513
  24   2.0000      -0.564270       -15.3546
  25   2.0000      -0.553389       -15.0585
  26   2.0000      -0.533489       -14.5170
  27   2.0000      -0.510061       -13.8795
  28   2.0000      -0.492132       -13.3916
  29   2.0000      -0.440247       -11.9797
  30   2.0000      -0.412019       -11.2116
  31   2.0000      -0.392409       -10.6780
  32   2.0000      -0.303241        -8.2516
  33   0.0000       0.107308         2.9200
  34   0.0000       0.120483         3.2785
  35   0.0000       0.153272         4.1707
  36   0.0000       0.160810         4.3759
  37   0.0000       0.163526         4.4498

MULLIKEN ATOMIC CHARGES
-----------------------
   0 C :   -0.401232
   1 C :   -0.088683
   2 C :   -0.007947
   3 N :   -0.308486
   4 C :   -0.064016
   5 C :   -0.004813
   6 C :    0.015017
   7 O :   -0.318295
   8 C :   -0.105127
   9 H :    0.140834
  10 H :    0.129043
  11 H :    0.143144
  12 H :    0.124154
  13 H :    0.142563
  14 H :    0.248016
  15 H :    0.150413
  16 H :    0.056876
  17 H :    0.148540
Sum of atomic charges:   -0.0000000

LOEWDIN ATOMIC CHARGES
----------------------
   0 C :   -0.290702
   1 C :   -0.216823
   2 C :   -0.197245
   3 N :    0.138433
   4 C :   -0.172784
   5 C :   -0.197333
   6 C :   -0.309877
   7 O :    0.088327
   8 C :   -0.119724
   9 H :    0.130090
  10 H :    0.125207
  11 H :    0.131595
  12 H :    0.156498
  13 H :    0.138967
  14 H :    0.185454
  15 H :    0.143860
  16 H :    0.112368
  17 H :    0.153691

  Mayer bond orders larger than 0.1
B(  0-C ,  1-C ) :   0.9189 B(  0-C ,  9-H ) :   0.9312 B(  0-C , 10-H ) :   0.9400
B(  0-C , 11-H ) :   0.9384 B(  1-C ,  2-C ) :   0.8569 B(  1-C ,  8-C ) :   0.8325
B(  1-C , 12-H ) :   0.9275 B(  2-C ,  3-N ) :   0.9101 B(  2-C ,  8-C ) :   0.8629
B(  2-C , 13-H ) :   0.9296 B(  3-N ,  4-C ) :   1.2174 B(  3-N , 14-H ) :   0.8714
B(  4-C ,  5-C ) :   1.5076 B(  4-C , 15-H ) :   0.9035 B(  5-C ,  6-C ) :   0.9298
B(  5-C ,  7-O ) :  -0.1293 B(  5-C ,  8-C ) :   0.9014 B(  5-C , 16-H ) :  -0.1279
B(  6-C ,  7-O ) :   1.9745 B(  6-C , 16-H ) :   0.9999 B(  8-C , 17-H ) :   0.9303

MP2 TOTAL ENERGY:     -401.259899576 Eh
FINAL SINGLE POINT ENERGY      -401.259899575704

DIPOLE MOMENT
-------------
                                X             Y             Z
Electronic contribution:      2.42598      -2.82463       4.86567
Nuclear contribution   :     -1.46665       3.11558      -6.78452
                        -----------------------------------------
Total Dipole Moment    :      0.95933       0.29094      -1.91885
                        -----------------------------------------
Magnitude (a.u.)       :      2.16494
Magnitude (Debye)      :      5.50283

                             ****ORCA TERMINATED NORMALLY****
TOTAL RUN TIME: 0 days 0 hours 19 minutes 10 seconds 946 msec
