                         Program Version 3.0.3 - RELEASE   -
|  1> ! RI-MP2 RIJK def2-TZVP def2-TZVP/C def2-TZVP/JK TIGHTSCF
|  2> % maxcore 2000
|  3> % mp2 density relaxed end
|  4> *xyz 0 1
|  5>  O        0.0361403476    -0.0736181512     0.0675385793
|  6>  C       -0.0010515080     1.1306250530     0.0064639386
|  7>  C       -1.2958189907     1.9269032278    -0.0133997795
|  8>  C       -1.7294404322     2.2806325529     1.4330787016
|  9>  C       -0.7789930216     3.1878069684     2.2351357786
| 10>  C        0.6272185183     2.5998115647     2.4822807491
| 11>  C        1.5313614476     2.7429287681     1.2729758484
| 12>  O        2.3144750371     1.6079184504     0.8733132876
| 13>  C        1.2391738408     2.0015635782     0.0382645956
| 14>  H       -1.1671183267     2.8483802929    -0.5949140703
| 15>  H       -2.0724043954     1.3185340794    -0.4847601404
| 16>  H       -2.7099936751     2.7659601833     1.3766251407
| 17>  H       -1.8772982342     1.3418988464     1.9809152797
| 18>  H       -0.6862502649     4.1621407556     1.7357663138
| 19>  H       -1.2511772968     3.3896239772     3.2030007475
| 20>  H        1.0933320543     3.0946009852     3.3407552634
| 21>  H        0.5525832475     1.5357493427     2.7334155594
| 22>  H        2.0527106593     3.6959982622     1.1771880713
| 23>  H        1.5152862631     2.4395808628    -0.9240246845
| 24> *
| 25>
| 26>                          ****END OF INPUT****

CARTESIAN COORDINATES (ANGSTROEM)
---------------------------------
  O      0.036140   -0.073618    0.067539
  C     -0.001052    1.130625    0.006464
  C     -1.295819    1.926903   -0.013400
  C     -1.729440    2.280633    1.433079
  C     -0.778993    3.187807    2.235136
  C      0.627219    2.599812    2.482281
  C      1.531361    2.742929    1.272976
  O      2.314475    1.607918    0.873313
  C      1.239174    2.001564    0.038265
  H     -1.167118    2.848380   -0.594914
  H     -2.072404    1.318534   -0.484760
  H     -2.709994    2.765960    1.376625
  H     -1.877298    1.341899    1.980915
  H     -0.686250    4.162141    1.735766
  H     -1.251177    3.389624    3.203001
  H      1.093332    3.094601    3.340755
  H      0.552583    1.535749    2.733416
  H      2.052711    3.695998    1.177188
  H      1.515286    2.439581   -0.924025

 Total Charge           Charge          ....    0
 Multiplicity           Mult            ....    1
 Number of Electrons    NEL             ....   68
 Basis Dimension        Dim             ....  339

ORBITAL ENERGIES
----------------

  NO   OCC          E(Eh)            E(eV)
   0   2.0000     -20.578058      -559.9574
   1   2.0000     -20.552102      -559.2511
   2   2.0000     -11.334774      -308.4349
   3   2.0000     -11.299941      -307.4870
   4   2.0000     -11.297817      -307.4292
   5   2.0000     -11.245718      -306.0115
   6   2.0000     -11.245053      -305.9934
   7   2.0000     -11.242092      -305.9129
   8   2.0000     -11.239795      -305.8504
   9   2.0000      -1.428238       -38.8643
  10   2.0000      -1.390379       -37.8341
  11   2.0000      -1.109035       -30.1784
  12   2.0000      -1.036899       -28.2155
  13   2.0000      -0.987949       -26.8835
  14   2.0000      -0.912419       -24.8282
  15   2.0000      -0.862768       -23.4771
  16   2.0000      -0.797371       -21.6976
  17   2.0000      -0.741947       -20.1894
  18   2.0000      -0.707196       -19.2438
  19   2.0000      -0.686170       -18.6716
  20   2.0000      -0.652061       -17.7435
  21   2.0000      -0.625063       -17.0088
  22   2.0000      -0.606734       -16.5101
  23   2.0000      -0.592080       -16.1113
  24   2.0000      -0.585333       -15.9277
  25   2.0000      -0.548310       -14.9203
  26   2.0000      -0.533470       -14.5164
  27   2.0000      -0.518150       -14.0996
  28   2.0000      -0.512983       -13.9590
  29   2.0000      -0.488000       -13.2791
  30   2.0000      -0.473612       -12.8876
  31   2.0000      -0.463074       -12.6009
  32   2.0000      -0.433975       -11.8091
  33   2.0000      -0.408528       -11.1166
  34   0.0000       0.114372         3.1122
  35   0.0000       0.141928         3.8621
  36   0.0000       0.149886         4.0786
  37   0.0000       0.155078         4.2199
  38   0.0000       0.171449         4.6654

MULLIKEN ATOMIC CHARGES
-----------------------
   0 O :   -0.260199
   1 C :    0.177756
   2 C :   -0.217194
   3 C :   -0.245793
   4 C :   -0.241269
   5 C :   -0.215489
   6 C :   -0.009707
   7 O :   -0.314262
   8 C :    0.027103
   9 H :    0.119030
  10 H :    0.139491
  11 H :    0.131507
  12 H :    0.130857
  13 H :    0.110850
  14 H :    0.133109
  15 H :    0.135567
  16 H :    0.148447
  17 H :    0.115569
  18 H :    0.134626
Sum of atomic charges:    0.0000000

LOEWDIN ATOMIC CHARGES
----------------------
   0 O :    0.173345
   1 C :   -0.318728
   2 C :   -0.225811
   3 C :   -0.254436
   4 C :   -0.260073
   5 C :   -0.243725
   6 C :   -0.255926
   7 O :    0.187987
   8 C :   -0.248881
   9 H :    0.146366
  10 H :    0.149098
  11 H :    0.141868
  12 H :    0.145219
  13 H :    0.139373
  14 H :    0.141881
  15 H :    0.143110
  16 H :    0.154669
  17 H :    0.138170
  18 H :    0.146494

  Mayer bond orders larger than 0.1
B(  0-O ,  1-C ) :   2.0331 B(  1-C ,  2-C ) :   0.8957 B(  1-C ,  8-C ) :   0.8626
B(  2-C ,  3-C ) :   0.9031 B(  2-C ,  9-H ) :   0.9137 B(  2-C , 10-H ) :   0.9143
B(  3-C ,  4-C ) :   0.9364 B(  3-C , 11-H ) :   0.9290 B(  3-C , 12-H ) :   0.9295
B(  4-C ,  5-C ) :   0.9016 B(  4-C , 13-H ) :   0.9279 B(  4-C , 14-H ) :   0.9272
B(  5-C ,  6-C ) :   0.8720 B(  5-C , 15-H ) :   0.9271 B(  5-C , 16-H ) :   0.9323
B(  6-C ,  7-O ) :   0.9473 B(  6-C ,  8-C ) :   0.9794 B(  6-C , 17-H ) :   0.9255
B(  7-O ,  8-C ) :   0.9119 B(  8-C , 18-H ) :   0.9006

MP2 TOTAL ENERGY:     -422.325587067 Eh
FINAL SINGLE POINT ENERGY      -422.325587067196

DIPOLE MOMENT
-------------
                                X             Y             Z
Electronic contribution:      5.57085      -5.39754      -3.78452
Nuclear contribution   :     -6.33246       6.91979       3.89933
                        -----------------------------------------
Total Dipole Moment    :     -0.76162       1.52224       0.11481
                        -----------------------------------------
Magnitude (a.u.)       :      1.70601
Magnitude (Debye)      :      4.33633

                             ****ORCA TERMINATED NORMALLY****
TOTAL RUN TIME: 0 days 0 hours 17 minutes 25 seconds 820 msec
