                         Program Version 3.0.3 - RELEASE   -
|  1> ! RI-MP2 RIJK def2-TZVP def2-TZVP/C def2-TZVP/JK TIGHTSCF
|  2> % maxcore 2000
|  3> % mp2 density relaxed end
|  4> *xyz 0 1
|  5>  C        0.0752237866     1.7304378030     0.1274737966
|  6>  C       -0.0031112709     0.2082346803     0.1147330513
|  7>  C        0.7634741718    -0.4352679812    -1.1006501595
|  8>  N        1.8850899785    -0.7081862142    -0.1513069368
|  9>  C        1.0287236986    -0.5437087263     0.9332734156
| 10>  N        0.9407994021    -1.0675689285     2.0809903901
| 11>  C       -0.3864813780    -0.7517713730     2.6436883587
| 12>  C       -1.4748724967    -0.9980944487     1.5869660567
| 13>  O       -1.3239335479    -0.1998272446     0.4030060615
| 14>  H        1.0819518211     2.0720061022    -0.1284942318
| 15>  H       -0.6332987151     2.1356158685    -0.6021500430
| 16>  H       -0.1904964207     2.1239699031     1.1121528435
| 17>  H        0.2623723757    -1.3390975105    -1.4605863123
| 18>  H        1.0290394776     0.2199313358    -1.9337677436
| 19>  H        2.4701678445    -1.5315796975    -0.2254228003
| 20>  H       -0.5717853837    -1.4069396346     3.5003934318
| 21>  H       -0.4401049003     0.2825181650     3.0117081843
| 22>  H       -1.4599574600    -2.0644494312     1.3173194310
| 23>  H       -2.4670847530    -0.7590811576     1.9828604462
| 24> *
| 25>
| 26>                          ****END OF INPUT****

CARTESIAN COORDINATES (ANGSTROEM)
---------------------------------
  C      0.075224    1.730438    0.127474
  C     -0.003111    0.208235    0.114733
  C      0.763474   -0.435268   -1.100650
  N      1.885090   -0.708186   -0.151307
  C      1.028724   -0.543709    0.933273
  N      0.940799   -1.067569    2.080990
  C     -0.386481   -0.751771    2.643688
  C     -1.474872   -0.998094    1.586966
  O     -1.323934   -0.199827    0.403006
  H      1.081952    2.072006   -0.128494
  H     -0.633299    2.135616   -0.602150
  H     -0.190496    2.123970    1.112153
  H      0.262372   -1.339098   -1.460586
  H      1.029039    0.219931   -1.933768
  H      2.470168   -1.531580   -0.225423
  H     -0.571785   -1.406940    3.500393
  H     -0.440105    0.282518    3.011708
  H     -1.459957   -2.064449    1.317319
  H     -2.467085   -0.759081    1.982860

 Total Charge           Charge          ....    0
 Multiplicity           Mult            ....    1
 Number of Electrons    NEL             ....   68
 Basis Dimension        Dim             ....  339

ORBITAL ENERGIES
----------------

  NO   OCC          E(Eh)            E(eV)
   0   2.0000     -20.562707      -559.5397
   1   2.0000     -15.575307      -423.8256
   2   2.0000     -15.536573      -422.7717
   3   2.0000     -11.305167      -307.6292
   4   2.0000     -11.302495      -307.5565
   5   2.0000     -11.280128      -306.9479
   6   2.0000     -11.274315      -306.7897
   7   2.0000     -11.253943      -306.2354
   8   2.0000     -11.225850      -305.4709
   9   2.0000      -1.388581       -37.7852
  10   2.0000      -1.287213       -35.0268
  11   2.0000      -1.199515       -32.6405
  12   2.0000      -1.041794       -28.3487
  13   2.0000      -0.986237       -26.8369
  14   2.0000      -0.927223       -25.2310
  15   2.0000      -0.871883       -23.7251
  16   2.0000      -0.846511       -23.0347
  17   2.0000      -0.722311       -19.6551
  18   2.0000      -0.684213       -18.6184
  19   2.0000      -0.677419       -18.4335
  20   2.0000      -0.664542       -18.0831
  21   2.0000      -0.610116       -16.6021
  22   2.0000      -0.606896       -16.5145
  23   2.0000      -0.580922       -15.8077
  24   2.0000      -0.571111       -15.5407
  25   2.0000      -0.555841       -15.1252
  26   2.0000      -0.533322       -14.5124
  27   2.0000      -0.522591       -14.2204
  28   2.0000      -0.516388       -14.0516
  29   2.0000      -0.505437       -13.7536
  30   2.0000      -0.470962       -12.8155
  31   2.0000      -0.417809       -11.3692
  32   2.0000      -0.386029       -10.5044
  33   2.0000      -0.360678        -9.8145
  34   0.0000       0.135616         3.6903
  35   0.0000       0.150265         4.0889
  36   0.0000       0.156739         4.2651
  37   0.0000       0.163812         4.4575
  38   0.0000       0.185395         5.0448

MULLIKEN ATOMIC CHARGES
-----------------------
   0 C :   -0.438126
   1 C :    0.275742
   2 C :   -0.156155
   3 N :   -0.317871
   4 C :   -0.016358
   5 N :   -0.205633
   6 C :   -0.118110
   7 C :   -0.054852
   8 O :   -0.312551
   9 H :    0.143169
  10 H :    0.142232
  11 H :    0.130416
  12 H :    0.124947
  13 H :    0.120405
  14 H :    0.225766
  15 H :    0.133965
  16 H :    0.108228
  17 H :    0.095709
  18 H :    0.119078
Sum of atomic charges:   -0.0000000

LOEWDIN ATOMIC CHARGES
----------------------
   0 C :   -0.260801
   1 C :   -0.323553
   2 C :   -0.195011
   3 N :    0.085103
   4 C :   -0.328810
   5 N :    0.086794
   6 C :   -0.288994
   7 C :   -0.298901
   8 O :    0.193046
   9 H :    0.133410
  10 H :    0.131489
  11 H :    0.127233
  12 H :    0.127525
  13 H :    0.122447
  14 H :    0.170225
  15 H :    0.136302
  16 H :    0.129779
  17 H :    0.123330
  18 H :    0.129386

  Mayer bond orders larger than 0.1
B(  0-C ,  1-C ) :   0.8898 B(  0-C ,  9-H ) :   0.9297 B(  0-C , 10-H ) :   0.9335
B(  0-C , 11-H ) :   0.9344 B(  1-C ,  2-C ) :   0.8601 B(  1-C ,  4-C ) :   0.8756
B(  1-C ,  8-O ) :   0.9687 B(  2-C ,  3-N ) :   0.9281 B(  2-C , 12-H ) :   0.9111
B(  2-C , 13-H ) :   0.9192 B(  3-N ,  4-C ) :   1.1730 B(  3-N , 14-H ) :   0.8632
B(  4-C ,  5-N ) :   1.9148 B(  5-N ,  6-C ) :   0.8909 B(  6-C ,  7-C ) :   0.9361
B(  6-C , 15-H ) :   0.9239 B(  6-C , 16-H ) :   0.9215 B(  7-C ,  8-O ) :   0.9178
B(  7-C , 17-H ) :   0.9286 B(  7-C , 18-H ) :   0.9191

MP2 TOTAL ENERGY:     -418.485049814 Eh
FINAL SINGLE POINT ENERGY      -418.485049814280

DIPOLE MOMENT
-------------
                                X             Y             Z
Electronic contribution:      1.93969      -2.56277       0.22142
Nuclear contribution   :     -2.17206       2.55762      -0.66251
                        -----------------------------------------
Total Dipole Moment    :     -0.23238      -0.00515      -0.44109
                        -----------------------------------------
Magnitude (a.u.)       :      0.49859
Magnitude (Debye)      :      1.26731

                             ****ORCA TERMINATED NORMALLY****
TOTAL RUN TIME: 0 days 0 hours 20 minutes 30 seconds 23 msec
