                         Program Version 3.0.3 - RELEASE   -
|  1> ! RI-MP2 RIJK def2-TZVP def2-TZVP/C def2-TZVP/JK TIGHTSCF
|  2> % maxcore 2000
|  3> % mp2 density relaxed end
|  4> *xyz 0 1
|  5>  C       -0.0379217790     1.5151644515     0.0199085204
|  6>  C        0.0473928686     0.0173867323    -0.0074060919
|  7>  C       -0.8223210732    -0.8856370851     0.8033141736
|  8>  C        0.6820709704    -0.9595168110     1.0284235556
|  9>  C        1.2667790122    -1.7341563238    -0.0887023048
| 10>  N        2.0228283983    -2.7499561208    -0.1323326499
| 11>  O        2.2826125174    -3.0779920392    -1.4935777740
| 12>  C        0.6919727511    -0.7928498087    -1.1469203395
| 13>  O       -0.1863376061    -1.3160902677    -2.1122228996
| 14>  H        0.9173145429     1.9763020995    -0.2539798710
| 15>  H       -0.7967539100     1.8749404282    -0.6845059694
| 16>  H       -0.3140187346     1.8764542797     1.0156587373
| 17>  H       -1.3690314272    -0.4019683081     1.6072936301
| 18>  H       -1.3431865155    -1.7161467426     0.3385395741
| 19>  H        1.1350014843    -0.7536538341     1.9896584785
| 20>  H        2.8454699671    -3.8543133999    -1.4105887041
| 21>  H        1.5131236888    -0.2216048533    -1.6088628198
| 22>  H        0.2882068046    -2.0336394067    -2.5484862356
| 23> *
| 24>
| 25>                          ****END OF INPUT****

CARTESIAN COORDINATES (ANGSTROEM)
---------------------------------
  C     -0.037922    1.515164    0.019909
  C      0.047393    0.017387   -0.007406
  C     -0.822321   -0.885637    0.803314
  C      0.682071   -0.959517    1.028424
  C      1.266779   -1.734156   -0.088702
  N      2.022828   -2.749956   -0.132333
  O      2.282613   -3.077992   -1.493578
  C      0.691973   -0.792850   -1.146920
  O     -0.186338   -1.316090   -2.112223
  H      0.917315    1.976302   -0.253980
  H     -0.796754    1.874940   -0.684506
  H     -0.314019    1.876454    1.015659
  H     -1.369031   -0.401968    1.607294
  H     -1.343187   -1.716147    0.338540
  H      1.135001   -0.753654    1.989658
  H      2.845470   -3.854313   -1.410589
  H      1.513124   -0.221605   -1.608863
  H      0.288207   -2.033639   -2.548486

 Total Charge           Charge          ....    0
 Multiplicity           Mult            ....    1
 Number of Electrons    NEL             ....   68
 Basis Dimension        Dim             ....  333

ORBITAL ENERGIES
----------------

  NO   OCC          E(Eh)            E(eV)
   0   2.0000     -20.593695      -560.3829
   1   2.0000     -20.560849      -559.4891
   2   2.0000     -15.613448      -424.8635
   3   2.0000     -11.298864      -307.4577
   4   2.0000     -11.280931      -306.9697
   5   2.0000     -11.257754      -306.3391
   6   2.0000     -11.252351      -306.1920
   7   2.0000     -11.243308      -305.9460
   8   2.0000     -11.230618      -305.6007
   9   2.0000      -1.414520       -38.4911
  10   2.0000      -1.370784       -37.3009
  11   2.0000      -1.219352       -33.1802
  12   2.0000      -1.135009       -30.8852
  13   2.0000      -0.987537       -26.8723
  14   2.0000      -0.963842       -26.2275
  15   2.0000      -0.859207       -23.3802
  16   2.0000      -0.766089       -20.8463
  17   2.0000      -0.735243       -20.0070
  18   2.0000      -0.720942       -19.6178
  19   2.0000      -0.685164       -18.6443
  20   2.0000      -0.670216       -18.2375
  21   2.0000      -0.633532       -17.2393
  22   2.0000      -0.601549       -16.3690
  23   2.0000      -0.596560       -16.2332
  24   2.0000      -0.578360       -15.7380
  25   2.0000      -0.567475       -15.4418
  26   2.0000      -0.556885       -15.1536
  27   2.0000      -0.536962       -14.6115
  28   2.0000      -0.504795       -13.7362
  29   2.0000      -0.472573       -12.8594
  30   2.0000      -0.454352       -12.3635
  31   2.0000      -0.415689       -11.3115
  32   2.0000      -0.412859       -11.2345
  33   2.0000      -0.363466        -9.8904
  34   0.0000       0.127082         3.4581
  35   0.0000       0.146823         3.9952
  36   0.0000       0.156187         4.2501
  37   0.0000       0.175961         4.7881
  38   0.0000       0.181426         4.9369

MULLIKEN ATOMIC CHARGES
-----------------------
   0 C :   -0.404242
   1 C :    0.048192
   2 C :   -0.266578
   3 C :   -0.092287
   4 C :   -0.079220
   5 N :   -0.090116
   6 O :   -0.389422
   7 C :    0.128717
   8 O :   -0.471598
   9 H :    0.131855
  10 H :    0.149156
  11 H :    0.132399
  12 H :    0.135612
  13 H :    0.149851
  14 H :    0.142927
  15 H :    0.339818
  16 H :    0.098080
  17 H :    0.336857
Sum of atomic charges:   -0.0000000

LOEWDIN ATOMIC CHARGES
----------------------
   0 C :   -0.269298
   1 C :   -0.190415
   2 C :   -0.163286
   3 C :   -0.111587
   4 C :   -0.255428
   5 N :    0.027969
   6 O :   -0.093994
   7 C :   -0.258815
   8 O :   -0.008498
   9 H :    0.128839
  10 H :    0.134978
  11 H :    0.131499
  12 H :    0.144188
  13 H :    0.140754
  14 H :    0.143429
  15 H :    0.168844
  16 H :    0.148302
  17 H :    0.182518

  Mayer bond orders larger than 0.1
B(  0-C ,  1-C ) :   0.9091 B(  0-C ,  9-H ) :   0.9341 B(  0-C , 10-H ) :   0.9371
B(  0-C , 11-H ) :   0.9375 B(  1-C ,  2-C ) :   0.9015 B(  1-C ,  3-C ) :   0.7978
B(  1-C ,  7-C ) :   0.9134 B(  2-C ,  3-C ) :   0.8502 B(  2-C , 12-H ) :   0.9298
B(  2-C , 13-H ) :   0.9089 B(  3-C ,  4-C ) :   0.9763 B(  3-C , 14-H ) :   0.9064
B(  4-C ,  5-N ) :   1.8709 B(  4-C ,  7-C ) :   0.9450 B(  5-N ,  6-O ) :   0.7776
B(  6-O , 15-H ) :   0.8429 B(  7-C ,  8-O ) :   1.0457 B(  7-C , 16-H ) :   0.9378
B(  8-O , 17-H ) :   0.8287

MP2 TOTAL ENERGY:     -438.290747591 Eh
FINAL SINGLE POINT ENERGY      -438.290747590585

DIPOLE MOMENT
-------------
                                X             Y             Z
Electronic contribution:      3.25912      -6.38152      -1.87503
Nuclear contribution   :     -3.04303       6.61729       2.07456
                        -----------------------------------------
Total Dipole Moment    :      0.21609       0.23576       0.19954
                        -----------------------------------------
Magnitude (a.u.)       :      0.37695
Magnitude (Debye)      :      0.95814

                             ****ORCA TERMINATED NORMALLY****
TOTAL RUN TIME: 0 days 0 hours 17 minutes 15 seconds 125 msec
