                         Program Version 3.0.3 - RELEASE   -
|  1> ! RI-MP2 RIJK def2-TZVP def2-TZVP/C def2-TZVP/JK TIGHTSCF
|  2> % maxcore 2000
|  3> % mp2 density relaxed end
|  4> *xyz 0 1
|  5>  C        0.3187137956     1.3675107436    -0.2890586977
|  6>  C        0.0231006097    -0.0961737887     0.0129342012
|  7>  C       -1.4762003333    -0.3691091374     0.0472839447
|  8>  O        0.6626320380    -0.9618340135    -0.9773126003
|  9>  C        1.4654714135    -1.6121627900     0.0392394477
| 10>  C        2.9115478746    -1.1936163039     0.0533850588
| 11>  C        3.1684198539    -0.3450395378     1.0492665570
| 12>  C        1.9522676417    -0.0356300636     1.8955021015
| 13>  C        0.8150605611    -0.7846708826     1.1730880145
| 14>  H        1.3933661000     1.5564816129    -0.3377387260
| 15>  H       -0.1109784013     1.6293901495    -1.2614124782
| 16>  H       -0.1248384667     2.0266438409     0.4651670352
| 17>  H       -1.9347292333    -0.0977196972    -0.9090876974
| 18>  H       -1.6730572395    -1.4294728916     0.2295310462
| 19>  H       -1.9599482568     0.2147135171     0.8386032458
| 20>  H        1.3199420061    -2.6985804008     0.0109207374
| 21>  H        3.6312175151    -1.5497640336    -0.6749695045
| 22>  H        4.1392233759     0.0934355444     1.2580398091
| 23>  H        2.0805452895    -0.3975206794     2.9239697616
| 24>  H        1.7729181885     1.0433234502     1.9775360986
| 25>  H        0.1640172778    -1.3269436586     1.8594123248
| 26> *
| 27>
| 28>                          ****END OF INPUT****

CARTESIAN COORDINATES (ANGSTROEM)
---------------------------------
  C      0.318714    1.367511   -0.289059
  C      0.023101   -0.096174    0.012934
  C     -1.476200   -0.369109    0.047284
  O      0.662632   -0.961834   -0.977313
  C      1.465471   -1.612163    0.039239
  C      2.911548   -1.193616    0.053385
  C      3.168420   -0.345040    1.049267
  C      1.952268   -0.035630    1.895502
  C      0.815061   -0.784671    1.173088
  H      1.393366    1.556482   -0.337739
  H     -0.110978    1.629390   -1.261412
  H     -0.124838    2.026644    0.465167
  H     -1.934729   -0.097720   -0.909088
  H     -1.673057   -1.429473    0.229531
  H     -1.959948    0.214714    0.838603
  H      1.319942   -2.698580    0.010921
  H      3.631218   -1.549764   -0.674970
  H      4.139223    0.093436    1.258040
  H      2.080545   -0.397521    2.923970
  H      1.772918    1.043323    1.977536
  H      0.164017   -1.326944    1.859412

 Total Charge           Charge          ....    0
 Multiplicity           Mult            ....    1
 Number of Electrons    NEL             ....   68
 Basis Dimension        Dim             ....  351

ORBITAL ENERGIES
----------------

  NO   OCC          E(Eh)            E(eV)
   0   2.0000     -20.534184      -558.7636
   1   2.0000     -11.284598      -307.0695
   2   2.0000     -11.277177      -306.8676
   3   2.0000     -11.233424      -305.6770
   4   2.0000     -11.231451      -305.6233
   5   2.0000     -11.228827      -305.5519
   6   2.0000     -11.222731      -305.3860
   7   2.0000     -11.212287      -305.1018
   8   2.0000     -11.210891      -305.0639
   9   2.0000      -1.366640       -37.1882
  10   2.0000      -1.121751       -30.5244
  11   2.0000      -1.050864       -28.5955
  12   2.0000      -0.966377       -26.2965
  13   2.0000      -0.944038       -25.6886
  14   2.0000      -0.931201       -25.3393
  15   2.0000      -0.825709       -22.4687
  16   2.0000      -0.736900       -20.0521
  17   2.0000      -0.706892       -19.2355
  18   2.0000      -0.691517       -18.8171
  19   2.0000      -0.658920       -17.9301
  20   2.0000      -0.616462       -16.7748
  21   2.0000      -0.596716       -16.2375
  22   2.0000      -0.580567       -15.7980
  23   2.0000      -0.563051       -15.3214
  24   2.0000      -0.546476       -14.8704
  25   2.0000      -0.535115       -14.5612
  26   2.0000      -0.525840       -14.3088
  27   2.0000      -0.517278       -14.0759
  28   2.0000      -0.503488       -13.7006
  29   2.0000      -0.478995       -13.0341
  30   2.0000      -0.439551       -11.9608
  31   2.0000      -0.430236       -11.7073
  32   2.0000      -0.406354       -11.0574
  33   2.0000      -0.357069        -9.7163
  34   0.0000       0.134421         3.6578
  35   0.0000       0.147207         4.0057
  36   0.0000       0.164754         4.4832
  37   0.0000       0.166033         4.5180
  38   0.0000       0.181578         4.9410

MULLIKEN ATOMIC CHARGES
-----------------------
   0 C :   -0.427583
   1 C :    0.199426
   2 C :   -0.409938
   3 O :   -0.343982
   4 C :    0.123920
   5 C :   -0.189179
   6 C :   -0.206348
   7 C :   -0.207642
   8 C :   -0.075994
   9 H :    0.148810
  10 H :    0.138307
  11 H :    0.126909
  12 H :    0.134697
  13 H :    0.131823
  14 H :    0.123655
  15 H :    0.094529
  16 H :    0.131996
  17 H :    0.126036
  18 H :    0.124612
  19 H :    0.133430
  20 H :    0.122517
Sum of atomic charges:    0.0000000

LOEWDIN ATOMIC CHARGES
----------------------
   0 C :   -0.272177
   1 C :   -0.333444
   2 C :   -0.272699
   3 O :    0.166424
   4 C :   -0.239398
   5 C :   -0.140962
   6 C :   -0.146621
   7 C :   -0.224361
   8 C :   -0.149452
   9 H :    0.130358
  10 H :    0.132113
  11 H :    0.126924
  12 H :    0.129060
  13 H :    0.127319
  14 H :    0.127052
  15 H :    0.133543
  16 H :    0.139008
  17 H :    0.136869
  18 H :    0.141008
  19 H :    0.142774
  20 H :    0.146664

  Mayer bond orders larger than 0.1
B(  0-C ,  1-C ) :   0.8887 B(  0-C ,  9-H ) :   0.9400 B(  0-C , 10-H ) :   0.9315
B(  0-C , 11-H ) :   0.9297 B(  1-C ,  2-C ) :   0.9135 B(  1-C ,  3-O ) :   0.9109
B(  1-C ,  8-C ) :   0.9005 B(  2-C , 12-H ) :   0.9365 B(  2-C , 13-H ) :   0.9361
B(  2-C , 14-H ) :   0.9316 B(  3-O ,  4-C ) :   0.9360 B(  4-C ,  5-C ) :   0.9190
B(  4-C ,  8-C ) :   0.9420 B(  4-C , 15-H ) :   0.9208 B(  5-C ,  6-C ) :   1.7788
B(  5-C , 16-H ) :   0.9252 B(  6-C ,  7-C ) :   0.9661 B(  6-C , 17-H ) :   0.9297
B(  7-C ,  8-C ) :   0.9231 B(  7-C , 18-H ) :   0.9120 B(  7-C , 19-H ) :   0.9167
B(  8-C , 20-H ) :   0.9267

MP2 TOTAL ENERGY:     -386.416006200 Eh
FINAL SINGLE POINT ENERGY      -386.416006200012

DIPOLE MOMENT
-------------
                                X             Y             Z
Electronic contribution:      3.65106      -3.75417      -1.72192
Nuclear contribution   :     -3.59582       3.93625       2.46543
                        -----------------------------------------
Total Dipole Moment    :      0.05524       0.18208       0.74351
                        -----------------------------------------
Magnitude (a.u.)       :      0.76747
Magnitude (Debye)      :      1.95076

                             ****ORCA TERMINATED NORMALLY****
TOTAL RUN TIME: 0 days 0 hours 22 minutes 9 seconds 849 msec
