                         Program Version 3.0.3 - RELEASE   -
|  1> ! RI-MP2 RIJK def2-TZVP def2-TZVP/C def2-TZVP/JK TIGHTSCF
|  2> % maxcore 2000
|  3> % mp2 density relaxed end
|  4> *xyz 0 1
|  5>  C        0.2712706354     1.5937365467    -0.3218117480
|  6>  C        0.1467574225     0.1556333968    -0.1316433747
|  7>  C        0.0493567273    -1.0356252469     0.0202864101
|  8>  C       -0.0858809655    -2.4639051852     0.2200877776
|  9>  C        0.0082484450    -3.0048337200     1.6930612119
| 10>  C       -1.2755731788    -3.8050233262     1.4265374201
| 11>  O       -1.8323389911    -4.6917476249     2.0038660846
| 12>  C       -1.5251269289    -3.0833548579     0.0937013135
| 13>  H        1.0505262024     1.8318961854    -1.0541985219
| 14>  H       -0.6663800151     2.0308790749    -0.6826717876
| 15>  H        0.5324042058     2.0986819382     0.6148503622
| 16>  H        0.6132755071    -3.0063737166    -0.4235867231
| 17>  H        0.8959737991    -3.5797769161     1.9662643170
| 18>  H       -0.1510348605    -2.2207881376     2.4395230126
| 19>  H       -2.3152849064    -2.3316013239     0.1821358523
| 20>  H       -1.7311448683    -3.7143004168    -0.7738929067
| 21> *
| 22>
| 23>                          ****END OF INPUT****

CARTESIAN COORDINATES (ANGSTROEM)
---------------------------------
  C      0.271271    1.593737   -0.321812
  C      0.146757    0.155633   -0.131643
  C      0.049357   -1.035625    0.020286
  C     -0.085881   -2.463905    0.220088
  C      0.008248   -3.004834    1.693061
  C     -1.275573   -3.805023    1.426537
  O     -1.832339   -4.691748    2.003866
  C     -1.525127   -3.083355    0.093701
  H      1.050526    1.831896   -1.054199
  H     -0.666380    2.030879   -0.682672
  H      0.532404    2.098682    0.614850
  H      0.613276   -3.006374   -0.423587
  H      0.895974   -3.579777    1.966264
  H     -0.151035   -2.220788    2.439523
  H     -2.315285   -2.331601    0.182136
  H     -1.731145   -3.714300   -0.773893

 Total Charge           Charge          ....    0
 Multiplicity           Mult            ....    1
 Number of Electrons    NEL             ....   58
 Basis Dimension        Dim             ....  296

ORBITAL ENERGIES
----------------

  NO   OCC          E(Eh)            E(eV)
   0   2.0000     -20.555023      -559.3306
   1   2.0000     -11.336071      -308.4702
   2   2.0000     -11.272194      -306.7320
   3   2.0000     -11.252248      -306.1892
   4   2.0000     -11.248220      -306.0796
   5   2.0000     -11.248192      -306.0789
   6   2.0000     -11.232097      -305.6409
   7   2.0000     -11.225166      -305.4523
   8   2.0000      -1.398285       -38.0493
   9   2.0000      -1.152105       -31.3504
  10   2.0000      -1.060003       -28.8442
  11   2.0000      -0.975014       -26.5315
  12   2.0000      -0.938654       -25.5421
  13   2.0000      -0.882032       -24.0013
  14   2.0000      -0.733524       -19.9602
  15   2.0000      -0.697700       -18.9854
  16   2.0000      -0.676151       -18.3990
  17   2.0000      -0.635113       -17.2823
  18   2.0000      -0.626674       -17.0527
  19   2.0000      -0.592364       -16.1191
  20   2.0000      -0.592005       -16.1093
  21   2.0000      -0.570538       -15.5251
  22   2.0000      -0.567098       -15.4315
  23   2.0000      -0.541488       -14.7346
  24   2.0000      -0.510458       -13.8903
  25   2.0000      -0.490514       -13.3476
  26   2.0000      -0.408170       -11.1069
  27   2.0000      -0.375209       -10.2100
  28   2.0000      -0.368139       -10.0176
  29   0.0000       0.124137         3.3779
  30   0.0000       0.128730         3.5029
  31   0.0000       0.143814         3.9134
  32   0.0000       0.162603         4.4246
  33   0.0000       0.169999         4.6259

MULLIKEN ATOMIC CHARGES
-----------------------
   0 C :   -0.482002
   1 C :    0.051437
   2 C :   -0.068015
   3 C :   -0.154716
   4 C :   -0.210459
   5 C :    0.130109
   6 O :   -0.248244
   7 C :   -0.210462
   8 H :    0.163630
   9 H :    0.162584
  10 H :    0.162573
  11 H :    0.132683
  12 H :    0.139101
  13 H :    0.146340
  14 H :    0.146343
  15 H :    0.139098
Sum of atomic charges:    0.0000000

LOEWDIN ATOMIC CHARGES
----------------------
   0 C :   -0.294963
   1 C :   -0.099861
   2 C :   -0.078228
   3 C :   -0.210665
   4 C :   -0.171250
   5 C :   -0.315629
   6 O :    0.163922
   7 C :   -0.171250
   8 H :    0.141475
   9 H :    0.140984
  10 H :    0.140977
  11 H :    0.165779
  12 H :    0.140441
  13 H :    0.153914
  14 H :    0.153915
  15 H :    0.140439

  Mayer bond orders larger than 0.1
B(  0-C ,  1-C ) :   0.8484 B(  0-C ,  8-H ) :   0.9492 B(  0-C ,  9-H ) :   0.9469
B(  0-C , 10-H ) :   0.9469 B(  1-C ,  2-C ) :   2.6592 B(  1-C ,  3-C ) :  -0.1108
B(  2-C ,  3-C ) :   1.1055 B(  3-C ,  4-C ) :   0.9160 B(  3-C ,  7-C ) :   0.9160
B(  3-C , 11-H ) :   0.9189 B(  4-C ,  5-C ) :   0.8876 B(  4-C ,  7-C ) :  -0.1022
B(  4-C , 12-H ) :   0.9018 B(  4-C , 13-H ) :   0.9012 B(  5-C ,  6-O ) :   2.0309
B(  5-C ,  7-C ) :   0.8876 B(  7-C , 14-H ) :   0.9013 B(  7-C , 15-H ) :   0.9018

MP2 TOTAL ENERGY:     -345.965057692 Eh
FINAL SINGLE POINT ENERGY      -345.965057691782

DIPOLE MOMENT
-------------
                                X             Y             Z
Electronic contribution:     -1.99193      -6.22546       2.21584
Nuclear contribution   :      2.48737       7.15745      -2.73665
                        -----------------------------------------
Total Dipole Moment    :      0.49544       0.93199      -0.52080
                        -----------------------------------------
Magnitude (a.u.)       :      1.17699
Magnitude (Debye)      :      2.99167

                             ****ORCA TERMINATED NORMALLY****
TOTAL RUN TIME: 0 days 0 hours 10 minutes 24 seconds 883 msec
