                         Program Version 3.0.3 - RELEASE   -
|  1> ! RI-MP2 RIJK def2-TZVP def2-TZVP/C def2-TZVP/JK TIGHTSCF
|  2> % maxcore 2000
|  3> % mp2 density relaxed end
|  4> *xyz 0 1
|  5>  C        0.0264271764     1.6087929326     0.2039868220
|  6>  C       -0.0780197224     0.1304625764    -0.1271490006
|  7>  C       -1.3660532983    -0.2820277008    -0.8251503472
|  8>  C       -2.6732920452    -0.0369374019    -0.0620678954
|  9>  N       -2.6246427091    -0.2869651107     1.2801303596
| 10>  O       -3.6942703652     0.3072627234    -0.6240186438
| 11>  C        1.1861364345    -0.5805719242    -0.5403860336
| 12>  C        0.5821996755    -0.8614423323     0.8151679034
| 13>  H        0.9803476948     1.8386897066     0.6883550082
| 14>  H       -0.0426403838     2.2168163499    -0.7051705927
| 15>  H       -0.7773882901     1.9267012883     0.8767610115
| 16>  H       -1.4756468133     0.2469027324    -1.7765750881
| 17>  H       -1.3309025156    -1.3527834585    -1.0634949567
| 18>  H       -1.7558975267    -0.4699120172     1.7508091055
| 19>  H       -3.4520120413    -0.1057094242     1.8241701388
| 20>  H        1.1184519976    -1.3557037479    -1.2962263794
| 21>  H        2.1044569091    -0.0042891628    -0.5776378560
| 22>  H        1.0953624319    -0.4758810004     1.6903678981
| 23>  H        0.1143077812    -1.8297095088     0.9656274164
| 24> *
| 25>
| 26>                          ****END OF INPUT****

CARTESIAN COORDINATES (ANGSTROEM)
---------------------------------
  C      0.026427    1.608793    0.203987
  C     -0.078020    0.130463   -0.127149
  C     -1.366053   -0.282028   -0.825150
  C     -2.673292   -0.036937   -0.062068
  N     -2.624643   -0.286965    1.280130
  O     -3.694270    0.307263   -0.624019
  C      1.186136   -0.580572   -0.540386
  C      0.582200   -0.861442    0.815168
  H      0.980348    1.838690    0.688355
  H     -0.042640    2.216816   -0.705171
  H     -0.777388    1.926701    0.876761
  H     -1.475647    0.246903   -1.776575
  H     -1.330903   -1.352783   -1.063495
  H     -1.755898   -0.469912    1.750809
  H     -3.452012   -0.105709    1.824170
  H      1.118452   -1.355704   -1.296226
  H      2.104457   -0.004289   -0.577638
  H      1.095362   -0.475881    1.690368
  H      0.114308   -1.829710    0.965627

 Total Charge           Charge          ....    0
 Multiplicity           Mult            ....    1
 Number of Electrons    NEL             ....   62
 Basis Dimension        Dim             ....  314

ORBITAL ENERGIES
----------------

  NO   OCC          E(Eh)            E(eV)
   0   2.0000     -20.511744      -558.1529
   1   2.0000     -15.576587      -423.8605
   2   2.0000     -11.345664      -308.7312
   3   2.0000     -11.255478      -306.2771
   4   2.0000     -11.240187      -305.8610
   5   2.0000     -11.238555      -305.8166
   6   2.0000     -11.235708      -305.7392
   7   2.0000     -11.226585      -305.4909
   8   2.0000      -1.376207       -37.4485
   9   2.0000      -1.207306       -32.8525
  10   2.0000      -1.166745       -31.7487
  11   2.0000      -1.007985       -27.4287
  12   2.0000      -0.963512       -26.2185
  13   2.0000      -0.840036       -22.8585
  14   2.0000      -0.803802       -21.8726
  15   2.0000      -0.758512       -20.6401
  16   2.0000      -0.719718       -19.5845
  17   2.0000      -0.679220       -18.4825
  18   2.0000      -0.645598       -17.5676
  19   2.0000      -0.635583       -17.2951
  20   2.0000      -0.590705       -16.0739
  21   2.0000      -0.584250       -15.8983
  22   2.0000      -0.569197       -15.4886
  23   2.0000      -0.549898       -14.9635
  24   2.0000      -0.536317       -14.5939
  25   2.0000      -0.522733       -14.2243
  26   2.0000      -0.489667       -13.3245
  27   2.0000      -0.443100       -12.0574
  28   2.0000      -0.419187       -11.4067
  29   2.0000      -0.410831       -11.1793
  30   2.0000      -0.399072       -10.8593
  31   0.0000       0.125223         3.4075
  32   0.0000       0.147802         4.0219
  33   0.0000       0.156967         4.2713
  34   0.0000       0.164985         4.4895
  35   0.0000       0.183989         5.0066

MULLIKEN ATOMIC CHARGES
-----------------------
   0 C :   -0.397501
   1 C :    0.047844
   2 C :   -0.187674
   3 C :    0.222237
   4 N :   -0.470748
   5 O :   -0.340630
   6 C :   -0.273671
   7 C :   -0.347141
   8 H :    0.128156
   9 H :    0.139476
  10 H :    0.137859
  11 H :    0.138023
  12 H :    0.129962
  13 H :    0.269313
  14 H :    0.255119
  15 H :    0.133203
  16 H :    0.135229
  17 H :    0.137196
  18 H :    0.143751
Sum of atomic charges:    0.0000000

LOEWDIN ATOMIC CHARGES
----------------------
   0 C :   -0.263397
   1 C :   -0.284825
   2 C :   -0.189044
   3 C :   -0.476045
   4 N :   -0.015909
   5 O :    0.081086
   6 C :   -0.206620
   7 C :   -0.227880
   8 H :    0.128450
   9 H :    0.130929
  10 H :    0.127589
  11 H :    0.158188
  12 H :    0.158844
  13 H :    0.170605
  14 H :    0.171739
  15 H :    0.134809
  16 H :    0.135275
  17 H :    0.133179
  18 H :    0.133027

  Mayer bond orders larger than 0.1
B(  0-C ,  1-C ) :   0.9306 B(  0-C ,  8-H ) :   0.9299 B(  0-C ,  9-H ) :   0.9346
B(  0-C , 10-H ) :   0.9317 B(  1-C ,  2-C ) :   0.8786 B(  1-C ,  6-C ) :   0.8571
B(  1-C ,  7-C ) :   0.8764 B(  2-C ,  3-C ) :   0.9245 B(  2-C , 11-H ) :   0.9256
B(  2-C , 12-H ) :   0.9024 B(  3-C ,  4-N ) :   1.1421 B(  3-C ,  5-O ) :   2.0191
B(  4-N , 13-H ) :   0.8621 B(  4-N , 14-H ) :   0.8607 B(  6-C ,  7-C ) :   0.9015
B(  6-C , 15-H ) :   0.9281 B(  6-C , 16-H ) :   0.9329 B(  7-C , 17-H ) :   0.9271
B(  7-C , 18-H ) :   0.9251

MP2 TOTAL ENERGY:     -364.473405402 Eh
FINAL SINGLE POINT ENERGY      -364.473405402029

DIPOLE MOMENT
-------------
                                X             Y             Z
Electronic contribution:     -7.17978      -0.74547      -0.98946
Nuclear contribution   :      8.34531       0.48225       1.87056
                        -----------------------------------------
Total Dipole Moment    :      1.16552      -0.26321       0.88111
                        -----------------------------------------
Magnitude (a.u.)       :      1.48461
Magnitude (Debye)      :      3.77358

                             ****ORCA TERMINATED NORMALLY****
TOTAL RUN TIME: 0 days 0 hours 13 minutes 13 seconds 420 msec
