                         Program Version 3.0.3 - RELEASE   -
|  1> ! RI-MP2 RIJK def2-TZVP def2-TZVP/C def2-TZVP/JK TIGHTSCF
|  2> % maxcore 2000
|  3> % mp2 density relaxed end
|  4> *xyz 0 1
|  5>  N        0.0406623840     1.2991336620     0.0071943356
|  6>  C       -0.0412573591    -0.0403843473     0.0002130423
|  7>  C       -1.1251188403    -0.8720326469     0.0013414617
|  8>  C       -2.5231729654    -0.4682638099     0.0108881729
|  9>  O       -3.4853477080    -1.1993549833     0.0118068296
| 10>  C       -0.6330073339    -2.2649153916    -0.0088041820
| 11>  O       -1.2120566204    -3.3067282369    -0.0120289170
| 12>  O        0.7648176899    -2.2213862738    -0.0163429545
| 13>  C        1.2104910571    -0.8840824866    -0.0112601816
| 14>  H        0.9315868800     1.7644159106     0.0050399372
| 15>  H       -0.7820548125     1.8770995456     0.0148103068
| 16>  H       -2.6677210723     0.6425307710     0.0176749275
| 17>  H        1.8196739935    -0.6839387032    -0.9031454540
| 18>  H        1.8292973375    -0.6939143696     0.8761703354
| 19> *
| 20>
| 21>                          ****END OF INPUT****

CARTESIAN COORDINATES (ANGSTROEM)
---------------------------------
  N      0.040662    1.299134    0.007194
  C     -0.041257   -0.040384    0.000213
  C     -1.125119   -0.872033    0.001341
  C     -2.523173   -0.468264    0.010888
  O     -3.485348   -1.199355    0.011807
  C     -0.633007   -2.264915   -0.008804
  O     -1.212057   -3.306728   -0.012029
  O      0.764818   -2.221386   -0.016343
  C      1.210491   -0.884082   -0.011260
  H      0.931587    1.764416    0.005040
  H     -0.782055    1.877100    0.014810
  H     -2.667721    0.642531    0.017675
  H      1.819674   -0.683939   -0.903145
  H      1.829297   -0.693914    0.876170

 Total Charge           Charge          ....    0
 Multiplicity           Mult            ....    1
 Number of Electrons    NEL             ....   66
 Basis Dimension        Dim             ....  309

ORBITAL ENERGIES
----------------

  NO   OCC          E(Eh)            E(eV)
   0   2.0000     -20.605385      -560.7010
   1   2.0000     -20.548167      -559.1441
   2   2.0000     -20.532767      -558.7250
   3   2.0000     -15.640716      -425.6055
   4   2.0000     -11.379489      -309.6516
   5   2.0000     -11.358035      -309.0679
   6   2.0000     -11.339567      -308.5653
   7   2.0000     -11.333919      -308.4116
   8   2.0000     -11.250263      -306.1352
   9   2.0000      -1.459697       -39.7204
  10   2.0000      -1.387252       -37.7490
  11   2.0000      -1.367686       -37.2166
  12   2.0000      -1.299006       -35.3477
  13   2.0000      -1.105703       -30.0877
  14   2.0000      -1.013932       -27.5905
  15   2.0000      -0.893186       -24.3048
  16   2.0000      -0.852376       -23.1943
  17   2.0000      -0.793022       -21.5792
  18   2.0000      -0.741204       -20.1692
  19   2.0000      -0.731813       -19.9136
  20   2.0000      -0.707889       -19.2626
  21   2.0000      -0.678103       -18.4521
  22   2.0000      -0.650727       -17.7072
  23   2.0000      -0.623105       -16.9556
  24   2.0000      -0.604142       -16.4395
  25   2.0000      -0.579180       -15.7603
  26   2.0000      -0.571441       -15.5497
  27   2.0000      -0.553348       -15.0574
  28   2.0000      -0.525452       -14.2983
  29   2.0000      -0.462458       -12.5841
  30   2.0000      -0.455316       -12.3898
  31   2.0000      -0.419445       -11.4137
  32   2.0000      -0.366592        -9.9755
  33   0.0000       0.081346         2.2135
  34   0.0000       0.086971         2.3666
  35   0.0000       0.129865         3.5338
  36   0.0000       0.147583         4.0159
  37   0.0000       0.150520         4.0958

MULLIKEN ATOMIC CHARGES
-----------------------
   0 N :   -0.478117
   1 C :    0.172644
   2 C :   -0.092978
   3 C :    0.054060
   4 O :   -0.248431
   5 C :    0.268127
   6 O :   -0.250153
   7 O :   -0.243566
   8 C :   -0.034953
   9 H :    0.273145
  10 H :    0.272542
  11 H :    0.029452
  12 H :    0.139122
  13 H :    0.139107
Sum of atomic charges:    0.0000000

LOEWDIN ATOMIC CHARGES
----------------------
   0 N :    0.023216
   1 C :   -0.206032
   2 C :   -0.167693
   3 C :   -0.289911
   4 O :    0.145155
   5 C :   -0.413567
   6 O :    0.166046
   7 O :    0.238925
   8 C :   -0.246548
   9 H :    0.182809
  10 H :    0.179586
  11 H :    0.105517
  12 H :    0.141255
  13 H :    0.141245

  Mayer bond orders larger than 0.1
B(  0-N ,  1-C ) :   1.1972 B(  0-N ,  9-H ) :   0.8647 B(  0-N , 10-H ) :   0.8632
B(  1-C ,  2-C ) :   1.4452 B(  1-C ,  8-C ) :   0.9564 B(  2-C ,  3-C ) :   0.8505
B(  2-C ,  4-O ) :  -0.1129 B(  2-C ,  5-C ) :   0.9632 B(  2-C , 11-H ) :  -0.1309
B(  3-C ,  4-O ) :   2.0543 B(  3-C , 11-H ) :   1.0065 B(  5-C ,  6-O ) :   2.0860
B(  5-C ,  7-O ) :   1.0387 B(  7-O ,  8-C ) :   0.9515 B(  8-C , 12-H ) :   0.9096
B(  8-C , 13-H ) :   0.9096

MP2 TOTAL ENERGY:     -473.122432983 Eh
FINAL SINGLE POINT ENERGY      -473.122432982696

DIPOLE MOMENT
-------------
                                X             Y             Z
Electronic contribution:     -2.79398      -4.76782      -0.01115
Nuclear contribution   :      4.68021       7.89017       0.01884
                        -----------------------------------------
Total Dipole Moment    :      1.88623       3.12235       0.00769
                        -----------------------------------------
Magnitude (a.u.)       :      3.64788
Magnitude (Debye)      :      9.27217

                             ****ORCA TERMINATED NORMALLY****
TOTAL RUN TIME: 0 days 0 hours 12 minutes 51 seconds 723 msec
