                         Program Version 3.0.3 - RELEASE   -
|  1> ! RI-MP2 RIJK def2-TZVP def2-TZVP/C def2-TZVP/JK TIGHTSCF
|  2> % maxcore 2000
|  3> % mp2 density relaxed end
|  4> *xyz 0 1
|  5>  C       -0.0219186543     1.4607364002     0.0277891663
|  6>  O        0.1052015028     0.0603651675    -0.0833336360
|  7>  C        0.6471413125    -0.5589366840     1.0620799400
|  8>  C       -0.3354513264    -0.8727426668     2.1635959524
|  9>  C       -0.3325260638    -2.1641979424     2.4991973777
| 10>  C        0.6369401598    -2.9820366026     1.6892861786
| 11>  C        1.1770383217    -1.9670259037     0.6725290155
| 12>  O        1.8734342759    -2.2031469492    -0.2741715748
| 13>  H        0.9479167873     1.9384758876     0.2360767708
| 14>  H       -0.3968007179     1.8244591653    -0.9316937019
| 15>  H       -0.7299958816     1.7573090136     0.8160932971
| 16>  H        1.5000618423     0.0357747542     1.4376555961
| 17>  H       -0.9576689988    -0.1128547772     2.6215679520
| 18>  H       -0.9528900104    -2.6025174273     3.2730733303
| 19>  H        1.4692563775    -3.3836567408     2.2829672478
| 20>  H        0.1837779732    -3.8402255444     1.1787865181
| 21> *
| 22>
| 23>                          ****END OF INPUT****

CARTESIAN COORDINATES (ANGSTROEM)
---------------------------------
  C     -0.021919    1.460736    0.027789
  O      0.105202    0.060365   -0.083334
  C      0.647141   -0.558937    1.062080
  C     -0.335451   -0.872743    2.163596
  C     -0.332526   -2.164198    2.499197
  C      0.636940   -2.982037    1.689286
  C      1.177038   -1.967026    0.672529
  O      1.873434   -2.203147   -0.274172
  H      0.947917    1.938476    0.236077
  H     -0.396801    1.824459   -0.931694
  H     -0.729996    1.757309    0.816093
  H      1.500062    0.035775    1.437656
  H     -0.957669   -0.112855    2.621568
  H     -0.952890   -2.602517    3.273073
  H      1.469256   -3.383657    2.282967
  H      0.183778   -3.840226    1.178787

 Total Charge           Charge          ....    0
 Multiplicity           Mult            ....    1
 Number of Electrons    NEL             ....   60
 Basis Dimension        Dim             ....  296

ORBITAL ENERGIES
----------------

  NO   OCC          E(Eh)            E(eV)
   0   2.0000     -20.566380      -559.6397
   1   2.0000     -20.551591      -559.2372
   2   2.0000     -11.332715      -308.3788
   3   2.0000     -11.300423      -307.5001
   4   2.0000     -11.278788      -306.9114
   5   2.0000     -11.252462      -306.1950
   6   2.0000     -11.248200      -306.0791
   7   2.0000     -11.243478      -305.9506
   8   2.0000      -1.402851       -38.1735
   9   2.0000      -1.380037       -37.5527
  10   2.0000      -1.142843       -31.0983
  11   2.0000      -0.992988       -27.0206
  12   2.0000      -0.958591       -26.0846
  13   2.0000      -0.900319       -24.4989
  14   2.0000      -0.770584       -20.9687
  15   2.0000      -0.757879       -20.6229
  16   2.0000      -0.690809       -18.7979
  17   2.0000      -0.677078       -18.4242
  18   2.0000      -0.641720       -17.4621
  19   2.0000      -0.636465       -17.3191
  20   2.0000      -0.608907       -16.5692
  21   2.0000      -0.593359       -16.1461
  22   2.0000      -0.575667       -15.6647
  23   2.0000      -0.559580       -15.2269
  24   2.0000      -0.529894       -14.4191
  25   2.0000      -0.506550       -13.7839
  26   2.0000      -0.499160       -13.5828
  27   2.0000      -0.438531       -11.9330
  28   2.0000      -0.400077       -10.8866
  29   2.0000      -0.375461       -10.2168
  30   0.0000       0.122721         3.3394
  31   0.0000       0.138038         3.7562
  32   0.0000       0.141989         3.8637
  33   0.0000       0.152162         4.1405
  34   0.0000       0.170197         4.6313

MULLIKEN ATOMIC CHARGES
-----------------------
   0 C :   -0.226193
   1 O :   -0.295462
   2 C :    0.178300
   3 C :   -0.228976
   4 C :   -0.163113
   5 C :   -0.165192
   6 C :    0.110172
   7 O :   -0.236935
   8 H :    0.118034
   9 H :    0.146146
  10 H :    0.110408
  11 H :    0.089601
  12 H :    0.139756
  13 H :    0.138874
  14 H :    0.140642
  15 H :    0.143938
Sum of atomic charges:    0.0000000

LOEWDIN ATOMIC CHARGES
----------------------
   0 C :   -0.352889
   1 O :    0.169488
   2 C :   -0.285134
   3 C :   -0.141602
   4 C :   -0.144862
   5 C :   -0.214128
   6 C :   -0.267659
   7 O :    0.179510
   8 H :    0.103309
   9 H :    0.116302
  10 H :    0.100610
  11 H :    0.148331
  12 H :    0.139330
  13 H :    0.139269
  14 H :    0.156180
  15 H :    0.153946

  Mayer bond orders larger than 0.1
B(  0-C ,  1-O ) :   0.9141 B(  0-C ,  8-H ) :   0.9368 B(  0-C ,  9-H ) :   0.9398
B(  0-C , 10-H ) :   0.9331 B(  1-O ,  2-C ) :   0.9125 B(  2-C ,  3-C ) :   0.8941
B(  2-C ,  5-C ) :  -0.1264 B(  2-C ,  6-C ) :   0.8676 B(  2-C , 11-H ) :   0.8969
B(  3-C ,  4-C ) :   1.7443 B(  3-C , 12-H ) :   0.9083 B(  4-C ,  5-C ) :   0.9145
B(  4-C , 13-H ) :   0.9148 B(  5-C ,  6-C ) :   0.9312 B(  5-C , 14-H ) :   0.8908
B(  5-C , 15-H ) :   0.9011 B(  6-C ,  7-O ) :   2.0992

MP2 TOTAL ENERGY:     -383.101282942 Eh
FINAL SINGLE POINT ENERGY      -383.101282941749

DIPOLE MOMENT
-------------
                                X             Y             Z
Electronic contribution:      2.13312      -3.76439      -2.15377
Nuclear contribution   :     -2.60180       4.17467       3.33000
                        -----------------------------------------
Total Dipole Moment    :     -0.46869       0.41028       1.17623
                        -----------------------------------------
Magnitude (a.u.)       :      1.33098
Magnitude (Debye)      :      3.38308

                             ****ORCA TERMINATED NORMALLY****
TOTAL RUN TIME: 0 days 0 hours 10 minutes 51 seconds 608 msec
