                         Program Version 3.0.3 - RELEASE   -
|  1> ! RI-MP2 RIJK def2-TZVP def2-TZVP/C def2-TZVP/JK TIGHTSCF
|  2> % maxcore 2000
|  3> % mp2 density relaxed end
|  4> *xyz 0 1
|  5>  C        0.0335002468     1.3754116005     0.0261846064
|  6>  O        1.3201364202     1.9266465410     0.0064937975
|  7>  C        2.0921139019     1.6376918174     1.1809317226
|  8>  C        1.8295287510     0.2070616895     1.4861149152
|  9>  C        0.8952676518    -0.5385100402     0.8533442733
| 10>  O        0.0259043642    -0.0558992765    -0.0573895673
| 11>  N        0.9485055208    -1.8463126572     1.2769468348
| 12>  C        1.9095937306    -1.8303762672     2.1484185989
| 13>  O        2.5026492040    -0.6253853250     2.3411535472
| 14>  H       -0.5013456678     1.6616640291     0.9454852013
| 15>  H       -0.4827265606     1.7345388981    -0.8633588013
| 16>  H        3.1349724980     1.8338873210     0.9109025665
| 17>  H        1.8214365940     2.3177598463     2.0040634184
| 18>  H        2.2871926452    -2.6521137168     2.7351885564
| 19> *
| 20>
| 21>                          ****END OF INPUT****

CARTESIAN COORDINATES (ANGSTROEM)
---------------------------------
  C      0.033500    1.375412    0.026185
  O      1.320136    1.926647    0.006494
  C      2.092114    1.637692    1.180932
  C      1.829529    0.207062    1.486115
  C      0.895268   -0.538510    0.853344
  O      0.025904   -0.055899   -0.057390
  N      0.948506   -1.846313    1.276947
  C      1.909594   -1.830376    2.148419
  O      2.502649   -0.625385    2.341154
  H     -0.501346    1.661664    0.945485
  H     -0.482727    1.734539   -0.863359
  H      3.134972    1.833887    0.910903
  H      1.821437    2.317760    2.004063
  H      2.287193   -2.652114    2.735189

 Total Charge           Charge          ....    0
 Multiplicity           Mult            ....    1
 Number of Electrons    NEL             ....   66
 Basis Dimension        Dim             ....  309

ORBITAL ENERGIES
----------------

  NO   OCC          E(Eh)            E(eV)
   0   2.0000     -20.649430      -561.8996
   1   2.0000     -20.599292      -560.5352
   2   2.0000     -20.587860      -560.2241
   3   2.0000     -15.578454      -423.9113
   4   2.0000     -11.352349      -308.9131
   5   2.0000     -11.349464      -308.8346
   6   2.0000     -11.322266      -308.0945
   7   2.0000     -11.312515      -307.8292
   8   2.0000     -11.287197      -307.1402
   9   2.0000      -1.498329       -40.7716
  10   2.0000      -1.453923       -39.5633
  11   2.0000      -1.381878       -37.6028
  12   2.0000      -1.244896       -33.8754
  13   2.0000      -1.073979       -29.2244
  14   2.0000      -0.962022       -26.1780
  15   2.0000      -0.926976       -25.2243
  16   2.0000      -0.857849       -23.3432
  17   2.0000      -0.789257       -21.4768
  18   2.0000      -0.758185       -20.6313
  19   2.0000      -0.714652       -19.4467
  20   2.0000      -0.691915       -18.8280
  21   2.0000      -0.672027       -18.2868
  22   2.0000      -0.668631       -18.1944
  23   2.0000      -0.633641       -17.2423
  24   2.0000      -0.616066       -16.7640
  25   2.0000      -0.593575       -16.1520
  26   2.0000      -0.575364       -15.6564
  27   2.0000      -0.538787       -14.6611
  28   2.0000      -0.503737       -13.7074
  29   2.0000      -0.479534       -13.0488
  30   2.0000      -0.464484       -12.6392
  31   2.0000      -0.445431       -12.1208
  32   2.0000      -0.327572        -8.9137
  33   0.0000       0.127822         3.4782
  34   0.0000       0.141874         3.8606
  35   0.0000       0.171857         4.6765
  36   0.0000       0.178275         4.8511
  37   0.0000       0.194354         5.2886

MULLIKEN ATOMIC CHARGES
-----------------------
   0 C :    0.075245
   1 O :   -0.293659
   2 C :   -0.036067
   3 C :    0.030139
   4 C :    0.159715
   5 O :   -0.267085
   6 N :   -0.247997
   7 C :    0.107277
   8 O :   -0.212262
   9 H :    0.103137
  10 H :    0.146777
  11 H :    0.145010
  12 H :    0.128870
  13 H :    0.160902
Sum of atomic charges:    0.0000000

LOEWDIN ATOMIC CHARGES
----------------------
   0 C :   -0.346117
   1 O :    0.173150
   2 C :   -0.264071
   3 C :   -0.267184
   4 C :   -0.361537
   5 O :    0.244561
   6 N :    0.135143
   7 C :   -0.313972
   8 O :    0.346866
   9 H :    0.117055
  10 H :    0.128975
  11 H :    0.142820
  12 H :    0.130337
  13 H :    0.133975

  Mayer bond orders larger than 0.1
B(  0-C ,  1-O ) :   0.9745 B(  0-C ,  5-O ) :   0.8993 B(  0-C ,  9-H ) :   0.9289
B(  0-C , 10-H ) :   0.9274 B(  1-O ,  2-C ) :   0.9228 B(  2-C ,  3-C ) :   0.9116
B(  2-C , 11-H ) :   0.9132 B(  2-C , 12-H ) :   0.9459 B(  3-C ,  4-C ) :   1.5311
B(  3-C ,  8-O ) :   0.9981 B(  4-C ,  5-O ) :   1.0727 B(  4-C ,  6-N ) :   1.2504
B(  6-N ,  7-C ) :   1.6078 B(  7-C ,  8-O ) :   1.0876 B(  7-C , 13-H ) :   0.9287

MP2 TOTAL ENERGY:     -473.085208666 Eh
FINAL SINGLE POINT ENERGY      -473.085208666042

DIPOLE MOMENT
-------------
                                X             Y             Z
Electronic contribution:      0.46763      -3.50972       0.05512
Nuclear contribution   :     -0.12148       4.25731       0.61799
                        -----------------------------------------
Total Dipole Moment    :      0.34615       0.74759       0.67312
                        -----------------------------------------
Magnitude (a.u.)       :      1.06385
Magnitude (Debye)      :      2.70410

                             ****ORCA TERMINATED NORMALLY****
TOTAL RUN TIME: 0 days 0 hours 14 minutes 8 seconds 213 msec
