                         Program Version 3.0.3 - RELEASE   -
|  1> ! RI-MP2 RIJK def2-TZVP def2-TZVP/C def2-TZVP/JK TIGHTSCF
|  2> % maxcore 2000
|  3> % mp2 density relaxed end
|  4> *xyz 0 1
|  5>  O       -0.0572329844    -0.0162740469     0.0260831281
|  6>  C       -0.0487469205     1.1708488545    -0.0200161665
|  7>  C       -1.0779320340     2.3243365129     0.0253348914
|  8>  C       -0.0559110142     2.9797664419     1.0148221998
|  9>  C        1.0037961828     2.3328000334     0.0656170671
| 10>  O        0.7645486506     3.0148861667    -1.1854061301
| 11>  C       -0.6859998357     3.0383291300    -1.2761930470
| 12>  C        2.3916485725     2.1742343937     0.3742913992
| 13>  C        3.5440002044     1.9996611004     0.6657205182
| 14>  H       -2.1303415450     2.1739448529     0.2495891984
| 15>  H       -0.0332904853     4.0704265186     1.0449302303
| 16>  H       -0.0660433044     2.5437232688     2.0144151467
| 17>  H       -1.0135944300     2.5059288022    -2.1757191485
| 18>  H       -1.0329810667     4.0765221487    -1.3238985170
| 19>  H        4.5652684899     1.8477534322     0.9150444200
| 20> *
| 21>
| 22>                          ****END OF INPUT****

CARTESIAN COORDINATES (ANGSTROEM)
---------------------------------
  O     -0.057233   -0.016274    0.026083
  C     -0.048747    1.170849   -0.020016
  C     -1.077932    2.324337    0.025335
  C     -0.055911    2.979766    1.014822
  C      1.003796    2.332800    0.065617
  O      0.764549    3.014886   -1.185406
  C     -0.686000    3.038329   -1.276193
  C      2.391649    2.174234    0.374291
  C      3.544000    1.999661    0.665721
  H     -2.130342    2.173945    0.249589
  H     -0.033290    4.070427    1.044930
  H     -0.066043    2.543723    2.014415
  H     -1.013594    2.505929   -2.175719
  H     -1.032981    4.076522   -1.323899
  H      4.565268    1.847753    0.915044

 Total Charge           Charge          ....    0
 Multiplicity           Mult            ....    1
 Number of Electrons    NEL             ....   64
 Basis Dimension        Dim             ....  315

ORBITAL ENERGIES
----------------

  NO   OCC          E(Eh)            E(eV)
   0   2.0000     -20.582796      -560.0864
   1   2.0000     -20.573541      -559.8345
   2   2.0000     -11.353785      -308.9522
   3   2.0000     -11.337649      -308.5131
   4   2.0000     -11.305120      -307.6280
   5   2.0000     -11.272188      -306.7318
   6   2.0000     -11.265768      -306.5571
   7   2.0000     -11.247296      -306.0545
   8   2.0000     -11.243130      -305.9411
   9   2.0000      -1.426661       -38.8214
  10   2.0000      -1.401931       -38.1485
  11   2.0000      -1.148089       -31.2411
  12   2.0000      -1.068426       -29.0733
  13   2.0000      -0.996661       -27.1205
  14   2.0000      -0.893790       -24.3213
  15   2.0000      -0.853920       -23.2363
  16   2.0000      -0.793860       -21.6020
  17   2.0000      -0.735309       -20.0088
  18   2.0000      -0.712314       -19.3830
  19   2.0000      -0.681512       -18.5449
  20   2.0000      -0.661200       -17.9922
  21   2.0000      -0.641682       -17.4611
  22   2.0000      -0.606294       -16.4981
  23   2.0000      -0.566122       -15.4050
  24   2.0000      -0.555036       -15.1033
  25   2.0000      -0.540837       -14.7169
  26   2.0000      -0.527103       -14.3432
  27   2.0000      -0.502638       -13.6775
  28   2.0000      -0.472514       -12.8578
  29   2.0000      -0.431417       -11.7395
  30   2.0000      -0.405328       -11.0295
  31   2.0000      -0.368989       -10.0407
  32   0.0000       0.126275         3.4361
  33   0.0000       0.133629         3.6362
  34   0.0000       0.152853         4.1593
  35   0.0000       0.154659         4.2085
  36   0.0000       0.164262         4.4698

MULLIKEN ATOMIC CHARGES
-----------------------
   0 O :   -0.216044
   1 C :    0.111246
   2 C :   -0.079443
   3 C :   -0.264712
   4 C :   -0.045410
   5 O :   -0.299258
   6 C :   -0.067907
   7 C :    0.037082
   8 C :   -0.067070
   9 H :    0.155970
  10 H :    0.143154
  11 H :    0.149022
  12 H :    0.124048
  13 H :    0.119583
  14 H :    0.199738
Sum of atomic charges:   -0.0000000

LOEWDIN ATOMIC CHARGES
----------------------
   0 O :    0.195847
   1 C :   -0.240589
   2 C :   -0.182585
   3 C :   -0.149722
   4 C :   -0.278768
   5 O :    0.185884
   6 C :   -0.244131
   7 C :   -0.057257
   8 C :   -0.052657
   9 H :    0.144745
  10 H :    0.143747
  11 H :    0.148986
  12 H :    0.129475
  13 H :    0.126315
  14 H :    0.130710

  Mayer bond orders larger than 0.1
B(  0-O ,  1-C ) :   2.0726 B(  1-C ,  2-C ) :   0.8537 B(  1-C ,  4-C ) :   0.7934
B(  2-C ,  3-C ) :   0.8966 B(  2-C ,  6-C ) :   0.9254 B(  2-C ,  9-H ) :   0.8946
B(  3-C ,  4-C ) :   0.8776 B(  3-C , 10-H ) :   0.9103 B(  3-C , 11-H ) :   0.9160
B(  4-C ,  5-O ) :   0.9975 B(  4-C ,  7-C ) :   1.1676 B(  4-C ,  8-C ) :  -0.1830
B(  5-O ,  6-C ) :   0.9066 B(  6-C , 12-H ) :   0.9227 B(  6-C , 13-H ) :   0.9256
B(  7-C ,  8-C ) :   2.6466 B(  8-C , 14-H ) :   0.8640

MP2 TOTAL ENERGY:     -419.855664221 Eh
FINAL SINGLE POINT ENERGY      -419.855664220688

DIPOLE MOMENT
-------------
                                X             Y             Z
Electronic contribution:      2.53251      -3.45291      -0.58613
Nuclear contribution   :     -3.07835       4.25531       1.01521
                        -----------------------------------------
Total Dipole Moment    :     -0.54584       0.80240       0.42908
                        -----------------------------------------
Magnitude (a.u.)       :      1.06108
Magnitude (Debye)      :      2.69706

                             ****ORCA TERMINATED NORMALLY****
TOTAL RUN TIME: 0 days 0 hours 15 minutes 34 seconds 544 msec
