                         Program Version 3.0.3 - RELEASE   -
|  1> ! RI-MP2 RIJK def2-TZVP def2-TZVP/C def2-TZVP/JK TIGHTSCF
|  2> % maxcore 2000
|  3> % mp2 density relaxed end
|  4> *xyz 0 1
|  5>  N        0.0364194976    -1.0889942553     0.1097770181
|  6>  C        0.0055183458     0.0658104108     0.0508776206
|  7>  C       -0.0316932366     1.5081271743    -0.0563162564
|  8>  C        0.5709585162     2.0980832382    -1.3427898904
|  9>  C        1.3153921270     2.2217861450    -0.0462473788
| 10>  O        1.3961367753     3.4732704838     0.5548788909
| 11>  C        0.4790838332     3.6420247534     1.6336762488
| 12>  C       -0.9447469544     3.4714004337     1.1318375197
| 13>  N       -1.1306968582     2.0977146025     0.6616979040
| 14>  H        0.9369535946     1.4115950482    -2.0971398882
| 15>  H        0.1034266814     3.0034498915    -1.7131176912
| 16>  H        2.1977704832     1.6046779454     0.1068338173
| 17>  H        0.6897175052     2.9229877193     2.4381678436
| 18>  H        0.6404153190     4.6541529161     2.0104747320
| 19>  H       -1.6549236001     3.6563797139     1.9455042001
| 20>  H       -1.1246411294     4.2294049816     0.3511779093
| 21>  H       -1.9973623398     1.9913893875     0.1482470604
| 22> *
| 23>
| 24>                          ****END OF INPUT****

CARTESIAN COORDINATES (ANGSTROEM)
---------------------------------
  N      0.036419   -1.088994    0.109777
  C      0.005518    0.065810    0.050878
  C     -0.031693    1.508127   -0.056316
  C      0.570959    2.098083   -1.342790
  C      1.315392    2.221786   -0.046247
  O      1.396137    3.473270    0.554879
  C      0.479084    3.642025    1.633676
  C     -0.944747    3.471400    1.131838
  N     -1.130697    2.097715    0.661698
  H      0.936954    1.411595   -2.097140
  H      0.103427    3.003450   -1.713118
  H      2.197770    1.604678    0.106834
  H      0.689718    2.922988    2.438168
  H      0.640415    4.654153    2.010475
  H     -1.654924    3.656380    1.945504
  H     -1.124641    4.229405    0.351178
  H     -1.997362    1.991389    0.148247

 Total Charge           Charge          ....    0
 Multiplicity           Mult            ....    1
 Number of Electrons    NEL             ....   66
 Basis Dimension        Dim             ....  327

ORBITAL ENERGIES
----------------

  NO   OCC          E(Eh)            E(eV)
   0   2.0000     -20.582768      -560.0856
   1   2.0000     -15.577577      -423.8874
   2   2.0000     -15.568536      -423.6414
   3   2.0000     -11.321455      -308.0725
   4   2.0000     -11.316662      -307.9420
   5   2.0000     -11.296113      -307.3828
   6   2.0000     -11.275461      -306.8209
   7   2.0000     -11.271977      -306.7261
   8   2.0000     -11.256434      -306.3031
   9   2.0000      -1.412009       -38.4227
  10   2.0000      -1.257504       -34.2184
  11   2.0000      -1.210087       -32.9281
  12   2.0000      -1.145816       -31.1793
  13   2.0000      -1.003517       -27.3071
  14   2.0000      -0.929736       -25.2994
  15   2.0000      -0.863754       -23.5039
  16   2.0000      -0.801959       -21.8224
  17   2.0000      -0.762205       -20.7406
  18   2.0000      -0.708236       -19.2721
  19   2.0000      -0.679882       -18.5005
  20   2.0000      -0.648720       -17.6526
  21   2.0000      -0.630025       -17.1439
  22   2.0000      -0.616785       -16.7836
  23   2.0000      -0.585089       -15.9211
  24   2.0000      -0.574395       -15.6301
  25   2.0000      -0.550368       -14.9763
  26   2.0000      -0.533660       -14.5216
  27   2.0000      -0.517764       -14.0891
  28   2.0000      -0.491705       -13.3800
  29   2.0000      -0.464037       -12.6271
  30   2.0000      -0.442416       -12.0388
  31   2.0000      -0.420217       -11.4347
  32   2.0000      -0.377711       -10.2780
  33   0.0000       0.125382         3.4118
  34   0.0000       0.144029         3.9192
  35   0.0000       0.150096         4.0843
  36   0.0000       0.158915         4.3243
  37   0.0000       0.174367         4.7448

MULLIKEN ATOMIC CHARGES
-----------------------
   0 N :   -0.050747
   1 C :   -0.250261
   2 C :    0.260118
   3 C :   -0.272565
   4 C :    0.025341
   5 O :   -0.304111
   6 C :   -0.066850
   7 C :   -0.131205
   8 N :   -0.355598
   9 H :    0.151809
  10 H :    0.147714
  11 H :    0.138996
  12 H :    0.113455
  13 H :    0.136372
  14 H :    0.128954
  15 H :    0.105513
  16 H :    0.223064
Sum of atomic charges:   -0.0000000

LOEWDIN ATOMIC CHARGES
----------------------
   0 N :    0.066262
   1 C :   -0.151309
   2 C :   -0.286595
   3 C :   -0.164924
   4 C :   -0.251663
   5 O :    0.194878
   6 C :   -0.297700
   7 C :   -0.301265
   8 N :    0.048873
   9 H :    0.143963
  10 H :    0.144668
  11 H :    0.147216
  12 H :    0.129860
  13 H :    0.135056
  14 H :    0.137998
  15 H :    0.124431
  16 H :    0.180251

  Mayer bond orders larger than 0.1
B(  0-N ,  1-C ) :   2.8800 B(  1-C ,  2-C ) :   0.9318 B(  2-C ,  3-C ) :   0.8473
B(  2-C ,  4-C ) :   0.8183 B(  2-C ,  8-N ) :   0.9300 B(  3-C ,  4-C ) :   0.8743
B(  3-C ,  9-H ) :   0.9127 B(  3-C , 10-H ) :   0.9128 B(  4-C ,  5-O ) :   0.9913
B(  4-C , 11-H ) :   0.9427 B(  5-O ,  6-C ) :   0.9060 B(  6-C ,  7-C ) :   0.9514
B(  6-C , 12-H ) :   0.9316 B(  6-C , 13-H ) :   0.9270 B(  7-C ,  8-N ) :   0.9267
B(  7-C , 14-H ) :   0.9103 B(  7-C , 15-H ) :   0.9235 B(  8-N , 16-H ) :   0.8773

MP2 TOTAL ENERGY:     -417.282297262 Eh
FINAL SINGLE POINT ENERGY      -417.282297262256

DIPOLE MOMENT
-------------
                                X             Y             Z
Electronic contribution:      1.19554      -5.35043      -0.75710
Nuclear contribution   :     -1.60970       6.93819       0.61717
                        -----------------------------------------
Total Dipole Moment    :     -0.41416       1.58777      -0.13993
                        -----------------------------------------
Magnitude (a.u.)       :      1.64685
Magnitude (Debye)      :      4.18596

                             ****ORCA TERMINATED NORMALLY****
TOTAL RUN TIME: 0 days 0 hours 17 minutes 12 seconds 38 msec
