                         Program Version 3.0.3 - RELEASE   -
|  1> ! RI-MP2 RIJK def2-TZVP def2-TZVP/C def2-TZVP/JK TIGHTSCF
|  2> % maxcore 2000
|  3> % mp2 density relaxed end
|  4> *xyz 0 1
|  5>  O        0.0440912242     1.3003057049     0.3194434327
|  6>  C       -0.0145205257    -0.0981922289     0.1733673357
|  7>  C       -1.4225000646    -0.5655214075    -0.1892640378
|  8>  C       -1.6093501655    -2.0880120868    -0.1670749025
|  9>  O       -2.1706856582    -2.3326642595     1.1258317024
| 10>  C       -2.6532839941    -1.1653814651     1.6404609062
| 11>  N       -3.3041675881    -1.0145937163     2.7035823821
| 12>  O       -2.3327540937    -0.1223918347     0.8328620620
| 13>  H       -0.6234757522     1.5408845857     0.9731765695
| 14>  H        0.6758295706    -0.3672787486    -0.6340497855
| 15>  H        0.3138452587    -0.6256190805     1.0850344708
| 16>  H       -1.7407873000    -0.1044612481    -1.1271928852
| 17>  H       -2.3023462216    -2.4388418772    -0.9387758389
| 18>  H       -0.6682891287    -2.6382450510    -0.2495157959
| 19>  H       -3.4733231113    -1.9160980264     3.1429583645
| 20> *
| 21>
| 22>                          ****END OF INPUT****

CARTESIAN COORDINATES (ANGSTROEM)
---------------------------------
  O      0.044091    1.300306    0.319443
  C     -0.014521   -0.098192    0.173367
  C     -1.422500   -0.565521   -0.189264
  C     -1.609350   -2.088012   -0.167075
  O     -2.170686   -2.332664    1.125832
  C     -2.653284   -1.165381    1.640461
  N     -3.304168   -1.014594    2.703582
  O     -2.332754   -0.122392    0.832862
  H     -0.623476    1.540885    0.973177
  H      0.675830   -0.367279   -0.634050
  H      0.313845   -0.625619    1.085034
  H     -1.740787   -0.104461   -1.127193
  H     -2.302346   -2.438842   -0.938776
  H     -0.668289   -2.638245   -0.249516
  H     -3.473323   -1.916098    3.142958

 Total Charge           Charge          ....    0
 Multiplicity           Mult            ....    1
 Number of Electrons    NEL             ....   62
 Basis Dimension        Dim             ....  290

ORBITAL ENERGIES
----------------

  NO   OCC          E(Eh)            E(eV)
   0   2.0000     -20.621411      -561.1371
   1   2.0000     -20.616707      -561.0091
   2   2.0000     -20.570001      -559.7382
   3   2.0000     -15.532414      -422.6585
   4   2.0000     -11.399355      -310.1922
   5   2.0000     -11.322678      -308.1057
   6   2.0000     -11.320632      -308.0500
   7   2.0000     -11.299295      -307.4695
   8   2.0000      -1.507336       -41.0167
   9   2.0000      -1.396190       -37.9923
  10   2.0000      -1.374434       -37.4003
  11   2.0000      -1.210664       -32.9439
  12   2.0000      -1.065974       -29.0066
  13   2.0000      -0.954516       -25.9737
  14   2.0000      -0.876163       -23.8416
  15   2.0000      -0.827535       -22.5184
  16   2.0000      -0.750421       -20.4200
  17   2.0000      -0.730188       -19.8694
  18   2.0000      -0.690946       -18.8016
  19   2.0000      -0.680899       -18.5282
  20   2.0000      -0.652750       -17.7622
  21   2.0000      -0.638897       -17.3853
  22   2.0000      -0.599810       -16.3217
  23   2.0000      -0.594541       -16.1783
  24   2.0000      -0.573161       -15.5965
  25   2.0000      -0.547135       -14.8883
  26   2.0000      -0.523554       -14.2466
  27   2.0000      -0.497806       -13.5460
  28   2.0000      -0.453619       -12.3436
  29   2.0000      -0.451968       -12.2987
  30   2.0000      -0.402476       -10.9519
  31   0.0000       0.127966         3.4821
  32   0.0000       0.147461         4.0126
  33   0.0000       0.158986         4.3262
  34   0.0000       0.164251         4.4695
  35   0.0000       0.185098         5.0368

MULLIKEN ATOMIC CHARGES
-----------------------
   0 O :   -0.470310
   1 C :   -0.057002
   2 C :    0.055650
   3 C :   -0.069413
   4 O :   -0.268708
   5 C :    0.277083
   6 N :   -0.386777
   7 O :   -0.269596
   8 H :    0.335721
   9 H :    0.119014
  10 H :    0.116297
  11 H :    0.123740
  12 H :    0.124005
  13 H :    0.134619
  14 H :    0.235680
Sum of atomic charges:    0.0000000

LOEWDIN ATOMIC CHARGES
----------------------
   0 O :   -0.031812
   1 C :   -0.337612
   2 C :   -0.297210
   3 C :   -0.249638
   4 O :    0.230864
   5 C :   -0.538898
   6 N :   -0.075163
   7 O :    0.264432
   8 H :    0.183409
   9 H :    0.135042
  10 H :    0.126236
  11 H :    0.148876
  12 H :    0.130008
  13 H :    0.135941
  14 H :    0.175524

  Mayer bond orders larger than 0.1
B(  0-O ,  1-C ) :   0.9403 B(  0-O ,  8-H ) :   0.8291 B(  1-C ,  2-C ) :   0.9387
B(  1-C ,  9-H ) :   0.9260 B(  1-C , 10-H ) :   0.9034 B(  2-C ,  3-C ) :   0.9077
B(  2-C ,  7-O ) :   0.8489 B(  2-C , 11-H ) :   0.9228 B(  3-C ,  4-O ) :   0.8899
B(  3-C , 12-H ) :   0.9211 B(  3-C , 13-H ) :   0.9252 B(  4-O ,  5-C ) :   1.0669
B(  5-C ,  6-N ) :   2.0121 B(  5-C ,  7-O ) :   1.0638 B(  6-N , 14-H ) :   0.8477

MP2 TOTAL ENERGY:     -436.275192472 Eh
FINAL SINGLE POINT ENERGY      -436.275192472035

DIPOLE MOMENT
-------------
                                X             Y             Z
Electronic contribution:     -3.04659       0.24428       2.16786
Nuclear contribution   :      3.54099      -1.28884      -3.15581
                        -----------------------------------------
Total Dipole Moment    :      0.49440      -1.04455      -0.98795
                        -----------------------------------------
Magnitude (a.u.)       :      1.52038
Magnitude (Debye)      :      3.86450

                             ****ORCA TERMINATED NORMALLY****
TOTAL RUN TIME: 0 days 0 hours 10 minutes 30 seconds 2 msec
