                         Program Version 3.0.3 - RELEASE   -
|  1> ! RI-MP2 RIJK def2-TZVP def2-TZVP/C def2-TZVP/JK TIGHTSCF
|  2> % maxcore 2000
|  3> % mp2 density relaxed end
|  4> *xyz 0 1
|  5>  C       -0.0568622802     1.4928493898    -0.0452762293
|  6>  C        0.0219811348    -0.0092376629     0.0150325197
|  7>  N       -1.1804430083    -0.7089215202    -0.4208591148
|  8>  C       -1.2472784513    -2.0006828971     0.2777469066
|  9>  C       -0.2136699050    -1.9610973787     1.4173899821
| 10>  O       -0.1646637387    -2.7315294826     2.3455831988
| 11>  C        0.6798380647    -0.7921638384     1.1770304337
| 12>  C        1.3020012294    -0.7174008383    -0.2304502798
| 13>  O        1.3300425616    -1.8159310543    -1.0845876393
| 14>  H        0.8941655784     1.9510100645     0.2374020443
| 15>  H       -0.3042487411     1.8174195825    -1.0617584858
| 16>  H       -0.8282758902     1.8742504499     0.6338623593
| 17>  H       -1.9774408994    -0.1434900076    -0.1498426295
| 18>  H       -2.2453381076    -2.2001417005     0.6755755447
| 19>  H       -0.9789750988    -2.8248308880    -0.3929435341
| 20>  H        1.2122606338    -0.3621929591     2.0164947467
| 21>  H        2.1877883908    -0.0826528445    -0.2711062257
| 22>  H        2.0115350371    -2.4224935048    -0.7737991677
| 23> *
| 24>
| 25>                          ****END OF INPUT****

CARTESIAN COORDINATES (ANGSTROEM)
---------------------------------
  C     -0.056862    1.492849   -0.045276
  C      0.021981   -0.009238    0.015033
  N     -1.180443   -0.708922   -0.420859
  C     -1.247278   -2.000683    0.277747
  C     -0.213670   -1.961097    1.417390
  O     -0.164664   -2.731529    2.345583
  C      0.679838   -0.792164    1.177030
  C      1.302001   -0.717401   -0.230450
  O      1.330043   -1.815931   -1.084588
  H      0.894166    1.951010    0.237402
  H     -0.304249    1.817420   -1.061758
  H     -0.828276    1.874250    0.633862
  H     -1.977441   -0.143490   -0.149843
  H     -2.245338   -2.200142    0.675576
  H     -0.978975   -2.824831   -0.392944
  H      1.212261   -0.362193    2.016495
  H      2.187788   -0.082653   -0.271106
  H      2.011535   -2.422494   -0.773799

 Total Charge           Charge          ....    0
 Multiplicity           Mult            ....    1
 Number of Electrons    NEL             ....   68
 Basis Dimension        Dim             ....  333

ORBITAL ENERGIES
----------------

  NO   OCC          E(Eh)            E(eV)
   0   2.0000     -20.579870      -560.0067
   1   2.0000     -20.541514      -558.9630
   2   2.0000     -15.562787      -423.4850
   3   2.0000     -11.329692      -308.2966
   4   2.0000     -11.305914      -307.6496
   5   2.0000     -11.289161      -307.1937
   6   2.0000     -11.260347      -306.4096
   7   2.0000     -11.241146      -305.8871
   8   2.0000     -11.238824      -305.8240
   9   2.0000      -1.394498       -37.9462
  10   2.0000      -1.383692       -37.6522
  11   2.0000      -1.254225       -34.1292
  12   2.0000      -1.114287       -30.3213
  13   2.0000      -1.017268       -27.6813
  14   2.0000      -0.942701       -25.6522
  15   2.0000      -0.875738       -23.8300
  16   2.0000      -0.787438       -21.4273
  17   2.0000      -0.759945       -20.6791
  18   2.0000      -0.706980       -19.2379
  19   2.0000      -0.671219       -18.2648
  20   2.0000      -0.649877       -17.6841
  21   2.0000      -0.642005       -17.4698
  22   2.0000      -0.627631       -17.0787
  23   2.0000      -0.599692       -16.3185
  24   2.0000      -0.590824       -16.0771
  25   2.0000      -0.581856       -15.8331
  26   2.0000      -0.566760       -15.4223
  27   2.0000      -0.527738       -14.3605
  28   2.0000      -0.512656       -13.9501
  29   2.0000      -0.505868       -13.7654
  30   2.0000      -0.470432       -12.8011
  31   2.0000      -0.428490       -11.6598
  32   2.0000      -0.404836       -11.0161
  33   2.0000      -0.357438        -9.7264
  34   0.0000       0.120485         3.2786
  35   0.0000       0.135220         3.6795
  36   0.0000       0.139382         3.7928
  37   0.0000       0.159054         4.3281
  38   0.0000       0.176603         4.8056

MULLIKEN ATOMIC CHARGES
-----------------------
   0 C :   -0.435471
   1 C :    0.192115
   2 N :   -0.323297
   3 C :   -0.078649
   4 C :    0.054577
   5 O :   -0.280542
   6 C :   -0.140594
   7 C :   -0.024608
   8 O :   -0.459727
   9 H :    0.131418
  10 H :    0.157596
  11 H :    0.134399
  12 H :    0.212081
  13 H :    0.144733
  14 H :    0.121132
  15 H :    0.145579
  16 H :    0.118791
  17 H :    0.330466
Sum of atomic charges:    0.0000000

LOEWDIN ATOMIC CHARGES
----------------------
   0 C :   -0.263915
   1 C :   -0.284233
   2 N :    0.036307
   3 C :   -0.251348
   4 C :   -0.318939
   5 O :    0.142708
   6 C :   -0.146094
   7 C :   -0.274909
   8 O :    0.022092
   9 H :    0.132908
  10 H :    0.136348
  11 H :    0.128307
  12 H :    0.176693
  13 H :    0.138842
  14 H :    0.145687
  15 H :    0.151178
  16 H :    0.141936
  17 H :    0.186431

  Mayer bond orders larger than 0.1
B(  0-C ,  1-C ) :   0.8775 B(  0-C ,  9-H ) :   0.9279 B(  0-C , 10-H ) :   0.9449
B(  0-C , 11-H ) :   0.9333 B(  1-C ,  2-N ) :   1.0354 B(  1-C ,  6-C ) :   0.7922
B(  1-C ,  7-C ) :   0.8528 B(  2-N ,  3-C ) :   0.9830 B(  2-N , 12-H ) :   0.8726
B(  3-C ,  4-C ) :   0.9134 B(  3-C ,  6-C ) :  -0.1171 B(  3-C , 13-H ) :   0.9158
B(  3-C , 14-H ) :   0.8817 B(  4-C ,  5-O ) :   2.0232 B(  4-C ,  6-C ) :   0.9466
B(  6-C ,  7-C ) :   0.7977 B(  6-C , 15-H ) :   0.9054 B(  7-C ,  8-O ) :   1.0892
B(  7-C , 16-H ) :   0.9635 B(  8-O , 17-H ) :   0.8351

MP2 TOTAL ENERGY:     -438.364076350 Eh
FINAL SINGLE POINT ENERGY      -438.364076349526

DIPOLE MOMENT
-------------
                                X             Y             Z
Electronic contribution:      0.84620      -5.58140       2.08633
Nuclear contribution   :     -0.54413       6.55250      -2.23168
                        -----------------------------------------
Total Dipole Moment    :      0.30208       0.97110      -0.14534
                        -----------------------------------------
Magnitude (a.u.)       :      1.02734
Magnitude (Debye)      :      2.61128

                             ****ORCA TERMINATED NORMALLY****
TOTAL RUN TIME: 0 days 0 hours 19 minutes 44 seconds 286 msec
