                         Program Version 3.0.3 - RELEASE   -
|  1> ! RI-MP2 RIJK def2-TZVP def2-TZVP/C def2-TZVP/JK TIGHTSCF
|  2> % maxcore 2000
|  3> % mp2 density relaxed end
|  4> *xyz 0 1
|  5>  O        0.0048541768    -0.2164366734    -0.0056738169
|  6>  C       -0.0113515416     0.9819703502     0.0021401959
|  7>  C        1.2536989838     1.8480175613    -0.1476848390
|  8>  C        2.5016024310     1.1143907479    -0.0405148502
|  9>  C        3.5366888027     0.5135131948     0.0503455633
| 10>  C       -1.2993213524     1.8114764466     0.1630170265
| 11>  C       -2.5269623322     1.0458453752     0.0461314002
| 12>  C       -3.5454503509     0.4184460391    -0.0526886222
| 13>  H        1.1818839040     2.3453916031    -1.1263194251
| 14>  H        1.2114537459     2.6606796545     0.5901259953
| 15>  H        4.4477690569    -0.0256330266     0.1325214441
| 16>  H       -1.2407810950     2.2978521302     1.1480431603
| 17>  H       -1.2792021696     2.6345052934    -0.5641615347
| 18>  H       -4.4416435894    -0.1440120564    -0.1420048676
| 19> *
| 20>
| 21>                          ****END OF INPUT****

CARTESIAN COORDINATES (ANGSTROEM)
---------------------------------
  O      0.004854   -0.216437   -0.005674
  C     -0.011352    0.981970    0.002140
  C      1.253699    1.848018   -0.147685
  C      2.501602    1.114391   -0.040515
  C      3.536689    0.513513    0.050346
  C     -1.299321    1.811476    0.163017
  C     -2.526962    1.045845    0.046131
  C     -3.545450    0.418446   -0.052689
  H      1.181884    2.345392   -1.126319
  H      1.211454    2.660680    0.590126
  H      4.447769   -0.025633    0.132521
  H     -1.240781    2.297852    1.148043
  H     -1.279202    2.634505   -0.564162
  H     -4.441644   -0.144012   -0.142005

 Total Charge           Charge          ....    0
 Multiplicity           Mult            ....    1
 Number of Electrons    NEL             ....   56
 Basis Dimension        Dim             ....  284

ORBITAL ENERGIES
----------------

  NO   OCC          E(Eh)            E(eV)
   0   2.0000     -20.562644      -559.5380
   1   2.0000     -11.354290      -308.9659
   2   2.0000     -11.282440      -307.0108
   3   2.0000     -11.282418      -307.0102
   4   2.0000     -11.241631      -305.9003
   5   2.0000     -11.241630      -305.9003
   6   2.0000     -11.230020      -305.5844
   7   2.0000     -11.230019      -305.5844
   8   2.0000      -1.410838       -38.3909
   9   2.0000      -1.103509       -30.0280
  10   2.0000      -1.075002       -29.2523
  11   2.0000      -1.006653       -27.3924
  12   2.0000      -0.969837       -26.3906
  13   2.0000      -0.795590       -21.6491
  14   2.0000      -0.726100       -19.7582
  15   2.0000      -0.725364       -19.7382
  16   2.0000      -0.677426       -18.4337
  17   2.0000      -0.676946       -18.4206
  18   2.0000      -0.661182       -17.9917
  19   2.0000      -0.619285       -16.8516
  20   2.0000      -0.609808       -16.5937
  21   2.0000      -0.605813       -16.4850
  22   2.0000      -0.515298       -14.0220
  23   2.0000      -0.444309       -12.0903
  24   2.0000      -0.404053       -10.9949
  25   2.0000      -0.398293       -10.8381
  26   2.0000      -0.393600       -10.7104
  27   2.0000      -0.385680       -10.4949
  28   0.0000       0.108464         2.9515
  29   0.0000       0.128939         3.5086
  30   0.0000       0.161909         4.4058
  31   0.0000       0.165622         4.5068
  32   0.0000       0.166502         4.5308

MULLIKEN ATOMIC CHARGES
-----------------------
   0 O :   -0.231358
   1 C :    0.231762
   2 C :   -0.413649
   3 C :   -0.010054
   4 C :   -0.107507
   5 C :   -0.413654
   6 C :   -0.010053
   7 C :   -0.107503
   8 H :    0.165902
   9 H :    0.169401
  10 H :    0.195704
  11 H :    0.165902
  12 H :    0.169402
  13 H :    0.195704
Sum of atomic charges:    0.0000000

LOEWDIN ATOMIC CHARGES
----------------------
   0 O :    0.199627
   1 C :   -0.301894
   2 C :   -0.226593
   3 C :   -0.106780
   4 C :   -0.085054
   5 C :   -0.226594
   6 C :   -0.106779
   7 C :   -0.085053
   8 H :    0.173153
   9 H :    0.168265
  10 H :    0.128141
  11 H :    0.173153
  12 H :    0.168266
  13 H :    0.128141

  Mayer bond orders larger than 0.1
B(  0-O ,  1-C ) :   2.0569 B(  1-C ,  2-C ) :   0.8794 B(  1-C ,  5-C ) :   0.8794
B(  2-C ,  3-C ) :   1.1263 B(  2-C ,  4-C ) :  -0.1096 B(  2-C ,  8-H ) :   0.8747
B(  2-C ,  9-H ) :   0.9318 B(  3-C ,  4-C ) :   2.6258 B(  4-C , 10-H ) :   0.8886
B(  5-C ,  6-C ) :   1.1263 B(  5-C ,  7-C ) :  -0.1096 B(  5-C , 11-H ) :   0.8747
B(  5-C , 12-H ) :   0.9318 B(  6-C ,  7-C ) :   2.6258 B(  7-C , 13-H ) :   0.8886

MP2 TOTAL ENERGY:     -344.719015011 Eh
FINAL SINGLE POINT ENERGY      -344.719015011485

DIPOLE MOMENT
-------------
                                X             Y             Z
Electronic contribution:      0.03778      -2.79540      -0.01821
Nuclear contribution   :     -0.05248       3.88213       0.02529
                        -----------------------------------------
Total Dipole Moment    :     -0.01470       1.08673       0.00708
                        -----------------------------------------
Magnitude (a.u.)       :      1.08685
Magnitude (Debye)      :      2.76256

                             ****ORCA TERMINATED NORMALLY****
TOTAL RUN TIME: 0 days 0 hours 9 minutes 24 seconds 146 msec
