                         Program Version 3.0.3 - RELEASE   -
|  1> ! RI-MP2 RIJK def2-TZVP def2-TZVP/C def2-TZVP/JK TIGHTSCF
|  2> % maxcore 2000
|  3> % mp2 density relaxed end
|  4> *xyz 0 1
|  5>  C       -2.2685317896     1.0515323588     1.5990333815
|  6>  C       -1.7784341272    -0.3791384569     1.4657906978
|  7>  O       -1.7459563926    -1.1318514300     2.4145781396
|  8>  C       -1.3189750469    -0.8039181135     0.0771455902
|  9>  C       -0.9842009781    -2.2919267512    -0.0546786595
| 10>  C       -2.2515248376    -3.1570873667    -0.1170018711
| 11>  O       -1.9725796962    -4.5497676711    -0.0882003928
| 12>  C       -0.0850924793    -2.5521007989    -1.2702733345
| 13>  O        1.1448458329    -1.8389228710    -1.2143826640
| 14>  H       -2.4656722401     1.2821469330     2.6465651563
| 15>  H       -1.5331819331     1.7538768254     1.1919731558
| 16>  H       -3.1885991992     1.1852402406     1.0180879234
| 17>  H       -2.0771878281    -0.4960513160    -0.6572319208
| 18>  H       -0.4247081988    -0.2151237655    -0.1686657463
| 19>  H       -0.4362933947    -2.5855130750     0.8524981421
| 20>  H       -2.9320992155    -2.8722267523     0.6961687809
| 21>  H       -2.7763139151    -2.9801169886    -1.0646312630
| 22>  H       -1.6737555033    -4.7658296612     0.8009641627
| 23>  H        0.0765633059    -3.6322356257    -1.3751806200
| 24>  H       -0.5829340308    -2.2048435230    -2.1839394085
| 25>  H        1.6684829973    -2.2153084111    -0.4997068300
| 26> *
| 27>
| 28>                          ****END OF INPUT****

CARTESIAN COORDINATES (ANGSTROEM)
---------------------------------
  C     -2.268532    1.051532    1.599033
  C     -1.778434   -0.379138    1.465791
  O     -1.745956   -1.131851    2.414578
  C     -1.318975   -0.803918    0.077146
  C     -0.984201   -2.291927   -0.054679
  C     -2.251525   -3.157087   -0.117002
  O     -1.972580   -4.549768   -0.088200
  C     -0.085092   -2.552101   -1.270273
  O      1.144846   -1.838923   -1.214383
  H     -2.465672    1.282147    2.646565
  H     -1.533182    1.753877    1.191973
  H     -3.188599    1.185240    1.018088
  H     -2.077188   -0.496051   -0.657232
  H     -0.424708   -0.215124   -0.168666
  H     -0.436293   -2.585513    0.852498
  H     -2.932099   -2.872227    0.696169
  H     -2.776314   -2.980117   -1.064631
  H     -1.673756   -4.765830    0.800964
  H      0.076563   -3.632236   -1.375181
  H     -0.582934   -2.204844   -2.183939
  H      1.668483   -2.215308   -0.499707

 Total Charge           Charge          ....    0
 Multiplicity           Mult            ....    1
 Number of Electrons    NEL             ....   72
 Basis Dimension        Dim             ....  351

ORBITAL ENERGIES
----------------

  NO   OCC          E(Eh)            E(eV)
   0   2.0000     -20.559051      -559.4402
   1   2.0000     -20.558027      -559.4124
   2   2.0000     -20.549153      -559.1709
   3   2.0000     -11.336637      -308.4856
   4   2.0000     -11.277655      -306.8806
   5   2.0000     -11.274424      -306.7927
   6   2.0000     -11.241043      -305.8843
   7   2.0000     -11.239064      -305.8305
   8   2.0000     -11.234385      -305.7032
   9   2.0000      -1.393546       -37.9203
  10   2.0000      -1.364298       -37.1244
  11   2.0000      -1.360397       -37.0183
  12   2.0000      -1.092710       -29.7342
  13   2.0000      -1.024206       -27.8701
  14   2.0000      -0.947337       -25.7784
  15   2.0000      -0.911803       -24.8114
  16   2.0000      -0.811510       -22.0823
  17   2.0000      -0.744873       -20.2690
  18   2.0000      -0.703213       -19.1354
  19   2.0000      -0.680739       -18.5239
  20   2.0000      -0.670300       -18.2398
  21   2.0000      -0.641088       -17.4449
  22   2.0000      -0.630677       -17.1616
  23   2.0000      -0.615221       -16.7410
  24   2.0000      -0.603050       -16.4098
  25   2.0000      -0.588746       -16.0206
  26   2.0000      -0.574815       -15.6415
  27   2.0000      -0.554830       -15.0977
  28   2.0000      -0.546989       -14.8843
  29   2.0000      -0.518970       -14.1219
  30   2.0000      -0.501074       -13.6349
  31   2.0000      -0.492931       -13.4133
  32   2.0000      -0.475947       -12.9512
  33   2.0000      -0.454668       -12.3721
  34   2.0000      -0.431740       -11.7482
  35   2.0000      -0.412516       -11.2251
  36   0.0000       0.124467         3.3869
  37   0.0000       0.133135         3.6228
  38   0.0000       0.139437         3.7943
  39   0.0000       0.151760         4.1296
  40   0.0000       0.165568         4.5053

MULLIKEN ATOMIC CHARGES
-----------------------
   0 C :   -0.406346
   1 C :    0.215751
   2 O :   -0.306888
   3 C :   -0.294487
   4 C :   -0.118908
   5 C :   -0.089803
   6 O :   -0.474223
   7 C :    0.006328
   8 O :   -0.477722
   9 H :    0.154324
  10 H :    0.144629
  11 H :    0.145163
  12 H :    0.133868
  13 H :    0.165509
  14 H :    0.093108
  15 H :    0.132140
  16 H :    0.108510
  17 H :    0.318992
  18 H :    0.134462
  19 H :    0.100139
  20 H :    0.315452
Sum of atomic charges:    0.0000000

LOEWDIN ATOMIC CHARGES
----------------------
   0 C :   -0.279838
   1 C :   -0.347261
   2 O :    0.140461
   3 C :   -0.223268
   4 C :   -0.286407
   5 C :   -0.321885
   6 O :   -0.047845
   7 C :   -0.322367
   8 O :   -0.051805
   9 H :    0.132983
  10 H :    0.136249
  11 H :    0.137637
  12 H :    0.154206
  13 H :    0.164831
  14 H :    0.154546
  15 H :    0.124830
  16 H :    0.130437
  17 H :    0.175789
  18 H :    0.124627
  19 H :    0.130534
  20 H :    0.173545

  Mayer bond orders larger than 0.1
B(  0-C ,  1-C ) :   0.9277 B(  0-C ,  9-H ) :   0.9389 B(  0-C , 10-H ) :   0.9168
B(  0-C , 11-H ) :   0.9167 B(  1-C ,  2-O ) :   1.9580 B(  1-C ,  3-C ) :   0.9157
B(  3-C ,  4-C ) :   0.8873 B(  3-C , 12-H ) :   0.9040 B(  3-C , 13-H ) :   0.8835
B(  4-C ,  5-C ) :   0.9156 B(  4-C ,  7-C ) :   0.9046 B(  4-C , 14-H ) :   0.9199
B(  5-C ,  6-O ) :   0.9199 B(  5-C , 15-H ) :   0.9387 B(  5-C , 16-H ) :   0.9178
B(  6-O , 17-H ) :   0.8462 B(  7-C ,  8-O ) :   0.9024 B(  7-C , 18-H ) :   0.9374
B(  7-C , 19-H ) :   0.9173 B(  8-O , 20-H ) :   0.8470

MP2 TOTAL ENERGY:     -460.646192186 Eh
FINAL SINGLE POINT ENERGY      -460.646192186304

DIPOLE MOMENT
-------------
                                X             Y             Z
Electronic contribution:      1.45358      -2.84430       2.29224
Nuclear contribution   :     -1.51956       3.41369      -2.18048
                        -----------------------------------------
Total Dipole Moment    :     -0.06598       0.56939       0.11176
                        -----------------------------------------
Magnitude (a.u.)       :      0.58399
Magnitude (Debye)      :      1.48439

                             ****ORCA TERMINATED NORMALLY****
TOTAL RUN TIME: 0 days 0 hours 16 minutes 56 seconds 512 msec
