                         Program Version 3.0.3 - RELEASE   -
|  1> ! RI-MP2 RIJK def2-TZVP def2-TZVP/C def2-TZVP/JK TIGHTSCF
|  2> % maxcore 2000
|  3> % mp2 density relaxed end
|  4> *xyz 0 1
|  5>  C       -0.0419243479     1.6374143990    -0.0303397070
|  6>  C        0.1063611574     0.1226788264    -0.0077429279
|  7>  C        0.7684804844    -0.6299751991    -1.1481504927
|  8>  C        2.2695951691    -0.7569511623    -1.0368969549
|  9>  C        3.0209730276     0.1520334008    -0.1306613039
| 10>  C        2.3925104268     0.1820710485     1.0449624894
| 11>  C        1.1287120507    -0.6375537833     0.9358130083
| 12>  C        0.5972869916    -1.2770417481     2.1968465956
| 13>  N        1.3998147744    -1.6293952165    -0.2172664089
| 14>  H        0.9177693374     2.1354585731    -0.1870633153
| 15>  H       -0.7143662916     1.9398917762    -0.8409166715
| 16>  H       -0.4713807233     2.0085165851     0.9071791779
| 17>  H       -0.8708276052    -0.3433547962     0.1605893108
| 18>  H        0.2632573797    -0.9432194231    -2.0584858779
| 19>  H        2.7711991678    -1.2499184298    -1.8647284853
| 20>  H        3.9100572034     0.6970176750    -0.4203967270
| 21>  H        2.6385420013     0.7943106823     1.9038726550
| 22>  H        0.2957945914    -0.5138720291     2.9232093029
| 23>  H       -0.2717314761    -1.9041080725     1.9769456257
| 24>  H        1.3617979810    -1.9082860065     2.6612907668
| 25> *
| 26>
| 27>                          ****END OF INPUT****

CARTESIAN COORDINATES (ANGSTROEM)
---------------------------------
  C     -0.041924    1.637414   -0.030340
  C      0.106361    0.122679   -0.007743
  C      0.768480   -0.629975   -1.148150
  C      2.269595   -0.756951   -1.036897
  C      3.020973    0.152033   -0.130661
  C      2.392510    0.182071    1.044962
  C      1.128712   -0.637554    0.935813
  C      0.597287   -1.277042    2.196847
  N      1.399815   -1.629395   -0.217266
  H      0.917769    2.135459   -0.187063
  H     -0.714366    1.939892   -0.840917
  H     -0.471381    2.008517    0.907179
  H     -0.870828   -0.343355    0.160589
  H      0.263257   -0.943219   -2.058486
  H      2.771199   -1.249918   -1.864728
  H      3.910057    0.697018   -0.420397
  H      2.638542    0.794311    1.903873
  H      0.295795   -0.513872    2.923209
  H     -0.271731   -1.904108    1.976946
  H      1.361798   -1.908286    2.661291

 Total Charge           Charge          ....    0
 Multiplicity           Mult            ....    1
 Number of Electrons    NEL             ....   66
 Basis Dimension        Dim             ....  345

ORBITAL ENERGIES
----------------

  NO   OCC          E(Eh)            E(eV)
   0   2.0000     -15.554911      -423.2706
   1   2.0000     -11.268129      -306.6214
   2   2.0000     -11.261265      -306.4346
   3   2.0000     -11.258415      -306.3570
   4   2.0000     -11.236359      -305.7569
   5   2.0000     -11.231579      -305.6268
   6   2.0000     -11.226609      -305.4916
   7   2.0000     -11.214935      -305.1739
   8   2.0000     -11.214661      -305.1664
   9   2.0000      -1.302130       -35.4328
  10   2.0000      -1.066601       -29.0237
  11   2.0000      -1.048785       -28.5389
  12   2.0000      -1.003103       -27.2958
  13   2.0000      -0.905074       -24.6283
  14   2.0000      -0.877780       -23.8856
  15   2.0000      -0.800411       -21.7803
  16   2.0000      -0.767934       -20.8965
  17   2.0000      -0.701380       -19.0855
  18   2.0000      -0.676279       -18.4025
  19   2.0000      -0.642927       -17.4949
  20   2.0000      -0.600482       -16.3399
  21   2.0000      -0.582501       -15.8507
  22   2.0000      -0.571123       -15.5410
  23   2.0000      -0.553044       -15.0491
  24   2.0000      -0.546011       -14.8577
  25   2.0000      -0.530946       -14.4478
  26   2.0000      -0.512682       -13.9508
  27   2.0000      -0.487994       -13.2790
  28   2.0000      -0.460370       -12.5273
  29   2.0000      -0.440984       -11.9998
  30   2.0000      -0.421711       -11.4753
  31   2.0000      -0.397940       -10.8285
  32   2.0000      -0.323236        -8.7957
  33   0.0000       0.131932         3.5901
  34   0.0000       0.139091         3.7849
  35   0.0000       0.164386         4.4732
  36   0.0000       0.169859         4.6221
  37   0.0000       0.174563         4.7501

MULLIKEN ATOMIC CHARGES
-----------------------
   0 C :   -0.423605
   1 C :   -0.048879
   2 C :   -0.103496
   3 C :   -0.051799
   4 C :   -0.160550
   5 C :   -0.291132
   6 C :    0.282617
   7 C :   -0.397285
   8 N :   -0.225548
   9 H :    0.142484
  10 H :    0.133188
  11 H :    0.128412
  12 H :    0.100665
  13 H :    0.123730
  14 H :    0.131957
  15 H :    0.132240
  16 H :    0.127402
  17 H :    0.126110
  18 H :    0.135650
  19 H :    0.137839
Sum of atomic charges:    0.0000000

LOEWDIN ATOMIC CHARGES
----------------------
   0 C :   -0.295364
   1 C :   -0.206959
   2 C :   -0.178944
   3 C :   -0.218796
   4 C :   -0.135856
   5 C :   -0.117313
   6 C :   -0.240534
   7 C :   -0.269314
   8 N :    0.172174
   9 H :    0.126849
  10 H :    0.126950
  11 H :    0.124294
  12 H :    0.161552
  13 H :    0.133053
  14 H :    0.145944
  15 H :    0.140093
  16 H :    0.141825
  17 H :    0.129110
  18 H :    0.129652
  19 H :    0.131586

  Mayer bond orders larger than 0.1
B(  0-C ,  1-C ) :   0.8931 B(  0-C ,  9-H ) :   0.9375 B(  0-C , 10-H ) :   0.9348
B(  0-C , 11-H ) :   0.9361 B(  1-C ,  2-C ) :   0.9475 B(  1-C ,  6-C ) :   0.9374
B(  1-C , 12-H ) :   0.9181 B(  2-C ,  3-C ) :   0.9088 B(  2-C ,  8-N ) :   0.8935
B(  2-C , 13-H ) :   0.8988 B(  3-C ,  4-C ) :   0.9579 B(  3-C ,  8-N ) :   0.9206
B(  3-C , 14-H ) :   0.9182 B(  4-C ,  5-C ) :   1.7785 B(  4-C , 15-H ) :   0.9295
B(  5-C ,  6-C ) :   0.9220 B(  5-C , 16-H ) :   0.9306 B(  6-C ,  7-C ) :   0.8640
B(  6-C ,  8-N ) :   0.9388 B(  7-C , 17-H ) :   0.9339 B(  7-C , 18-H ) :   0.9407
B(  7-C , 19-H ) :   0.9368

MP2 TOTAL ENERGY:     -365.319369680 Eh
FINAL SINGLE POINT ENERGY      -365.319369680151

DIPOLE MOMENT
-------------
                                X             Y             Z
Electronic contribution:      3.64572      -3.09402      -2.79578
Nuclear contribution   :     -3.76651       3.77845       2.79068
                        -----------------------------------------
Total Dipole Moment    :     -0.12079       0.68443      -0.00510
                        -----------------------------------------
Magnitude (a.u.)       :      0.69502
Magnitude (Debye)      :      1.76661

                             ****ORCA TERMINATED NORMALLY****
TOTAL RUN TIME: 0 days 0 hours 21 minutes 33 seconds 841 msec
