                         Program Version 3.0.3 - RELEASE   -
|  1> ! RI-MP2 RIJK def2-TZVP def2-TZVP/C def2-TZVP/JK TIGHTSCF
|  2> % maxcore 2000
|  3> % mp2 density relaxed end
|  4> *xyz 0 1
|  5>  O       -0.3549265992     0.8042214494     0.9777758808
|  6>  C        0.0512569474     1.1056468070    -0.1143555581
|  7>  C        1.4268637115     1.6939637020    -0.3824514557
|  8>  C        1.3676009770     2.8706079115    -1.3013887037
|  9>  C        0.8543081352     4.2855617413    -1.1618129398
| 10>  C        0.4324375692     4.2114152188    -2.6489329880
| 11>  C        1.8353397343     3.9495396153    -3.0617980632
| 12>  C        2.3077349248     4.0137394707    -1.5880910388
| 13>  N        0.9195999143     2.7894293852    -2.7677533342
| 14>  H       -0.5712229232     0.9641669433    -1.0247431828
| 15>  H        1.8892936363     1.9602801214     0.5730187648
| 16>  H        2.0411587016     0.9098043332    -0.8504480266
| 17>  H        0.4861817160     4.8276564137    -0.3025355707
| 18>  H       -0.4280256694     4.5725655557    -3.1989371150
| 19>  H        2.3425640004     4.0571608992    -4.0129744055
| 20>  H        3.2273402839     4.3125450323    -1.1055005736
| 21> *
| 22>
| 23>                          ****END OF INPUT****

CARTESIAN COORDINATES (ANGSTROEM)
---------------------------------
  O     -0.354927    0.804221    0.977776
  C      0.051257    1.105647   -0.114356
  C      1.426864    1.693964   -0.382451
  C      1.367601    2.870608   -1.301389
  C      0.854308    4.285562   -1.161813
  C      0.432438    4.211415   -2.648933
  C      1.835340    3.949540   -3.061798
  C      2.307735    4.013739   -1.588091
  N      0.919600    2.789429   -2.767753
  H     -0.571223    0.964167   -1.024743
  H      1.889294    1.960280    0.573019
  H      2.041159    0.909804   -0.850448
  H      0.486182    4.827656   -0.302536
  H     -0.428026    4.572566   -3.198937
  H      2.342564    4.057161   -4.012974
  H      3.227340    4.312545   -1.105501

 Total Charge           Charge          ....    0
 Multiplicity           Mult            ....    1
 Number of Electrons    NEL             ....   64
 Basis Dimension        Dim             ....  321

ORBITAL ENERGIES
----------------

  NO   OCC          E(Eh)            E(eV)
   0   2.0000     -20.557110      -559.3874
   1   2.0000     -15.571739      -423.7285
   2   2.0000     -11.332038      -308.3604
   3   2.0000     -11.289686      -307.2080
   4   2.0000     -11.280419      -306.9558
   5   2.0000     -11.279479      -306.9302
   6   2.0000     -11.258213      -306.3515
   7   2.0000     -11.257204      -306.3241
   8   2.0000     -11.252747      -306.2028
   9   2.0000      -1.396075       -37.9891
  10   2.0000      -1.355288       -36.8793
  11   2.0000      -1.087506       -29.5925
  12   2.0000      -1.039597       -28.2889
  13   2.0000      -0.917243       -24.9595
  14   2.0000      -0.910171       -24.7670
  15   2.0000      -0.807849       -21.9827
  16   2.0000      -0.743849       -20.2412
  17   2.0000      -0.726674       -19.7738
  18   2.0000      -0.717243       -19.5172
  19   2.0000      -0.666920       -18.1478
  20   2.0000      -0.639478       -17.4011
  21   2.0000      -0.629502       -17.1296
  22   2.0000      -0.602632       -16.3985
  23   2.0000      -0.579662       -15.7734
  24   2.0000      -0.568224       -15.4622
  25   2.0000      -0.515711       -14.0332
  26   2.0000      -0.503765       -13.7081
  27   2.0000      -0.461947       -12.5702
  28   2.0000      -0.439484       -11.9590
  29   2.0000      -0.431529       -11.7425
  30   2.0000      -0.375193       -10.2095
  31   2.0000      -0.349250        -9.5036
  32   0.0000       0.132033         3.5928
  33   0.0000       0.143927         3.9164
  34   0.0000       0.163492         4.4488
  35   0.0000       0.164553         4.4777
  36   0.0000       0.172267         4.6876

MULLIKEN ATOMIC CHARGES
-----------------------
   0 O :   -0.262788
   1 C :    0.082681
   2 C :   -0.139370
   3 C :    0.038296
   4 C :   -0.171534
   5 C :   -0.054359
   6 C :   -0.105458
   7 C :   -0.135842
   8 N :   -0.228658
   9 H :    0.099431
  10 H :    0.123760
  11 H :    0.139278
  12 H :    0.160686
  13 H :    0.148118
  14 H :    0.148923
  15 H :    0.156836
Sum of atomic charges:    0.0000000

LOEWDIN ATOMIC CHARGES
----------------------
   0 O :    0.132514
   1 C :   -0.279679
   2 C :   -0.225769
   3 C :   -0.196519
   4 C :   -0.117192
   5 C :   -0.161783
   6 C :   -0.160435
   7 C :   -0.116731
   8 N :    0.147516
   9 H :    0.117434
  10 H :    0.157569
  11 H :    0.163694
  12 H :    0.139110
  13 H :    0.131202
  14 H :    0.131049
  15 H :    0.138020

  Mayer bond orders larger than 0.1
B(  0-O ,  1-C ) :   1.9931 B(  1-C ,  2-C ) :   0.8867 B(  1-C ,  9-H ) :   0.9328
B(  2-C ,  3-C ) :   0.8559 B(  2-C , 10-H ) :   0.9003 B(  2-C , 11-H ) :   0.9071
B(  3-C ,  4-C ) :   0.8979 B(  3-C ,  7-C ) :   0.8427 B(  3-C ,  8-N ) :   0.8929
B(  4-C ,  5-C ) :   0.8911 B(  4-C ,  7-C ) :   0.8492 B(  4-C , 12-H ) :   0.9039
B(  5-C ,  6-C ) :   0.9605 B(  5-C ,  8-N ) :   0.8764 B(  5-C , 13-H ) :   0.9100
B(  6-C ,  7-C ) :   0.8879 B(  6-C ,  8-N ) :   0.9405 B(  6-C , 14-H ) :   0.9026
B(  7-C , 15-H ) :   0.9056

MP2 TOTAL ENERGY:     -399.926863608 Eh
FINAL SINGLE POINT ENERGY      -399.926863607511

DIPOLE MOMENT
-------------
                                X             Y             Z
Electronic contribution:     -1.41210      -0.92393       0.37829
Nuclear contribution   :      2.14194       1.83247      -0.80746
                        -----------------------------------------
Total Dipole Moment    :      0.72984       0.90854      -0.42916
                        -----------------------------------------
Magnitude (a.u.)       :      1.24189
Magnitude (Debye)      :      3.15664

                             ****ORCA TERMINATED NORMALLY****
TOTAL RUN TIME: 0 days 0 hours 16 minutes 21 seconds 182 msec
