                         Program Version 3.0.3 - RELEASE   -
|  1> ! RI-MP2 RIJK def2-TZVP def2-TZVP/C def2-TZVP/JK TIGHTSCF
|  2> % maxcore 2000
|  3> % mp2 density relaxed end
|  4> *xyz 0 1
|  5>  N        0.1121267196     1.2401674442    -0.0522567497
|  6>  C        0.0497636741    -0.0046962931     0.0234749610
|  7>  O        1.0313450866    -0.9796996800     0.2014054128
|  8>  C        0.0499001174    -2.0282722928    -0.0370135994
|  9>  C       -0.9661779351    -2.0039732687     1.0558239954
| 10>  C       -1.0538064211    -1.0111876265    -0.1072153960
| 11>  O       -2.1326650367    -0.9350340532    -0.9683412722
| 12>  C       -3.1035304859    -0.0310032970    -0.6329409526
| 13>  O       -4.0815120994     0.1034915342    -1.2959010090
| 14>  H        1.0663211762     1.5883971343     0.0481985019
| 15>  H        0.3308864108    -2.8455235165    -0.6850462370
| 16>  H       -1.7227112301    -2.7812806751     0.9974210390
| 17>  H       -0.6883337244    -1.6813664738     2.0541310684
| 18>  H       -2.8615556621     0.5313949440     0.2843005576
| 19> *
| 20>
| 21>                          ****END OF INPUT****

CARTESIAN COORDINATES (ANGSTROEM)
---------------------------------
  N      0.112127    1.240167   -0.052257
  C      0.049764   -0.004696    0.023475
  O      1.031345   -0.979700    0.201405
  C      0.049900   -2.028272   -0.037014
  C     -0.966178   -2.003973    1.055824
  C     -1.053806   -1.011188   -0.107215
  O     -2.132665   -0.935034   -0.968341
  C     -3.103530   -0.031003   -0.632941
  O     -4.081512    0.103492   -1.295901
  H      1.066321    1.588397    0.048199
  H      0.330886   -2.845524   -0.685046
  H     -1.722711   -2.781281    0.997421
  H     -0.688334   -1.681366    2.054131
  H     -2.861556    0.531395    0.284301

 Total Charge           Charge          ....    0
 Multiplicity           Mult            ....    1
 Number of Electrons    NEL             ....   66
 Basis Dimension        Dim             ....  309

ORBITAL ENERGIES
----------------

  NO   OCC          E(Eh)            E(eV)
   0   2.0000     -20.635848      -561.5300
   1   2.0000     -20.618662      -561.0623
   2   2.0000     -20.567114      -559.6596
   3   2.0000     -15.566755      -423.5929
   4   2.0000     -11.397464      -310.1408
   5   2.0000     -11.370099      -309.3961
   6   2.0000     -11.344522      -308.7001
   7   2.0000     -11.338519      -308.5368
   8   2.0000     -11.283351      -307.0356
   9   2.0000      -1.490837       -40.5677
  10   2.0000      -1.463116       -39.8134
  11   2.0000      -1.394714       -37.9521
  12   2.0000      -1.228005       -33.4157
  13   2.0000      -1.166324       -31.7373
  14   2.0000      -0.944540       -25.7022
  15   2.0000      -0.890873       -24.2419
  16   2.0000      -0.867201       -23.5977
  17   2.0000      -0.804356       -21.8876
  18   2.0000      -0.751065       -20.4375
  19   2.0000      -0.725515       -19.7423
  20   2.0000      -0.691453       -18.8154
  21   2.0000      -0.681102       -18.5337
  22   2.0000      -0.653616       -17.7858
  23   2.0000      -0.641507       -17.4563
  24   2.0000      -0.621303       -16.9065
  25   2.0000      -0.584390       -15.9021
  26   2.0000      -0.565490       -15.3878
  27   2.0000      -0.533623       -14.5206
  28   2.0000      -0.485538       -13.2122
  29   2.0000      -0.482498       -13.1294
  30   2.0000      -0.457628       -12.4527
  31   2.0000      -0.436339       -11.8734
  32   2.0000      -0.421327       -11.4649
  33   0.0000       0.132563         3.6072
  34   0.0000       0.143165         3.8957
  35   0.0000       0.146999         4.0001
  36   0.0000       0.153799         4.1851
  37   0.0000       0.169214         4.6045

MULLIKEN ATOMIC CHARGES
-----------------------
   0 N :   -0.361424
   1 C :    0.137102
   2 O :   -0.269235
   3 C :    0.046005
   4 C :   -0.253128
   5 C :    0.113892
   6 O :   -0.210961
   7 C :    0.205391
   8 O :   -0.244560
   9 H :    0.241807
  10 H :    0.172013
  11 H :    0.154882
  12 H :    0.158540
  13 H :    0.109675
Sum of atomic charges:    0.0000000

LOEWDIN ATOMIC CHARGES
----------------------
   0 N :   -0.025354
   1 C :   -0.358057
   2 O :    0.230376
   3 C :   -0.180138
   4 C :   -0.162410
   5 C :   -0.276251
   6 O :    0.292696
   7 C :   -0.404317
   8 O :    0.144317
   9 H :    0.180302
  10 H :    0.144044
  11 H :    0.154874
  12 H :    0.142891
  13 H :    0.117028

  Mayer bond orders larger than 0.1
B(  0-N ,  1-C ) :   2.0445 B(  0-N ,  9-H ) :   0.8424 B(  1-C ,  2-O ) :   1.0396
B(  1-C ,  5-C ) :   0.9195 B(  2-O ,  3-C ) :   0.9059 B(  3-C ,  4-C ) :   0.9002
B(  3-C ,  5-C ) :   0.8965 B(  3-C , 10-H ) :   0.8995 B(  4-C ,  5-C ) :   0.8706
B(  4-C , 11-H ) :   0.9137 B(  4-C , 12-H ) :   0.8958 B(  5-C ,  6-O ) :   0.9476
B(  6-O ,  7-C ) :   0.9879 B(  7-C ,  8-O ) :   2.0515 B(  7-C , 13-H ) :   0.9130

MP2 TOTAL ENERGY:     -473.037422535 Eh
FINAL SINGLE POINT ENERGY      -473.037422534809

DIPOLE MOMENT
-------------
                                X             Y             Z
Electronic contribution:     -0.85631       1.09643      -2.55916
Nuclear contribution   :      1.71891      -1.98407       3.52283
                        -----------------------------------------
Total Dipole Moment    :      0.86260      -0.88764       0.96367
                        -----------------------------------------
Magnitude (a.u.)       :      1.56864
Magnitude (Debye)      :      3.98717

                             ****ORCA TERMINATED NORMALLY****
TOTAL RUN TIME: 0 days 0 hours 12 minutes 51 seconds 679 msec
