                         Program Version 3.0.3 - RELEASE   -
|  1> ! RI-MP2 RIJK def2-TZVP def2-TZVP/C def2-TZVP/JK TIGHTSCF
|  2> % maxcore 2000
|  3> % mp2 density relaxed end
|  4> *xyz 0 1
|  5>  O        0.2431360783     1.5282896325    -0.0926383840
|  6>  C        0.0650915766     0.1249027265     0.0028750299
|  7>  C        0.5404722348    -0.5613321246    -1.2204402115
|  8>  N        0.9451949668    -1.0899419888    -2.1648844317
|  9>  C        0.7108435479    -0.4611136107     1.2291945114
| 10>  C        2.1734372592    -0.8667785510     1.3384516855
| 11>  C        1.1008494741    -1.8678842637     1.6307328323
| 12>  O        0.5977807100    -1.7146247516     2.9563380524
| 13>  C        0.1224271324    -0.3792801170     2.6374708518
| 14>  H        1.1913310006     1.7058115470    -0.0696036050
| 15>  H       -1.0207966311    -0.0170920186     0.0585196049
| 16>  H        2.6803431021    -1.0034274932     0.3877364154
| 17>  H        2.7881670943    -0.4886473116     2.1503864971
| 18>  H        0.9848061118    -2.8268388034     1.1397183643
| 19>  H        0.5218730997     0.3824838365     3.3155144548
| 20>  H       -0.9733784574    -0.3488017181     2.6460088623
| 21> *
| 22>
| 23>                          ****END OF INPUT****

CARTESIAN COORDINATES (ANGSTROEM)
---------------------------------
  O      0.243136    1.528290   -0.092638
  C      0.065092    0.124903    0.002875
  C      0.540472   -0.561332   -1.220440
  N      0.945195   -1.089942   -2.164884
  C      0.710844   -0.461114    1.229195
  C      2.173437   -0.866779    1.338452
  C      1.100849   -1.867884    1.630733
  O      0.597781   -1.714625    2.956338
  C      0.122427   -0.379280    2.637471
  H      1.191331    1.705812   -0.069604
  H     -1.020797   -0.017092    0.058520
  H      2.680343   -1.003427    0.387736
  H      2.788167   -0.488647    2.150386
  H      0.984806   -2.826839    1.139718
  H      0.521873    0.382484    3.315514
  H     -0.973378   -0.348802    2.646009

 Total Charge           Charge          ....    0
 Multiplicity           Mult            ....    1
 Number of Electrons    NEL             ....   66
 Basis Dimension        Dim             ....  321

ORBITAL ENERGIES
----------------

  NO   OCC          E(Eh)            E(eV)
   0   2.0000     -20.599458      -560.5398
   1   2.0000     -20.575103      -559.8770
   2   2.0000     -15.589317      -424.2069
   3   2.0000     -11.358480      -309.0800
   4   2.0000     -11.314749      -307.8900
   5   2.0000     -11.307066      -307.6809
   6   2.0000     -11.286756      -307.1282
   7   2.0000     -11.275407      -306.8194
   8   2.0000     -11.258296      -306.3538
   9   2.0000      -1.417238       -38.5650
  10   2.0000      -1.407453       -38.2987
  11   2.0000      -1.234283       -33.5865
  12   2.0000      -1.153837       -31.3975
  13   2.0000      -1.027211       -27.9518
  14   2.0000      -0.965185       -26.2640
  15   2.0000      -0.850022       -23.1303
  16   2.0000      -0.784359       -21.3435
  17   2.0000      -0.772705       -21.0264
  18   2.0000      -0.742382       -20.2012
  19   2.0000      -0.676363       -18.4048
  20   2.0000      -0.673992       -18.3403
  21   2.0000      -0.653560       -17.7843
  22   2.0000      -0.597852       -16.2684
  23   2.0000      -0.586138       -15.9496
  24   2.0000      -0.575718       -15.6661
  25   2.0000      -0.564629       -15.3643
  26   2.0000      -0.549252       -14.9459
  27   2.0000      -0.520187       -14.1550
  28   2.0000      -0.495449       -13.4819
  29   2.0000      -0.482446       -13.1280
  30   2.0000      -0.473126       -12.8744
  31   2.0000      -0.429194       -11.6790
  32   2.0000      -0.404452       -11.0057
  33   0.0000       0.114474         3.1150
  34   0.0000       0.136126         3.7042
  35   0.0000       0.157281         4.2798
  36   0.0000       0.164260         4.4698
  37   0.0000       0.172522         4.6946

MULLIKEN ATOMIC CHARGES
-----------------------
   0 O :   -0.438681
   1 C :    0.244353
   2 C :   -0.205691
   3 N :   -0.051401
   4 C :   -0.158105
   5 C :   -0.282515
   6 C :    0.060774
   7 O :   -0.320863
   8 C :    0.002381
   9 H :    0.329438
  10 H :    0.131378
  11 H :    0.160823
  12 H :    0.150020
  13 H :    0.152590
  14 H :    0.115661
  15 H :    0.109839
Sum of atomic charges:   -0.0000000

LOEWDIN ATOMIC CHARGES
----------------------
   0 O :    0.013933
   1 C :   -0.311600
   2 C :   -0.162327
   3 N :    0.073497
   4 C :   -0.207820
   5 C :   -0.180779
   6 C :   -0.218248
   7 O :    0.151951
   8 C :   -0.206205
   9 H :    0.186321
  10 H :    0.175181
  11 H :    0.152339
  12 H :    0.140319
  13 H :    0.139326
  14 H :    0.124260
  15 H :    0.129850

  Mayer bond orders larger than 0.1
B(  0-O ,  1-C ) :   0.8996 B(  0-O ,  9-H ) :   0.8325 B(  1-C ,  2-C ) :   0.8754
B(  1-C ,  4-C ) :   0.9732 B(  1-C , 10-H ) :   0.8877 B(  2-C ,  3-N ) :   2.8422
B(  4-C ,  5-C ) :   0.8520 B(  4-C ,  6-C ) :   0.9014 B(  4-C ,  8-C ) :   0.9611
B(  5-C ,  6-C ) :   0.8705 B(  5-C , 11-H ) :   0.9196 B(  5-C , 12-H ) :   0.9089
B(  6-C ,  7-O ) :   0.9640 B(  6-C , 13-H ) :   0.9067 B(  7-O ,  8-C ) :   0.9348
B(  8-C , 14-H ) :   0.9092 B(  8-C , 15-H ) :   0.9114

MP2 TOTAL ENERGY:     -437.119381361 Eh
FINAL SINGLE POINT ENERGY      -437.119381361349

DIPOLE MOMENT
-------------
                                X             Y             Z
Electronic contribution:     -0.98271      -0.68624      -3.41430
Nuclear contribution   :      1.08465       1.19853       4.17324
                        -----------------------------------------
Total Dipole Moment    :      0.10194       0.51229       0.75894
                        -----------------------------------------
Magnitude (a.u.)       :      0.92131
Magnitude (Debye)      :      2.34179

                             ****ORCA TERMINATED NORMALLY****
TOTAL RUN TIME: 0 days 0 hours 17 minutes 38 seconds 591 msec
