                         Program Version 3.0.3 - RELEASE   -
|  1> ! RI-MP2 RIJK def2-TZVP def2-TZVP/C def2-TZVP/JK TIGHTSCF
|  2> % maxcore 2000
|  3> % mp2 density relaxed end
|  4> *xyz 0 1
|  5>  C       -0.0764966254     1.5051670387    -0.4905324619
|  6>  O       -0.3150263107     0.1104872419    -0.5224063667
|  7>  C        0.7290828901    -0.6231439489    -1.1146888637
|  8>  C        0.3793205901    -2.1176075050    -1.0158658279
|  9>  C        0.4627614763    -2.6239144779    -2.4694144492
| 10>  C       -0.4474509197    -3.8071908590    -2.7916523423
| 11>  C        0.2214249584    -1.3269568966    -3.2751523793
| 12>  C       -1.2413639802    -0.9568517288    -3.5258457685
| 13>  O        0.8877270103    -0.3263577475    -2.4911485188
| 14>  H        0.8349084060     1.7415956928     0.0803930145
| 15>  H        0.0274863960     1.9182309743    -1.5004980150
| 16>  H       -0.9337032770     1.9663707984     0.0051640077
| 17>  H        1.6793815317    -0.3470934830    -0.6332711296
| 18>  H        1.0549967089    -2.6523764223    -0.3447793059
| 19>  H       -0.6333718254    -2.2097546323    -0.6133601133
| 20>  H        1.5003918031    -2.9192422800    -2.6671229818
| 21>  H       -1.4964761273    -3.5767095977    -2.5813228853
| 22>  H       -0.3700151284    -4.0953168134    -3.8457266643
| 23>  H       -0.1743573413    -4.6809968705    -2.1912408900
| 24>  H        0.7504850316    -1.3577942560    -4.2340869652
| 25>  H       -1.8124474421    -0.9217671901    -2.5943197761
| 26>  H       -1.2898280931     0.0340933671    -3.9861625147
| 27>  H       -1.7165718919    -1.6712244441    -4.2057918027
| 28> *
| 29>
| 30>                          ****END OF INPUT****

CARTESIAN COORDINATES (ANGSTROEM)
---------------------------------
  C     -0.076497    1.505167   -0.490532
  O     -0.315026    0.110487   -0.522406
  C      0.729083   -0.623144   -1.114689
  C      0.379321   -2.117608   -1.015866
  C      0.462761   -2.623914   -2.469414
  C     -0.447451   -3.807191   -2.791652
  C      0.221425   -1.326957   -3.275152
  C     -1.241364   -0.956852   -3.525846
  O      0.887727   -0.326358   -2.491149
  H      0.834908    1.741596    0.080393
  H      0.027486    1.918231   -1.500498
  H     -0.933703    1.966371    0.005164
  H      1.679382   -0.347093   -0.633271
  H      1.054997   -2.652376   -0.344779
  H     -0.633372   -2.209755   -0.613360
  H      1.500392   -2.919242   -2.667123
  H     -1.496476   -3.576710   -2.581323
  H     -0.370015   -4.095317   -3.845727
  H     -0.174357   -4.680997   -2.191241
  H      0.750485   -1.357794   -4.234087
  H     -1.812447   -0.921767   -2.594320
  H     -1.289828    0.034093   -3.986163
  H     -1.716572   -1.671224   -4.205792

 Total Charge           Charge          ....    0
 Multiplicity           Mult            ....    1
 Number of Electrons    NEL             ....   72
 Basis Dimension        Dim             ....  363

ORBITAL ENERGIES
----------------

  NO   OCC          E(Eh)            E(eV)
   0   2.0000     -20.553021      -559.2761
   1   2.0000     -20.547731      -559.1322
   2   2.0000     -11.323313      -308.1230
   3   2.0000     -11.274314      -306.7897
   4   2.0000     -11.263297      -306.4899
   5   2.0000     -11.229126      -305.5601
   6   2.0000     -11.219214      -305.2903
   7   2.0000     -11.218371      -305.2674
   8   2.0000     -11.208531      -304.9996
   9   2.0000      -1.408781       -38.3349
  10   2.0000      -1.341076       -36.4925
  11   2.0000      -1.082522       -29.4569
  12   2.0000      -1.020166       -27.7601
  13   2.0000      -0.964900       -26.2563
  14   2.0000      -0.918901       -25.0046
  15   2.0000      -0.880294       -23.9540
  16   2.0000      -0.798521       -21.7289
  17   2.0000      -0.759954       -20.6794
  18   2.0000      -0.703849       -19.1527
  19   2.0000      -0.670512       -18.2456
  20   2.0000      -0.639046       -17.3893
  21   2.0000      -0.629390       -17.1266
  22   2.0000      -0.610936       -16.6244
  23   2.0000      -0.581798       -15.8315
  24   2.0000      -0.570355       -15.5202
  25   2.0000      -0.566886       -15.4258
  26   2.0000      -0.539992       -14.6939
  27   2.0000      -0.537460       -14.6250
  28   2.0000      -0.518887       -14.1196
  29   2.0000      -0.502973       -13.6866
  30   2.0000      -0.486583       -13.2406
  31   2.0000      -0.473736       -12.8910
  32   2.0000      -0.466602       -12.6969
  33   2.0000      -0.442567       -12.0429
  34   2.0000      -0.427544       -11.6341
  35   2.0000      -0.420641       -11.4462
  36   0.0000       0.132580         3.6077
  37   0.0000       0.157946         4.2979
  38   0.0000       0.160993         4.3808
  39   0.0000       0.175069         4.7639
  40   0.0000       0.188695         5.1346

MULLIKEN ATOMIC CHARGES
-----------------------
   0 C :   -0.227967
   1 O :   -0.310405
   2 C :    0.203594
   3 C :   -0.277399
   4 C :   -0.049738
   5 C :   -0.431433
   6 C :    0.151282
   7 C :   -0.465785
   8 O :   -0.329440
   9 H :    0.108866
  10 H :    0.135744
  11 H :    0.135896
  12 H :    0.077271
  13 H :    0.128595
  14 H :    0.130333
  15 H :    0.095270
  16 H :    0.136166
  17 H :    0.134463
  18 H :    0.137522
  19 H :    0.102946
  20 H :    0.150824
  21 H :    0.135474
  22 H :    0.127920
Sum of atomic charges:   -0.0000000

LOEWDIN ATOMIC CHARGES
----------------------
   0 C :   -0.355526
   1 O :    0.150107
   2 C :   -0.397209
   3 C :   -0.213073
   4 C :   -0.258092
   5 C :   -0.293830
   6 C :   -0.306186
   7 C :   -0.296684
   8 O :    0.188627
   9 H :    0.102042
  10 H :    0.105848
  11 H :    0.111800
  12 H :    0.125351
  13 H :    0.138437
  14 H :    0.147464
  15 H :    0.154516
  16 H :    0.125147
  17 H :    0.124916
  18 H :    0.125755
  19 H :    0.141622
  20 H :    0.127513
  21 H :    0.127075
  22 H :    0.124381

  Mayer bond orders larger than 0.1
B(  0-C ,  1-O ) :   0.8978 B(  0-C ,  9-H ) :   0.9347 B(  0-C , 10-H ) :   0.9365
B(  0-C , 11-H ) :   0.9384 B(  1-O ,  2-C ) :   1.0201 B(  2-C ,  3-C ) :   0.9381
B(  2-C ,  8-O ) :   0.9847 B(  2-C , 12-H ) :   0.9245 B(  3-C ,  4-C ) :   0.9228
B(  3-C , 13-H ) :   0.9278 B(  3-C , 14-H ) :   0.9215 B(  4-C ,  5-C ) :   0.8796
B(  4-C ,  6-C ) :   0.9322 B(  4-C , 15-H ) :   0.9226 B(  5-C , 16-H ) :   0.9349
B(  5-C , 17-H ) :   0.9422 B(  5-C , 18-H ) :   0.9367 B(  6-C ,  7-C ) :   0.8893
B(  6-C ,  8-O ) :   0.8902 B(  6-C , 19-H ) :   0.9223 B(  7-C , 20-H ) :   0.9306
B(  7-C , 21-H ) :   0.9398 B(  7-C , 22-H ) :   0.9288

MP2 TOTAL ENERGY:     -424.738357255 Eh
FINAL SINGLE POINT ENERGY      -424.738357254800

DIPOLE MOMENT
-------------
                                X             Y             Z
Electronic contribution:      3.16760       2.96753       1.80868
Nuclear contribution   :     -3.10795      -3.26708      -1.84882
                        -----------------------------------------
Total Dipole Moment    :      0.05966      -0.29955      -0.04014
                        -----------------------------------------
Magnitude (a.u.)       :      0.30806
Magnitude (Debye)      :      0.78303

                             ****ORCA TERMINATED NORMALLY****
TOTAL RUN TIME: 0 days 0 hours 31 minutes 56 seconds 464 msec
