                         Program Version 3.0.3 - RELEASE   -
|  1> ! RI-MP2 RIJK def2-TZVP def2-TZVP/C def2-TZVP/JK TIGHTSCF
|  2> % maxcore 2000
|  3> % mp2 density relaxed end
|  4> *xyz 0 1
|  5>  C       -0.0521103509     1.5746283549     0.0455713995
|  6>  C       -0.0298944269     0.0737045845     0.0457176376
|  7>  C        0.9101902766    -0.7606414032    -0.9147660776
|  8>  C        1.9717471568    -0.8521416298     0.2009085363
|  9>  C        0.7273031833    -0.8922143157     1.1015568459
| 10>  C       -0.2408880139    -1.9748075561     0.4657385096
| 11>  O        0.3008521543    -2.0678643399    -0.8629168726
| 12>  C       -1.2396337444    -0.8159599881     0.2901598795
| 13>  O       -2.3965158699    -0.6182046544     0.5229736467
| 14>  H        0.9542373922     1.9982338115     0.1301142405
| 15>  H       -0.4935951568     1.9530102511    -0.8827300629
| 16>  H       -0.6549953764     1.9531143550     0.8766971527
| 17>  H        1.1183764953    -0.4704921428    -1.9431808288
| 18>  H        2.6475843360    -1.7097266393     0.1755076313
| 19>  H        2.5273577049     0.0783561032     0.3355014227
| 20>  H        0.7082510314    -0.7401419969     2.1781902501
| 21>  H       -0.4664574017    -2.9479932739     0.8929479493
| 22> *
| 23>
| 24>                          ****END OF INPUT****

CARTESIAN COORDINATES (ANGSTROEM)
---------------------------------
  C     -0.052110    1.574628    0.045571
  C     -0.029894    0.073705    0.045718
  C      0.910190   -0.760641   -0.914766
  C      1.971747   -0.852142    0.200909
  C      0.727303   -0.892214    1.101557
  C     -0.240888   -1.974808    0.465739
  O      0.300852   -2.067864   -0.862917
  C     -1.239634   -0.815960    0.290160
  O     -2.396516   -0.618205    0.522974
  H      0.954237    1.998234    0.130114
  H     -0.493595    1.953010   -0.882730
  H     -0.654995    1.953114    0.876697
  H      1.118376   -0.470492   -1.943181
  H      2.647584   -1.709727    0.175508
  H      2.527358    0.078356    0.335501
  H      0.708251   -0.740142    2.178190
  H     -0.466457   -2.947993    0.892948

 Total Charge           Charge          ....    0
 Multiplicity           Mult            ....    1
 Number of Electrons    NEL             ....   66
 Basis Dimension        Dim             ....  327

ORBITAL ENERGIES
----------------

  NO   OCC          E(Eh)            E(eV)
   0   2.0000     -20.575469      -559.8870
   1   2.0000     -20.554567      -559.3182
   2   2.0000     -11.334108      -308.4168
   3   2.0000     -11.309262      -307.7407
   4   2.0000     -11.304666      -307.6156
   5   2.0000     -11.267805      -306.6126
   6   2.0000     -11.265170      -306.5409
   7   2.0000     -11.246088      -306.0216
   8   2.0000     -11.237005      -305.7745
   9   2.0000      -1.421603       -38.6838
  10   2.0000      -1.391454       -37.8634
  11   2.0000      -1.164841       -31.6969
  12   2.0000      -1.032620       -28.0990
  13   2.0000      -1.008861       -27.4525
  14   2.0000      -0.912499       -24.8304
  15   2.0000      -0.817173       -22.2364
  16   2.0000      -0.782850       -21.3024
  17   2.0000      -0.741374       -20.1738
  18   2.0000      -0.709093       -19.2954
  19   2.0000      -0.671577       -18.2745
  20   2.0000      -0.661697       -18.0057
  21   2.0000      -0.618875       -16.8405
  22   2.0000      -0.589910       -16.0523
  23   2.0000      -0.567888       -15.4530
  24   2.0000      -0.567039       -15.4299
  25   2.0000      -0.560287       -15.2462
  26   2.0000      -0.539996       -14.6940
  27   2.0000      -0.520050       -14.1513
  28   2.0000      -0.497818       -13.5463
  29   2.0000      -0.473948       -12.8968
  30   2.0000      -0.457526       -12.4499
  31   2.0000      -0.422287       -11.4910
  32   2.0000      -0.376515       -10.2455
  33   0.0000       0.130027         3.5382
  34   0.0000       0.137196         3.7333
  35   0.0000       0.153814         4.1855
  36   0.0000       0.169392         4.6094
  37   0.0000       0.183039         4.9807

MULLIKEN ATOMIC CHARGES
-----------------------
   0 C :   -0.420456
   1 C :    0.022756
   2 C :    0.058452
   3 C :   -0.251566
   4 C :   -0.130415
   5 C :    0.056088
   6 O :   -0.317569
   7 C :    0.112493
   8 O :   -0.253388
   9 H :    0.138227
  10 H :    0.147924
  11 H :    0.150054
  12 H :    0.139000
  13 H :    0.128874
  14 H :    0.126906
  15 H :    0.147184
  16 H :    0.145435
Sum of atomic charges:    0.0000000

LOEWDIN ATOMIC CHARGES
----------------------
   0 C :   -0.267095
   1 C :   -0.168538
   2 C :   -0.208812
   3 C :   -0.206283
   4 C :   -0.122003
   5 C :   -0.201475
   6 O :    0.191283
   7 C :   -0.271634
   8 O :    0.165490
   9 H :    0.130904
  10 H :    0.137206
  11 H :    0.137200
  12 H :    0.134586
  13 H :    0.130984
  14 H :    0.143383
  15 H :    0.139936
  16 H :    0.134866

  Mayer bond orders larger than 0.1
B(  0-C ,  1-C ) :   0.8728 B(  0-C ,  9-H ) :   0.9398 B(  0-C , 10-H ) :   0.9334
B(  0-C , 11-H ) :   0.9342 B(  1-C ,  2-C ) :   0.8873 B(  1-C ,  4-C ) :   0.8079
B(  1-C ,  7-C ) :   0.8789 B(  2-C ,  3-C ) :   0.9463 B(  2-C ,  6-O ) :   0.9019
B(  2-C , 12-H ) :   0.9103 B(  3-C ,  4-C ) :   0.9383 B(  3-C , 13-H ) :   0.9135
B(  3-C , 14-H ) :   0.9236 B(  4-C ,  5-C ) :   0.8628 B(  4-C , 15-H ) :   0.8988
B(  5-C ,  6-O ) :   0.8934 B(  5-C ,  7-C ) :   0.8614 B(  5-C , 16-H ) :   0.8952
B(  7-C ,  8-O ) :   2.0540

MP2 TOTAL ENERGY:     -421.088825126 Eh
FINAL SINGLE POINT ENERGY      -421.088825125595

DIPOLE MOMENT
-------------
                                X             Y             Z
Electronic contribution:     -4.85635      -4.83123      -0.71254
Nuclear contribution   :      6.07278       5.32817       0.97099
                        -----------------------------------------
Total Dipole Moment    :      1.21643       0.49694       0.25845
                        -----------------------------------------
Magnitude (a.u.)       :      1.33920
Magnitude (Debye)      :      3.40396

                             ****ORCA TERMINATED NORMALLY****
TOTAL RUN TIME: 0 days 0 hours 19 minutes 39 seconds 295 msec
