                         Program Version 3.0.3 - RELEASE   -
|  1> ! RI-MP2 RIJK def2-TZVP def2-TZVP/C def2-TZVP/JK TIGHTSCF
|  2> % maxcore 2000
|  3> % mp2 density relaxed end
|  4> *xyz 0 1
|  5>  C       -0.1321453917     1.3921508074     0.5466641294
|  6>  C       -0.0426037486    -0.0219088719    -0.0237953754
|  7>  C       -1.4332782340    -0.5490387779    -0.3718680943
|  8>  C        1.1121197622    -0.2911410593    -1.0021688494
|  9>  O        2.1146956090    -0.0438432883     0.1084413389
| 10>  C        1.0403207913    -0.9519546883     0.6636655387
| 11>  C        0.6312157349    -2.2226093158     1.4294732717
| 12>  O        0.2595785669    -2.7784994041     0.1049082709
| 13>  C        1.1968952386    -1.8106332890    -0.5216970469
| 14>  H        0.8490297337     1.7739329714     0.8272463961
| 15>  H       -0.5734012365     2.0717864616    -0.1911229176
| 16>  H       -0.7841284734     1.4059033939     1.4272108388
| 17>  H       -1.9466876786     0.1846463851    -1.0037481436
| 18>  H       -1.4199640384    -1.5070210996    -0.8880216365
| 19>  H       -2.0364051986    -0.6647691285     0.5358844689
| 20>  H        1.3746390386     0.1820927608    -1.9535907982
| 21>  H        1.4486564973    -2.7947688304     1.8805835865
| 22>  H       -0.2303887041    -2.1609084376     2.0998355596
| 23>  H        2.1582948017    -2.2850422895    -0.7194448677
| 24> *
| 25>
| 26>                          ****END OF INPUT****

CARTESIAN COORDINATES (ANGSTROEM)
---------------------------------
  C     -0.132145    1.392151    0.546664
  C     -0.042604   -0.021909   -0.023795
  C     -1.433278   -0.549039   -0.371868
  C      1.112120   -0.291141   -1.002169
  O      2.114696   -0.043843    0.108441
  C      1.040321   -0.951955    0.663666
  C      0.631216   -2.222609    1.429473
  O      0.259579   -2.778499    0.104908
  C      1.196895   -1.810633   -0.521697
  H      0.849030    1.773933    0.827246
  H     -0.573401    2.071786   -0.191123
  H     -0.784128    1.405903    1.427211
  H     -1.946688    0.184646   -1.003748
  H     -1.419964   -1.507021   -0.888022
  H     -2.036405   -0.664769    0.535884
  H      1.374639    0.182093   -1.953591
  H      1.448656   -2.794769    1.880584
  H     -0.230389   -2.160908    2.099836
  H      2.158295   -2.285042   -0.719445

 Total Charge           Charge          ....    0
 Multiplicity           Mult            ....    1
 Number of Electrons    NEL             ....   68
 Basis Dimension        Dim             ....  339

ORBITAL ENERGIES
----------------

  NO   OCC          E(Eh)            E(eV)
   0   2.0000     -20.571562      -559.7806
   1   2.0000     -20.569815      -559.7331
   2   2.0000     -11.322255      -308.0942
   3   2.0000     -11.312066      -307.8170
   4   2.0000     -11.303788      -307.5917
   5   2.0000     -11.287229      -307.1411
   6   2.0000     -11.256692      -306.3102
   7   2.0000     -11.217053      -305.2315
   8   2.0000     -11.214203      -305.1540
   9   2.0000      -1.414833       -38.4996
  10   2.0000      -1.357395       -36.9366
  11   2.0000      -1.097922       -29.8760
  12   2.0000      -1.008841       -27.4520
  13   2.0000      -0.966322       -26.2950
  14   2.0000      -0.933059       -25.3898
  15   2.0000      -0.870323       -23.6827
  16   2.0000      -0.833413       -22.6783
  17   2.0000      -0.701565       -19.0905
  18   2.0000      -0.688502       -18.7351
  19   2.0000      -0.654384       -17.8067
  20   2.0000      -0.634214       -17.2578
  21   2.0000      -0.619726       -16.8636
  22   2.0000      -0.595619       -16.2076
  23   2.0000      -0.585226       -15.9248
  24   2.0000      -0.566254       -15.4086
  25   2.0000      -0.536576       -14.6010
  26   2.0000      -0.525451       -14.2983
  27   2.0000      -0.519235       -14.1291
  28   2.0000      -0.497405       -13.5351
  29   2.0000      -0.479465       -13.0469
  30   2.0000      -0.459045       -12.4913
  31   2.0000      -0.439963       -11.9720
  32   2.0000      -0.410866       -11.1802
  33   2.0000      -0.384194       -10.4544
  34   0.0000       0.132799         3.6136
  35   0.0000       0.139891         3.8066
  36   0.0000       0.163305         4.4437
  37   0.0000       0.174394         4.7455
  38   0.0000       0.189721         5.1626

MULLIKEN ATOMIC CHARGES
-----------------------
   0 C :   -0.449845
   1 C :    0.080174
   2 C :   -0.412361
   3 C :   -0.012690
   4 O :   -0.310599
   5 C :    0.084638
   6 C :   -0.025807
   7 O :   -0.317534
   8 C :    0.008581
   9 H :    0.165657
  10 H :    0.130224
  11 H :    0.128472
  12 H :    0.132124
  13 H :    0.165250
  14 H :    0.125478
  15 H :    0.139553
  16 H :    0.124700
  17 H :    0.124891
  18 H :    0.119094
Sum of atomic charges:   -0.0000000

LOEWDIN ATOMIC CHARGES
----------------------
   0 C :   -0.270346
   1 C :   -0.238100
   2 C :   -0.267455
   3 C :   -0.149645
   4 O :    0.131905
   5 C :   -0.221271
   6 C :   -0.207682
   7 O :    0.115379
   8 C :   -0.194735
   9 H :    0.133147
  10 H :    0.127473
  11 H :    0.127439
  12 H :    0.129021
  13 H :    0.133196
  14 H :    0.128988
  15 H :    0.126131
  16 H :    0.129228
  17 H :    0.126447
  18 H :    0.140880

  Mayer bond orders larger than 0.1
B(  0-C ,  1-C ) :   0.8849 B(  0-C ,  9-H ) :   0.9333 B(  0-C , 10-H ) :   0.9343
B(  0-C , 11-H ) :   0.9339 B(  1-C ,  2-C ) :   0.9033 B(  1-C ,  3-C ) :   0.9162
B(  1-C ,  5-C ) :   0.8756 B(  2-C , 12-H ) :   0.9297 B(  2-C , 13-H ) :   0.9275
B(  2-C , 14-H ) :   0.9290 B(  3-C ,  4-O ) :   0.8545 B(  3-C ,  8-C ) :   0.8763
B(  3-C , 15-H ) :   0.8689 B(  4-O ,  5-C ) :   0.8495 B(  5-C ,  6-C ) :   0.8976
B(  5-C ,  8-C ) :   0.9245 B(  6-C ,  7-O ) :   0.8907 B(  6-C , 16-H ) :   0.9129
B(  6-C , 17-H ) :   0.9096 B(  7-O ,  8-C ) :   0.8894 B(  8-C , 18-H ) :   0.9372

MP2 TOTAL ENERGY:     -422.145998810 Eh
FINAL SINGLE POINT ENERGY      -422.145998810043

DIPOLE MOMENT
-------------
                                X             Y             Z
Electronic contribution:      5.58959      -3.91766      -0.69044
Nuclear contribution   :     -5.92593       4.04456       0.84188
                        -----------------------------------------
Total Dipole Moment    :     -0.33634       0.12691       0.15144
                        -----------------------------------------
Magnitude (a.u.)       :      0.39008
Magnitude (Debye)      :      0.99151

                             ****ORCA TERMINATED NORMALLY****
TOTAL RUN TIME: 0 days 0 hours 21 minutes 29 seconds 386 msec
