                         Program Version 3.0.3 - RELEASE   -
|  1> ! RI-MP2 RIJK def2-TZVP def2-TZVP/C def2-TZVP/JK TIGHTSCF
|  2> % maxcore 2000
|  3> % mp2 density relaxed end
|  4> *xyz 0 1
|  5>  C       -0.2919226580     1.3843603111    -0.0099484163
|  6>  C       -0.0540983088    -0.1035921321     0.0496699324
|  7>  C       -0.6914221528    -0.9603374325     1.0932403834
|  8>  N        0.7434274589    -0.6497312421     1.1630475495
|  9>  C        1.6059987049    -1.7091282252     0.6177585420
| 10>  C        1.0712666722    -2.0889990983    -0.7855372301
| 11>  C        0.3414870632    -0.8128709547    -1.2585015520
| 12>  C       -0.8699332623    -1.1002110728    -2.1164005512
| 13>  O       -1.1476488186    -0.5273695387    -3.1383535498
| 14>  H        0.5949436025     1.9044354480    -0.3884326210
| 15>  H       -1.1276460946     1.6195016202    -0.6777080531
| 16>  H       -0.5199841181     1.7792267754     0.9829727941
| 17>  H       -1.2923180605    -0.4931637977     1.8682690216
| 18>  H       -0.9991534741    -1.9725282171     0.8424818154
| 19>  H        2.6184836852    -1.2983807230     0.5434684148
| 20>  H        1.6436269091    -2.5614286937     1.3031954936
| 21>  H        1.8679081338    -2.3868916307    -1.4706922245
| 22>  H        0.3725046523    -2.9309350988    -0.7289640182
| 23>  H        1.0038678846    -0.1535871458    -1.8284969492
| 24>  H       -1.5333923789    -1.8986903114    -1.7070737316
| 25> *
| 26>
| 27>                          ****END OF INPUT****

CARTESIAN COORDINATES (ANGSTROEM)
---------------------------------
  C     -0.291923    1.384360   -0.009948
  C     -0.054098   -0.103592    0.049670
  C     -0.691422   -0.960337    1.093240
  N      0.743427   -0.649731    1.163048
  C      1.605999   -1.709128    0.617759
  C      1.071267   -2.088999   -0.785537
  C      0.341487   -0.812871   -1.258502
  C     -0.869933   -1.100211   -2.116401
  O     -1.147649   -0.527370   -3.138354
  H      0.594944    1.904435   -0.388433
  H     -1.127646    1.619502   -0.677708
  H     -0.519984    1.779227    0.982973
  H     -1.292318   -0.493164    1.868269
  H     -0.999153   -1.972528    0.842482
  H      2.618484   -1.298381    0.543468
  H      1.643627   -2.561429    1.303195
  H      1.867908   -2.386892   -1.470692
  H      0.372505   -2.930935   -0.728964
  H      1.003868   -0.153587   -1.828497
  H     -1.533392   -1.898690   -1.707074

 Total Charge           Charge          ....    0
 Multiplicity           Mult            ....    1
 Number of Electrons    NEL             ....   68
 Basis Dimension        Dim             ....  345

ORBITAL ENERGIES
----------------

  NO   OCC          E(Eh)            E(eV)
   0   2.0000     -20.559755      -559.4594
   1   2.0000     -15.565905      -423.5698
   2   2.0000     -11.334052      -308.4152
   3   2.0000     -11.277986      -306.8896
   4   2.0000     -11.261751      -306.4478
   5   2.0000     -11.261559      -306.4426
   6   2.0000     -11.250768      -306.1490
   7   2.0000     -11.243728      -305.9574
   8   2.0000     -11.223949      -305.4192
   9   2.0000      -1.398606       -38.0580
  10   2.0000      -1.295617       -35.2555
  11   2.0000      -1.078472       -29.3467
  12   2.0000      -1.041860       -28.3505
  13   2.0000      -0.958406       -26.0795
  14   2.0000      -0.890310       -24.2266
  15   2.0000      -0.835029       -22.7223
  16   2.0000      -0.794123       -21.6092
  17   2.0000      -0.753014       -20.4906
  18   2.0000      -0.700134       -19.0516
  19   2.0000      -0.661620       -18.0036
  20   2.0000      -0.650315       -17.6960
  21   2.0000      -0.616374       -16.7724
  22   2.0000      -0.599961       -16.3258
  23   2.0000      -0.584134       -15.8951
  24   2.0000      -0.576536       -15.6884
  25   2.0000      -0.557846       -15.1798
  26   2.0000      -0.538993       -14.6667
  27   2.0000      -0.524694       -14.2777
  28   2.0000      -0.505686       -13.7604
  29   2.0000      -0.478453       -13.0194
  30   2.0000      -0.461669       -12.5626
  31   2.0000      -0.448310       -12.1991
  32   2.0000      -0.416990       -11.3469
  33   2.0000      -0.379108       -10.3161
  34   0.0000       0.128038         3.4841
  35   0.0000       0.133583         3.6350
  36   0.0000       0.144339         3.9277
  37   0.0000       0.157731         4.2921
  38   0.0000       0.176434         4.8010

MULLIKEN ATOMIC CHARGES
-----------------------
   0 C :   -0.448325
   1 C :    0.131782
   2 C :   -0.219390
   3 N :   -0.230491
   4 C :   -0.121120
   5 C :   -0.306856
   6 C :    0.020824
   7 C :    0.057773
   8 O :   -0.257021
   9 H :    0.132562
  10 H :    0.145558
  11 H :    0.143388
  12 H :    0.131089
  13 H :    0.124873
  14 H :    0.125832
  15 H :    0.123406
  16 H :    0.143393
  17 H :    0.129409
  18 H :    0.102472
  19 H :    0.070842
Sum of atomic charges:    0.0000000

LOEWDIN ATOMIC CHARGES
----------------------
   0 C :   -0.260260
   1 C :   -0.278207
   2 C :   -0.220440
   3 N :    0.130648
   4 C :   -0.270320
   5 C :   -0.231455
   6 C :   -0.207364
   7 C :   -0.274676
   8 O :    0.135256
   9 H :    0.130520
  10 H :    0.133208
  11 H :    0.133028
  12 H :    0.130082
  13 H :    0.127289
  14 H :    0.134972
  15 H :    0.131938
  16 H :    0.141063
  17 H :    0.137538
  18 H :    0.164463
  19 H :    0.112715

  Mayer bond orders larger than 0.1
B(  0-C ,  1-C ) :   0.9048 B(  0-C ,  9-H ) :   0.9364 B(  0-C , 10-H ) :   0.9320
B(  0-C , 11-H ) :   0.9401 B(  1-C ,  2-C ) :   0.9309 B(  1-C ,  3-N ) :   0.8100
B(  1-C ,  6-C ) :   0.8829 B(  2-C ,  3-N ) :   0.9081 B(  2-C , 12-H ) :   0.9132
B(  2-C , 13-H ) :   0.9122 B(  3-N ,  4-C ) :   0.9313 B(  4-C ,  5-C ) :   0.9176
B(  4-C , 14-H ) :   0.9323 B(  4-C , 15-H ) :   0.9355 B(  5-C ,  6-C ) :   0.8974
B(  5-C , 16-H ) :   0.9276 B(  5-C , 17-H ) :   0.9251 B(  6-C ,  7-C ) :   0.8442
B(  6-C , 18-H ) :   0.9028 B(  7-C ,  8-O ) :   2.0041 B(  7-C , 19-H ) :   0.9414

MP2 TOTAL ENERGY:     -402.457137343 Eh
FINAL SINGLE POINT ENERGY      -402.457137343371

DIPOLE MOMENT
-------------
                                X             Y             Z
Electronic contribution:     -1.53824      -0.21413      -3.55449
Nuclear contribution   :      1.78839      -0.38851       4.07500
                        -----------------------------------------
Total Dipole Moment    :      0.25015      -0.60264       0.52051
                        -----------------------------------------
Magnitude (a.u.)       :      0.83467
Magnitude (Debye)      :      2.12156

                             ****ORCA TERMINATED NORMALLY****
TOTAL RUN TIME: 0 days 0 hours 19 minutes 40 seconds 847 msec
