                         Program Version 3.0.3 - RELEASE   -
|  1> ! RI-MP2 RIJK def2-TZVP def2-TZVP/C def2-TZVP/JK TIGHTSCF
|  2> % maxcore 2000
|  3> % mp2 density relaxed end
|  4> *xyz 0 1
|  5>  O        0.5702229853     1.2621696874    -0.6901835588
|  6>  C        0.2608124527     0.0290212006    -0.2345281653
|  7>  C       -0.8436644533    -0.7178774841    -0.5612154488
|  8>  N       -0.6911536339    -1.8830574272     0.1736175197
|  9>  C        0.4650189175    -1.7831132296     0.8715368045
| 10>  N        1.0702370707    -0.6287015495     0.6465671058
| 11>  C        0.9288038387    -2.8566743552     1.7692837526
| 12>  C        0.0899570638    -3.3696100428     2.8698482366
| 13>  O        0.2180799490    -4.0951655811     1.6446950357
| 14>  H        1.4084070292     1.4991447450    -0.2755397502
| 15>  H       -1.6747259336    -0.5443215069    -1.2204968537
| 16>  H       -1.2613508253    -2.7120175408     0.1389053535
| 17>  H        2.0096421815    -2.9390844055     1.8644554149
| 18>  H        0.5630715100    -3.8305918577     3.7353364854
| 19>  H       -0.8841861922    -2.9177999127     3.0470887080
| 20> *
| 21>
| 22>                          ****END OF INPUT****

CARTESIAN COORDINATES (ANGSTROEM)
---------------------------------
  O      0.570223    1.262170   -0.690184
  C      0.260812    0.029021   -0.234528
  C     -0.843664   -0.717877   -0.561215
  N     -0.691154   -1.883057    0.173618
  C      0.465019   -1.783113    0.871537
  N      1.070237   -0.628702    0.646567
  C      0.928804   -2.856674    1.769284
  C      0.089957   -3.369610    2.869848
  O      0.218080   -4.095166    1.644695
  H      1.408407    1.499145   -0.275540
  H     -1.674726   -0.544322   -1.220497
  H     -1.261351   -2.712018    0.138905
  H      2.009642   -2.939084    1.864455
  H      0.563072   -3.830592    3.735336
  H     -0.884186   -2.917800    3.047089

 Total Charge           Charge          ....    0
 Multiplicity           Mult            ....    1
 Number of Electrons    NEL             ....   66
 Basis Dimension        Dim             ....  315

ORBITAL ENERGIES
----------------

  NO   OCC          E(Eh)            E(eV)
   0   2.0000     -20.594227      -560.3974
   1   2.0000     -20.581260      -560.0446
   2   2.0000     -15.619548      -425.0295
   3   2.0000     -15.550705      -423.1562
   4   2.0000     -11.315240      -307.9033
   5   2.0000     -11.312353      -307.8248
   6   2.0000     -11.308693      -307.7252
   7   2.0000     -11.306176      -307.6567
   8   2.0000     -11.247199      -306.0518
   9   2.0000      -1.437314       -39.1113
  10   2.0000      -1.409740       -38.3610
  11   2.0000      -1.338471       -36.4216
  12   2.0000      -1.170918       -31.8623
  13   2.0000      -1.032480       -28.0952
  14   2.0000      -0.949544       -25.8384
  15   2.0000      -0.899109       -24.4660
  16   2.0000      -0.816753       -22.2250
  17   2.0000      -0.809622       -22.0309
  18   2.0000      -0.758668       -20.6444
  19   2.0000      -0.721874       -19.6432
  20   2.0000      -0.679875       -18.5003
  21   2.0000      -0.638487       -17.3741
  22   2.0000      -0.632097       -17.2002
  23   2.0000      -0.625870       -17.0308
  24   2.0000      -0.584545       -15.9063
  25   2.0000      -0.562656       -15.3107
  26   2.0000      -0.554496       -15.0886
  27   2.0000      -0.547145       -14.8886
  28   2.0000      -0.482154       -13.1201
  29   2.0000      -0.475645       -12.9430
  30   2.0000      -0.455563       -12.3965
  31   2.0000      -0.398242       -10.8367
  32   2.0000      -0.299308        -8.1446
  33   0.0000       0.139831         3.8050
  34   0.0000       0.143682         3.9098
  35   0.0000       0.162433         4.4200
  36   0.0000       0.165583         4.5057
  37   0.0000       0.179350         4.8804

MULLIKEN ATOMIC CHARGES
-----------------------
   0 O :   -0.443691
   1 C :    0.222188
   2 C :   -0.146296
   3 N :   -0.260945
   4 C :    0.206919
   5 N :   -0.321434
   6 C :   -0.022257
   7 C :   -0.064530
   8 O :   -0.339609
   9 H :    0.341439
  10 H :    0.155799
  11 H :    0.267004
  12 H :    0.150602
  13 H :    0.127078
  14 H :    0.127733
Sum of atomic charges:    0.0000000

LOEWDIN ATOMIC CHARGES
----------------------
   0 O :    0.063319
   1 C :   -0.407869
   2 C :   -0.227293
   3 N :    0.211617
   4 C :   -0.322652
   5 N :    0.112442
   6 C :   -0.253433
   7 C :   -0.251980
   8 O :    0.143665
   9 H :    0.198805
  10 H :    0.136813
  11 H :    0.200919
  12 H :    0.151214
  13 H :    0.122230
  14 H :    0.122203

  Mayer bond orders larger than 0.1
B(  0-O ,  1-C ) :   1.0896 B(  0-O ,  9-H ) :   0.8193 B(  1-C ,  2-C ) :   1.5104
B(  1-C ,  5-N ) :   1.2765 B(  2-C ,  3-N ) :   1.0842 B(  2-C , 10-H ) :   0.9070
B(  3-N ,  4-C ) :   1.1894 B(  3-N , 11-H ) :   0.8525 B(  4-C ,  5-N ) :   1.5213
B(  4-C ,  6-C ) :   0.9443 B(  6-C ,  7-C ) :   0.9579 B(  6-C ,  8-O ) :   0.9232
B(  6-C , 12-H ) :   0.9218 B(  7-C ,  8-O ) :   0.8772 B(  7-C , 13-H ) :   0.9237
B(  7-C , 14-H ) :   0.9109

MP2 TOTAL ENERGY:     -453.224941970 Eh
FINAL SINGLE POINT ENERGY      -453.224941969514

DIPOLE MOMENT
-------------
                                X             Y             Z
Electronic contribution:      0.67123       1.51090      -2.27450
Nuclear contribution   :     -1.13480      -1.95814       2.77844
                        -----------------------------------------
Total Dipole Moment    :     -0.46357      -0.44724       0.50394
                        -----------------------------------------
Magnitude (a.u.)       :      0.81785
Magnitude (Debye)      :      2.07881

                             ****ORCA TERMINATED NORMALLY****
TOTAL RUN TIME: 0 days 0 hours 13 minutes 22 seconds 530 msec
