                         Program Version 3.0.3 - RELEASE   -
|  1> ! RI-MP2 RIJK def2-TZVP def2-TZVP/C def2-TZVP/JK TIGHTSCF
|  2> % maxcore 2000
|  3> % mp2 density relaxed end
|  4> *xyz 0 1
|  5>  C       -0.2732766994     1.3706959012    -0.1337160167
|  6>  O       -0.1622752289    -0.0328847184    -0.1076015619
|  7>  C        0.7886353993    -0.5420860298    -1.0280917189
|  8>  C        0.7133815575    -2.0784407758    -0.9594175083
|  9>  C        1.2098604027    -2.5669436297     0.4116012815
| 10>  O       -0.6579111727    -2.4460890233    -1.1292060433
| 11>  C        1.4602363018    -2.7137944658    -2.1599783461
| 12>  C        2.9403211818    -2.3164417179    -2.2600853729
| 13>  C        1.3061268167    -4.2419078858    -2.1846181059
| 14>  H        0.6776696253     1.8566718055     0.1329414627
| 15>  H       -0.5800112433     1.7357158085    -1.1259939614
| 16>  H       -1.0324928875     1.6536380934     0.5994362555
| 17>  H        0.5439934298    -0.2020223154    -2.0472561837
| 18>  H        1.7929859592    -0.1728023994    -0.7731936069
| 19>  H        0.6756060298    -2.0362388356     1.2041658970
| 20>  H        1.0202564312    -3.6360357603     0.5261424993
| 21>  H        2.2804966254    -2.3838572464     0.5488048379
| 22>  H       -1.1631681474    -1.8272339492    -0.5871616870
| 23>  H        0.9439120683    -2.3227308405    -3.0467771202
| 24>  H        3.0830552192    -1.2349529203    -2.3458436118
| 25>  H        3.5130524203    -2.6638356203    -1.3933534900
| 26>  H        3.3887603028    -2.7740181462    -3.1479232585
| 27>  H        0.2591512520    -4.5286028298    -2.0693394646
| 28>  H        1.6722601498    -4.6424181308    -3.1356096244
| 29>  H        1.8846003062    -4.7192064077    -1.3862451615
| 30> *
| 31>
| 32>                          ****END OF INPUT****

CARTESIAN COORDINATES (ANGSTROEM)
---------------------------------
  C     -0.273277    1.370696   -0.133716
  O     -0.162275   -0.032885   -0.107602
  C      0.788635   -0.542086   -1.028092
  C      0.713382   -2.078441   -0.959418
  C      1.209860   -2.566944    0.411601
  O     -0.657911   -2.446089   -1.129206
  C      1.460236   -2.713794   -2.159978
  C      2.940321   -2.316442   -2.260085
  C      1.306127   -4.241908   -2.184618
  H      0.677670    1.856672    0.132941
  H     -0.580011    1.735716   -1.125994
  H     -1.032493    1.653638    0.599436
  H      0.543993   -0.202022   -2.047256
  H      1.792986   -0.172802   -0.773194
  H      0.675606   -2.036239    1.204166
  H      1.020256   -3.636036    0.526142
  H      2.280497   -2.383857    0.548805
  H     -1.163168   -1.827234   -0.587162
  H      0.943912   -2.322731   -3.046777
  H      3.083055   -1.234953   -2.345844
  H      3.513052   -2.663836   -1.393353
  H      3.388760   -2.774018   -3.147923
  H      0.259151   -4.528603   -2.069339
  H      1.672260   -4.642418   -3.135610
  H      1.884600   -4.719206   -1.386245

 Total Charge           Charge          ....    0
 Multiplicity           Mult            ....    1
 Number of Electrons    NEL             ....   74
 Basis Dimension        Dim             ....  375

ORBITAL ENERGIES
----------------

  NO   OCC          E(Eh)            E(eV)
   0   2.0000     -20.565828      -559.6246
   1   2.0000     -20.537036      -558.8412
   2   2.0000     -11.279683      -306.9358
   3   2.0000     -11.278998      -306.9171
   4   2.0000     -11.275933      -306.8337
   5   2.0000     -11.223427      -305.4050
   6   2.0000     -11.213607      -305.1378
   7   2.0000     -11.205039      -304.9046
   8   2.0000     -11.201127      -304.7982
   9   2.0000      -1.391118       -37.8542
  10   2.0000      -1.344032       -36.5730
  11   2.0000      -1.084739       -29.5172
  12   2.0000      -1.007940       -27.4274
  13   2.0000      -0.954266       -25.9669
  14   2.0000      -0.924533       -25.1578
  15   2.0000      -0.896983       -24.4081
  16   2.0000      -0.831835       -22.6354
  17   2.0000      -0.736291       -20.0355
  18   2.0000      -0.693783       -18.8788
  19   2.0000      -0.676004       -18.3950
  20   2.0000      -0.661417       -17.9981
  21   2.0000      -0.638138       -17.3646
  22   2.0000      -0.601781       -16.3753
  23   2.0000      -0.587254       -15.9800
  24   2.0000      -0.582043       -15.8382
  25   2.0000      -0.571457       -15.5501
  26   2.0000      -0.542013       -14.7489
  27   2.0000      -0.536656       -14.6032
  28   2.0000      -0.525154       -14.2902
  29   2.0000      -0.517212       -14.0740
  30   2.0000      -0.505102       -13.7445
  31   2.0000      -0.493714       -13.4346
  32   2.0000      -0.473978       -12.8976
  33   2.0000      -0.465553       -12.6683
  34   2.0000      -0.441607       -12.0167
  35   2.0000      -0.432303       -11.7636
  36   2.0000      -0.420372       -11.4389
  37   0.0000       0.131896         3.5891
  38   0.0000       0.151764         4.1297
  39   0.0000       0.168822         4.5939
  40   0.0000       0.174578         4.7505
  41   0.0000       0.184154         5.0111

MULLIKEN ATOMIC CHARGES
-----------------------
   0 C :   -0.223261
   1 O :   -0.335086
   2 C :   -0.119855
   3 C :    0.305001
   4 C :   -0.484845
   5 O :   -0.487196
   6 C :    0.008180
   7 C :   -0.441272
   8 C :   -0.444330
   9 H :    0.115304
  10 H :    0.117405
  11 H :    0.141054
  12 H :    0.110273
  13 H :    0.106580
  14 H :    0.144135
  15 H :    0.148743
  16 H :    0.120020
  17 H :    0.322764
  18 H :    0.086161
  19 H :    0.131750
  20 H :    0.127752
  21 H :    0.137192
  22 H :    0.162801
  23 H :    0.128844
  24 H :    0.121885
Sum of atomic charges:   -0.0000000

LOEWDIN ATOMIC CHARGES
----------------------
   0 C :   -0.358557
   1 O :    0.125434
   2 C :   -0.291757
   3 C :   -0.384032
   4 C :   -0.275692
   5 O :    0.007317
   6 C :   -0.269128
   7 C :   -0.292226
   8 C :   -0.291504
   9 H :    0.103574
  10 H :    0.103615
  11 H :    0.114090
  12 H :    0.127179
  13 H :    0.125439
  14 H :    0.128429
  15 H :    0.128418
  16 H :    0.123805
  17 H :    0.175004
  18 H :    0.157084
  19 H :    0.120665
  20 H :    0.122526
  21 H :    0.126493
  22 H :    0.130810
  23 H :    0.122138
  24 H :    0.120874

  Mayer bond orders larger than 0.1
B(  0-C ,  1-O ) :   0.9144 B(  0-C ,  9-H ) :   0.9374 B(  0-C , 10-H ) :   0.9370
B(  0-C , 11-H ) :   0.9390 B(  1-O ,  2-C ) :   0.9096 B(  2-C ,  3-C ) :   0.9012
B(  2-C , 12-H ) :   0.9285 B(  2-C , 13-H ) :   0.9252 B(  3-C ,  4-C ) :   0.9108
B(  3-C ,  5-O ) :   0.9397 B(  3-C ,  6-C ) :   0.8679 B(  4-C , 14-H ) :   0.9274
B(  4-C , 15-H ) :   0.9450 B(  4-C , 16-H ) :   0.9296 B(  5-O , 17-H ) :   0.8219
B(  6-C ,  7-C ) :   0.8924 B(  6-C ,  8-C ) :   0.9164 B(  6-C , 18-H ) :   0.9284
B(  7-C , 19-H ) :   0.9397 B(  7-C , 20-H ) :   0.9311 B(  7-C , 21-H ) :   0.9389
B(  8-C , 22-H ) :   0.9376 B(  8-C , 23-H ) :   0.9392 B(  8-C , 24-H ) :   0.9335

MP2 TOTAL ENERGY:     -425.927705644 Eh
FINAL SINGLE POINT ENERGY      -425.927705643888

DIPOLE MOMENT
-------------
                                X             Y             Z
Electronic contribution:     -5.56531       1.45650       1.33401
Nuclear contribution   :      5.96417      -0.61293      -1.26777
                        -----------------------------------------
Total Dipole Moment    :      0.39886       0.84356       0.06623
                        -----------------------------------------
Magnitude (a.u.)       :      0.93546
Magnitude (Debye)      :      2.37774

                             ****ORCA TERMINATED NORMALLY****
TOTAL RUN TIME: 0 days 0 hours 20 minutes 15 seconds 776 msec
