                         Program Version 3.0.3 - RELEASE   -
|  1> ! RI-MP2 RIJK def2-TZVP def2-TZVP/C def2-TZVP/JK TIGHTSCF
|  2> % maxcore 2000
|  3> % mp2 density relaxed end
|  4> *xyz 0 1
|  5>  O        0.1953978553    -0.0969165928     0.5813845682
|  6>  C        0.0292467987     1.0602615919     0.2636392984
|  7>  C        1.1336603522     1.9019445973    -0.1688798037
|  8>  C        2.0285362121     2.6216488068    -0.5302219495
|  9>  C       -1.3214771149     1.7437787508     0.2587688238
| 10>  C       -1.9302146879     2.0044407025    -1.1491560539
| 11>  O       -3.0147279282     1.1007795198    -0.8859098900
| 12>  C       -2.5484854367     0.8374428872     0.4568696260
| 13>  H        2.8331891904     3.2401737343    -0.8473040735
| 14>  H       -1.2717119593     2.6354754759     0.8885562501
| 15>  H       -2.2730525366     3.0318544697    -1.3202214514
| 16>  H       -1.3158529435     1.6856935875    -2.0001706276
| 17>  H       -2.3097062877    -0.2180562899     0.6168780338
| 18>  H       -3.2649217440     1.1778531890     1.2130268094
| 19> *
| 20>
| 21>                          ****END OF INPUT****

CARTESIAN COORDINATES (ANGSTROEM)
---------------------------------
  O      0.195398   -0.096917    0.581385
  C      0.029247    1.060262    0.263639
  C      1.133660    1.901945   -0.168880
  C      2.028536    2.621649   -0.530222
  C     -1.321477    1.743779    0.258769
  C     -1.930215    2.004441   -1.149156
  O     -3.014728    1.100780   -0.885910
  C     -2.548485    0.837443    0.456870
  H      2.833189    3.240174   -0.847304
  H     -1.271712    2.635475    0.888556
  H     -2.273053    3.031854   -1.320221
  H     -1.315853    1.685694   -2.000171
  H     -2.309706   -0.218056    0.616878
  H     -3.264922    1.177853    1.213027

 Total Charge           Charge          ....    0
 Multiplicity           Mult            ....    1
 Number of Electrons    NEL             ....   58
 Basis Dimension        Dim             ....  284

ORBITAL ENERGIES
----------------

  NO   OCC          E(Eh)            E(eV)
   0   2.0000     -20.573538      -559.8344
   1   2.0000     -20.559104      -559.4417
   2   2.0000     -11.370749      -309.4138
   3   2.0000     -11.299554      -307.4765
   4   2.0000     -11.288665      -307.1802
   5   2.0000     -11.272510      -306.7406
   6   2.0000     -11.262962      -306.4808
   7   2.0000     -11.262290      -306.4625
   8   2.0000      -1.415915       -38.5290
   9   2.0000      -1.389500       -37.8102
  10   2.0000      -1.087645       -29.5963
  11   2.0000      -1.045302       -28.4441
  12   2.0000      -0.949482       -25.8367
  13   2.0000      -0.904271       -24.6065
  14   2.0000      -0.792811       -21.5735
  15   2.0000      -0.742156       -20.1951
  16   2.0000      -0.721603       -19.6358
  17   2.0000      -0.694276       -18.8922
  18   2.0000      -0.675952       -18.3936
  19   2.0000      -0.612331       -16.6624
  20   2.0000      -0.604410       -16.4468
  21   2.0000      -0.579679       -15.7739
  22   2.0000      -0.561075       -15.2676
  23   2.0000      -0.492132       -13.3916
  24   2.0000      -0.480032       -13.0623
  25   2.0000      -0.451394       -12.2831
  26   2.0000      -0.431391       -11.7388
  27   2.0000      -0.428698       -11.6655
  28   2.0000      -0.425590       -11.5809
  29   0.0000       0.073589         2.0024
  30   0.0000       0.134868         3.6699
  31   0.0000       0.146817         3.9951
  32   0.0000       0.155559         4.2330
  33   0.0000       0.166293         4.5251

MULLIKEN ATOMIC CHARGES
-----------------------
   0 O :   -0.258502
   1 C :    0.016947
   2 C :    0.014056
   3 C :   -0.089664
   4 C :   -0.102304
   5 C :   -0.033023
   6 O :   -0.325263
   7 C :   -0.013099
   8 H :    0.204558
   9 H :    0.144414
  10 H :    0.103512
  11 H :    0.109756
  12 H :    0.128713
  13 H :    0.099899
Sum of atomic charges:    0.0000000

LOEWDIN ATOMIC CHARGES
----------------------
   0 O :    0.186259
   1 C :   -0.311829
   2 C :   -0.057655
   3 C :   -0.037954
   4 C :   -0.201278
   5 C :   -0.240896
   6 O :    0.115656
   7 C :   -0.237261
   8 H :    0.133584
   9 H :    0.161960
  10 H :    0.119585
  11 H :    0.123171
  12 H :    0.127352
  13 H :    0.119306

  Mayer bond orders larger than 0.1
B(  0-O ,  1-C ) :   2.0261 B(  1-C ,  2-C ) :   1.0020 B(  1-C ,  4-C ) :   0.9646
B(  2-C ,  3-C ) :   2.6033 B(  2-C ,  4-C ) :  -0.1159 B(  3-C ,  8-H ) :   0.8965
B(  4-C ,  5-C ) :   0.9298 B(  4-C ,  7-C ) :   0.9479 B(  4-C ,  9-H ) :   0.8965
B(  5-C ,  6-O ) :   0.9682 B(  5-C , 10-H ) :   0.9126 B(  5-C , 11-H ) :   0.9028
B(  6-O ,  7-C ) :   0.9459 B(  7-C , 12-H ) :   0.9011 B(  7-C , 13-H ) :   0.9187

MP2 TOTAL ENERGY:     -381.837818368 Eh
FINAL SINGLE POINT ENERGY      -381.837818367966

DIPOLE MOMENT
-------------
                                X             Y             Z
Electronic contribution:      3.27233      -1.88226       0.56656
Nuclear contribution   :     -2.85174       3.15271      -0.50232
                        -----------------------------------------
Total Dipole Moment    :      0.42059       1.27045       0.06424
                        -----------------------------------------
Magnitude (a.u.)       :      1.33980
Magnitude (Debye)      :      3.40550

                             ****ORCA TERMINATED NORMALLY****
TOTAL RUN TIME: 0 days 0 hours 15 minutes 59 seconds 543 msec
