                         Program Version 3.0.3 - RELEASE   -
|  1> ! RI-MP2 RIJK def2-TZVP def2-TZVP/C def2-TZVP/JK TIGHTSCF
|  2> % maxcore 2000
|  3> % mp2 density relaxed end
|  4> *xyz 0 1
|  5>  C        0.1068229405     1.3544068647     0.2263141413
|  6>  O        0.0072699117    -0.0039777686    -0.1892150849
|  7>  C       -1.2540129591    -0.5029935250    -0.1041830541
|  8>  C       -2.1658351101    -0.8976216851     1.0345439338
|  9>  C       -3.3482470952    -0.1214718264     0.4576084317
| 10>  C       -2.6099206937    -0.2178211498    -0.9099117386
| 11>  O       -2.7137519522     0.7704236679    -1.8765976139
| 12>  C       -2.6533173569    -1.7349592160    -1.2589103403
| 13>  C       -1.7228414486    -1.9198698910    -0.0602340796
| 14>  H        1.1526839429     1.6446392447     0.1074435899
| 15>  H       -0.5242246376     2.0036518317    -0.3925549382
| 16>  H       -0.1852300984     1.4667323699     1.2791623470
| 17>  H       -1.9151786173    -1.0735059215     2.0721702112
| 18>  H       -4.3492815760    -0.5654149191     0.5180088738
| 19>  H       -3.3717304779     0.9099609947     0.8200589031
| 20>  H       -3.5900165454     0.7221000436    -2.2759886899
| 21>  H       -3.6326481985    -2.2284971590    -1.2524948762
| 22>  H       -2.1330077834    -1.9347778754    -2.1994145569
| 23>  H       -1.1463778447    -2.7927428104     0.2154755804
| 24> *
| 25>
| 26>                          ****END OF INPUT****

CARTESIAN COORDINATES (ANGSTROEM)
---------------------------------
  C      0.106823    1.354407    0.226314
  O      0.007270   -0.003978   -0.189215
  C     -1.254013   -0.502994   -0.104183
  C     -2.165835   -0.897622    1.034544
  C     -3.348247   -0.121472    0.457608
  C     -2.609921   -0.217821   -0.909912
  O     -2.713752    0.770424   -1.876598
  C     -2.653317   -1.734959   -1.258910
  C     -1.722841   -1.919870   -0.060234
  H      1.152684    1.644639    0.107444
  H     -0.524225    2.003652   -0.392555
  H     -0.185230    1.466732    1.279162
  H     -1.915179   -1.073506    2.072170
  H     -4.349282   -0.565415    0.518009
  H     -3.371730    0.909961    0.820059
  H     -3.590017    0.722100   -2.275989
  H     -3.632648   -2.228497   -1.252495
  H     -2.133008   -1.934778   -2.199415
  H     -1.146378   -2.792743    0.215476

 Total Charge           Charge          ....    0
 Multiplicity           Mult            ....    1
 Number of Electrons    NEL             ....   68
 Basis Dimension        Dim             ....  339

ORBITAL ENERGIES
----------------

  NO   OCC          E(Eh)            E(eV)
   0   2.0000     -20.568053      -559.6852
   1   2.0000     -20.566721      -559.6489
   2   2.0000     -11.293232      -307.3045
   3   2.0000     -11.282375      -307.0090
   4   2.0000     -11.269516      -306.6591
   5   2.0000     -11.231970      -305.6374
   6   2.0000     -11.230672      -305.6021
   7   2.0000     -11.224653      -305.4383
   8   2.0000     -11.224167      -305.4251
   9   2.0000      -1.393203       -37.9110
  10   2.0000      -1.375081       -37.4179
  11   2.0000      -1.217727       -33.1360
  12   2.0000      -0.979612       -26.6566
  13   2.0000      -0.964404       -26.2428
  14   2.0000      -0.927650       -25.2426
  15   2.0000      -0.844093       -22.9689
  16   2.0000      -0.751833       -20.4584
  17   2.0000      -0.735612       -20.0170
  18   2.0000      -0.720987       -19.6190
  19   2.0000      -0.657085       -17.8802
  20   2.0000      -0.638637       -17.3782
  21   2.0000      -0.633722       -17.2445
  22   2.0000      -0.607193       -16.5226
  23   2.0000      -0.604467       -16.4484
  24   2.0000      -0.579740       -15.7755
  25   2.0000      -0.543892       -14.8001
  26   2.0000      -0.525069       -14.2879
  27   2.0000      -0.522018       -14.2048
  28   2.0000      -0.508257       -13.8304
  29   2.0000      -0.484282       -13.1780
  30   2.0000      -0.432316       -11.7639
  31   2.0000      -0.413340       -11.2476
  32   2.0000      -0.374894       -10.2014
  33   2.0000      -0.355482        -9.6732
  34   0.0000       0.133480         3.6322
  35   0.0000       0.151902         4.1335
  36   0.0000       0.168422         4.5830
  37   0.0000       0.183064         4.9814
  38   0.0000       0.189777         5.1641

MULLIKEN ATOMIC CHARGES
-----------------------
   0 C :   -0.219652
   1 O :   -0.289159
   2 C :    0.109739
   3 C :   -0.182510
   4 C :   -0.193406
   5 C :    0.191155
   6 O :   -0.462457
   7 C :   -0.200132
   8 C :   -0.196607
   9 H :    0.139240
  10 H :    0.141399
  11 H :    0.117053
  12 H :    0.141923
  13 H :    0.104336
  14 H :    0.111586
  15 H :    0.321996
  16 H :    0.106151
  17 H :    0.120218
  18 H :    0.139128
Sum of atomic charges:    0.0000000

LOEWDIN ATOMIC CHARGES
----------------------
   0 C :   -0.323458
   1 O :    0.208539
   2 C :   -0.257608
   3 C :   -0.151806
   4 C :   -0.192522
   5 C :   -0.298877
   6 O :    0.022523
   7 C :   -0.188711
   8 C :   -0.139939
   9 H :    0.113128
  10 H :    0.110943
  11 H :    0.104326
  12 H :    0.137980
  13 H :    0.123580
  14 H :    0.139926
  15 H :    0.184682
  16 H :    0.123113
  17 H :    0.143456
  18 H :    0.140724

  Mayer bond orders larger than 0.1
B(  0-C ,  1-O ) :   0.8680 B(  0-C ,  9-H ) :   0.9392 B(  0-C , 10-H ) :   0.9338
B(  0-C , 11-H ) :   0.9349 B(  1-O ,  2-C ) :   1.0629 B(  2-C ,  3-C ) :   0.8637
B(  2-C ,  5-C ) :   0.8550 B(  2-C ,  8-C ) :   0.8805 B(  3-C ,  4-C ) :   0.9087
B(  3-C ,  8-C ) :   0.7982 B(  3-C , 12-H ) :   0.9126 B(  4-C ,  5-C ) :   0.9312
B(  4-C , 13-H ) :   0.8969 B(  4-C , 14-H ) :   0.9185 B(  5-C ,  6-O ) :   1.0007
B(  5-C ,  7-C ) :   0.9339 B(  6-O , 15-H ) :   0.8345 B(  7-C ,  8-C ) :   0.9247
B(  7-C , 16-H ) :   0.9074 B(  7-C , 17-H ) :   0.9169 B(  8-C , 18-H ) :   0.9165

MP2 TOTAL ENERGY:     -422.250520001 Eh
FINAL SINGLE POINT ENERGY      -422.250520000962

DIPOLE MOMENT
-------------
                                X             Y             Z
Electronic contribution:      0.94713      -1.02654      -1.82384
Nuclear contribution   :     -1.57753       1.12218       2.02966
                        -----------------------------------------
Total Dipole Moment    :     -0.63041       0.09563       0.20582
                        -----------------------------------------
Magnitude (a.u.)       :      0.67002
Magnitude (Debye)      :      1.70305

                             ****ORCA TERMINATED NORMALLY****
TOTAL RUN TIME: 0 days 0 hours 16 minutes 44 seconds 420 msec
