                         Program Version 3.0.3 - RELEASE   -
|  1> ! RI-MP2 RIJK def2-TZVP def2-TZVP/C def2-TZVP/JK TIGHTSCF
|  2> % maxcore 2000
|  3> % mp2 density relaxed end
|  4> *xyz 0 1
|  5>  O        0.0524138678     0.0010937161    -0.0328024945
|  6>  C        0.0119399899     1.1910498422     0.0331296657
|  7>  C       -1.1511026119     2.2131551699     0.0396888802
|  8>  C       -1.4651613974     2.8471824291     1.4242493926
|  9>  N       -0.2776808477     3.7842236257     1.2926770841
| 10>  C        0.8746870969     3.2834806885     1.9615434434
| 11>  N        1.6950373346     2.5464660786     1.3216097171
| 12>  C        1.0954698344     2.3255059248    -0.0083021308
| 13>  C       -0.0760067067     3.3325540142    -0.1299607890
| 14>  H       -1.9839498986     2.0138546680    -0.6355048842
| 15>  H       -2.4017212781     3.4104044376     1.4152608148
| 16>  H       -1.4419737829     2.1965681974     2.3019840713
| 17>  H        1.0153754350     3.5416846783     3.0078531231
| 18>  H        1.8449817953     2.2483324199    -0.7967745431
| 19>  H       -0.0905007407     4.1148316696    -0.8862234707
| 20> *
| 21>
| 22>                          ****END OF INPUT****

CARTESIAN COORDINATES (ANGSTROEM)
---------------------------------
  O      0.052414    0.001094   -0.032802
  C      0.011940    1.191050    0.033130
  C     -1.151103    2.213155    0.039689
  C     -1.465161    2.847182    1.424249
  N     -0.277681    3.784224    1.292677
  C      0.874687    3.283481    1.961543
  N      1.695037    2.546466    1.321610
  C      1.095470    2.325506   -0.008302
  C     -0.076007    3.332554   -0.129961
  H     -1.983950    2.013855   -0.635505
  H     -2.401721    3.410404    1.415261
  H     -1.441974    2.196568    2.301984
  H      1.015375    3.541685    3.007853
  H      1.844982    2.248332   -0.796775
  H     -0.090501    4.114832   -0.886223

 Total Charge           Charge          ....    0
 Multiplicity           Mult            ....    1
 Number of Electrons    NEL             ....   64
 Basis Dimension        Dim             ....  315

ORBITAL ENERGIES
----------------

  NO   OCC          E(Eh)            E(eV)
   0   2.0000     -20.567144      -559.6604
   1   2.0000     -15.587110      -424.1468
   2   2.0000     -15.571387      -423.7190
   3   2.0000     -11.345417      -308.7245
   4   2.0000     -11.317744      -307.9715
   5   2.0000     -11.296538      -307.3944
   6   2.0000     -11.286654      -307.1255
   7   2.0000     -11.282384      -307.0093
   8   2.0000     -11.265738      -306.5563
   9   2.0000      -1.410907       -38.3927
  10   2.0000      -1.336144       -36.3583
  11   2.0000      -1.199985       -32.6532
  12   2.0000      -1.104370       -30.0514
  13   2.0000      -0.979071       -26.6419
  14   2.0000      -0.897879       -24.4325
  15   2.0000      -0.867794       -23.6139
  16   2.0000      -0.775993       -21.1158
  17   2.0000      -0.736318       -20.0362
  18   2.0000      -0.707940       -19.2640
  19   2.0000      -0.692427       -18.8419
  20   2.0000      -0.636324       -17.3153
  21   2.0000      -0.624918       -17.0049
  22   2.0000      -0.612416       -16.6647
  23   2.0000      -0.594446       -16.1757
  24   2.0000      -0.558899       -15.2084
  25   2.0000      -0.538637       -14.6571
  26   2.0000      -0.514552       -14.0017
  27   2.0000      -0.496592       -13.5129
  28   2.0000      -0.466476       -12.6935
  29   2.0000      -0.432962       -11.7815
  30   2.0000      -0.407752       -11.0955
  31   2.0000      -0.373148       -10.1539
  32   0.0000       0.110990         3.0202
  33   0.0000       0.124854         3.3974
  34   0.0000       0.149525         4.0688
  35   0.0000       0.158514         4.3134
  36   0.0000       0.168827         4.5940

MULLIKEN ATOMIC CHARGES
-----------------------
   0 O :   -0.222094
   1 C :    0.064221
   2 C :   -0.109903
   3 C :   -0.177976
   4 N :   -0.180577
   5 C :   -0.005158
   6 N :   -0.234182
   7 C :   -0.004395
   8 C :    0.003739
   9 H :    0.148270
  10 H :    0.138228
  11 H :    0.143706
  12 H :    0.145859
  13 H :    0.142298
  14 H :    0.147965
Sum of atomic charges:    0.0000000

LOEWDIN ATOMIC CHARGES
----------------------
   0 O :    0.187170
   1 C :   -0.266848
   2 C :   -0.152920
   3 C :   -0.193146
   4 N :    0.119336
   5 C :   -0.282251
   6 N :    0.115803
   7 C :   -0.202040
   8 C :   -0.153795
   9 H :    0.145132
  10 H :    0.133806
  11 H :    0.130723
  12 H :    0.137021
  13 H :    0.146766
  14 H :    0.135243

  Mayer bond orders larger than 0.1
B(  0-O ,  1-C ) :   2.0543 B(  1-C ,  2-C ) :   0.8675 B(  1-C ,  7-C ) :   0.8207
B(  2-C ,  3-C ) :   0.9121 B(  2-C ,  7-C ) :  -0.1120 B(  2-C ,  8-C ) :   0.9152
B(  2-C ,  9-H ) :   0.8973 B(  3-C ,  4-N ) :   0.8744 B(  3-C , 10-H ) :   0.9211
B(  3-C , 11-H ) :   0.9232 B(  4-N ,  5-C ) :   1.0088 B(  4-N ,  8-C ) :   0.9193
B(  5-C ,  6-N ) :   1.8092 B(  5-C , 12-H ) :   0.9194 B(  6-N ,  7-C ) :   0.8846
B(  7-C ,  8-C ) :   0.9326 B(  7-C , 13-H ) :   0.9153 B(  8-C , 14-H ) :   0.8906

MP2 TOTAL ENERGY:     -416.067945047 Eh
FINAL SINGLE POINT ENERGY      -416.067945047030

DIPOLE MOMENT
-------------
                                X             Y             Z
Electronic contribution:      2.37753      -2.26287      -0.62002
Nuclear contribution   :     -3.28057       3.10288       0.42456
                        -----------------------------------------
Total Dipole Moment    :     -0.90303       0.84001      -0.19546
                        -----------------------------------------
Magnitude (a.u.)       :      1.24872
Magnitude (Debye)      :      3.17399

                             ****ORCA TERMINATED NORMALLY****
TOTAL RUN TIME: 0 days 0 hours 17 minutes 44 seconds 562 msec
