                         Program Version 3.0.3 - RELEASE   -
|  1> ! RI-MP2 RIJK def2-TZVP def2-TZVP/C def2-TZVP/JK TIGHTSCF
|  2> % maxcore 2000
|  3> % mp2 density relaxed end
|  4> *xyz 0 1
|  5>  C        0.1449578499     1.1635098828     0.2780434919
|  6>  O        0.2572746609    -0.2384212408     0.0886223236
|  7>  C        0.5120995788    -0.6059416575    -1.2381581852
|  8>  O        1.8301752353    -0.2514726678    -1.6554447264
|  9>  C        2.6540455925    -1.4077373053    -1.7046624195
| 10>  C        3.6308647343    -1.4212082783    -0.5232568436
| 11>  O        4.7204091615    -1.9258503092    -0.5569054979
| 12>  C        1.6969148796    -2.5679354742    -1.5915952357
| 13>  C        0.4773428264    -2.1077821044    -1.3400269332
| 14>  H        1.0835509318     1.6760882057     0.0371958627
| 15>  H       -0.6589722083     1.5865672268    -0.3424857864
| 16>  H       -0.0963028928     1.3239972920     1.3306182967
| 17>  H       -0.1878732970    -0.0776212934    -1.9049024514
| 18>  H        3.2302407246    -1.4082756729    -2.6374530005
| 19>  H        3.2129690394    -0.9321283392     0.3839773652
| 20>  H        2.0160964514    -3.5980408942    -1.6748840274
| 21>  H       -0.4255909483    -2.6802408800    -1.1793805928
| 22> *
| 23>
| 24>                          ****END OF INPUT****

CARTESIAN COORDINATES (ANGSTROEM)
---------------------------------
  C      0.144958    1.163510    0.278043
  O      0.257275   -0.238421    0.088622
  C      0.512100   -0.605942   -1.238158
  O      1.830175   -0.251473   -1.655445
  C      2.654046   -1.407737   -1.704662
  C      3.630865   -1.421208   -0.523257
  O      4.720409   -1.925850   -0.556905
  C      1.696915   -2.567935   -1.591595
  C      0.477343   -2.107782   -1.340027
  H      1.083551    1.676088    0.037196
  H     -0.658972    1.586567   -0.342486
  H     -0.096303    1.323997    1.330618
  H     -0.187873   -0.077621   -1.904902
  H      3.230241   -1.408276   -2.637453
  H      3.212969   -0.932128    0.383977
  H      2.016096   -3.598041   -1.674884
  H     -0.425591   -2.680241   -1.179381

 Total Charge           Charge          ....    0
 Multiplicity           Mult            ....    1
 Number of Electrons    NEL             ....   68
 Basis Dimension        Dim             ....  327

ORBITAL ENERGIES
----------------

  NO   OCC          E(Eh)            E(eV)
   0   2.0000     -20.578892      -559.9801
   1   2.0000     -20.573830      -559.8424
   2   2.0000     -20.563934      -559.5731
   3   2.0000     -11.352209      -308.9093
   4   2.0000     -11.334507      -308.4276
   5   2.0000     -11.307365      -307.6890
   6   2.0000     -11.279988      -306.9441
   7   2.0000     -11.258432      -306.3575
   8   2.0000     -11.252379      -306.1928
   9   2.0000      -1.436790       -39.0970
  10   2.0000      -1.403247       -38.1843
  11   2.0000      -1.367504       -37.2117
  12   2.0000      -1.098890       -29.9023
  13   2.0000      -1.029922       -28.0256
  14   2.0000      -0.943781       -25.6816
  15   2.0000      -0.859946       -23.4003
  16   2.0000      -0.807984       -21.9864
  17   2.0000      -0.792051       -21.5528
  18   2.0000      -0.735120       -20.0036
  19   2.0000      -0.699471       -19.0336
  20   2.0000      -0.680170       -18.5084
  21   2.0000      -0.652016       -17.7423
  22   2.0000      -0.639225       -17.3942
  23   2.0000      -0.635151       -17.2833
  24   2.0000      -0.590156       -16.0590
  25   2.0000      -0.579603       -15.7718
  26   2.0000      -0.556806       -15.1515
  27   2.0000      -0.533592       -14.5198
  28   2.0000      -0.510019       -13.8783
  29   2.0000      -0.508371       -13.8335
  30   2.0000      -0.475655       -12.9432
  31   2.0000      -0.453836       -12.3495
  32   2.0000      -0.432340       -11.7646
  33   2.0000      -0.381880       -10.3915
  34   0.0000       0.108068         2.9407
  35   0.0000       0.145754         3.9662
  36   0.0000       0.152376         4.1464
  37   0.0000       0.163673         4.4538
  38   0.0000       0.177473         4.8293

MULLIKEN ATOMIC CHARGES
-----------------------
   0 C :   -0.229667
   1 O :   -0.295749
   2 C :    0.194549
   3 O :   -0.335441
   4 C :    0.233081
   5 C :    0.034575
   6 O :   -0.256554
   7 C :   -0.222966
   8 C :   -0.150041
   9 H :    0.138095
  10 H :    0.114541
  11 H :    0.143479
  12 H :    0.086773
  13 H :    0.130931
  14 H :    0.106940
  15 H :    0.157642
  16 H :    0.149813
Sum of atomic charges:    0.0000000

LOEWDIN ATOMIC CHARGES
----------------------
   0 C :   -0.348496
   1 O :    0.160227
   2 C :   -0.383160
   3 O :    0.204677
   4 C :   -0.290362
   5 C :   -0.264612
   6 O :    0.142330
   7 C :   -0.120571
   8 C :   -0.125325
   9 H :    0.107040
  10 H :    0.103645
  11 H :    0.114637
  12 H :    0.130858
  13 H :    0.154924
  14 H :    0.118866
  15 H :    0.148917
  16 H :    0.146404

  Mayer bond orders larger than 0.1
B(  0-C ,  1-O ) :   0.8866 B(  0-C ,  9-H ) :   0.9368 B(  0-C , 10-H ) :   0.9338
B(  0-C , 11-H ) :   0.9379 B(  1-O ,  2-C ) :   1.0167 B(  2-C ,  3-O ) :   0.9552
B(  2-C ,  8-C ) :   0.9632 B(  2-C , 12-H ) :   0.9251 B(  3-O ,  4-C ) :   0.9046
B(  4-C ,  5-C ) :   0.7993 B(  4-C ,  7-C ) :   0.9295 B(  4-C , 13-H ) :   0.8990
B(  5-C ,  6-O ) :   1.9915 B(  5-C , 14-H ) :   0.9323 B(  7-C ,  8-C ) :   1.7703
B(  7-C , 15-H ) :   0.9096 B(  8-C , 16-H ) :   0.9098

MP2 TOTAL ENERGY:     -458.219494189 Eh
FINAL SINGLE POINT ENERGY      -458.219494189307

DIPOLE MOMENT
-------------
                                X             Y             Z
Electronic contribution:      4.49724      -3.39878      -1.28974
Nuclear contribution   :     -5.58592       3.54690       1.04027
                        -----------------------------------------
Total Dipole Moment    :     -1.08868       0.14812      -0.24947
                        -----------------------------------------
Magnitude (a.u.)       :      1.12668
Magnitude (Debye)      :      2.86378

                             ****ORCA TERMINATED NORMALLY****
TOTAL RUN TIME: 0 days 0 hours 25 minutes 54 seconds 998 msec
