                         Program Version 3.0.3 - RELEASE   -
|  1> ! RI-MP2 RIJK def2-TZVP def2-TZVP/C def2-TZVP/JK TIGHTSCF
|  2> % maxcore 2000
|  3> % mp2 density relaxed end
|  4> *xyz 0 1
|  5>  C       -0.0153113533     1.4096094280    -0.0341443984
|  6>  C        0.0037434020    -0.0802560476     0.0178258495
|  7>  N       -0.0596042470    -0.8174598217    -1.0980273302
|  8>  N       -0.0132569184    -2.0649547348    -0.5755528845
|  9>  N       -0.0322103581    -3.3295701327    -1.0803346986
| 10>  C        0.0444472468    -4.0638580544     0.0006141206
| 11>  N        0.1107976396    -3.3210391230     1.1648520748
| 12>  C        0.0718916198    -2.0095736173     0.7696783494
| 13>  N        0.0869917016    -0.7689347169     1.2111274451
| 14>  H        0.8917768361     1.8232785453     0.4175048242
| 15>  H       -0.0836482883     1.7459716850    -1.0696633296
| 16>  H       -0.8676488530     1.8046576985     0.5274660624
| 17>  H        0.0554651123    -5.1411760070    -0.0040546813
| 18>  H        0.1745074897    -3.6688694314     2.1052491866
| 19> *
| 20>
| 21>                          ****END OF INPUT****

CARTESIAN COORDINATES (ANGSTROEM)
---------------------------------
  C     -0.015311    1.409609   -0.034144
  C      0.003743   -0.080256    0.017826
  N     -0.059604   -0.817460   -1.098027
  N     -0.013257   -2.064955   -0.575553
  N     -0.032210   -3.329570   -1.080335
  C      0.044447   -4.063858    0.000614
  N      0.110798   -3.321039    1.164852
  C      0.071892   -2.009574    0.769678
  N      0.086992   -0.768935    1.211127
  H      0.891777    1.823279    0.417505
  H     -0.083648    1.745972   -1.069663
  H     -0.867649    1.804658    0.527466
  H      0.055465   -5.141176   -0.004055
  H      0.174507   -3.668869    2.105249

 Total Charge           Charge          ....    0
 Multiplicity           Mult            ....    1
 Number of Electrons    NEL             ....   64
 Basis Dimension        Dim             ....  309

ORBITAL ENERGIES
----------------

  NO   OCC          E(Eh)            E(eV)
   0   2.0000     -15.674423      -426.5227
   1   2.0000     -15.656057      -426.0230
   2   2.0000     -15.627936      -425.2578
   3   2.0000     -15.584445      -424.0743
   4   2.0000     -15.553555      -423.2337
   5   2.0000     -11.353653      -308.9486
   6   2.0000     -11.344811      -308.7080
   7   2.0000     -11.299918      -307.4864
   8   2.0000     -11.223923      -305.4185
   9   2.0000      -1.474148       -40.1136
  10   2.0000      -1.334013       -36.3003
  11   2.0000      -1.264179       -34.4001
  12   2.0000      -1.158629       -31.5279
  13   2.0000      -1.087536       -29.5934
  14   2.0000      -0.978751       -26.6332
  15   2.0000      -0.898098       -24.4385
  16   2.0000      -0.852843       -23.2070
  17   2.0000      -0.804581       -21.8938
  18   2.0000      -0.748262       -20.3613
  19   2.0000      -0.703646       -19.1472
  20   2.0000      -0.685217       -18.6457
  21   2.0000      -0.669546       -18.2193
  22   2.0000      -0.587034       -15.9740
  23   2.0000      -0.567802       -15.4507
  24   2.0000      -0.545343       -14.8395
  25   2.0000      -0.538823       -14.6621
  26   2.0000      -0.536680       -14.6038
  27   2.0000      -0.494463       -13.4550
  28   2.0000      -0.475409       -12.9365
  29   2.0000      -0.450230       -12.2514
  30   2.0000      -0.365054        -9.9336
  31   2.0000      -0.340950        -9.2777
  32   0.0000       0.111665         3.0386
  33   0.0000       0.134469         3.6591
  34   0.0000       0.155069         4.2197
  35   0.0000       0.164734         4.4826
  36   0.0000       0.187132         5.0921

MULLIKEN ATOMIC CHARGES
-----------------------
   0 C :   -0.429361
   1 C :    0.207557
   2 N :   -0.301961
   3 N :    0.242996
   4 N :   -0.256631
   5 C :    0.083047
   6 N :   -0.324831
   7 C :    0.208606
   8 N :   -0.315883
   9 H :    0.143103
  10 H :    0.153496
  11 H :    0.143075
  12 H :    0.172923
  13 H :    0.273861
Sum of atomic charges:    0.0000000

LOEWDIN ATOMIC CHARGES
----------------------
   0 C :   -0.273363
   1 C :   -0.360081
   2 N :    0.052906
   3 N :    0.171881
   4 N :    0.063675
   5 C :   -0.289839
   6 N :    0.179292
   7 C :   -0.385948
   8 N :    0.091029
   9 H :    0.135166
  10 H :    0.136531
  11 H :    0.135164
  12 H :    0.140119
  13 H :    0.203467

  Mayer bond orders larger than 0.1
B(  0-C ,  1-C ) :   0.8746 B(  0-C ,  9-H ) :   0.9309 B(  0-C , 10-H ) :   0.9521
B(  0-C , 11-H ) :   0.9309 B(  1-C ,  2-N ) :   1.5428 B(  1-C ,  8-N ) :   1.2575
B(  2-N ,  3-N ) :   0.9726 B(  3-N ,  4-N ) :   0.9397 B(  3-N ,  7-C ) :   1.1863
B(  4-N ,  5-C ) :   1.5929 B(  5-C ,  6-N ) :   1.1158 B(  5-C , 12-H ) :   0.9217
B(  6-N ,  7-C ) :   1.0896 B(  6-N , 13-H ) :   0.8572 B(  7-C ,  8-N ) :   1.5717

MP2 TOTAL ENERGY:     -428.345033149 Eh
FINAL SINGLE POINT ENERGY      -428.345033149137

DIPOLE MOMENT
-------------
                                X             Y             Z
Electronic contribution:      0.03436      -5.81507      -0.42277
Nuclear contribution   :      0.05584       4.56619       1.63169
                        -----------------------------------------
Total Dipole Moment    :      0.09020      -1.24888       1.20892
                        -----------------------------------------
Magnitude (a.u.)       :      1.74050
Magnitude (Debye)      :      4.42399

                             ****ORCA TERMINATED NORMALLY****
TOTAL RUN TIME: 0 days 0 hours 15 minutes 9 seconds 934 msec
