                         Program Version 3.0.3 - RELEASE   -
|  1> ! RI-MP2 RIJK def2-TZVP def2-TZVP/C def2-TZVP/JK TIGHTSCF
|  2> % maxcore 2000
|  3> % mp2 density relaxed end
|  4> *xyz 0 1
|  5>  C        0.2596594249     1.5519830307     0.2433045403
|  6>  C       -0.0423800705     0.0831366845    -0.0552304856
|  7>  C        0.2801447713    -0.8299218729     1.1488987349
|  8>  C       -1.4979151474    -0.1194996419    -0.4617904522
|  9>  O       -2.3541353037     0.7190847818    -0.3037922245
| 10>  C       -1.8684984859    -1.4897797748    -1.0518049322
| 11>  C       -2.7872256582    -2.2295908730    -0.0918812418
| 12>  O       -2.5493937341    -3.3164799993     0.3647065469
| 13>  H        1.3114243477     1.6757549734     0.5178199937
| 14>  H        0.0515471692     2.1849336884    -0.6233635432
| 15>  H       -0.3594614489     1.9131447045     1.0687442634
| 16>  H        0.5710060536    -0.2569612747    -0.9018814105
| 17>  H       -0.2924459701    -0.5193937572     2.0291569605
| 18>  H        0.0513643817    -1.8812161835     0.9516240480
| 19>  H        1.3429636849    -0.7573989698     1.3964573610
| 20>  H       -2.4366965157    -1.2900257444    -1.9680601477
| 21>  H       -1.0031274571    -2.1140075121    -1.2785868905
| 22>  H       -3.7064695518    -1.6665808595     0.1734937595
| 23> *
| 24>
| 25>                          ****END OF INPUT****

CARTESIAN COORDINATES (ANGSTROEM)
---------------------------------
  C      0.259659    1.551983    0.243305
  C     -0.042380    0.083137   -0.055230
  C      0.280145   -0.829922    1.148899
  C     -1.497915   -0.119500   -0.461790
  O     -2.354135    0.719085   -0.303792
  C     -1.868498   -1.489780   -1.051805
  C     -2.787226   -2.229591   -0.091881
  O     -2.549394   -3.316480    0.364707
  H      1.311424    1.675755    0.517820
  H      0.051547    2.184934   -0.623364
  H     -0.359461    1.913145    1.068744
  H      0.571006   -0.256961   -0.901881
  H     -0.292446   -0.519394    2.029157
  H      0.051364   -1.881216    0.951624
  H      1.342964   -0.757399    1.396457
  H     -2.436697   -1.290026   -1.968060
  H     -1.003127   -2.114008   -1.278587
  H     -3.706470   -1.666581    0.173494

 Total Charge           Charge          ....    0
 Multiplicity           Mult            ....    1
 Number of Electrons    NEL             ....   62
 Basis Dimension        Dim             ....  308

ORBITAL ENERGIES
----------------

  NO   OCC          E(Eh)            E(eV)
   0   2.0000     -20.568982      -559.7104
   1   2.0000     -20.561538      -559.5079
   2   2.0000     -11.347393      -308.7783
   3   2.0000     -11.345991      -308.7401
   4   2.0000     -11.259732      -306.3929
   5   2.0000     -11.255914      -306.2890
   6   2.0000     -11.236365      -305.7570
   7   2.0000     -11.223349      -305.4029
   8   2.0000      -1.410709       -38.3874
   9   2.0000      -1.405126       -38.2354
  10   2.0000      -1.101461       -29.9723
  11   2.0000      -1.047656       -28.5082
  12   2.0000      -0.945595       -25.7309
  13   2.0000      -0.881533       -23.9877
  14   2.0000      -0.809692       -22.0328
  15   2.0000      -0.744600       -20.2616
  16   2.0000      -0.700076       -19.0500
  17   2.0000      -0.658465       -17.9177
  18   2.0000      -0.655109       -17.8264
  19   2.0000      -0.648086       -17.6353
  20   2.0000      -0.621713       -16.9177
  21   2.0000      -0.586493       -15.9593
  22   2.0000      -0.567165       -15.4334
  23   2.0000      -0.553541       -15.0626
  24   2.0000      -0.539191       -14.6721
  25   2.0000      -0.528876       -14.3915
  26   2.0000      -0.523994       -14.2586
  27   2.0000      -0.496444       -13.5089
  28   2.0000      -0.488551       -13.2941
  29   2.0000      -0.443001       -12.0547
  30   2.0000      -0.411945       -11.2096
  31   0.0000       0.104714         2.8494
  32   0.0000       0.133050         3.6205
  33   0.0000       0.139421         3.7938
  34   0.0000       0.156697         4.2639
  35   0.0000       0.166779         4.5383

MULLIKEN ATOMIC CHARGES
-----------------------
   0 C :   -0.382995
   1 C :   -0.056994
   2 C :   -0.427437
   3 C :    0.174122
   4 O :   -0.283097
   5 C :   -0.193750
   6 C :    0.082232
   7 O :   -0.261970
   8 H :    0.133256
   9 H :    0.136316
  10 H :    0.137418
  11 H :    0.109911
  12 H :    0.139042
  13 H :    0.155047
  14 H :    0.141429
  15 H :    0.153949
  16 H :    0.137040
  17 H :    0.106479
Sum of atomic charges:    0.0000000

LOEWDIN ATOMIC CHARGES
----------------------
   0 C :   -0.286376
   1 C :   -0.281491
   2 C :   -0.277745
   3 C :   -0.302687
   4 O :    0.164460
   5 C :   -0.230322
   6 C :   -0.287609
   7 O :    0.136677
   8 H :    0.124865
   9 H :    0.127778
  10 H :    0.130204
  11 H :    0.161495
  12 H :    0.129978
  13 H :    0.128717
  14 H :    0.128261
  15 H :    0.165992
  16 H :    0.148579
  17 H :    0.119224

  Mayer bond orders larger than 0.1
B(  0-C ,  1-C ) :   0.9319 B(  0-C ,  8-H ) :   0.9383 B(  0-C ,  9-H ) :   0.9358
B(  0-C , 10-H ) :   0.9270 B(  1-C ,  2-C ) :   0.8803 B(  1-C ,  3-C ) :   0.9092
B(  1-C , 11-H ) :   0.9091 B(  2-C , 12-H ) :   0.9306 B(  2-C , 13-H ) :   0.9293
B(  2-C , 14-H ) :   0.9309 B(  3-C ,  4-O ) :   1.9709 B(  3-C ,  5-C ) :   0.8619
B(  5-C ,  6-C ) :   0.8766 B(  5-C , 15-H ) :   0.9010 B(  5-C , 16-H ) :   0.9105
B(  6-C ,  7-O ) :   1.9828 B(  6-C , 17-H ) :   0.9290

MP2 TOTAL ENERGY:     -384.331734658 Eh
FINAL SINGLE POINT ENERGY      -384.331734657847

DIPOLE MOMENT
-------------
                                X             Y             Z
Electronic contribution:     -7.43653      -3.83359      -1.82206
Nuclear contribution   :      8.17537       4.07351       1.35396
                        -----------------------------------------
Total Dipole Moment    :      0.73884       0.23992      -0.46810
                        -----------------------------------------
Magnitude (a.u.)       :      0.90695
Magnitude (Debye)      :      2.30529

                             ****ORCA TERMINATED NORMALLY****
TOTAL RUN TIME: 0 days 0 hours 14 minutes 9 seconds 999 msec
