                         Program Version 3.0.3 - RELEASE   -
|  1> ! RI-MP2 RIJK def2-TZVP def2-TZVP/C def2-TZVP/JK TIGHTSCF
|  2> % maxcore 2000
|  3> % mp2 density relaxed end
|  4> *xyz 0 1
|  5>  O       -0.1149406750    -0.0223658773    -0.1178634382
|  6>  C       -0.0340500091     1.1737124740    -0.0080787758
|  7>  C        1.2762147440     1.9322652815     0.0681305270
|  8>  C        1.3575974421     2.8595415629     1.3012700795
|  9>  N        2.6743625728     3.4648270318     1.4258704905
| 10>  C        3.7242614861     2.4536223059     1.5563535780
| 11>  C        3.5788867254     1.1732556083     0.7242411160
| 12>  O        4.4531190216     0.3299660412     0.7017730685
| 13>  N        2.3953161946     1.0214206113     0.0539875797
| 14>  H       -0.9379543391     1.8208404921     0.0227473544
| 15>  H        1.2772951747     2.5871038995    -0.8257955583
| 16>  H        0.5955942536     3.6416821267     1.2307725247
| 17>  H        1.1583296348     2.2767065547     2.2090789762
| 18>  H        2.8567276614     4.0481042577     0.6151748129
| 19>  H        4.6955456851     2.8956152744     1.3223672283
| 20>  H        3.7824264353     2.1227577002     2.6019003589
| 21>  H        2.2456889316     0.1185330951    -0.3779778924
| 22> *
| 23>
| 24>                          ****END OF INPUT****

CARTESIAN COORDINATES (ANGSTROEM)
---------------------------------
  O     -0.114941   -0.022366   -0.117863
  C     -0.034050    1.173712   -0.008079
  C      1.276215    1.932265    0.068131
  C      1.357597    2.859542    1.301270
  N      2.674363    3.464827    1.425870
  C      3.724261    2.453622    1.556354
  C      3.578887    1.173256    0.724241
  O      4.453119    0.329966    0.701773
  N      2.395316    1.021421    0.053988
  H     -0.937954    1.820840    0.022747
  H      1.277295    2.587104   -0.825796
  H      0.595594    3.641682    1.230773
  H      1.158330    2.276707    2.209079
  H      2.856728    4.048104    0.615175
  H      4.695546    2.895615    1.322367
  H      3.782426    2.122758    2.601900
  H      2.245689    0.118533   -0.377978

 Total Charge           Charge          ....    0
 Multiplicity           Mult            ....    1
 Number of Electrons    NEL             ....   68
 Basis Dimension        Dim             ....  327

ORBITAL ENERGIES
----------------

  NO   OCC          E(Eh)            E(eV)
   0   2.0000     -20.584698      -560.1381
   1   2.0000     -20.517857      -558.3193
   2   2.0000     -15.591426      -424.2643
   3   2.0000     -15.576514      -423.8585
   4   2.0000     -11.357869      -309.0633
   5   2.0000     -11.353752      -308.9513
   6   2.0000     -11.307013      -307.6795
   7   2.0000     -11.291132      -307.2473
   8   2.0000     -11.276309      -306.8440
   9   2.0000      -1.424977       -38.7756
  10   2.0000      -1.385438       -37.6997
  11   2.0000      -1.270949       -34.5843
  12   2.0000      -1.215553       -33.0769
  13   2.0000      -1.062363       -28.9084
  14   2.0000      -0.964175       -26.2365
  15   2.0000      -0.904579       -24.6148
  16   2.0000      -0.832805       -22.6618
  17   2.0000      -0.788139       -21.4463
  18   2.0000      -0.724280       -19.7087
  19   2.0000      -0.698815       -19.0157
  20   2.0000      -0.684631       -18.6297
  21   2.0000      -0.668243       -18.1838
  22   2.0000      -0.652161       -17.7462
  23   2.0000      -0.616388       -16.7728
  24   2.0000      -0.611053       -16.6276
  25   2.0000      -0.597725       -16.2649
  26   2.0000      -0.559561       -15.2264
  27   2.0000      -0.546178       -14.8623
  28   2.0000      -0.534965       -14.5571
  29   2.0000      -0.509951       -13.8765
  30   2.0000      -0.465113       -12.6564
  31   2.0000      -0.452600       -12.3159
  32   2.0000      -0.403399       -10.9770
  33   2.0000      -0.381788       -10.3890
  34   0.0000       0.103465         2.8154
  35   0.0000       0.116695         3.1754
  36   0.0000       0.144765         3.9392
  37   0.0000       0.150882         4.1057
  38   0.0000       0.163795         4.4571

MULLIKEN ATOMIC CHARGES
-----------------------
   0 O :   -0.262886
   1 C :    0.079897
   2 C :    0.052025
   3 C :   -0.183455
   4 N :   -0.315276
   5 C :   -0.172049
   6 C :    0.210781
   7 O :   -0.349221
   8 N :   -0.298562
   9 H :    0.093193
  10 H :    0.110563
  11 H :    0.140815
  12 H :    0.134294
  13 H :    0.210330
  14 H :    0.156541
  15 H :    0.138278
  16 H :    0.254733
Sum of atomic charges:   -0.0000000

LOEWDIN ATOMIC CHARGES
----------------------
   0 O :    0.144328
   1 C :   -0.270679
   2 C :   -0.303421
   3 C :   -0.279781
   4 N :   -0.016277
   5 C :   -0.270845
   6 C :   -0.461418
   7 O :    0.084335
   8 N :    0.143182
   9 H :    0.119976
  10 H :    0.157880
  11 H :    0.138901
  12 H :    0.143775
  13 H :    0.171831
  14 H :    0.149481
  15 H :    0.151356
  16 H :    0.197375

  Mayer bond orders larger than 0.1
B(  0-O ,  1-C ) :   1.9849 B(  1-C ,  2-C ) :   0.8508 B(  1-C ,  9-H ) :   0.9416
B(  2-C ,  3-C ) :   0.9160 B(  2-C ,  8-N ) :   0.8975 B(  2-C , 10-H ) :   0.8943
B(  3-C ,  4-N ) :   0.9602 B(  3-C , 11-H ) :   0.9265 B(  3-C , 12-H ) :   0.9236
B(  4-N ,  5-C ) :   0.9493 B(  4-N , 13-H ) :   0.8810 B(  5-C ,  6-C ) :   0.8934
B(  5-C , 14-H ) :   0.9272 B(  5-C , 15-H ) :   0.9187 B(  6-C ,  7-O ) :   1.9611
B(  6-C ,  8-N ) :   1.1704 B(  8-N , 16-H ) :   0.8445

MP2 TOTAL ENERGY:     -454.444436469 Eh
FINAL SINGLE POINT ENERGY      -454.444436469198

DIPOLE MOMENT
-------------
                                X             Y             Z
Electronic contribution:      0.34897      -4.85070      -1.96081
Nuclear contribution   :     -1.40826       6.40017       1.64410
                        -----------------------------------------
Total Dipole Moment    :     -1.05929       1.54947      -0.31671
                        -----------------------------------------
Magnitude (a.u.)       :      1.90349
Magnitude (Debye)      :      4.83829

                             ****ORCA TERMINATED NORMALLY****
TOTAL RUN TIME: 0 days 0 hours 16 minutes 11 seconds 941 msec
