                         Program Version 3.0.3 - RELEASE   -
|  1> ! RI-MP2 RIJK def2-TZVP def2-TZVP/C def2-TZVP/JK TIGHTSCF
|  2> % maxcore 2000
|  3> % mp2 density relaxed end
|  4> *xyz 0 1
|  5>  O        0.0681478979     1.3933771557     0.1108362814
|  6>  C        0.0426475349    -0.0262585542     0.0623026979
|  7>  C       -1.4151829213    -0.4777731766    -0.0239487869
|  8>  C       -1.4971981503    -2.0014395048    -0.2513731693
|  9>  C       -2.9140298075    -2.5557071462    -0.1028550476
| 10>  C       -3.3101172963    -3.2851485989     1.1597182807
| 11>  C       -3.8252566380    -1.8834734784     0.8954971182
| 12>  C       -3.2766934165    -0.7148587144     1.6271062782
| 13>  C       -2.1916297343    -0.0638459795     1.2063842723
| 14>  H        0.9750945349     1.6740573151     0.2619673042
| 15>  H        0.5965556330    -0.4026637769    -0.8130251160
| 16>  H        0.5082344414    -0.4632610905     0.9610623815
| 17>  H       -1.8451584816     0.0372583608    -0.8964583067
| 18>  H       -1.1052783492    -2.2477247907    -1.2445634569
| 19>  H       -0.8315313315    -2.4917145368     0.4704599965
| 20>  H       -3.3762993558    -2.9026998547    -1.0213206016
| 21>  H       -4.0114979712    -4.1097647820     1.0862273684
| 22>  H       -2.5508988107    -3.4040309532     1.9264434327
| 23>  H       -4.8800415783    -1.8160105931     0.6398105853
| 24>  H       -3.8046795514    -0.3837197887     2.5187598132
| 25>  H       -1.8263140081     0.8101846281     1.7369650947
| 26> *
| 27>
| 28>                          ****END OF INPUT****

CARTESIAN COORDINATES (ANGSTROEM)
---------------------------------
  O      0.068148    1.393377    0.110836
  C      0.042648   -0.026259    0.062303
  C     -1.415183   -0.477773   -0.023949
  C     -1.497198   -2.001440   -0.251373
  C     -2.914030   -2.555707   -0.102855
  C     -3.310117   -3.285149    1.159718
  C     -3.825257   -1.883473    0.895497
  C     -3.276693   -0.714859    1.627106
  C     -2.191630   -0.063846    1.206384
  H      0.975095    1.674057    0.261967
  H      0.596556   -0.402664   -0.813025
  H      0.508234   -0.463261    0.961062
  H     -1.845158    0.037258   -0.896458
  H     -1.105278   -2.247725   -1.244563
  H     -0.831531   -2.491715    0.470460
  H     -3.376299   -2.902700   -1.021321
  H     -4.011498   -4.109765    1.086227
  H     -2.550899   -3.404031    1.926443
  H     -4.880042   -1.816011    0.639811
  H     -3.804680   -0.383720    2.518760
  H     -1.826314    0.810185    1.736965

 Total Charge           Charge          ....    0
 Multiplicity           Mult            ....    1
 Number of Electrons    NEL             ....   68
 Basis Dimension        Dim             ....  351

ORBITAL ENERGIES
----------------

  NO   OCC          E(Eh)            E(eV)
   0   2.0000     -20.555911      -559.3548
   1   2.0000     -11.274606      -306.7976
   2   2.0000     -11.226802      -305.4968
   3   2.0000     -11.226069      -305.4769
   4   2.0000     -11.225786      -305.4692
   5   2.0000     -11.223054      -305.3948
   6   2.0000     -11.221244      -305.3456
   7   2.0000     -11.217705      -305.2493
   8   2.0000     -11.214513      -305.1624
   9   2.0000      -1.360318       -37.0161
  10   2.0000      -1.161207       -31.5980
  11   2.0000      -1.071950       -29.1692
  12   2.0000      -1.010717       -27.5030
  13   2.0000      -0.927090       -25.2274
  14   2.0000      -0.848274       -23.0827
  15   2.0000      -0.803434       -21.8626
  16   2.0000      -0.790336       -21.5061
  17   2.0000      -0.703673       -19.1479
  18   2.0000      -0.684745       -18.6329
  19   2.0000      -0.680253       -18.5106
  20   2.0000      -0.633513       -17.2388
  21   2.0000      -0.621653       -16.9160
  22   2.0000      -0.593630       -16.1535
  23   2.0000      -0.573807       -15.6141
  24   2.0000      -0.556233       -15.1359
  25   2.0000      -0.524244       -14.2654
  26   2.0000      -0.514375       -13.9969
  27   2.0000      -0.506165       -13.7735
  28   2.0000      -0.475870       -12.9491
  29   2.0000      -0.458199       -12.4682
  30   2.0000      -0.441302       -12.0084
  31   2.0000      -0.424016       -11.5381
  32   2.0000      -0.394487       -10.7345
  33   2.0000      -0.330841        -9.0026
  34   0.0000       0.133406         3.6302
  35   0.0000       0.149285         4.0623
  36   0.0000       0.154389         4.2011
  37   0.0000       0.164726         4.4824
  38   0.0000       0.179199         4.8763

MULLIKEN ATOMIC CHARGES
-----------------------
   0 O :   -0.471065
   1 C :   -0.097602
   2 C :    0.095953
   3 C :   -0.323465
   4 C :   -0.031389
   5 C :   -0.310702
   6 C :   -0.054212
   7 C :   -0.171922
   8 C :   -0.243464
   9 H :    0.316155
  10 H :    0.099441
  11 H :    0.099442
  12 H :    0.098649
  13 H :    0.123232
  14 H :    0.120901
  15 H :    0.121562
  16 H :    0.127417
  17 H :    0.130976
  18 H :    0.123338
  19 H :    0.118407
  20 H :    0.128347
Sum of atomic charges:   -0.0000000

LOEWDIN ATOMIC CHARGES
----------------------
   0 O :   -0.045952
   1 C :   -0.328125
   2 C :   -0.242040
   3 C :   -0.210015
   4 C :   -0.194159
   5 C :   -0.199957
   6 C :   -0.196217
   7 C :   -0.154324
   8 C :   -0.138572
   9 H :    0.172260
  10 H :    0.117726
  11 H :    0.117850
  12 H :    0.164419
  13 H :    0.140855
  14 H :    0.144346
  15 H :    0.145022
  16 H :    0.129958
  17 H :    0.133830
  18 H :    0.151477
  19 H :    0.143635
  20 H :    0.147983

  Mayer bond orders larger than 0.1
B(  0-O ,  1-C ) :   1.0179 B(  0-O ,  9-H ) :   0.8476 B(  1-C ,  2-C ) :   0.9191
B(  1-C , 10-H ) :   0.9277 B(  1-C , 11-H ) :   0.9216 B(  2-C ,  3-C ) :   0.9181
B(  2-C ,  8-C ) :   0.9088 B(  2-C , 12-H ) :   0.9011 B(  3-C ,  4-C ) :   0.9056
B(  3-C , 13-H ) :   0.9310 B(  3-C , 14-H ) :   0.9236 B(  4-C ,  5-C ) :   0.8911
B(  4-C ,  6-C ) :   0.8750 B(  4-C , 15-H ) :   0.9302 B(  5-C ,  6-C ) :   0.8673
B(  5-C , 16-H ) :   0.9286 B(  5-C , 17-H ) :   0.9237 B(  6-C ,  7-C ) :   0.9440
B(  6-C , 18-H ) :   0.9295 B(  7-C ,  8-C ) :   1.7658 B(  7-C , 19-H ) :   0.9365
B(  8-C , 20-H ) :   0.9358

MP2 TOTAL ENERGY:     -386.406711855 Eh
FINAL SINGLE POINT ENERGY      -386.406711855252

DIPOLE MOMENT
-------------
                                X             Y             Z
Electronic contribution:     -0.68739       2.94963       0.31621
Nuclear contribution   :      1.19484      -3.29313      -0.38151
                        -----------------------------------------
Total Dipole Moment    :      0.50745      -0.34350      -0.06530
                        -----------------------------------------
Magnitude (a.u.)       :      0.61625
Magnitude (Debye)      :      1.56639

                             ****ORCA TERMINATED NORMALLY****
TOTAL RUN TIME: 0 days 0 hours 29 minutes 8 seconds 630 msec
