                         Program Version 3.0.3 - RELEASE   -
|  1> ! RI-MP2 RIJK def2-TZVP def2-TZVP/C def2-TZVP/JK TIGHTSCF
|  2> % maxcore 2000
|  3> % mp2 density relaxed end
|  4> *xyz 0 1
|  5>  O       -0.7301465148     1.0760127531     0.8383192548
|  6>  C        0.1251131249     0.8472943362     0.0220867009
|  7>  C        1.3378861985     1.7092588771    -0.1438252214
|  8>  C        1.7840882500     2.6977952400     0.9404868348
|  9>  O        1.9608064269     3.7608638653    -0.0376125375
| 10>  C        1.4913781730     2.9301401281    -1.1015430000
| 11>  C        2.6186868668     2.0743841185    -1.7198525601
| 12>  O        3.4143682189     2.1436257666    -2.5917332478
| 13>  O        2.4400798727     1.0376853381    -0.8116656373
| 14>  H        0.0738892720    -0.0113818893    -0.6789256405
| 15>  H        0.9822433045     2.9401589940     1.6429449187
| 16>  H        2.7092079807     2.4407446184     1.4624309904
| 17>  H        0.7412164158     3.3912614339    -1.7446503950
| 18> *
| 19>
| 20>                          ****END OF INPUT****

CARTESIAN COORDINATES (ANGSTROEM)
---------------------------------
  O     -0.730147    1.076013    0.838319
  C      0.125113    0.847294    0.022087
  C      1.337886    1.709259   -0.143825
  C      1.784088    2.697795    0.940487
  O      1.960806    3.760864   -0.037613
  C      1.491378    2.930140   -1.101543
  C      2.618687    2.074384   -1.719853
  O      3.414368    2.143626   -2.591733
  O      2.440080    1.037685   -0.811666
  H      0.073889   -0.011382   -0.678926
  H      0.982243    2.940159    1.642945
  H      2.709208    2.440745    1.462431
  H      0.741216    3.391261   -1.744650

 Total Charge           Charge          ....    0
 Multiplicity           Mult            ....    1
 Number of Electrons    NEL             ....   66
 Basis Dimension        Dim             ....  303

ORBITAL ENERGIES
----------------

  NO   OCC          E(Eh)            E(eV)
   0   2.0000     -20.636646      -561.5517
   1   2.0000     -20.605904      -560.7151
   2   2.0000     -20.599450      -560.5395
   3   2.0000     -20.586376      -560.1838
   4   2.0000     -11.412992      -310.5633
   5   2.0000     -11.372342      -309.4572
   6   2.0000     -11.353187      -308.9359
   7   2.0000     -11.349044      -308.8232
   8   2.0000     -11.324490      -308.1550
   9   2.0000      -1.505715       -40.9726
  10   2.0000      -1.438675       -39.1483
  11   2.0000      -1.430743       -38.9325
  12   2.0000      -1.404884       -38.2288
  13   2.0000      -1.065395       -28.9909
  14   2.0000      -1.019948       -27.7542
  15   2.0000      -0.938267       -25.5315
  16   2.0000      -0.827247       -22.5105
  17   2.0000      -0.779874       -21.2214
  18   2.0000      -0.758878       -20.6501
  19   2.0000      -0.736239       -20.0341
  20   2.0000      -0.719587       -19.5809
  21   2.0000      -0.691885       -18.8272
  22   2.0000      -0.663632       -18.0583
  23   2.0000      -0.636471       -17.3193
  24   2.0000      -0.621015       -16.8987
  25   2.0000      -0.613557       -16.6957
  26   2.0000      -0.578799       -15.7499
  27   2.0000      -0.554753       -15.0956
  28   2.0000      -0.522501       -14.2180
  29   2.0000      -0.507013       -13.7965
  30   2.0000      -0.485760       -13.2182
  31   2.0000      -0.458838       -12.4856
  32   2.0000      -0.447260       -12.1705
  33   0.0000       0.077512         2.1092
  34   0.0000       0.112310         3.0561
  35   0.0000       0.139061         3.7840
  36   0.0000       0.165505         4.5036
  37   0.0000       0.168978         4.5981

MULLIKEN ATOMIC CHARGES
-----------------------
   0 O :   -0.249557
   1 C :    0.078005
   2 C :    0.140469
   3 C :   -0.022538
   4 O :   -0.305250
   5 C :    0.027001
   6 C :    0.258028
   7 O :   -0.222265
   8 O :   -0.236018
   9 H :    0.114311
  10 H :    0.141394
  11 H :    0.129386
  12 H :    0.147034
Sum of atomic charges:   -0.0000000

LOEWDIN ATOMIC CHARGES
----------------------
   0 O :    0.159845
   1 C :   -0.254950
   2 C :   -0.274696
   3 C :   -0.197062
   4 O :    0.162184
   5 C :   -0.183325
   6 C :   -0.414444
   7 O :    0.190269
   8 O :    0.271281
   9 H :    0.125993
  10 H :    0.138424
  11 H :    0.132784
  12 H :    0.143699

  Mayer bond orders larger than 0.1
B(  0-O ,  1-C ) :   1.9723 B(  1-C ,  2-C ) :   0.8667 B(  1-C ,  9-H ) :   0.9309
B(  2-C ,  3-C ) :   0.9736 B(  2-C ,  5-C ) :   0.9089 B(  2-C ,  8-O ) :   0.9193
B(  3-C ,  4-O ) :   0.9220 B(  3-C , 10-H ) :   0.8985 B(  3-C , 11-H ) :   0.9011
B(  4-O ,  5-C ) :   0.9587 B(  5-C ,  6-C ) :   0.8628 B(  5-C , 12-H ) :   0.8975
B(  6-C ,  7-O ) :   2.0723 B(  6-C ,  8-O ) :   1.0342

MP2 TOTAL ENERGY:     -492.916671728 Eh
FINAL SINGLE POINT ENERGY      -492.916671727522

DIPOLE MOMENT
-------------
                                X             Y             Z
Electronic contribution:      1.23213      -0.70022      -2.25147
Nuclear contribution   :     -1.80587       0.59000       2.53582
                        -----------------------------------------
Total Dipole Moment    :     -0.57374      -0.11022       0.28436
                        -----------------------------------------
Magnitude (a.u.)       :      0.64975
Magnitude (Debye)      :      1.65154

                             ****ORCA TERMINATED NORMALLY****
TOTAL RUN TIME: 0 days 0 hours 13 minutes 26 seconds 480 msec
