                         Program Version 3.0.3 - RELEASE   -
|  1> ! RI-MP2 RIJK def2-TZVP def2-TZVP/C def2-TZVP/JK TIGHTSCF
|  2> % maxcore 2000
|  3> % mp2 density relaxed end
|  4> *xyz 0 1
|  5>  C       -0.0961418904     1.5188654756     0.0296919443
|  6>  N        0.1128009248     0.0799269000     0.1082744350
|  7>  C        1.3853596710    -0.5563742376    -0.1536657042
|  8>  C        2.5888563286     0.2588286106     0.3636243196
|  9>  C        1.9320489820     0.2256303831     1.7584490782
| 10>  C        2.6322811917     0.0825602060     3.0515048070
| 11>  N        1.8216584116     1.2856900529     2.7625867767
| 12>  C        0.7529823066    -0.5863852119     1.2276604063
| 13>  C        0.0175332600    -1.6552974820     1.9796480845
| 14>  H        0.7371376762     2.1378793016     0.3862764427
| 15>  H       -0.3001344084     1.7833889558    -1.0130222183
| 16>  H       -0.9778250170     1.7751574386     0.6241992694
| 17>  H        1.4340659198    -1.3357750568    -0.9071049119
| 18>  H        3.5256610360    -0.3031989107     0.3254334008
| 19>  H        2.7470653836     1.2404063808    -0.0957560178
| 20>  H        2.2281592059    -0.5591708061     3.8303004063
| 21>  H        3.7164234302     0.1686339375     3.0559789238
| 22>  H        2.4316213743     2.0626067471     2.5167265230
| 23>  H       -0.5908251035    -1.2183971094     2.7804122884
| 24>  H       -0.6512495995    -2.1967722504     1.3061902721
| 25>  H        0.7108521164    -2.3685706546     2.4377401040
| 26> *
| 27>
| 28>                          ****END OF INPUT****

CARTESIAN COORDINATES (ANGSTROEM)
---------------------------------
  C     -0.096142    1.518865    0.029692
  N      0.112801    0.079927    0.108274
  C      1.385360   -0.556374   -0.153666
  C      2.588856    0.258829    0.363624
  C      1.932049    0.225630    1.758449
  C      2.632281    0.082560    3.051505
  N      1.821658    1.285690    2.762587
  C      0.752982   -0.586385    1.227660
  C      0.017533   -1.655297    1.979648
  H      0.737138    2.137879    0.386276
  H     -0.300134    1.783389   -1.013022
  H     -0.977825    1.775157    0.624199
  H      1.434066   -1.335775   -0.907105
  H      3.525661   -0.303199    0.325433
  H      2.747065    1.240406   -0.095756
  H      2.228159   -0.559171    3.830300
  H      3.716423    0.168634    3.055979
  H      2.431621    2.062607    2.516727
  H     -0.590825   -1.218397    2.780412
  H     -0.651250   -2.196772    1.306190
  H      0.710852   -2.368571    2.437740

 Total Charge           Charge          ....    0
 Multiplicity           Mult            ....    1
 Number of Electrons    NEL             ....   68
 Basis Dimension        Dim             ....  351

ORBITAL ENERGIES
----------------

  NO   OCC          E(Eh)            E(eV)
   0   2.0000     -15.556667      -423.3184
   1   2.0000     -15.553663      -423.2367
   2   2.0000     -11.267667      -306.6088
   3   2.0000     -11.260412      -306.4114
   4   2.0000     -11.255984      -306.2909
   5   2.0000     -11.255577      -306.2798
   6   2.0000     -11.237266      -305.7815
   7   2.0000     -11.234463      -305.7053
   8   2.0000     -11.214916      -305.1734
   9   2.0000      -1.297227       -35.2993
  10   2.0000      -1.248936       -33.9853
  11   2.0000      -1.047043       -28.4915
  12   2.0000      -0.994319       -27.0568
  13   2.0000      -0.938029       -25.5251
  14   2.0000      -0.886156       -24.1135
  15   2.0000      -0.844257       -22.9734
  16   2.0000      -0.776686       -21.1347
  17   2.0000      -0.722739       -19.6667
  18   2.0000      -0.671108       -18.2618
  19   2.0000      -0.661664       -18.0048
  20   2.0000      -0.639734       -17.4080
  21   2.0000      -0.591795       -16.1035
  22   2.0000      -0.588718       -16.0198
  23   2.0000      -0.557177       -15.1616
  24   2.0000      -0.555548       -15.1172
  25   2.0000      -0.550167       -14.9708
  26   2.0000      -0.541870       -14.7450
  27   2.0000      -0.497722       -13.5437
  28   2.0000      -0.460969       -12.5436
  29   2.0000      -0.456143       -12.4123
  30   2.0000      -0.445232       -12.1154
  31   2.0000      -0.397097       -10.8056
  32   2.0000      -0.384820       -10.4715
  33   2.0000      -0.361933        -9.8487
  34   0.0000       0.136652         3.7185
  35   0.0000       0.150686         4.1004
  36   0.0000       0.162884         4.4323
  37   0.0000       0.167818         4.5665
  38   0.0000       0.190212         5.1759

MULLIKEN ATOMIC CHARGES
-----------------------
   0 C :   -0.281709
   1 N :   -0.231553
   2 C :   -0.083911
   3 C :   -0.201382
   4 C :   -0.023665
   5 C :   -0.226638
   6 N :   -0.390928
   7 C :    0.233264
   8 C :   -0.438330
   9 H :    0.102200
  10 H :    0.135424
  11 H :    0.139151
  12 H :    0.130126
  13 H :    0.122880
  14 H :    0.127225
  15 H :    0.122185
  16 H :    0.127006
  17 H :    0.217865
  18 H :    0.143684
  19 H :    0.147059
  20 H :    0.130046
Sum of atomic charges:    0.0000000

LOEWDIN ATOMIC CHARGES
----------------------
   0 C :   -0.316803
   1 N :    0.144207
   2 C :   -0.191522
   3 C :   -0.192851
   4 C :   -0.261527
   5 C :   -0.239570
   6 N :   -0.001295
   7 C :   -0.229989
   8 C :   -0.269268
   9 H :    0.106527
  10 H :    0.117367
  11 H :    0.122151
  12 H :    0.131403
  13 H :    0.140471
  14 H :    0.128954
  15 H :    0.126832
  16 H :    0.122120
  17 H :    0.166439
  18 H :    0.133803
  19 H :    0.134937
  20 H :    0.127613

  Mayer bond orders larger than 0.1
B(  0-C ,  1-N ) :   0.8873 B(  0-C ,  9-H ) :   0.9193 B(  0-C , 10-H ) :   0.9366
B(  0-C , 11-H ) :   0.9399 B(  1-N ,  2-C ) :   0.9261 B(  1-N ,  7-C ) :   0.8950
B(  2-C ,  3-C ) :   0.8964 B(  2-C ,  7-C ) :   0.8106 B(  2-C , 12-H ) :   0.9255
B(  3-C ,  4-C ) :   0.9233 B(  3-C , 13-H ) :   0.9097 B(  3-C , 14-H ) :   0.9160
B(  4-C ,  5-C ) :   0.9392 B(  4-C ,  6-N ) :   0.9225 B(  4-C ,  7-C ) :   0.8334
B(  5-C ,  6-N ) :   0.9763 B(  5-C , 15-H ) :   0.9160 B(  5-C , 16-H ) :   0.9209
B(  6-N , 17-H ) :   0.8661 B(  7-C ,  8-C ) :   0.8472 B(  8-C , 18-H ) :   0.9432
B(  8-C , 19-H ) :   0.9455 B(  8-C , 20-H ) :   0.9425

MP2 TOTAL ENERGY:     -382.518502453 Eh
FINAL SINGLE POINT ENERGY      -382.518502452545

DIPOLE MOMENT
-------------
                                X             Y             Z
Electronic contribution:      0.60924      -0.07381      -0.39508
Nuclear contribution   :      0.22044       0.05233       0.27754
                        -----------------------------------------
Total Dipole Moment    :      0.82968      -0.02148      -0.11754
                        -----------------------------------------
Magnitude (a.u.)       :      0.83824
Magnitude (Debye)      :      2.13064

                             ****ORCA TERMINATED NORMALLY****
TOTAL RUN TIME: 0 days 0 hours 18 minutes 57 seconds 572 msec
