                         Program Version 3.0.3 - RELEASE   -
|  1> ! RI-MP2 RIJK def2-TZVP def2-TZVP/C def2-TZVP/JK TIGHTSCF
|  2> % maxcore 2000
|  3> % mp2 density relaxed end
|  4> *xyz 0 1
|  5>  C        0.0153009327     1.5322986973    -0.0940878088
|  6>  N        1.2567456586     0.7492723633    -0.1671883747
|  7>  C       -0.0270146214     0.0545071947     0.0584176028
|  8>  C       -0.2019698327    -0.5357323477     1.4494996130
|  9>  O       -0.1184407148    -1.9500837689     1.4901538120
| 10>  C        0.9711270221    -2.5193930553     0.7781725808
| 11>  C        0.5797148146    -2.8612849606    -0.6606204258
| 12>  O        0.4240945166    -1.7460035993    -1.5199272937
| 13>  C       -0.5400684273    -0.7937073941    -1.0955924665
| 14>  H       -0.0727543070     2.1678058544     0.7838402668
| 15>  H       -0.3952581693     1.9646608511    -1.0032892833
| 16>  H        1.5434276657     0.6161681260    -1.1349963840
| 17>  H        0.5436870393    -0.0740481269     2.1137165432
| 18>  H       -1.2005529336    -0.3022608601     1.8361294917
| 19>  H        1.8498666912    -1.8611685191     0.7949469443
| 20>  H        1.2296500325    -3.4516213667     1.2948750877
| 21>  H        1.3610070427    -3.4786447272    -1.1173508594
| 22>  H       -0.3519617015    -3.4491544952    -0.6276318153
| 23>  H       -1.4827912911    -1.2897392261    -0.8197767365
| 24>  H       -0.7262166873    -0.1622647897    -1.9705308544
| 25> *
| 26>
| 27>                          ****END OF INPUT****

CARTESIAN COORDINATES (ANGSTROEM)
---------------------------------
  C      0.015301    1.532299   -0.094088
  N      1.256746    0.749272   -0.167188
  C     -0.027015    0.054507    0.058418
  C     -0.201970   -0.535732    1.449500
  O     -0.118441   -1.950084    1.490154
  C      0.971127   -2.519393    0.778173
  C      0.579715   -2.861285   -0.660620
  O      0.424095   -1.746004   -1.519927
  C     -0.540068   -0.793707   -1.095592
  H     -0.072754    2.167806    0.783840
  H     -0.395258    1.964661   -1.003289
  H      1.543428    0.616168   -1.134996
  H      0.543687   -0.074048    2.113717
  H     -1.200553   -0.302261    1.836129
  H      1.849867   -1.861169    0.794947
  H      1.229650   -3.451621    1.294875
  H      1.361007   -3.478645   -1.117351
  H     -0.351962   -3.449154   -0.627632
  H     -1.482791   -1.289739   -0.819777
  H     -0.726217   -0.162265   -1.970531

 Total Charge           Charge          ....    0
 Multiplicity           Mult            ....    1
 Number of Electrons    NEL             ....   70
 Basis Dimension        Dim             ....  345

ORBITAL ENERGIES
----------------

  NO   OCC          E(Eh)            E(eV)
   0   2.0000     -20.558790      -559.4331
   1   2.0000     -20.554623      -559.3197
   2   2.0000     -15.559800      -423.4037
   3   2.0000     -11.285013      -307.0808
   4   2.0000     -11.276893      -306.8598
   5   2.0000     -11.275233      -306.8147
   6   2.0000     -11.274005      -306.7813
   7   2.0000     -11.266533      -306.5780
   8   2.0000     -11.262735      -306.4746
   9   2.0000      -1.388728       -37.7892
  10   2.0000      -1.364606       -37.1328
  11   2.0000      -1.267142       -34.4807
  12   2.0000      -1.037600       -28.2345
  13   2.0000      -0.960600       -26.1392
  14   2.0000      -0.950337       -25.8600
  15   2.0000      -0.882950       -24.0263
  16   2.0000      -0.820574       -22.3290
  17   2.0000      -0.768236       -20.9048
  18   2.0000      -0.707391       -19.2491
  19   2.0000      -0.692976       -18.8568
  20   2.0000      -0.660543       -17.9743
  21   2.0000      -0.646948       -17.6043
  22   2.0000      -0.630913       -17.1680
  23   2.0000      -0.618937       -16.8421
  24   2.0000      -0.591890       -16.1061
  25   2.0000      -0.589793       -16.0491
  26   2.0000      -0.538133       -14.6433
  27   2.0000      -0.518451       -14.1078
  28   2.0000      -0.506339       -13.7782
  29   2.0000      -0.483503       -13.1568
  30   2.0000      -0.469950       -12.7880
  31   2.0000      -0.451098       -12.2750
  32   2.0000      -0.438604       -11.9350
  33   2.0000      -0.414995       -11.2926
  34   2.0000      -0.388762       -10.5787
  35   0.0000       0.143577         3.9069
  36   0.0000       0.160877         4.3777
  37   0.0000       0.163633         4.4527
  38   0.0000       0.175064         4.7637
  39   0.0000       0.186331         5.0703

MULLIKEN ATOMIC CHARGES
-----------------------
   0 C :   -0.209735
   1 N :   -0.371030
   2 C :    0.081605
   3 C :   -0.086321
   4 O :   -0.317720
   5 C :   -0.090665
   6 C :   -0.052317
   7 O :   -0.313521
   8 C :   -0.045100
   9 H :    0.123487
  10 H :    0.129498
  11 H :    0.226295
  12 H :    0.115808
  13 H :    0.117658
  14 H :    0.126809
  15 H :    0.122586
  16 H :    0.122047
  17 H :    0.091248
  18 H :    0.109166
  19 H :    0.120202
Sum of atomic charges:    0.0000000

LOEWDIN ATOMIC CHARGES
----------------------
   0 C :   -0.243695
   1 N :    0.006193
   2 C :   -0.324458
   3 C :   -0.287206
   4 O :    0.150438
   5 C :   -0.320490
   6 C :   -0.331262
   7 O :    0.150589
   8 C :   -0.282337
   9 H :    0.128523
  10 H :    0.123821
  11 H :    0.169633
  12 H :    0.133552
  13 H :    0.135185
  14 H :    0.132259
  15 H :    0.133007
  16 H :    0.133063
  17 H :    0.124065
  18 H :    0.133859
  19 H :    0.135260

  Mayer bond orders larger than 0.1
B(  0-C ,  1-N ) :   0.9655 B(  0-C ,  2-C ) :   0.9252 B(  0-C ,  9-H ) :   0.9104
B(  0-C , 10-H ) :   0.9098 B(  1-N ,  2-C ) :   0.8902 B(  1-N , 11-H ) :   0.8720
B(  2-C ,  3-C ) :   0.8660 B(  2-C ,  8-C ) :   0.9482 B(  3-C ,  4-O ) :   0.9477
B(  3-C , 12-H ) :   0.9430 B(  3-C , 13-H ) :   0.9306 B(  4-O ,  5-C ) :   0.9136
B(  5-C ,  6-C ) :   0.9401 B(  5-C , 14-H ) :   0.9355 B(  5-C , 15-H ) :   0.9159
B(  6-C ,  7-O ) :   0.9465 B(  6-C , 16-H ) :   0.9192 B(  6-C , 17-H ) :   0.9305
B(  7-O ,  8-C ) :   0.9075 B(  8-C , 18-H ) :   0.9234 B(  8-C , 19-H ) :   0.9197

MP2 TOTAL ENERGY:     -439.528748402 Eh
FINAL SINGLE POINT ENERGY      -439.528748402187

DIPOLE MOMENT
-------------
                                X             Y             Z
Electronic contribution:      0.25197      -0.59998      -0.19608
Nuclear contribution   :     -0.58917       0.79162      -0.06652
                        -----------------------------------------
Total Dipole Moment    :     -0.33720       0.19164      -0.26260
                        -----------------------------------------
Magnitude (a.u.)       :      0.46839
Magnitude (Debye)      :      1.19055

                             ****ORCA TERMINATED NORMALLY****
TOTAL RUN TIME: 0 days 0 hours 17 minutes 15 seconds 748 msec
