                         Program Version 3.0.3 - RELEASE   -
|  1> ! RI-MP2 RIJK def2-TZVP def2-TZVP/C def2-TZVP/JK TIGHTSCF
|  2> % maxcore 2000
|  3> % mp2 density relaxed end
|  4> *xyz 0 1
|  5>  C        0.0536152401     1.4511078796    -0.0422527764
|  6>  C       -0.0338121610    -0.0317102843     0.0160349057
|  7>  N       -1.0888875100    -0.7315548863     0.1836380207
|  8>  C       -0.6785926534    -2.1143032039     0.1214109742
|  9>  C       -0.0641399782    -2.5648994208    -1.2018832217
| 10>  C        0.8388549220    -2.0718369400    -0.1202450527
| 11>  O        1.1554963029    -0.6989149731    -0.1231243732
| 12>  C       -1.3451350784    -3.0617674877     0.9698080244
| 13>  N       -1.8570657430    -3.8493488036     1.6438737998
| 14>  H        0.7969118801     1.8121533155     0.6747490476
| 15>  H        0.3724920397     1.7765865353    -1.0375094430
| 16>  H       -0.9210731578     1.8814666587     0.1842232049
| 17>  H       -0.0462006473    -3.6333199582    -1.3825818499
| 18>  H       -0.2581765405    -1.9403803970    -2.0670262888
| 19>  H        1.5834359649    -2.6918724041     0.3601840983
| 20> *
| 21>
| 22>                          ****END OF INPUT****

CARTESIAN COORDINATES (ANGSTROEM)
---------------------------------
  C      0.053615    1.451108   -0.042253
  C     -0.033812   -0.031710    0.016035
  N     -1.088888   -0.731555    0.183638
  C     -0.678593   -2.114303    0.121411
  C     -0.064140   -2.564899   -1.201883
  C      0.838855   -2.071837   -0.120245
  O      1.155496   -0.698915   -0.123124
  C     -1.345135   -3.061767    0.969808
  N     -1.857066   -3.849349    1.643874
  H      0.796912    1.812153    0.674749
  H      0.372492    1.776587   -1.037509
  H     -0.921073    1.881467    0.184223
  H     -0.046201   -3.633320   -1.382582
  H     -0.258177   -1.940380   -2.067026
  H      1.583436   -2.691872    0.360184

 Total Charge           Charge          ....    0
 Multiplicity           Mult            ....    1
 Number of Electrons    NEL             ....   64
 Basis Dimension        Dim             ....  315

ORBITAL ENERGIES
----------------

  NO   OCC          E(Eh)            E(eV)
   0   2.0000     -20.628987      -561.3433
   1   2.0000     -15.575566      -423.8327
   2   2.0000     -15.574270      -423.7974
   3   2.0000     -11.364566      -309.2456
   4   2.0000     -11.333157      -308.3909
   5   2.0000     -11.325720      -308.1885
   6   2.0000     -11.277978      -306.8894
   7   2.0000     -11.272687      -306.7454
   8   2.0000     -11.256504      -306.3050
   9   2.0000      -1.478956       -40.2444
  10   2.0000      -1.261725       -34.3333
  11   2.0000      -1.217141       -33.1201
  12   2.0000      -1.162334       -31.6287
  13   2.0000      -1.026403       -27.9298
  14   2.0000      -0.924771       -25.1643
  15   2.0000      -0.885779       -24.1033
  16   2.0000      -0.795092       -21.6356
  17   2.0000      -0.771303       -20.9882
  18   2.0000      -0.689938       -18.7742
  19   2.0000      -0.674760       -18.3612
  20   2.0000      -0.642378       -17.4800
  21   2.0000      -0.620965       -16.8973
  22   2.0000      -0.591940       -16.1075
  23   2.0000      -0.579273       -15.7628
  24   2.0000      -0.570156       -15.5147
  25   2.0000      -0.558669       -15.2022
  26   2.0000      -0.550136       -14.9700
  27   2.0000      -0.506001       -13.7690
  28   2.0000      -0.480663       -13.0795
  29   2.0000      -0.461393       -12.5551
  30   2.0000      -0.420391       -11.4394
  31   2.0000      -0.389363       -10.5951
  32   0.0000       0.130333         3.5465
  33   0.0000       0.137513         3.7419
  34   0.0000       0.145923         3.9708
  35   0.0000       0.163084         4.4378
  36   0.0000       0.169092         4.6012

MULLIKEN ATOMIC CHARGES
-----------------------
   0 C :   -0.425635
   1 C :    0.227571
   2 N :   -0.262049
   3 C :    0.256907
   4 C :   -0.265461
   5 C :    0.032423
   6 O :   -0.257001
   7 C :   -0.220627
   8 N :   -0.049598
   9 H :    0.158645
  10 H :    0.154085
  11 H :    0.168951
  12 H :    0.161249
  13 H :    0.159123
  14 H :    0.161417
Sum of atomic charges:   -0.0000000

LOEWDIN ATOMIC CHARGES
----------------------
   0 C :   -0.256176
   1 C :   -0.361045
   2 N :    0.154121
   3 C :   -0.262256
   4 C :   -0.155127
   5 C :   -0.211062
   6 O :    0.282357
   7 C :   -0.145034
   8 N :    0.076650
   9 H :    0.142420
  10 H :    0.141609
  11 H :    0.144831
  12 H :    0.153025
  13 H :    0.148218
  14 H :    0.147469

  Mayer bond orders larger than 0.1
B(  0-C ,  1-C ) :   0.8790 B(  0-C ,  9-H ) :   0.9278 B(  0-C , 10-H ) :   0.9201
B(  0-C , 11-H ) :   0.9478 B(  1-C ,  2-N ) :   1.8092 B(  1-C ,  6-O ) :   1.0520
B(  2-N ,  3-C ) :   0.9724 B(  3-C ,  4-C ) :   0.8178 B(  3-C ,  5-C ) :   0.8307
B(  3-C ,  7-C ) :   0.9219 B(  4-C ,  5-C ) :   0.8978 B(  4-C , 12-H ) :   0.9175
B(  4-C , 13-H ) :   0.9016 B(  5-C ,  6-O ) :   0.9259 B(  5-C , 14-H ) :   0.9158
B(  7-C ,  8-N ) :   2.8568

MP2 TOTAL ENERGY:     -416.112026195 Eh
FINAL SINGLE POINT ENERGY      -416.112026194791

DIPOLE MOMENT
-------------
                                X             Y             Z
Electronic contribution:     -1.86546      -4.74808       2.79113
Nuclear contribution   :      3.10081       5.62911      -3.85621
                        -----------------------------------------
Total Dipole Moment    :      1.23536       0.88103      -1.06508
                        -----------------------------------------
Magnitude (a.u.)       :      1.85384
Magnitude (Debye)      :      4.71208

                             ****ORCA TERMINATED NORMALLY****
TOTAL RUN TIME: 0 days 0 hours 16 minutes 25 seconds 90 msec
