                         Program Version 3.0.3 - RELEASE   -
|  1> ! RI-MP2 RIJK def2-TZVP def2-TZVP/C def2-TZVP/JK TIGHTSCF
|  2> % maxcore 2000
|  3> % mp2 density relaxed end
|  4> *xyz 0 1
|  5>  O        0.0392599169     1.3905370053     0.0210343675
|  6>  C       -0.0213372030     0.0025928775    -0.2166251087
|  7>  C       -1.4485503826    -0.5109091251    -0.0047605452
|  8>  C       -1.7076177029    -2.0319619893     0.1713393079
|  9>  O       -2.1575444249    -1.7810989011     1.5627034879
| 10>  C       -1.8954049674    -0.4434044568     1.4493984957
| 11>  O       -1.9512035139     0.3921802578     2.2976956642
| 12>  C       -2.7224528225    -2.6496335443    -0.6502885271
| 13>  C       -3.5552463684    -3.1548579260    -1.3530798699
| 14>  H       -0.2914632783     1.5504904699     0.9145230985
| 15>  H        0.2919429862    -0.1563478881    -1.2531218280
| 16>  H        0.6733533196    -0.5587825984     0.4297697934
| 17>  H       -2.1411985678    -0.0210824849    -0.6911477062
| 18>  H       -0.7968872626    -2.6367415355     0.2075073858
| 19>  H       -4.2937779784    -3.6066340011    -1.9692583857
| 20> *
| 21>
| 22>                          ****END OF INPUT****

CARTESIAN COORDINATES (ANGSTROEM)
---------------------------------
  O      0.039260    1.390537    0.021034
  C     -0.021337    0.002593   -0.216625
  C     -1.448550   -0.510909   -0.004761
  C     -1.707618   -2.031962    0.171339
  O     -2.157544   -1.781099    1.562703
  C     -1.895405   -0.443404    1.449398
  O     -1.951204    0.392180    2.297696
  C     -2.722453   -2.649634   -0.650289
  C     -3.555246   -3.154858   -1.353080
  H     -0.291463    1.550490    0.914523
  H      0.291943   -0.156348   -1.253122
  H      0.673353   -0.558783    0.429770
  H     -2.141199   -0.021082   -0.691148
  H     -0.796887   -2.636742    0.207507
  H     -4.293778   -3.606634   -1.969258

 Total Charge           Charge          ....    0
 Multiplicity           Mult            ....    1
 Number of Electrons    NEL             ....   66
 Basis Dimension        Dim             ....  315

ORBITAL ENERGIES
----------------

  NO   OCC          E(Eh)            E(eV)
   0   2.0000     -20.623419      -561.1918
   1   2.0000     -20.573515      -559.8338
   2   2.0000     -20.571261      -559.7725
   3   2.0000     -11.400812      -310.2319
   4   2.0000     -11.355891      -309.0095
   5   2.0000     -11.311056      -307.7895
   6   2.0000     -11.283297      -307.0341
   7   2.0000     -11.263740      -306.5019
   8   2.0000     -11.259789      -306.3944
   9   2.0000      -1.483584       -40.3704
  10   2.0000      -1.398299       -38.0497
  11   2.0000      -1.381803       -37.6008
  12   2.0000      -1.110017       -30.2051
  13   2.0000      -1.062702       -28.9176
  14   2.0000      -0.964092       -26.2343
  15   2.0000      -0.917101       -24.9556
  16   2.0000      -0.775089       -21.0912
  17   2.0000      -0.770205       -20.9583
  18   2.0000      -0.732086       -19.9211
  19   2.0000      -0.717246       -19.5173
  20   2.0000      -0.704619       -19.1737
  21   2.0000      -0.692761       -18.8510
  22   2.0000      -0.639102       -17.3908
  23   2.0000      -0.606075       -16.4921
  24   2.0000      -0.599926       -16.3248
  25   2.0000      -0.583630       -15.8814
  26   2.0000      -0.560076       -15.2404
  27   2.0000      -0.526106       -14.3161
  28   2.0000      -0.491670       -13.3790
  29   2.0000      -0.471736       -12.8366
  30   2.0000      -0.455246       -12.3879
  31   2.0000      -0.426966       -11.6183
  32   2.0000      -0.416059       -11.3215
  33   0.0000       0.124243         3.3808
  34   0.0000       0.127009         3.4561
  35   0.0000       0.139929         3.8077
  36   0.0000       0.150021         4.0823
  37   0.0000       0.156192         4.2502

MULLIKEN ATOMIC CHARGES
-----------------------
   0 O :   -0.462501
   1 C :   -0.047608
   2 C :   -0.144395
   3 C :   -0.066623
   4 O :   -0.218290
   5 C :    0.269878
   6 O :   -0.280320
   7 C :   -0.055048
   8 C :   -0.074774
   9 H :    0.334130
  10 H :    0.128452
  11 H :    0.114002
  12 H :    0.154777
  13 H :    0.142589
  14 H :    0.205730
Sum of atomic charges:    0.0000000

LOEWDIN ATOMIC CHARGES
----------------------
   0 O :   -0.026825
   1 C :   -0.321292
   2 C :   -0.181778
   3 C :   -0.203864
   4 O :    0.266258
   5 C :   -0.447174
   6 O :    0.149827
   7 C :   -0.087511
   8 C :   -0.054182
   9 H :    0.182937
  10 H :    0.134251
  11 H :    0.124493
  12 H :    0.170525
  13 H :    0.161455
  14 H :    0.132881

  Mayer bond orders larger than 0.1
B(  0-O ,  1-C ) :   0.9411 B(  0-O ,  9-H ) :   0.8270 B(  1-C ,  2-C ) :   0.9250
B(  1-C , 10-H ) :   0.9301 B(  1-C , 11-H ) :   0.9114 B(  2-C ,  3-C ) :   0.8890
B(  2-C ,  5-C ) :   0.9166 B(  2-C , 12-H ) :   0.8961 B(  3-C ,  4-O ) :   0.8999
B(  3-C ,  7-C ) :   1.1630 B(  3-C ,  8-C ) :  -0.1134 B(  3-C , 13-H ) :   0.9137
B(  4-O ,  5-C ) :   1.1051 B(  5-C ,  6-O ) :   1.9891 B(  7-C ,  8-C ) :   2.5787
B(  8-C , 14-H ) :   0.8861

MP2 TOTAL ENERGY:     -457.001450070 Eh
FINAL SINGLE POINT ENERGY      -457.001450069556

DIPOLE MOMENT
-------------
                                X             Y             Z
Electronic contribution:     -3.04017      -0.79904       3.43633
Nuclear contribution   :      3.14691      -0.09975      -4.51852
                        -----------------------------------------
Total Dipole Moment    :      0.10673      -0.89878      -1.08219
                        -----------------------------------------
Magnitude (a.u.)       :      1.41080
Magnitude (Debye)      :      3.58596

                             ****ORCA TERMINATED NORMALLY****
TOTAL RUN TIME: 0 days 0 hours 15 minutes 28 seconds 961 msec
