                         Program Version 3.0.3 - RELEASE   -
|  1> ! RI-MP2 RIJK def2-TZVP def2-TZVP/C def2-TZVP/JK TIGHTSCF
|  2> % maxcore 2000
|  3> % mp2 density relaxed end
|  4> *xyz 0 1
|  5>  C        0.2294736801     1.4098237243    -0.1664374748
|  6>  C        0.4475859496    -0.0775912059    -0.0684985249
|  7>  O        1.7495205215    -0.5477339661     0.2589436237
|  8>  C        0.7061298052    -0.8060652177     1.2033421395
|  9>  C        0.7700622910    -0.1249493016     2.5616059436
| 10>  C        1.9889830011    -0.4699850981     3.2938112788
| 11>  N        2.9521747857    -0.7367117984     3.8722097761
| 12>  C        0.2718815943    -2.2459727508     1.2287440453
| 13>  O       -0.2823766090    -2.7622049009     2.1635716494
| 14>  H        0.7954937148     1.9565378466     0.5896916247
| 15>  H        0.5603721830     1.7613014258    -1.1487278135
| 16>  H       -0.8337420409     1.6499206201    -0.0650598370
| 17>  H       -0.0361727624    -0.6561228816    -0.8592872613
| 18>  H        0.7129862908     0.9611753878     2.4676556969
| 19>  H       -0.0928939423    -0.4632787710     3.1447240981
| 20>  H        0.5048894277    -2.7906465526     0.2887380153
| 21> *
| 22>
| 23>                          ****END OF INPUT****

CARTESIAN COORDINATES (ANGSTROEM)
---------------------------------
  C      0.229474    1.409824   -0.166437
  C      0.447586   -0.077591   -0.068499
  O      1.749521   -0.547734    0.258944
  C      0.706130   -0.806065    1.203342
  C      0.770062   -0.124949    2.561606
  C      1.988983   -0.469985    3.293811
  N      2.952175   -0.736712    3.872210
  C      0.271882   -2.245973    1.228744
  O     -0.282377   -2.762205    2.163572
  H      0.795494    1.956538    0.589692
  H      0.560372    1.761301   -1.148728
  H     -0.833742    1.649921   -0.065060
  H     -0.036173   -0.656123   -0.859287
  H      0.712986    0.961175    2.467656
  H     -0.092894   -0.463279    3.144724
  H      0.504889   -2.790647    0.288738

 Total Charge           Charge          ....    0
 Multiplicity           Mult            ....    1
 Number of Electrons    NEL             ....   66
 Basis Dimension        Dim             ....  321

ORBITAL ENERGIES
----------------

  NO   OCC          E(Eh)            E(eV)
   0   2.0000     -20.611545      -560.8686
   1   2.0000     -20.586223      -560.1796
   2   2.0000     -15.573492      -423.7763
   3   2.0000     -11.359204      -309.0997
   4   2.0000     -11.338977      -308.5493
   5   2.0000     -11.335147      -308.4450
   6   2.0000     -11.301381      -307.5262
   7   2.0000     -11.278217      -306.8959
   8   2.0000     -11.259413      -306.3842
   9   2.0000      -1.462533       -39.7976
  10   2.0000      -1.423733       -38.7417
  11   2.0000      -1.222700       -33.2713
  12   2.0000      -1.091940       -29.7132
  13   2.0000      -1.047881       -28.5143
  14   2.0000      -0.971356       -26.4319
  15   2.0000      -0.867040       -23.5934
  16   2.0000      -0.813636       -22.1402
  17   2.0000      -0.740500       -20.1500
  18   2.0000      -0.715156       -19.4604
  19   2.0000      -0.692439       -18.8422
  20   2.0000      -0.664393       -18.0790
  21   2.0000      -0.642550       -17.4847
  22   2.0000      -0.618794       -16.8382
  23   2.0000      -0.607153       -16.5215
  24   2.0000      -0.575998       -15.6737
  25   2.0000      -0.570660       -15.5285
  26   2.0000      -0.557744       -15.1770
  27   2.0000      -0.553210       -15.0536
  28   2.0000      -0.500120       -13.6090
  29   2.0000      -0.481933       -13.1141
  30   2.0000      -0.463625       -12.6159
  31   2.0000      -0.456747       -12.4287
  32   2.0000      -0.441084       -12.0025
  33   0.0000       0.098359         2.6765
  34   0.0000       0.117642         3.2012
  35   0.0000       0.146085         3.9752
  36   0.0000       0.158749         4.3198
  37   0.0000       0.167708         4.5636

MULLIKEN ATOMIC CHARGES
-----------------------
   0 C :   -0.394477
   1 C :    0.028444
   2 O :   -0.309760
   3 C :    0.207098
   4 C :   -0.105802
   5 C :   -0.198055
   6 N :   -0.050803
   7 C :    0.052613
   8 O :   -0.256958
   9 H :    0.143812
  10 H :    0.155695
  11 H :    0.146170
  12 H :    0.126555
  13 H :    0.161907
  14 H :    0.180062
  15 H :    0.113499
Sum of atomic charges:   -0.0000000

LOEWDIN ATOMIC CHARGES
----------------------
   0 C :   -0.285548
   1 C :   -0.259163
   2 O :    0.217203
   3 C :   -0.293070
   4 C :   -0.196647
   5 C :   -0.179236
   6 N :    0.069054
   7 C :   -0.252250
   8 O :    0.155572
   9 H :    0.130590
  10 H :    0.137285
  11 H :    0.136226
  12 H :    0.144160
  13 H :    0.167252
  14 H :    0.181065
  15 H :    0.127508

  Mayer bond orders larger than 0.1
B(  0-C ,  1-C ) :   0.8872 B(  0-C ,  9-H ) :   0.9400 B(  0-C , 10-H ) :   0.9298
B(  0-C , 11-H ) :   0.9224 B(  1-C ,  2-O ) :   0.8839 B(  1-C ,  3-C ) :   0.9140
B(  1-C , 12-H ) :   0.9137 B(  2-O ,  3-C ) :   0.8867 B(  3-C ,  4-C ) :   0.8690
B(  3-C ,  7-C ) :   0.8303 B(  4-C ,  5-C ) :   0.9462 B(  4-C , 13-H ) :   0.9168
B(  4-C , 14-H ) :   0.8930 B(  5-C ,  6-N ) :   2.8583 B(  7-C ,  8-O ) :   1.9826
B(  7-C , 15-H ) :   0.9458

MP2 TOTAL ENERGY:     -437.163639434 Eh
FINAL SINGLE POINT ENERGY      -437.163639433817

DIPOLE MOMENT
-------------
                                X             Y             Z
Electronic contribution:      3.26366      -5.77096       4.59924
Nuclear contribution   :     -4.75431       6.89336      -6.04352
                        -----------------------------------------
Total Dipole Moment    :     -1.49065       1.12241      -1.44427
                        -----------------------------------------
Magnitude (a.u.)       :      2.35961
Magnitude (Debye)      :      5.99765

                             ****ORCA TERMINATED NORMALLY****
TOTAL RUN TIME: 0 days 0 hours 14 minutes 36 seconds 726 msec
