                         Program Version 3.0.3 - RELEASE   -
|  1> ! RI-MP2 RIJK def2-TZVP def2-TZVP/C def2-TZVP/JK TIGHTSCF
|  2> % maxcore 2000
|  3> % mp2 density relaxed end
|  4> *xyz 0 1
|  5>  C        0.1644464010    -1.2521760873    -0.3107753189
|  6>  C        0.1393910078    -0.0977710329     0.0225942280
|  7>  C        0.1421414321     1.3058884680     0.4109996811
|  8>  C        1.4215408898     2.0282506268    -0.0258268485
|  9>  O        1.3170058582     3.3690527238     0.4007334115
| 10>  C        2.4388535056     4.1525494185     0.0879519825
| 11>  C        2.6368012248     4.6514044395    -1.3732529445
| 12>  C        3.0367052457     6.0313467321    -0.7803126497
| 13>  C        2.3431490149     5.6193868092     0.5480937752
| 14>  H        0.1727203667    -2.2739241508    -0.5988973856
| 15>  H       -0.7186005029     1.8242288659    -0.0279484249
| 16>  H        0.0410401585     1.4014040547     1.4985639748
| 17>  H        2.3018320484     1.5413890787     0.4233721901
| 18>  H        1.5323945858     1.9649524205    -1.1188165149
| 19>  H        3.3557030046     3.6698192589     0.4623698560
| 20>  H        3.3562039681     4.1324772033    -2.0107082709
| 21>  H        1.6701547463     4.6997821259    -1.8836491125
| 22>  H        4.1196208322     6.1265059377    -0.6639168574
| 23>  H        2.6637117321     6.9232111125    -1.2867400023
| 24>  H        1.2944528985     5.9288048321     0.5667597745
| 25>  H        2.8142387819     5.8925936330     1.4945671463
| 26> *
| 27>
| 28>                          ****END OF INPUT****

CARTESIAN COORDINATES (ANGSTROEM)
---------------------------------
  C      0.164446   -1.252176   -0.310775
  C      0.139391   -0.097771    0.022594
  C      0.142141    1.305888    0.411000
  C      1.421541    2.028251   -0.025827
  O      1.317006    3.369053    0.400733
  C      2.438854    4.152549    0.087952
  C      2.636801    4.651404   -1.373253
  C      3.036705    6.031347   -0.780313
  C      2.343149    5.619387    0.548094
  H      0.172720   -2.273924   -0.598897
  H     -0.718601    1.824229   -0.027948
  H      0.041040    1.401404    1.498564
  H      2.301832    1.541389    0.423372
  H      1.532395    1.964952   -1.118817
  H      3.355703    3.669819    0.462370
  H      3.356204    4.132477   -2.010708
  H      1.670155    4.699782   -1.883649
  H      4.119621    6.126506   -0.663917
  H      2.663712    6.923211   -1.286740
  H      1.294453    5.928805    0.566760
  H      2.814239    5.892594    1.494567

 Total Charge           Charge          ....    0
 Multiplicity           Mult            ....    1
 Number of Electrons    NEL             ....   68
 Basis Dimension        Dim             ....  351

ORBITAL ENERGIES
----------------

  NO   OCC          E(Eh)            E(eV)
   0   2.0000     -20.558085      -559.4139
   1   2.0000     -11.283499      -307.0396
   2   2.0000     -11.279474      -306.9301
   3   2.0000     -11.250588      -306.1441
   4   2.0000     -11.234225      -305.6988
   5   2.0000     -11.224701      -305.4396
   6   2.0000     -11.221567      -305.3544
   7   2.0000     -11.220689      -305.3305
   8   2.0000     -11.219800      -305.3063
   9   2.0000      -1.383195       -37.6387
  10   2.0000      -1.126602       -30.6564
  11   2.0000      -1.075668       -29.2704
  12   2.0000      -0.991243       -26.9731
  13   2.0000      -0.906271       -24.6609
  14   2.0000      -0.891950       -24.2712
  15   2.0000      -0.847127       -23.0515
  16   2.0000      -0.764746       -20.8098
  17   2.0000      -0.721845       -19.6424
  18   2.0000      -0.689431       -18.7604
  19   2.0000      -0.672022       -18.2867
  20   2.0000      -0.650996       -17.7145
  21   2.0000      -0.615821       -16.7574
  22   2.0000      -0.608384       -16.5550
  23   2.0000      -0.580969       -15.8090
  24   2.0000      -0.553618       -15.0647
  25   2.0000      -0.541552       -14.7364
  26   2.0000      -0.511205       -13.9106
  27   2.0000      -0.480759       -13.0821
  28   2.0000      -0.477242       -12.9864
  29   2.0000      -0.463570       -12.6144
  30   2.0000      -0.441862       -12.0237
  31   2.0000      -0.408249       -11.1090
  32   2.0000      -0.386795       -10.5252
  33   2.0000      -0.385897       -10.5008
  34   0.0000       0.137397         3.7388
  35   0.0000       0.150311         4.0902
  36   0.0000       0.157621         4.2891
  37   0.0000       0.168112         4.5746
  38   0.0000       0.169861         4.6222

MULLIKEN ATOMIC CHARGES
-----------------------
   0 C :   -0.175576
   1 C :   -0.057501
   2 C :   -0.257529
   3 C :   -0.057868
   4 O :   -0.282643
   5 C :    0.018569
   6 C :   -0.232761
   7 C :   -0.230869
   8 C :   -0.188133
   9 H :    0.189313
  10 H :    0.144601
  11 H :    0.144455
  12 H :    0.100901
  13 H :    0.106157
  14 H :    0.072074
  15 H :    0.121005
  16 H :    0.112881
  17 H :    0.115696
  18 H :    0.120357
  19 H :    0.116979
  20 H :    0.119893
Sum of atomic charges:    0.0000000

LOEWDIN ATOMIC CHARGES
----------------------
   0 C :   -0.106720
   1 C :   -0.112810
   2 C :   -0.246960
   3 C :   -0.306767
   4 O :    0.182951
   5 C :   -0.318022
   6 C :   -0.233015
   7 C :   -0.244070
   8 C :   -0.221223
   9 H :    0.126122
  10 H :    0.158919
  11 H :    0.159044
  12 H :    0.123330
  13 H :    0.124893
  14 H :    0.132804
  15 H :    0.121842
  16 H :    0.138531
  17 H :    0.132467
  18 H :    0.123635
  19 H :    0.141196
  20 H :    0.123850

  Mayer bond orders larger than 0.1
B(  0-C ,  1-C ) :   2.6324 B(  0-C ,  9-H ) :   0.9063 B(  1-C ,  2-C ) :   1.0320
B(  2-C ,  3-C ) :   0.9499 B(  2-C , 10-H ) :   0.9245 B(  2-C , 11-H ) :   0.9217
B(  3-C ,  4-O ) :   0.9374 B(  3-C , 12-H ) :   0.9186 B(  3-C , 13-H ) :   0.9216
B(  4-O ,  5-C ) :   0.9920 B(  5-C ,  6-C ) :   0.9247 B(  5-C ,  8-C ) :   0.9190
B(  5-C , 14-H ) :   0.9410 B(  6-C ,  7-C ) :   0.9351 B(  6-C , 15-H ) :   0.9263
B(  6-C , 16-H ) :   0.9178 B(  7-C ,  8-C ) :   0.9202 B(  7-C , 17-H ) :   0.9289
B(  7-C , 18-H ) :   0.9301 B(  8-C , 19-H ) :   0.9240 B(  8-C , 20-H ) :   0.9292

MP2 TOTAL ENERGY:     -386.349852202 Eh
FINAL SINGLE POINT ENERGY      -386.349852201898

DIPOLE MOMENT
-------------
                                X             Y             Z
Electronic contribution:     -3.43144      -5.97669       1.50779
Nuclear contribution   :      3.80850       6.10875      -1.69007
                        -----------------------------------------
Total Dipole Moment    :      0.37705       0.13206      -0.18228
                        -----------------------------------------
Magnitude (a.u.)       :      0.43913
Magnitude (Debye)      :      1.11618

                             ****ORCA TERMINATED NORMALLY****
TOTAL RUN TIME: 0 days 0 hours 18 minutes 8 seconds 102 msec
