                         Program Version 3.0.3 - RELEASE   -
|  1> ! RI-MP2 RIJK def2-TZVP def2-TZVP/C def2-TZVP/JK TIGHTSCF
|  2> % maxcore 2000
|  3> % mp2 density relaxed end
|  4> *xyz 0 1
|  5>  C       -0.0236208078     1.4581748831    -0.0093466373
|  6>  C        0.0589996954    -0.0391893437     0.0018859591
|  7>  C        0.6435966480    -0.8704152015    -1.0768118859
|  8>  C        0.7593874449    -2.1925810791    -0.3074296818
|  9>  O        1.2395191938    -1.8401470854     0.9849391039
| 10>  C        0.2168211219    -0.8811031614     1.3062391379
| 11>  C       -1.0484406595    -1.7620778965     1.2685927201
| 12>  C       -0.8200973422    -2.1351650067    -0.1909732352
| 13>  N       -0.8481318735    -0.8065796893    -0.9235072977
| 14>  H        0.9035467556     1.9052639184     0.3651032079
| 15>  H       -0.1981628446     1.8233579644    -1.0248672033
| 16>  H       -0.8494700826     1.8120080538     0.6176989564
| 17>  H        1.1735873515    -0.5151097935    -1.9538061364
| 18>  H        1.2823326462    -3.0566737266    -0.7089499080
| 19>  H        0.4689964383    -0.3427011352     2.2173749980
| 20>  H       -0.9904766278    -2.5941879982     1.9733503239
| 21>  H       -1.9804501419    -1.2055984004     1.3989785161
| 22>  H       -1.4255861359    -2.9061539023    -0.6613415976
| 23> *
| 24>
| 25>                          ****END OF INPUT****

CARTESIAN COORDINATES (ANGSTROEM)
---------------------------------
  C     -0.023621    1.458175   -0.009347
  C      0.059000   -0.039189    0.001886
  C      0.643597   -0.870415   -1.076812
  C      0.759387   -2.192581   -0.307430
  O      1.239519   -1.840147    0.984939
  C      0.216821   -0.881103    1.306239
  C     -1.048441   -1.762078    1.268593
  C     -0.820097   -2.135165   -0.190973
  N     -0.848132   -0.806580   -0.923507
  H      0.903547    1.905264    0.365103
  H     -0.198163    1.823358   -1.024867
  H     -0.849470    1.812008    0.617699
  H      1.173587   -0.515110   -1.953806
  H      1.282333   -3.056674   -0.708950
  H      0.468996   -0.342701    2.217375
  H     -0.990477   -2.594188    1.973350
  H     -1.980450   -1.205598    1.398979
  H     -1.425586   -2.906154   -0.661342

 Total Charge           Charge          ....    0
 Multiplicity           Mult            ....    1
 Number of Electrons    NEL             ....   66
 Basis Dimension        Dim             ....  333

ORBITAL ENERGIES
----------------

  NO   OCC          E(Eh)            E(eV)
   0   2.0000     -20.559000      -559.4388
   1   2.0000     -15.560226      -423.4153
   2   2.0000     -11.288642      -307.1796
   3   2.0000     -11.288623      -307.1790
   4   2.0000     -11.267253      -306.5975
   5   2.0000     -11.262875      -306.4784
   6   2.0000     -11.258204      -306.3513
   7   2.0000     -11.227246      -305.5089
   8   2.0000     -11.226604      -305.4914
   9   2.0000      -1.408186       -38.3187
  10   2.0000      -1.282895       -34.9093
  11   2.0000      -1.047946       -28.5161
  12   2.0000      -1.033637       -28.1267
  13   2.0000      -0.945886       -25.7389
  14   2.0000      -0.909497       -24.7487
  15   2.0000      -0.822589       -22.3838
  16   2.0000      -0.774484       -21.0748
  17   2.0000      -0.738083       -20.0843
  18   2.0000      -0.709882       -19.3169
  19   2.0000      -0.670372       -18.2417
  20   2.0000      -0.631658       -17.1883
  21   2.0000      -0.575022       -15.6472
  22   2.0000      -0.572545       -15.5797
  23   2.0000      -0.571230       -15.5439
  24   2.0000      -0.556562       -15.1448
  25   2.0000      -0.543801       -14.7976
  26   2.0000      -0.523845       -14.2546
  27   2.0000      -0.500648       -13.6233
  28   2.0000      -0.463534       -12.6134
  29   2.0000      -0.456719       -12.4280
  30   2.0000      -0.424427       -11.5493
  31   2.0000      -0.405508       -11.0344
  32   2.0000      -0.373466       -10.1625
  33   0.0000       0.141392         3.8475
  34   0.0000       0.159495         4.3401
  35   0.0000       0.171567         4.6686
  36   0.0000       0.185256         5.0411
  37   0.0000       0.191712         5.2168

MULLIKEN ATOMIC CHARGES
-----------------------
   0 C :   -0.456062
   1 C :    0.115591
   2 C :   -0.118089
   3 C :   -0.055936
   4 O :   -0.305163
   5 C :    0.116501
   6 C :   -0.321114
   7 C :    0.063175
   8 N :   -0.260874
   9 H :    0.139630
  10 H :    0.149534
  11 H :    0.133915
  12 H :    0.131984
  13 H :    0.133018
  14 H :    0.139628
  15 H :    0.127928
  16 H :    0.125678
  17 H :    0.140655
Sum of atomic charges:   -0.0000000

LOEWDIN ATOMIC CHARGES
----------------------
   0 C :   -0.266923
   1 C :   -0.246154
   2 C :   -0.167272
   3 C :   -0.241645
   4 O :    0.196854
   5 C :   -0.236603
   6 C :   -0.216454
   7 C :   -0.205323
   8 N :    0.149416
   9 H :    0.131112
  10 H :    0.136672
  11 H :    0.130357
  12 H :    0.133516
  13 H :    0.135776
  14 H :    0.141921
  15 H :    0.141065
  16 H :    0.145469
  17 H :    0.138216

  Mayer bond orders larger than 0.1
B(  0-C ,  1-C ) :   0.8473 B(  0-C ,  9-H ) :   0.9443 B(  0-C , 10-H ) :   0.9457
B(  0-C , 11-H ) :   0.9367 B(  1-C ,  2-C ) :   0.9170 B(  1-C ,  5-C ) :   0.8911
B(  1-C ,  8-N ) :   0.8967 B(  2-C ,  3-C ) :   0.8691 B(  2-C ,  8-N ) :   0.8838
B(  2-C , 12-H ) :   0.9173 B(  3-C ,  4-O ) :   0.9958 B(  3-C ,  7-C ) :   0.8982
B(  3-C , 13-H ) :   0.9362 B(  4-O ,  5-C ) :   0.9283 B(  5-C ,  6-C ) :   0.9443
B(  5-C , 14-H ) :   0.9111 B(  6-C ,  7-C ) :   0.9458 B(  6-C , 15-H ) :   0.9164
B(  6-C , 16-H ) :   0.9178 B(  7-C ,  8-N ) :   0.9122 B(  7-C , 17-H ) :   0.9118

MP2 TOTAL ENERGY:     -401.232752773 Eh
FINAL SINGLE POINT ENERGY      -401.232752773292

DIPOLE MOMENT
-------------
                                X             Y             Z
Electronic contribution:      1.75529      -3.60333      -0.79225
Nuclear contribution   :     -1.76055       3.65567       0.92856
                        -----------------------------------------
Total Dipole Moment    :     -0.00526       0.05233       0.13630
                        -----------------------------------------
Magnitude (a.u.)       :      0.14610
Magnitude (Debye)      :      0.37136

                             ****ORCA TERMINATED NORMALLY****
TOTAL RUN TIME: 0 days 0 hours 20 minutes 17 seconds 930 msec
