                         Program Version 3.0.3 - RELEASE   -
|  1> ! RI-MP2 RIJK def2-TZVP def2-TZVP/C def2-TZVP/JK TIGHTSCF
|  2> % maxcore 2000
|  3> % mp2 density relaxed end
|  4> *xyz 0 1
|  5>  C        0.0040536967    -1.1888175793    -0.1161855873
|  6>  C        0.0471856041     0.0107460077    -0.0374234403
|  7>  C        0.0625216489     1.4203458452     0.1155811064
|  8>  O        0.2066176156     2.2837940917    -1.0224386407
|  9>  C        1.1343409841     2.4325775991     0.0411547328
| 10>  C        0.4679991550     3.2443835640     1.2082754532
| 11>  N       -0.9058819352     3.5964603067     0.7771442336
| 12>  C       -0.6142900670     2.2420864856     1.2863684985
| 13>  H       -0.0270929226    -2.2469388972    -0.2012998300
| 14>  H        2.1908060937     2.3276667263    -0.1738843984
| 15>  H        0.9891828922     3.7741187153     1.9933777645
| 16>  H       -1.3316611790     4.1117725651     1.5484813161
| 17>  H       -1.1153556966     1.8065127198     2.1396614315
| 18> *
| 19>
| 20>                          ****END OF INPUT****

CARTESIAN COORDINATES (ANGSTROEM)
---------------------------------
  C      0.004054   -1.188818   -0.116186
  C      0.047186    0.010746   -0.037423
  C      0.062522    1.420346    0.115581
  O      0.206618    2.283794   -1.022439
  C      1.134341    2.432578    0.041155
  C      0.467999    3.244384    1.208275
  N     -0.905882    3.596460    0.777144
  C     -0.614290    2.242086    1.286368
  H     -0.027093   -2.246939   -0.201300
  H      2.190806    2.327667   -0.173884
  H      0.989183    3.774119    1.993378
  H     -1.331661    4.111773    1.548481
  H     -1.115356    1.806513    2.139661

 Total Charge           Charge          ....    0
 Multiplicity           Mult            ....    1
 Number of Electrons    NEL             ....   56
 Basis Dimension        Dim             ....  278

ORBITAL ENERGIES
----------------

  NO   OCC          E(Eh)            E(eV)
   0   2.0000     -20.582991      -560.0917
   1   2.0000     -15.576946      -423.8703
   2   2.0000     -11.321293      -308.0680
   3   2.0000     -11.306767      -307.6728
   4   2.0000     -11.283094      -307.0286
   5   2.0000     -11.280089      -306.9468
   6   2.0000     -11.248300      -306.0818
   7   2.0000     -11.241726      -305.9029
   8   2.0000      -1.439752       -39.1776
   9   2.0000      -1.276061       -34.7234
  10   2.0000      -1.061416       -28.8826
  11   2.0000      -1.004135       -27.3239
  12   2.0000      -0.919006       -25.0074
  13   2.0000      -0.852744       -23.2043
  14   2.0000      -0.797097       -21.6901
  15   2.0000      -0.761900       -20.7323
  16   2.0000      -0.719312       -19.5735
  17   2.0000      -0.674631       -18.3576
  18   2.0000      -0.651867       -17.7382
  19   2.0000      -0.588041       -16.0014
  20   2.0000      -0.568887       -15.4802
  21   2.0000      -0.519475       -14.1356
  22   2.0000      -0.490936       -13.3591
  23   2.0000      -0.485631       -13.2147
  24   2.0000      -0.458269       -12.4701
  25   2.0000      -0.408142       -11.1061
  26   2.0000      -0.385468       -10.4891
  27   2.0000      -0.352346        -9.5878
  28   0.0000       0.132255         3.5988
  29   0.0000       0.137001         3.7280
  30   0.0000       0.155135         4.2214
  31   0.0000       0.157716         4.2917
  32   0.0000       0.171029         4.6539

MULLIKEN ATOMIC CHARGES
-----------------------
   0 C :   -0.077447
   1 C :    0.066245
   2 C :   -0.032202
   3 O :   -0.278749
   4 C :   -0.002379
   5 C :   -0.065895
   6 N :   -0.350306
   7 C :   -0.138410
   8 H :    0.198830
   9 H :    0.150523
  10 H :    0.152316
  11 H :    0.222206
  12 H :    0.155266
Sum of atomic charges:    0.0000000

LOEWDIN ATOMIC CHARGES
----------------------
   0 C :   -0.061674
   1 C :   -0.069458
   2 C :   -0.246666
   3 O :    0.240316
   4 C :   -0.188419
   5 C :   -0.217679
   6 N :    0.018177
   7 C :   -0.186040
   8 H :    0.129928
   9 H :    0.135890
  10 H :    0.132042
  11 H :    0.177340
  12 H :    0.136244

  Mayer bond orders larger than 0.1
B(  0-C ,  1-C ) :   2.6330 B(  0-C ,  2-C ) :  -0.1876 B(  0-C ,  8-H ) :   0.8659
B(  1-C ,  2-C ) :   1.1541 B(  2-C ,  3-O ) :   0.8445 B(  2-C ,  4-C ) :   0.9936
B(  2-C ,  7-C ) :   0.8643 B(  3-O ,  4-C ) :   0.9447 B(  4-C ,  5-C ) :   0.8629
B(  4-C ,  9-H ) :   0.9175 B(  5-C ,  6-N ) :   0.9614 B(  5-C ,  7-C ) :   0.9733
B(  5-C , 10-H ) :   0.9098 B(  6-N ,  7-C ) :   0.9914 B(  6-N , 11-H ) :   0.8605
B(  7-C , 12-H ) :   0.9185

MP2 TOTAL ENERGY:     -360.682959274 Eh
FINAL SINGLE POINT ENERGY      -360.682959274045

DIPOLE MOMENT
-------------
                                X             Y             Z
Electronic contribution:     -0.05414      -0.85361      -2.36564
Nuclear contribution   :      0.45964       0.65488       3.65334
                        -----------------------------------------
Total Dipole Moment    :      0.40549      -0.19873       1.28770
                        -----------------------------------------
Magnitude (a.u.)       :      1.36459
Magnitude (Debye)      :      3.46851

                             ****ORCA TERMINATED NORMALLY****
TOTAL RUN TIME: 0 days 0 hours 10 minutes 36 seconds 288 msec
