                         Program Version 3.0.3 - RELEASE   -
|  1> ! RI-MP2 RIJK def2-TZVP def2-TZVP/C def2-TZVP/JK TIGHTSCF
|  2> % maxcore 2000
|  3> % mp2 density relaxed end
|  4> *xyz 0 1
|  5>  C       -0.0703317171     1.5229133763    -0.1135750027
|  6>  C       -0.0111480166     0.0231414454     0.0419389469
|  7>  N        1.2954781830    -0.6176160707    -0.1389167135
|  8>  C        0.6656386156    -0.6392247820     1.2019071246
|  9>  C        1.3421455632     0.0716772062     2.3660825522
| 10>  C        1.1207365411    -0.8649805541     3.5696082847
| 11>  O        1.4792161313    -0.6578526545     4.7049056237
| 12>  C        0.3805708335    -2.0469360752     3.0652826388
| 13>  C        0.1341120418    -1.9083087018     1.7543287946
| 14>  H        0.8394548801     1.9904047890     0.2697878043
| 15>  H       -0.1668984021     1.7928081154    -1.1704593964
| 16>  H       -0.9314325401     1.9373593016     0.4213440139
| 17>  H       -0.8776677503    -0.5066914709    -0.3548158069
| 18>  H        1.1990182761    -1.5248758471    -0.5907211666
| 19>  H        2.4119862615     0.2080260210     2.1879095863
| 20>  H        0.9182900303     1.0551774417     2.5889496264
| 21>  H        0.0986049533    -2.8751195453     3.7019900757
| 22>  H       -0.3882116046    -2.6241853149     1.1259887840
| 23> *
| 24>
| 25>                          ****END OF INPUT****

CARTESIAN COORDINATES (ANGSTROEM)
---------------------------------
  C     -0.070332    1.522913   -0.113575
  C     -0.011148    0.023141    0.041939
  N      1.295478   -0.617616   -0.138917
  C      0.665639   -0.639225    1.201907
  C      1.342146    0.071677    2.366083
  C      1.120737   -0.864981    3.569608
  O      1.479216   -0.657853    4.704906
  C      0.380571   -2.046936    3.065283
  C      0.134112   -1.908309    1.754329
  H      0.839455    1.990405    0.269788
  H     -0.166898    1.792808   -1.170459
  H     -0.931433    1.937359    0.421344
  H     -0.877668   -0.506691   -0.354816
  H      1.199018   -1.524876   -0.590721
  H      2.411986    0.208026    2.187910
  H      0.918290    1.055177    2.588950
  H      0.098605   -2.875120    3.701990
  H     -0.388212   -2.624185    1.125989

 Total Charge           Charge          ....    0
 Multiplicity           Mult            ....    1
 Number of Electrons    NEL             ....   66
 Basis Dimension        Dim             ....  333

ORBITAL ENERGIES
----------------

  NO   OCC          E(Eh)            E(eV)
   0   2.0000     -20.539209      -558.9003
   1   2.0000     -15.573754      -423.7834
   2   2.0000     -11.330613      -308.3216
   3   2.0000     -11.286439      -307.1196
   4   2.0000     -11.279673      -306.9355
   5   2.0000     -11.274541      -306.7959
   6   2.0000     -11.246892      -306.0435
   7   2.0000     -11.239672      -305.8470
   8   2.0000     -11.230358      -305.5936
   9   2.0000      -1.382472       -37.6190
  10   2.0000      -1.285843       -34.9896
  11   2.0000      -1.135158       -30.8892
  12   2.0000      -1.005806       -27.3694
  13   2.0000      -0.992171       -26.9983
  14   2.0000      -0.909263       -24.7423
  15   2.0000      -0.834381       -22.7047
  16   2.0000      -0.771914       -21.0049
  17   2.0000      -0.758952       -20.6521
  18   2.0000      -0.691500       -18.8167
  19   2.0000      -0.669246       -18.2111
  20   2.0000      -0.627926       -17.0867
  21   2.0000      -0.607800       -16.5391
  22   2.0000      -0.601846       -16.3771
  23   2.0000      -0.580000       -15.7826
  24   2.0000      -0.573946       -15.6179
  25   2.0000      -0.560485       -15.2516
  26   2.0000      -0.513109       -13.9624
  27   2.0000      -0.511109       -13.9080
  28   2.0000      -0.487178       -13.2568
  29   2.0000      -0.471417       -12.8279
  30   2.0000      -0.441001       -12.0003
  31   2.0000      -0.405056       -11.0221
  32   2.0000      -0.361183        -9.8283
  33   0.0000       0.084915         2.3107
  34   0.0000       0.125173         3.4061
  35   0.0000       0.144464         3.9311
  36   0.0000       0.168512         4.5854
  37   0.0000       0.179415         4.8821

MULLIKEN ATOMIC CHARGES
-----------------------
   0 C :   -0.418220
   1 C :   -0.059003
   2 N :   -0.385689
   3 C :    0.144114
   4 C :   -0.194215
   5 C :    0.173966
   6 O :   -0.280777
   7 C :   -0.205187
   8 C :   -0.127022
   9 H :    0.149894
  10 H :    0.138043
  11 H :    0.132805
  12 H :    0.123246
  13 H :    0.218987
  14 H :    0.150005
  15 H :    0.142899
  16 H :    0.150343
  17 H :    0.145812
Sum of atomic charges:    0.0000000

LOEWDIN ATOMIC CHARGES
----------------------
   0 C :   -0.290963
   1 C :   -0.258359
   2 N :    0.035583
   3 C :   -0.260389
   4 C :   -0.163864
   5 C :   -0.311799
   6 O :    0.142708
   7 C :   -0.113461
   8 C :   -0.084218
   9 H :    0.132191
  10 H :    0.129303
  11 H :    0.128361
  12 H :    0.139186
  13 H :    0.167303
  14 H :    0.160234
  15 H :    0.155735
  16 H :    0.146571
  17 H :    0.145877

  Mayer bond orders larger than 0.1
B(  0-C ,  1-C ) :   0.8888 B(  0-C ,  9-H ) :   0.9434 B(  0-C , 10-H ) :   0.9317
B(  0-C , 11-H ) :   0.9343 B(  1-C ,  2-N ) :   0.9591 B(  1-C ,  3-C ) :   0.8686
B(  1-C , 12-H ) :   0.9204 B(  2-N ,  3-C ) :   0.8798 B(  2-N , 13-H ) :   0.8686
B(  3-C ,  4-C ) :   0.8754 B(  3-C ,  8-C ) :   0.9500 B(  4-C ,  5-C ) :   0.9154
B(  4-C ,  7-C ) :  -0.1038 B(  4-C , 14-H ) :   0.8960 B(  4-C , 15-H ) :   0.9098
B(  5-C ,  6-O ) :   2.0109 B(  5-C ,  7-C ) :   1.0001 B(  7-C ,  8-C ) :   1.6435
B(  7-C , 16-H ) :   0.9172 B(  8-C , 17-H ) :   0.8881

MP2 TOTAL ENERGY:     -401.262877228 Eh
FINAL SINGLE POINT ENERGY      -401.262877227586

DIPOLE MOMENT
-------------
                                X             Y             Z
Electronic contribution:      2.16191      -4.38602       6.43007
Nuclear contribution   :     -3.08826       4.00056      -7.67418
                        -----------------------------------------
Total Dipole Moment    :     -0.92635      -0.38546      -1.24410
                        -----------------------------------------
Magnitude (a.u.)       :      1.59828
Magnitude (Debye)      :      4.06250

                             ****ORCA TERMINATED NORMALLY****
TOTAL RUN TIME: 0 days 0 hours 17 minutes 58 seconds 72 msec
