                         Program Version 3.0.3 - RELEASE   -
|  1> ! RI-MP2 RIJK def2-TZVP def2-TZVP/C def2-TZVP/JK TIGHTSCF
|  2> % maxcore 2000
|  3> % mp2 density relaxed end
|  4> *xyz 0 1
|  5>  C       -0.1015142630     1.3927052614    -0.0728057767
|  6>  O       -0.1489721943    -0.0126226162    -0.1034269371
|  7>  C        0.7714455083    -0.5725127297    -1.0188143760
|  8>  C        0.6036262004    -2.0783853031    -1.0008232114
|  9>  C       -0.7311814171    -2.6800162665    -1.5700516973
| 10>  C        0.1102498716    -3.4390513568    -2.6014034952
| 11>  O        0.8459252318    -2.4575098886    -3.3497234713
| 12>  C        1.3714037245    -2.8801083332    -2.0797198906
| 13>  C        2.7719649556    -3.3988431890    -2.0315480544
| 14>  H        0.8888686394     1.7628810852     0.2384137980
| 15>  H       -0.3348397905     1.8323524120    -1.0557418659
| 16>  H       -0.8468861066     1.7314871688     0.6512245897
| 17>  H        0.5905640888    -0.1917157217    -2.0359333745
| 18>  H        1.8041570181    -0.2950339583    -0.7406712926
| 19>  H        0.8070167024    -2.4640323635     0.0027618276
| 20>  H       -1.2400498093    -3.3276537446    -0.8529701429
| 21>  H       -1.4449947289    -1.9661112365    -1.9872611920
| 22>  H       -0.0904159958    -4.3820413327    -3.0983793990
| 23>  H        3.4969810342    -2.5788694050    -2.0890446807
| 24>  H        2.9530201839    -3.9413347355    -1.0979234767
| 25>  H        2.9570707764    -4.0731815165    -2.8719636810
| 26> *
| 27>
| 28>                          ****END OF INPUT****

CARTESIAN COORDINATES (ANGSTROEM)
---------------------------------
  C     -0.101514    1.392705   -0.072806
  O     -0.148972   -0.012623   -0.103427
  C      0.771446   -0.572513   -1.018814
  C      0.603626   -2.078385   -1.000823
  C     -0.731181   -2.680016   -1.570052
  C      0.110250   -3.439051   -2.601403
  O      0.845925   -2.457510   -3.349723
  C      1.371404   -2.880108   -2.079720
  C      2.771965   -3.398843   -2.031548
  H      0.888869    1.762881    0.238414
  H     -0.334840    1.832352   -1.055742
  H     -0.846886    1.731487    0.651225
  H      0.590564   -0.191716   -2.035933
  H      1.804157   -0.295034   -0.740671
  H      0.807017   -2.464032    0.002762
  H     -1.240050   -3.327654   -0.852970
  H     -1.444995   -1.966111   -1.987261
  H     -0.090416   -4.382041   -3.098379
  H      3.496981   -2.578869   -2.089045
  H      2.953020   -3.941335   -1.097923
  H      2.957071   -4.073182   -2.871964

 Total Charge           Charge          ....    0
 Multiplicity           Mult            ....    1
 Number of Electrons    NEL             ....   70
 Basis Dimension        Dim             ....  351

ORBITAL ENERGIES
----------------

  NO   OCC          E(Eh)            E(eV)
   0   2.0000     -20.559648      -559.4565
   1   2.0000     -20.552492      -559.2617
   2   2.0000     -11.287229      -307.1411
   3   2.0000     -11.279393      -306.9279
   4   2.0000     -11.269371      -306.6552
   5   2.0000     -11.268203      -306.6234
   6   2.0000     -11.233867      -305.6891
   7   2.0000     -11.228463      -305.5420
   8   2.0000     -11.226826      -305.4975
   9   2.0000      -1.411526       -38.4096
  10   2.0000      -1.372945       -37.3597
  11   2.0000      -1.091736       -29.7077
  12   2.0000      -1.003436       -27.3049
  13   2.0000      -0.980499       -26.6807
  14   2.0000      -0.900780       -24.5115
  15   2.0000      -0.841904       -22.9094
  16   2.0000      -0.829748       -22.5786
  17   2.0000      -0.739316       -20.1178
  18   2.0000      -0.684660       -18.6306
  19   2.0000      -0.662049       -18.0153
  20   2.0000      -0.653057       -17.7706
  21   2.0000      -0.637610       -17.3502
  22   2.0000      -0.610149       -16.6030
  23   2.0000      -0.583021       -15.8648
  24   2.0000      -0.577618       -15.7178
  25   2.0000      -0.570052       -15.5119
  26   2.0000      -0.548535       -14.9264
  27   2.0000      -0.525472       -14.2988
  28   2.0000      -0.495703       -13.4888
  29   2.0000      -0.489255       -13.3133
  30   2.0000      -0.471369       -12.8266
  31   2.0000      -0.461217       -12.5504
  32   2.0000      -0.437970       -11.9178
  33   2.0000      -0.416028       -11.3207
  34   2.0000      -0.387647       -10.5484
  35   0.0000       0.137263         3.7351
  36   0.0000       0.152705         4.1553
  37   0.0000       0.165772         4.5109
  38   0.0000       0.179313         4.8793
  39   0.0000       0.189602         5.1593

MULLIKEN ATOMIC CHARGES
-----------------------
   0 C :   -0.213023
   1 O :   -0.306356
   2 C :   -0.135243
   3 C :    0.003125
   4 C :   -0.169606
   5 C :   -0.067394
   6 O :   -0.337984
   7 C :    0.175638
   8 C :   -0.415862
   9 H :    0.108640
  10 H :    0.111568
  11 H :    0.137337
  12 H :    0.121453
  13 H :    0.090598
  14 H :    0.107159
  15 H :    0.117100
  16 H :    0.119131
  17 H :    0.131912
  18 H :    0.139727
  19 H :    0.136198
  20 H :    0.145881
Sum of atomic charges:    0.0000000

LOEWDIN ATOMIC CHARGES
----------------------
   0 C :   -0.363869
   1 O :    0.135346
   2 C :   -0.309460
   3 C :   -0.186320
   4 C :   -0.191956
   5 C :   -0.226236
   6 O :    0.181253
   7 C :   -0.285952
   8 C :   -0.272149
   9 H :    0.100475
  10 H :    0.101460
  11 H :    0.112648
  12 H :    0.127642
  13 H :    0.120562
  14 H :    0.154681
  15 H :    0.136287
  16 H :    0.135949
  17 H :    0.128464
  18 H :    0.132312
  19 H :    0.132656
  20 H :    0.136206

  Mayer bond orders larger than 0.1
B(  0-C ,  1-O ) :   0.9237 B(  0-C ,  9-H ) :   0.9378 B(  0-C , 10-H ) :   0.9363
B(  0-C , 11-H ) :   0.9391 B(  1-O ,  2-C ) :   0.9422 B(  2-C ,  3-C ) :   0.9101
B(  2-C , 12-H ) :   0.9286 B(  2-C , 13-H ) :   0.9217 B(  3-C ,  4-C ) :   0.9716
B(  3-C ,  7-C ) :   0.8859 B(  3-C , 14-H ) :   0.9125 B(  4-C ,  5-C ) :   0.9139
B(  4-C , 15-H ) :   0.9082 B(  4-C , 16-H ) :   0.8994 B(  5-C ,  6-O ) :   0.9097
B(  5-C ,  7-C ) :   0.8753 B(  5-C , 17-H ) :   0.9296 B(  6-O ,  7-C ) :   0.8783
B(  7-C ,  8-C ) :   0.8694 B(  8-C , 18-H ) :   0.9338 B(  8-C , 19-H ) :   0.9408
B(  8-C , 20-H ) :   0.9392

MP2 TOTAL ENERGY:     -423.471711324 Eh
FINAL SINGLE POINT ENERGY      -423.471711324266

DIPOLE MOMENT
-------------
                                X             Y             Z
Electronic contribution:     -1.77195      -2.86763      -2.73002
Nuclear contribution   :      2.05894       2.69050       3.10105
                        -----------------------------------------
Total Dipole Moment    :      0.28700      -0.17713       0.37103
                        -----------------------------------------
Magnitude (a.u.)       :      0.50140
Magnitude (Debye)      :      1.27446

                             ****ORCA TERMINATED NORMALLY****
TOTAL RUN TIME: 0 days 0 hours 22 minutes 59 seconds 615 msec
