                         Program Version 3.0.3 - RELEASE   -
|  1> ! RI-MP2 RIJK def2-TZVP def2-TZVP/C def2-TZVP/JK TIGHTSCF
|  2> % maxcore 2000
|  3> % mp2 density relaxed end
|  4> *xyz 0 1
|  5>  C        0.1259166722     1.4604445000    -0.0896049989
|  6>  C        0.0497865685    -0.0435525152     0.0791883642
|  7>  O        1.0096185278    -0.7208159079    -0.7922046321
|  8>  C        1.7424885645    -1.1768844152     0.3460508731
|  9>  C        0.7399015342    -0.6019758559     1.3235720536
| 10>  C        0.9375391680    -2.1095590384     1.2060136840
| 11>  C       -0.1068187847    -3.0347432855     0.6175452143
| 12>  C        1.7180653379    -2.6746087707     2.3843449980
| 13>  O        2.5016030162    -3.8129976325     2.0580659203
| 14>  H        1.1374156278     1.8237370352     0.1144147565
| 15>  H       -0.1437611650     1.7394937533    -1.1124970414
| 16>  H       -0.5696080714     1.9557590556     0.5973039376
| 17>  H       -0.9694719626    -0.4026814707    -0.1119717718
| 18>  H        2.8255489982    -1.1618053491     0.2921548370
| 19>  H        0.8835010168    -0.0580009737     2.2495454352
| 20>  H       -0.4951952165    -2.6457361929    -0.3253174140
| 21>  H        0.3304751297    -4.0150843208     0.3945861188
| 22>  H       -0.9452631983    -3.1862754925     1.3073068420
| 23>  H        2.4286358900    -1.9255480368     2.7513324363
| 24>  H        1.0249206454    -2.8946223868     3.2122384911
| 25>  H        1.9048619012    -4.5477640396     1.8886937861
| 26> *
| 27>
| 28>                          ****END OF INPUT****

CARTESIAN COORDINATES (ANGSTROEM)
---------------------------------
  C      0.125917    1.460444   -0.089605
  C      0.049787   -0.043553    0.079188
  O      1.009619   -0.720816   -0.792205
  C      1.742489   -1.176884    0.346051
  C      0.739902   -0.601976    1.323572
  C      0.937539   -2.109559    1.206014
  C     -0.106819   -3.034743    0.617545
  C      1.718065   -2.674609    2.384345
  O      2.501603   -3.812998    2.058066
  H      1.137416    1.823737    0.114415
  H     -0.143761    1.739494   -1.112497
  H     -0.569608    1.955759    0.597304
  H     -0.969472   -0.402681   -0.111972
  H      2.825549   -1.161805    0.292155
  H      0.883501   -0.058001    2.249545
  H     -0.495195   -2.645736   -0.325317
  H      0.330475   -4.015084    0.394586
  H     -0.945263   -3.186275    1.307307
  H      2.428636   -1.925548    2.751332
  H      1.024921   -2.894622    3.212238
  H      1.904862   -4.547764    1.888694

 Total Charge           Charge          ....    0
 Multiplicity           Mult            ....    1
 Number of Electrons    NEL             ....   70
 Basis Dimension        Dim             ....  351

ORBITAL ENERGIES
----------------

  NO   OCC          E(Eh)            E(eV)
   0   2.0000     -20.558307      -559.4200
   1   2.0000     -20.551908      -559.2459
   2   2.0000     -11.290147      -307.2205
   3   2.0000     -11.285662      -307.0985
   4   2.0000     -11.282936      -307.0243
   5   2.0000     -11.245004      -305.9921
   6   2.0000     -11.237401      -305.7852
   7   2.0000     -11.221049      -305.3403
   8   2.0000     -11.220257      -305.3187
   9   2.0000      -1.391374       -37.8612
  10   2.0000      -1.362778       -37.0831
  11   2.0000      -1.136815       -30.9343
  12   2.0000      -1.026191       -27.9241
  13   2.0000      -0.974521       -26.5181
  14   2.0000      -0.931887       -25.3579
  15   2.0000      -0.869513       -23.6607
  16   2.0000      -0.764991       -20.8165
  17   2.0000      -0.749198       -20.3867
  18   2.0000      -0.702682       -19.1209
  19   2.0000      -0.682849       -18.5813
  20   2.0000      -0.657445       -17.8900
  21   2.0000      -0.643136       -17.5006
  22   2.0000      -0.592570       -16.1247
  23   2.0000      -0.587997       -16.0002
  24   2.0000      -0.571356       -15.5474
  25   2.0000      -0.553582       -15.0637
  26   2.0000      -0.549362       -14.9489
  27   2.0000      -0.534416       -14.5422
  28   2.0000      -0.520467       -14.1626
  29   2.0000      -0.495052       -13.4710
  30   2.0000      -0.489090       -13.3088
  31   2.0000      -0.468470       -12.7477
  32   2.0000      -0.442508       -12.0412
  33   2.0000      -0.397688       -10.8216
  34   2.0000      -0.374788       -10.1985
  35   0.0000       0.130266         3.5447
  36   0.0000       0.147293         4.0080
  37   0.0000       0.160783         4.3751
  38   0.0000       0.172609         4.6969
  39   0.0000       0.184495         5.0204

MULLIKEN ATOMIC CHARGES
-----------------------
   0 C :   -0.423072
   1 C :    0.160933
   2 O :   -0.346737
   3 C :    0.026888
   4 C :   -0.297132
   5 C :    0.121305
   6 C :   -0.433040
   7 C :   -0.083144
   8 O :   -0.466219
   9 H :    0.137532
  10 H :    0.143207
  11 H :    0.124310
  12 H :    0.099356
  13 H :    0.136746
  14 H :    0.136174
  15 H :    0.164283
  16 H :    0.112990
  17 H :    0.133207
  18 H :    0.118199
  19 H :    0.118309
  20 H :    0.315905
Sum of atomic charges:   -0.0000000

LOEWDIN ATOMIC CHARGES
----------------------
   0 C :   -0.288627
   1 C :   -0.276646
   2 O :    0.166770
   3 C :   -0.210096
   4 C :   -0.149786
   5 C :   -0.255314
   6 C :   -0.268261
   7 C :   -0.298120
   8 O :   -0.041266
   9 H :    0.129506
  10 H :    0.129608
  11 H :    0.127711
  12 H :    0.134922
  13 H :    0.136342
  14 H :    0.141615
  15 H :    0.137182
  16 H :    0.123727
  17 H :    0.127074
  18 H :    0.138572
  19 H :    0.123798
  20 H :    0.171290

  Mayer bond orders larger than 0.1
B(  0-C ,  1-C ) :   0.8980 B(  0-C ,  9-H ) :   0.9428 B(  0-C , 10-H ) :   0.9390
B(  0-C , 11-H ) :   0.9303 B(  1-C ,  2-O ) :   0.8715 B(  1-C ,  4-C ) :   0.9034
B(  1-C , 12-H ) :   0.9199 B(  2-O ,  3-C ) :   0.9532 B(  3-C ,  4-C ) :   0.9208
B(  3-C ,  5-C ) :   0.8391 B(  3-C , 13-H ) :   0.9275 B(  4-C ,  5-C ) :   0.8013
B(  4-C , 14-H ) :   0.9163 B(  5-C ,  6-C ) :   0.8938 B(  5-C ,  7-C ) :   0.8985
B(  6-C , 15-H ) :   0.9308 B(  6-C , 16-H ) :   0.9358 B(  6-C , 17-H ) :   0.9354
B(  7-C ,  8-O ) :   0.9610 B(  7-C , 18-H ) :   0.9179 B(  7-C , 19-H ) :   0.9507
B(  8-O , 20-H ) :   0.8482

MP2 TOTAL ENERGY:     -423.479759396 Eh
FINAL SINGLE POINT ENERGY      -423.479759395794

DIPOLE MOMENT
-------------
                                X             Y             Z
Electronic contribution:      3.39520      -1.79735      -1.00485
Nuclear contribution   :     -4.10724       1.96298       1.59145
                        -----------------------------------------
Total Dipole Moment    :     -0.71204       0.16563       0.58660
                        -----------------------------------------
Magnitude (a.u.)       :      0.93730
Magnitude (Debye)      :      2.38242

                             ****ORCA TERMINATED NORMALLY****
TOTAL RUN TIME: 0 days 0 hours 17 minutes 16 seconds 456 msec
