                         Program Version 3.0.3 - RELEASE   -
|  1> ! RI-MP2 RIJK def2-TZVP def2-TZVP/C def2-TZVP/JK TIGHTSCF
|  2> % maxcore 2000
|  3> % mp2 density relaxed end
|  4> *xyz 0 1
|  5>  C       -0.3072849152     1.5431835692     0.0905114686
|  6>  C       -0.3574279351     0.0615494355    -0.2718425145
|  7>  C        0.7796154762    -0.3822939073    -1.1804304893
|  8>  O        1.5474498315     0.3952010906    -1.6970258636
|  9>  C        0.9200438555    -1.8913111298    -1.3796147563
| 10>  O        1.6119456626    -2.2372627937    -2.5835415928
| 11>  C        2.7610382308    -2.7161221857    -1.8564266854
| 12>  C        2.0306694483    -2.5695087770    -0.5029349261
| 13>  C        2.7216124590    -1.7936642900     0.6081295745
| 14>  H        0.6084156387     1.7807619365     0.6389572231
| 15>  H       -0.3132967144     2.1600828377    -0.8110595138
| 16>  H       -1.1632698987     1.8215515305     0.7112522116
| 17>  H       -0.3535482787    -0.5760385535     0.6238340461
| 18>  H       -1.2962889179    -0.1880061404    -0.7877922250
| 19>  H       -0.0674044466    -2.3687822218    -1.3249248935
| 20>  H        3.0446665596    -3.7310029935    -2.1572478832
| 21>  H        3.6217116151    -2.0462666902    -1.9778668079
| 22>  H        1.6771208921    -3.5334164435    -0.1282171066
| 23>  H        3.0608352059    -0.8142924334     0.2590643734
| 24>  H        2.0596861654    -1.6423473886     1.4677651998
| 25>  H        3.5973296159    -2.3461349918     0.9653855309
| 26> *
| 27>
| 28>                          ****END OF INPUT****

CARTESIAN COORDINATES (ANGSTROEM)
---------------------------------
  C     -0.307285    1.543184    0.090511
  C     -0.357428    0.061549   -0.271843
  C      0.779615   -0.382294   -1.180430
  O      1.547450    0.395201   -1.697026
  C      0.920044   -1.891311   -1.379615
  O      1.611946   -2.237263   -2.583542
  C      2.761038   -2.716122   -1.856427
  C      2.030669   -2.569509   -0.502935
  C      2.721612   -1.793664    0.608130
  H      0.608416    1.780762    0.638957
  H     -0.313297    2.160083   -0.811060
  H     -1.163270    1.821552    0.711252
  H     -0.353548   -0.576039    0.623834
  H     -1.296289   -0.188006   -0.787792
  H     -0.067404   -2.368782   -1.324925
  H      3.044667   -3.731003   -2.157248
  H      3.621712   -2.046267   -1.977867
  H      1.677121   -3.533416   -0.128217
  H      3.060835   -0.814292    0.259064
  H      2.059686   -1.642347    1.467765
  H      3.597330   -2.346135    0.965386

 Total Charge           Charge          ....    0
 Multiplicity           Mult            ....    1
 Number of Electrons    NEL             ....   70
 Basis Dimension        Dim             ....  351

ORBITAL ENERGIES
----------------

  NO   OCC          E(Eh)            E(eV)
   0   2.0000     -20.552755      -559.2689
   1   2.0000     -20.544898      -559.0551
   2   2.0000     -11.326338      -308.2053
   3   2.0000     -11.294230      -307.3316
   4   2.0000     -11.279801      -306.9390
   5   2.0000     -11.250924      -306.1532
   6   2.0000     -11.244034      -305.9657
   7   2.0000     -11.229134      -305.5603
   8   2.0000     -11.220515      -305.3257
   9   2.0000      -1.400409       -38.1071
  10   2.0000      -1.374160       -37.3928
  11   2.0000      -1.071089       -29.1458
  12   2.0000      -1.053319       -28.6623
  13   2.0000      -0.973869       -26.5003
  14   2.0000      -0.920891       -25.0587
  15   2.0000      -0.881686       -23.9919
  16   2.0000      -0.791286       -21.5320
  17   2.0000      -0.716282       -19.4910
  18   2.0000      -0.702660       -19.1203
  19   2.0000      -0.666797       -18.1445
  20   2.0000      -0.644692       -17.5430
  21   2.0000      -0.630849       -17.1663
  22   2.0000      -0.615392       -16.7457
  23   2.0000      -0.587739       -15.9932
  24   2.0000      -0.578001       -15.7282
  25   2.0000      -0.566813       -15.4238
  26   2.0000      -0.537745       -14.6328
  27   2.0000      -0.525094       -14.2885
  28   2.0000      -0.517631       -14.0855
  29   2.0000      -0.514652       -14.0044
  30   2.0000      -0.489608       -13.3229
  31   2.0000      -0.466446       -12.6926
  32   2.0000      -0.456066       -12.4102
  33   2.0000      -0.438114       -11.9217
  34   2.0000      -0.393261       -10.7012
  35   0.0000       0.119332         3.2472
  36   0.0000       0.134201         3.6518
  37   0.0000       0.150384         4.0922
  38   0.0000       0.156135         4.2486
  39   0.0000       0.170824         4.6484

MULLIKEN ATOMIC CHARGES
-----------------------
   0 C :   -0.374225
   1 C :   -0.261223
   2 C :    0.136918
   3 O :   -0.279807
   4 C :    0.131546
   5 O :   -0.320708
   6 C :   -0.026245
   7 C :   -0.093864
   8 C :   -0.440957
   9 H :    0.128379
  10 H :    0.142015
  11 H :    0.133856
  12 H :    0.132763
  13 H :    0.139891
  14 H :    0.114165
  15 H :    0.100374
  16 H :    0.096775
  17 H :    0.109855
  18 H :    0.157766
  19 H :    0.130334
  20 H :    0.142393
Sum of atomic charges:    0.0000000

LOEWDIN ATOMIC CHARGES
----------------------
   0 C :   -0.310341
   1 C :   -0.270091
   2 C :   -0.316442
   3 O :    0.169406
   4 C :   -0.245807
   5 O :    0.156124
   6 C :   -0.244429
   7 C :   -0.232462
   8 C :   -0.298808
   9 H :    0.125760
  10 H :    0.129298
  11 H :    0.121414
  12 H :    0.148780
  13 H :    0.153745
  14 H :    0.141359
  15 H :    0.115817
  16 H :    0.123016
  17 H :    0.148357
  18 H :    0.131935
  19 H :    0.124279
  20 H :    0.129090

  Mayer bond orders larger than 0.1
B(  0-C ,  1-C ) :   0.9370 B(  0-C ,  9-H ) :   0.9363 B(  0-C , 10-H ) :   0.9345
B(  0-C , 11-H ) :   0.9390 B(  1-C ,  2-C ) :   0.9109 B(  1-C , 12-H ) :   0.9148
B(  1-C , 13-H ) :   0.9069 B(  2-C ,  3-O ) :   2.0089 B(  2-C ,  4-C ) :   0.8558
B(  4-C ,  5-O ) :   0.9532 B(  4-C ,  7-C ) :   0.9161 B(  4-C , 14-H ) :   0.9013
B(  5-O ,  6-C ) :   0.9480 B(  6-C ,  7-C ) :   0.9835 B(  6-C , 15-H ) :   0.9142
B(  6-C , 16-H ) :   0.9032 B(  7-C ,  8-C ) :   0.9199 B(  7-C , 17-H ) :   0.9273
B(  8-C , 18-H ) :   0.9309 B(  8-C , 19-H ) :   0.9351 B(  8-C , 20-H ) :   0.9327

MP2 TOTAL ENERGY:     -423.514540777 Eh
FINAL SINGLE POINT ENERGY      -423.514540777420

DIPOLE MOMENT
-------------
                                X             Y             Z
Electronic contribution:      0.78775      -1.67736      -7.38232
Nuclear contribution   :     -1.15107       1.00958       8.57894
                        -----------------------------------------
Total Dipole Moment    :     -0.36331      -0.66778       1.19662
                        -----------------------------------------
Magnitude (a.u.)       :      1.41768
Magnitude (Debye)      :      3.60347

                             ****ORCA TERMINATED NORMALLY****
TOTAL RUN TIME: 0 days 0 hours 18 minutes 33 seconds 53 msec
