                         Program Version 3.0.3 - RELEASE   -
|  1> ! RI-MP2 RIJK def2-TZVP def2-TZVP/C def2-TZVP/JK TIGHTSCF
|  2> % maxcore 2000
|  3> % mp2 density relaxed end
|  4> *xyz 0 1
|  5>  O       -0.0481383511    -0.0180538555     0.0389002939
|  6>  C        0.0864039920     1.1773649429     0.0411637090
|  7>  C        1.4058652861     1.9105245471     0.0119724801
|  8>  C        1.5040033632     2.8676960651    -1.2060694444
|  9>  C        2.1086202921     4.1371409669    -0.5909348365
| 10>  O        1.5466052946     4.2031227593     0.7079341872
| 11>  C        1.5437007631     2.8849305285     1.2258776559
| 12>  H       -0.7981720142     1.8591742316     0.0717394660
| 13>  H        2.2060954439     1.1680039468     0.0101732787
| 14>  H        2.0998772124     2.4459268772    -2.0177743259
| 15>  H        0.5053396453     3.0902930422    -1.5981494280
| 16>  H        3.2076077703     4.0615500519    -0.5434690168
| 17>  H        1.8456410450     5.0564261170    -1.1198050044
| 18>  H        0.7163390221     2.8101263486     1.9397588304
| 19>  H        2.4780477049     2.6676855504     1.7633953846
| 20> *
| 21>
| 22>                          ****END OF INPUT****

CARTESIAN COORDINATES (ANGSTROEM)
---------------------------------
  O     -0.048138   -0.018054    0.038900
  C      0.086404    1.177365    0.041164
  C      1.405865    1.910525    0.011972
  C      1.504003    2.867696   -1.206069
  C      2.108620    4.137141   -0.590935
  O      1.546605    4.203123    0.707934
  C      1.543701    2.884931    1.225878
  H     -0.798172    1.859174    0.071739
  H      2.206095    1.168004    0.010173
  H      2.099877    2.445927   -2.017774
  H      0.505340    3.090293   -1.598149
  H      3.207608    4.061550   -0.543469
  H      1.845641    5.056426   -1.119805
  H      0.716339    2.810126    1.939759
  H      2.478048    2.667686    1.763395

 Total Charge           Charge          ....    0
 Multiplicity           Mult            ....    1
 Number of Electrons    NEL             ....   54
 Basis Dimension        Dim             ....  265

ORBITAL ENERGIES
----------------

  NO   OCC          E(Eh)            E(eV)
   0   2.0000     -20.567765      -559.6773
   1   2.0000     -20.560739      -559.4862
   2   2.0000     -11.334922      -308.4389
   3   2.0000     -11.293730      -307.3180
   4   2.0000     -11.288155      -307.1663
   5   2.0000     -11.252860      -306.2059
   6   2.0000     -11.247925      -306.0716
   7   2.0000      -1.400998       -38.1231
   8   2.0000      -1.395189       -37.9650
   9   2.0000      -1.090266       -29.6676
  10   2.0000      -1.015195       -27.6249
  11   2.0000      -0.879114       -23.9219
  12   2.0000      -0.837223       -22.7820
  13   2.0000      -0.790887       -21.5211
  14   2.0000      -0.703213       -19.1354
  15   2.0000      -0.692980       -18.8569
  16   2.0000      -0.651181       -17.7195
  17   2.0000      -0.638245       -17.3675
  18   2.0000      -0.616672       -16.7805
  19   2.0000      -0.574175       -15.6241
  20   2.0000      -0.554683       -15.0937
  21   2.0000      -0.532279       -14.4841
  22   2.0000      -0.510674       -13.8962
  23   2.0000      -0.500801       -13.6275
  24   2.0000      -0.479062       -13.0359
  25   2.0000      -0.437519       -11.9055
  26   2.0000      -0.418940       -11.3999
  27   0.0000       0.125363         3.4113
  28   0.0000       0.134671         3.6646
  29   0.0000       0.157425         4.2838
  30   0.0000       0.172047         4.6816
  31   0.0000       0.185459         5.0466

MULLIKEN ATOMIC CHARGES
-----------------------
   0 O :   -0.257827
   1 C :    0.019857
   2 C :    0.086726
   3 C :   -0.317693
   4 C :   -0.015680
   5 O :   -0.310891
   6 C :   -0.110686
   7 H :    0.084435
   8 H :    0.109289
   9 H :    0.135713
  10 H :    0.122540
  11 H :    0.097051
  12 H :    0.124410
  13 H :    0.127014
  14 H :    0.105740
Sum of atomic charges:    0.0000000

LOEWDIN ATOMIC CHARGES
----------------------
   0 O :    0.135329
   1 C :   -0.287565
   2 C :   -0.240211
   3 C :   -0.231708
   4 C :   -0.309923
   5 O :    0.153639
   6 C :   -0.277323
   7 H :    0.115292
   8 H :    0.155713
   9 H :    0.140235
  10 H :    0.142480
  11 H :    0.120728
  12 H :    0.128547
  13 H :    0.130782
  14 H :    0.123986

  Mayer bond orders larger than 0.1
B(  0-O ,  1-C ) :   1.9954 B(  1-C ,  2-C ) :   0.8395 B(  1-C ,  7-H ) :   0.9367
B(  2-C ,  3-C ) :   0.9004 B(  2-C ,  6-C ) :   0.8905 B(  2-C ,  8-H ) :   0.8988
B(  3-C ,  4-C ) :   0.9381 B(  3-C ,  9-H ) :   0.9225 B(  3-C , 10-H ) :   0.9213
B(  4-C ,  5-O ) :   0.9206 B(  4-C , 11-H ) :   0.9315 B(  4-C , 12-H ) :   0.9251
B(  5-O ,  6-C ) :   0.9466 B(  6-C , 13-H ) :   0.9204 B(  6-C , 14-H ) :   0.9247

MP2 TOTAL ENERGY:     -345.099603924 Eh
FINAL SINGLE POINT ENERGY      -345.099603924263

DIPOLE MOMENT
-------------
                                X             Y             Z
Electronic contribution:     -2.26897      -2.68241       1.35305
Nuclear contribution   :      2.78033       3.26164      -1.70839
                        -----------------------------------------
Total Dipole Moment    :      0.51136       0.57923      -0.35534
                        -----------------------------------------
Magnitude (a.u.)       :      0.85045
Magnitude (Debye)      :      2.16167

                             ****ORCA TERMINATED NORMALLY****
TOTAL RUN TIME: 0 days 0 hours 12 minutes 4 seconds 248 msec
