                         Program Version 3.0.3 - RELEASE   -
|  1> ! RI-MP2 RIJK def2-TZVP def2-TZVP/C def2-TZVP/JK TIGHTSCF
|  2> % maxcore 2000
|  3> % mp2 density relaxed end
|  4> *xyz 0 1
|  5>  C       -0.3357091671     1.4700997794    -0.0330365726
|  6>  N        0.0377848025     0.0587332251     0.0296742479
|  7>  C        1.3591114423    -0.4319143474    -0.3148564285
|  8>  C        2.5362857508     0.5239737485    -0.2739788627
|  9>  O        2.4747621158     1.1922446127     0.9902495316
| 10>  C        1.7642654054     0.3754339246     1.9122139853
| 11>  C        1.0753951620     1.2362319581     2.8856724187
| 12>  N        0.5253440420     1.8733005872     3.6764915282
| 13>  C        0.8398540754    -0.5195637079     1.0849812650
| 14>  H        0.4559629616     2.1748929527     0.2456467040
| 15>  H       -0.6586232859     1.6872490936    -1.0555616313
| 16>  H       -1.1899394936     1.6286750789     0.6303496737
| 17>  H        1.4094124539    -1.2838564274    -0.9877323331
| 18>  H        3.4760950736    -0.0387292991    -0.3763845063
| 19>  H        2.5127060008     1.3003917524    -1.0455335670
| 20>  H        2.4523147730    -0.2735595729     2.4794930034
| 21>  H        0.4738461476    -1.4279786884     1.5548061537
| 22> *
| 23>
| 24>                          ****END OF INPUT****

CARTESIAN COORDINATES (ANGSTROEM)
---------------------------------
  C     -0.335709    1.470100   -0.033037
  N      0.037785    0.058733    0.029674
  C      1.359111   -0.431914   -0.314856
  C      2.536286    0.523974   -0.273979
  O      2.474762    1.192245    0.990250
  C      1.764265    0.375434    1.912214
  C      1.075395    1.236232    2.885672
  N      0.525344    1.873301    3.676492
  C      0.839854   -0.519564    1.084981
  H      0.455963    2.174893    0.245647
  H     -0.658623    1.687249   -1.055562
  H     -1.189939    1.628675    0.630350
  H      1.409412   -1.283856   -0.987732
  H      3.476095   -0.038729   -0.376385
  H      2.512706    1.300392   -1.045534
  H      2.452315   -0.273560    2.479493
  H      0.473846   -1.427979    1.554806

 Total Charge           Charge          ....    0
 Multiplicity           Mult            ....    1
 Number of Electrons    NEL             ....   66
 Basis Dimension        Dim             ....  327

ORBITAL ENERGIES
----------------

  NO   OCC          E(Eh)            E(eV)
   0   2.0000     -20.592058      -560.3384
   1   2.0000     -15.580298      -423.9614
   2   2.0000     -15.578567      -423.9144
   3   2.0000     -11.348680      -308.8133
   4   2.0000     -11.305622      -307.6416
   5   2.0000     -11.290635      -307.2338
   6   2.0000     -11.284552      -307.0683
   7   2.0000     -11.277842      -306.8857
   8   2.0000     -11.253100      -306.2124
   9   2.0000      -1.423246       -38.7285
  10   2.0000      -1.293742       -35.2045
  11   2.0000      -1.223978       -33.3061
  12   2.0000      -1.056269       -28.7425
  13   2.0000      -1.029906       -28.0252
  14   2.0000      -0.936436       -25.4817
  15   2.0000      -0.842328       -22.9209
  16   2.0000      -0.806453       -21.9447
  17   2.0000      -0.744112       -20.2483
  18   2.0000      -0.734174       -19.9779
  19   2.0000      -0.666089       -18.1252
  20   2.0000      -0.653605       -17.7855
  21   2.0000      -0.631259       -17.1774
  22   2.0000      -0.592009       -16.1094
  23   2.0000      -0.578428       -15.7398
  24   2.0000      -0.572880       -15.5889
  25   2.0000      -0.554916       -15.1000
  26   2.0000      -0.546966       -14.8837
  27   2.0000      -0.494082       -13.4447
  28   2.0000      -0.482052       -13.1173
  29   2.0000      -0.469325       -12.7710
  30   2.0000      -0.462409       -12.5828
  31   2.0000      -0.443753       -12.0751
  32   2.0000      -0.388017       -10.5585
  33   0.0000       0.124912         3.3990
  34   0.0000       0.148890         4.0515
  35   0.0000       0.158574         4.3150
  36   0.0000       0.160210         4.3595
  37   0.0000       0.172169         4.6850

MULLIKEN ATOMIC CHARGES
-----------------------
   0 C :   -0.328632
   1 N :   -0.209332
   2 C :   -0.090740
   3 C :   -0.043620
   4 O :   -0.305474
   5 C :    0.139263
   6 C :   -0.155508
   7 N :   -0.049532
   8 C :   -0.072798
   9 H :    0.149619
  10 H :    0.144956
  11 H :    0.152821
  12 H :    0.142446
  13 H :    0.115136
  14 H :    0.135249
  15 H :    0.125561
  16 H :    0.150584
Sum of atomic charges:   -0.0000000

LOEWDIN ATOMIC CHARGES
----------------------
   0 C :   -0.315735
   1 N :    0.130959
   2 C :   -0.235441
   3 C :   -0.277836
   4 O :    0.185968
   5 C :   -0.289931
   6 C :   -0.158002
   7 N :    0.076343
   8 C :   -0.206298
   9 H :    0.116807
  10 H :    0.121051
  11 H :    0.126250
  12 H :    0.144334
  13 H :    0.131417
  14 H :    0.135113
  15 H :    0.167456
  16 H :    0.147543

  Mayer bond orders larger than 0.1
B(  0-C ,  1-N ) :   0.8635 B(  0-C ,  9-H ) :   0.9164 B(  0-C , 10-H ) :   0.9315
B(  0-C , 11-H ) :   0.9335 B(  1-N ,  2-C ) :   0.9276 B(  1-N ,  8-C ) :   0.9674
B(  2-C ,  3-C ) :   0.9516 B(  2-C ,  8-C ) :   0.8734 B(  2-C , 12-H ) :   0.9136
B(  3-C ,  4-O ) :   0.8918 B(  3-C , 13-H ) :   0.9211 B(  3-C , 14-H ) :   0.9207
B(  4-O ,  5-C ) :   0.9844 B(  5-C ,  6-C ) :   0.9237 B(  5-C ,  8-C ) :   0.9024
B(  5-C , 15-H ) :   0.8954 B(  6-C ,  7-N ) :   2.8471 B(  8-C , 16-H ) :   0.9098

MP2 TOTAL ENERGY:     -417.275495676 Eh
FINAL SINGLE POINT ENERGY      -417.275495676492

DIPOLE MOMENT
-------------
                                X             Y             Z
Electronic contribution:      0.96686       0.38817       5.49006
Nuclear contribution   :     -0.28228      -1.40085      -6.64144
                        -----------------------------------------
Total Dipole Moment    :      0.68458      -1.01268      -1.15138
                        -----------------------------------------
Magnitude (a.u.)       :      1.67924
Magnitude (Debye)      :      4.26829

                             ****ORCA TERMINATED NORMALLY****
TOTAL RUN TIME: 0 days 0 hours 18 minutes 16 seconds 76 msec
