                         Program Version 3.0.3 - RELEASE   -
|  1> ! RI-MP2 RIJK def2-TZVP def2-TZVP/C def2-TZVP/JK TIGHTSCF
|  2> % maxcore 2000
|  3> % mp2 density relaxed end
|  4> *xyz 0 1
|  5>  C        0.0299649668     1.5080016295     0.0715954966
|  6>  C        1.3567096618     0.7842614164    -0.0118586334
|  7>  O        2.1342178903     0.2923639006     1.0570287125
|  8>  C        1.6015871145    -1.0376295712     1.2714265611
|  9>  C        0.1023308095    -0.7504278503     1.2879334384
| 10>  C        0.0668804153     0.0020524714    -0.0627655615
| 11>  C        0.0022124074    -0.9795787784    -1.1850816909
| 12>  C        0.9024936996    -1.9644741398    -1.0677511811
| 13>  C        1.9023042928    -2.0142685901     0.0863513739
| 14>  H       -0.3343845924     1.8970615464     1.0167871799
| 15>  H       -0.2084224408     2.1280222304    -0.7887679009
| 16>  H        1.9195122812     0.9238931540    -0.9300720956
| 17>  H        2.0421313964    -1.4046713773     2.2022930023
| 18>  H       -0.5355217387    -1.6360961456     1.2797838079
| 19>  H       -0.1590166442    -0.1173253983     2.1395485676
| 20>  H       -0.7225969407    -0.9306279862    -1.9920612302
| 21>  H        0.9403094565    -2.7826887000    -1.7820964528
| 22>  H        2.9185703730    -1.8116841016    -0.2776737669
| 23>  H        1.9304219018    -3.0390521598     0.4806457330
| 24> *
| 25>
| 26>                          ****END OF INPUT****

CARTESIAN COORDINATES (ANGSTROEM)
---------------------------------
  C      0.029965    1.508002    0.071595
  C      1.356710    0.784261   -0.011859
  O      2.134218    0.292364    1.057029
  C      1.601587   -1.037630    1.271427
  C      0.102331   -0.750428    1.287933
  C      0.066880    0.002052   -0.062766
  C      0.002212   -0.979579   -1.185082
  C      0.902494   -1.964474   -1.067751
  C      1.902304   -2.014269    0.086351
  H     -0.334385    1.897062    1.016787
  H     -0.208422    2.128022   -0.788768
  H      1.919512    0.923893   -0.930072
  H      2.042131   -1.404671    2.202293
  H     -0.535522   -1.636096    1.279784
  H     -0.159017   -0.117325    2.139549
  H     -0.722597   -0.930628   -1.992061
  H      0.940309   -2.782689   -1.782096
  H      2.918570   -1.811684   -0.277674
  H      1.930422   -3.039052    0.480646

 Total Charge           Charge          ....    0
 Multiplicity           Mult            ....    1
 Number of Electrons    NEL             ....   66
 Basis Dimension        Dim             ....  339

ORBITAL ENERGIES
----------------

  NO   OCC          E(Eh)            E(eV)
   0   2.0000     -20.552717      -559.2679
   1   2.0000     -11.282895      -307.0232
   2   2.0000     -11.270214      -306.6781
   3   2.0000     -11.241595      -305.8993
   4   2.0000     -11.234934      -305.7181
   5   2.0000     -11.232179      -305.6431
   6   2.0000     -11.232011      -305.6386
   7   2.0000     -11.229150      -305.5607
   8   2.0000     -11.223352      -305.4029
   9   2.0000      -1.380348       -37.5612
  10   2.0000      -1.154281       -31.4096
  11   2.0000      -1.083015       -29.4703
  12   2.0000      -1.005415       -27.3587
  13   2.0000      -0.951576       -25.8937
  14   2.0000      -0.838467       -22.8158
  15   2.0000      -0.819587       -22.3021
  16   2.0000      -0.763839       -20.7851
  17   2.0000      -0.732387       -19.9293
  18   2.0000      -0.679809       -18.4985
  19   2.0000      -0.658864       -17.9286
  20   2.0000      -0.623835       -16.9754
  21   2.0000      -0.602758       -16.4019
  22   2.0000      -0.592496       -16.1226
  23   2.0000      -0.569209       -15.4890
  24   2.0000      -0.533177       -14.5085
  25   2.0000      -0.532547       -14.4913
  26   2.0000      -0.520438       -14.1618
  27   2.0000      -0.505834       -13.7644
  28   2.0000      -0.463288       -12.6067
  29   2.0000      -0.444822       -12.1042
  30   2.0000      -0.415209       -11.2984
  31   2.0000      -0.393277       -10.7016
  32   2.0000      -0.328298        -8.9334
  33   0.0000       0.141088         3.8392
  34   0.0000       0.144788         3.9399
  35   0.0000       0.164480         4.4757
  36   0.0000       0.174945         4.7605
  37   0.0000       0.177310         4.8249

MULLIKEN ATOMIC CHARGES
-----------------------
   0 C :   -0.251866
   1 C :   -0.014342
   2 O :   -0.316392
   3 C :    0.124208
   4 C :   -0.278142
   5 C :    0.249274
   6 C :   -0.372826
   7 C :   -0.113563
   8 C :   -0.256190
   9 H :    0.130183
  10 H :    0.131999
  11 H :    0.107778
  12 H :    0.114072
  13 H :    0.130311
  14 H :    0.110333
  15 H :    0.121746
  16 H :    0.122805
  17 H :    0.131845
  18 H :    0.128766
Sum of atomic charges:   -0.0000000

LOEWDIN ATOMIC CHARGES
----------------------
   0 C :   -0.177280
   1 C :   -0.247612
   2 O :    0.183401
   3 C :   -0.276569
   4 C :   -0.180093
   5 C :   -0.210120
   6 C :   -0.136747
   7 C :   -0.157515
   8 C :   -0.217501
   9 H :    0.139384
  10 H :    0.138768
  11 H :    0.140132
  12 H :    0.138567
  13 H :    0.145338
  14 H :    0.140902
  15 H :    0.139845
  16 H :    0.139090
  17 H :    0.150958
  18 H :    0.147052

  Mayer bond orders larger than 0.1
B(  0-C ,  1-C ) :   0.9055 B(  0-C ,  5-C ) :   0.9045 B(  0-C ,  9-H ) :   0.8920
B(  0-C , 10-H ) :   0.9134 B(  1-C ,  2-O ) :   0.9961 B(  1-C ,  5-C ) :   0.7980
B(  1-C , 11-H ) :   0.9384 B(  2-O ,  3-C ) :   0.9138 B(  3-C ,  4-C ) :   0.9667
B(  3-C ,  8-C ) :   0.9246 B(  3-C , 12-H ) :   0.9269 B(  4-C ,  5-C ) :   0.8955
B(  4-C , 13-H ) :   0.9230 B(  4-C , 14-H ) :   0.9013 B(  5-C ,  6-C ) :   0.8963
B(  6-C ,  7-C ) :   1.7793 B(  6-C , 15-H ) :   0.9378 B(  7-C ,  8-C ) :   0.9494
B(  7-C , 16-H ) :   0.9303 B(  8-C , 17-H ) :   0.9056 B(  8-C , 18-H ) :   0.9122

MP2 TOTAL ENERGY:     -385.183412570 Eh
FINAL SINGLE POINT ENERGY      -385.183412570383

DIPOLE MOMENT
-------------
                                X             Y             Z
Electronic contribution:      1.03119       1.69282       0.28217
Nuclear contribution   :     -1.39965      -2.07178      -0.48479
                        -----------------------------------------
Total Dipole Moment    :     -0.36846      -0.37896      -0.20262
                        -----------------------------------------
Magnitude (a.u.)       :      0.56607
Magnitude (Debye)      :      1.43882

                             ****ORCA TERMINATED NORMALLY****
TOTAL RUN TIME: 0 days 0 hours 18 minutes 49 seconds 805 msec
