                         Program Version 3.0.3 - RELEASE   -
|  1> ! RI-MP2 RIJK def2-TZVP def2-TZVP/C def2-TZVP/JK TIGHTSCF
|  2> % maxcore 2000
|  3> % mp2 density relaxed end
|  4> *xyz 0 1
|  5>  O       -0.1299193481     0.0180283499    -0.2371809187
|  6>  C       -0.1282603412     1.1891460771     0.0533546479
|  7>  C        1.1020707656     2.0022238819    -0.0150306360
|  8>  N        2.0732709193     2.6213047140    -0.1088255914
|  9>  N       -1.1991136744     1.8987398413     0.5463150042
| 10>  C       -1.8048927237     3.0765100272    -0.0515431860
| 11>  C       -2.5506815298     1.7756310251     0.0529152349
| 12>  H       -2.0297793534     3.8869739123     0.6344174721
| 13>  H       -1.4492594873     3.3808593619    -1.0320295915
| 14>  H       -2.6913535796     1.1881170497    -0.8498389445
| 15>  H       -3.3183551374     1.6586353996     0.8113535892
| 16> *
| 17>
| 18>                          ****END OF INPUT****

CARTESIAN COORDINATES (ANGSTROEM)
---------------------------------
  O     -0.129919    0.018028   -0.237181
  C     -0.128260    1.189146    0.053355
  C      1.102071    2.002224   -0.015031
  N      2.073271    2.621305   -0.108826
  N     -1.199114    1.898740    0.546315
  C     -1.804893    3.076510   -0.051543
  C     -2.550682    1.775631    0.052915
  H     -2.029779    3.886974    0.634417
  H     -1.449259    3.380859   -1.032030
  H     -2.691354    1.188117   -0.849839
  H     -3.318355    1.658635    0.811354

 Total Charge           Charge          ....    0
 Multiplicity           Mult            ....    1
 Number of Electrons    NEL             ....   50
 Basis Dimension        Dim             ....  241

ORBITAL ENERGIES
----------------

  NO   OCC          E(Eh)            E(eV)
   0   2.0000     -20.583342      -560.1012
   1   2.0000     -15.623221      -425.1294
   2   2.0000     -15.609558      -424.7577
   3   2.0000     -11.421298      -310.7893
   4   2.0000     -11.311003      -307.7880
   5   2.0000     -11.305369      -307.6347
   6   2.0000     -11.299808      -307.4834
   7   2.0000      -1.444452       -39.3055
   8   2.0000      -1.331186       -36.2234
   9   2.0000      -1.245970       -33.9046
  10   2.0000      -1.048613       -28.5342
  11   2.0000      -0.907142       -24.6846
  12   2.0000      -0.873080       -23.7577
  13   2.0000      -0.768834       -20.9210
  14   2.0000      -0.719493       -19.5784
  15   2.0000      -0.698327       -19.0024
  16   2.0000      -0.604526       -16.4500
  17   2.0000      -0.598649       -16.2901
  18   2.0000      -0.575366       -15.6565
  19   2.0000      -0.551106       -14.9964
  20   2.0000      -0.545678       -14.8486
  21   2.0000      -0.501765       -13.6537
  22   2.0000      -0.491305       -13.3691
  23   2.0000      -0.481298       -13.0968
  24   2.0000      -0.432965       -11.7816
  25   0.0000       0.070006         1.9050
  26   0.0000       0.133771         3.6401
  27   0.0000       0.147765         4.0209
  28   0.0000       0.166451         4.5293
  29   0.0000       0.174429         4.7465

MULLIKEN ATOMIC CHARGES
-----------------------
   0 O :   -0.263666
   1 C :    0.341270
   2 C :   -0.144102
   3 N :   -0.049159
   4 N :   -0.178528
   5 C :   -0.170212
   6 C :   -0.158003
   7 H :    0.151159
   8 H :    0.161008
   9 H :    0.157392
  10 H :    0.152841
Sum of atomic charges:   -0.0000000

LOEWDIN ATOMIC CHARGES
----------------------
   0 O :    0.174540
   1 C :   -0.437227
   2 C :   -0.130368
   3 N :    0.095574
   4 N :    0.188387
   5 C :   -0.214059
   6 C :   -0.216396
   7 H :    0.133563
   8 H :    0.135246
   9 H :    0.135908
  10 H :    0.134834

  Mayer bond orders larger than 0.1
B(  0-O ,  1-C ) :   1.9753 B(  1-C ,  2-C ) :   0.8825 B(  1-C ,  4-N ) :   1.0809
B(  2-C ,  3-N ) :   2.7841 B(  4-N ,  5-C ) :   0.8410 B(  4-N ,  6-C ) :   0.8592
B(  5-C ,  6-C ) :   0.9215 B(  5-C ,  7-H ) :   0.9253 B(  5-C ,  8-H ) :   0.9202
B(  6-C ,  9-H ) :   0.9265 B(  6-C , 10-H ) :   0.9217

MP2 TOTAL ENERGY:     -338.860495280 Eh
FINAL SINGLE POINT ENERGY      -338.860495279916

DIPOLE MOMENT
-------------
                                X             Y             Z
Electronic contribution:      5.58192      -2.17093       0.41754
Nuclear contribution   :     -7.32563       2.81351      -0.50345
                        -----------------------------------------
Total Dipole Moment    :     -1.74370       0.64258      -0.08591
                        -----------------------------------------
Magnitude (a.u.)       :      1.86032
Magnitude (Debye)      :      4.72856

                             ****ORCA TERMINATED NORMALLY****
TOTAL RUN TIME: 0 days 0 hours 6 minutes 26 seconds 406 msec
