                         Program Version 3.0.3 - RELEASE   -
|  1> ! RI-MP2 RIJK def2-TZVP def2-TZVP/C def2-TZVP/JK TIGHTSCF
|  2> % maxcore 2000
|  3> % mp2 density relaxed end
|  4> *xyz 0 1
|  5>  C       -0.0636260086     1.5072435422     0.0349727142
|  6>  C       -0.0117674703    -0.0098587972    -0.0439725311
|  7>  O       -1.2698014451    -0.5571089166    -0.3304096895
|  8>  C        1.2257791918    -0.6592383688    -0.7023817455
|  9>  O        2.0588759699    -0.1339651447     0.4508619169
| 10>  C        0.8171196252    -0.7610321920     1.0584991846
| 11>  C        0.1049449483    -1.7026931618     2.0518679190
| 12>  O       -0.0950547762    -2.6038693040     0.8957822913
| 13>  C        1.0383981732    -1.9483776501     0.2148644888
| 14>  H        0.9071058422     1.9251810695     0.2972726498
| 15>  H       -0.3680288054     1.9242713986    -0.9336605602
| 16>  H       -0.8033235501     1.8159005431     0.7810179392
| 17>  H       -1.7702730789     0.0981350015    -0.8261773601
| 18>  H        1.6862925057    -0.5219536793    -1.6856382185
| 19>  H        0.7348641058    -2.1679528635     2.8169944869
| 20>  H       -0.8466323807    -1.3577688014     2.4638740562
| 21>  H        1.9544025533    -2.5286455055     0.3361697882
| 22> *
| 23>
| 24>                          ****END OF INPUT****

CARTESIAN COORDINATES (ANGSTROEM)
---------------------------------
  C     -0.063626    1.507244    0.034973
  C     -0.011767   -0.009859   -0.043973
  O     -1.269801   -0.557109   -0.330410
  C      1.225779   -0.659238   -0.702382
  O      2.058876   -0.133965    0.450862
  C      0.817120   -0.761032    1.058499
  C      0.104945   -1.702693    2.051868
  O     -0.095055   -2.603869    0.895782
  C      1.038398   -1.948378    0.214864
  H      0.907106    1.925181    0.297273
  H     -0.368029    1.924271   -0.933661
  H     -0.803324    1.815901    0.781018
  H     -1.770273    0.098135   -0.826177
  H      1.686293   -0.521954   -1.685638
  H      0.734864   -2.167953    2.816994
  H     -0.846632   -1.357769    2.463874
  H      1.954403   -2.528646    0.336170

 Total Charge           Charge          ....    0
 Multiplicity           Mult            ....    1
 Number of Electrons    NEL             ....   68
 Basis Dimension        Dim             ....  327

ORBITAL ENERGIES
----------------

  NO   OCC          E(Eh)            E(eV)
   0   2.0000     -20.575011      -559.8745
   1   2.0000     -20.569049      -559.7123
   2   2.0000     -20.564844      -559.5979
   3   2.0000     -11.320546      -308.0477
   4   2.0000     -11.310630      -307.7779
   5   2.0000     -11.308606      -307.7228
   6   2.0000     -11.303430      -307.5820
   7   2.0000     -11.286391      -307.1183
   8   2.0000     -11.229153      -305.5608
   9   2.0000      -1.423308       -38.7302
  10   2.0000      -1.373824       -37.3837
  11   2.0000      -1.356277       -36.9062
  12   2.0000      -1.067816       -29.0568
  13   2.0000      -1.002233       -27.2722
  14   2.0000      -0.964403       -26.2427
  15   2.0000      -0.881470       -23.9860
  16   2.0000      -0.846626       -23.0379
  17   2.0000      -0.737767       -20.0757
  18   2.0000      -0.697888       -18.9905
  19   2.0000      -0.685681       -18.6583
  20   2.0000      -0.646667       -17.5967
  21   2.0000      -0.641767       -17.4634
  22   2.0000      -0.618740       -16.8368
  23   2.0000      -0.596514       -16.2320
  24   2.0000      -0.579883       -15.7794
  25   2.0000      -0.553316       -15.0565
  26   2.0000      -0.533539       -14.5183
  27   2.0000      -0.518019       -14.0960
  28   2.0000      -0.508507       -13.8372
  29   2.0000      -0.497312       -13.5326
  30   2.0000      -0.466582       -12.6964
  31   2.0000      -0.429101       -11.6764
  32   2.0000      -0.412918       -11.2361
  33   2.0000      -0.383449       -10.4342
  34   0.0000       0.125528         3.4158
  35   0.0000       0.141338         3.8460
  36   0.0000       0.166625         4.5341
  37   0.0000       0.170522         4.6401
  38   0.0000       0.186658         5.0792

MULLIKEN ATOMIC CHARGES
-----------------------
   0 C :   -0.482480
   1 C :    0.162928
   2 O :   -0.427530
   3 C :   -0.005041
   4 O :   -0.313783
   5 C :    0.102322
   6 C :   -0.029421
   7 O :   -0.295841
   8 C :    0.010329
   9 H :    0.169285
  10 H :    0.131854
  11 H :    0.148475
  12 H :    0.319044
  13 H :    0.145760
  14 H :    0.123095
  15 H :    0.124506
  16 H :    0.116500
Sum of atomic charges:    0.0000000

LOEWDIN ATOMIC CHARGES
----------------------
   0 C :   -0.282211
   1 C :   -0.338950
   2 O :    0.039951
   3 C :   -0.153870
   4 O :    0.131495
   5 C :   -0.219947
   6 C :   -0.207448
   7 O :    0.131580
   8 C :   -0.198371
   9 H :    0.138994
  10 H :    0.126665
  11 H :    0.130323
  12 H :    0.180345
  13 H :    0.124579
  14 H :    0.127256
  15 H :    0.129238
  16 H :    0.140370

  Mayer bond orders larger than 0.1
B(  0-C ,  1-C ) :   0.8863 B(  0-C ,  9-H ) :   0.9231 B(  0-C , 10-H ) :   0.9273
B(  0-C , 11-H ) :   0.9398 B(  1-C ,  2-O ) :   1.1286 B(  1-C ,  3-C ) :   0.8964
B(  1-C ,  5-C ) :   0.8622 B(  2-O , 12-H ) :   0.8340 B(  3-C ,  4-O ) :   0.8600
B(  3-C ,  8-C ) :   0.8661 B(  3-C , 13-H ) :   0.8690 B(  4-O ,  5-C ) :   0.8525
B(  5-C ,  6-C ) :   0.8838 B(  5-C ,  8-C ) :   0.9398 B(  6-C ,  7-O ) :   0.9167
B(  6-C , 14-H ) :   0.9163 B(  6-C , 15-H ) :   0.9010 B(  7-O ,  8-C ) :   0.9243
B(  8-C , 16-H ) :   0.9427

MP2 TOTAL ENERGY:     -458.046794531 Eh
FINAL SINGLE POINT ENERGY      -458.046794531270

DIPOLE MOMENT
-------------
                                X             Y             Z
Electronic contribution:      1.29552      -4.10059      -0.17684
Nuclear contribution   :     -1.53242       4.87263       0.06298
                        -----------------------------------------
Total Dipole Moment    :     -0.23690       0.77204      -0.11386
                        -----------------------------------------
Magnitude (a.u.)       :      0.81556
Magnitude (Debye)      :      2.07298

                             ****ORCA TERMINATED NORMALLY****
TOTAL RUN TIME: 0 days 0 hours 18 minutes 30 seconds 0 msec
