                         Program Version 3.0.3 - RELEASE   -
|  1> ! RI-MP2 RIJK def2-TZVP def2-TZVP/C def2-TZVP/JK TIGHTSCF
|  2> % maxcore 2000
|  3> % mp2 density relaxed end
|  4> *xyz 0 1
|  5>  C       -0.0589507212     1.5306547373     0.0237025315
|  6>  C        0.0447573799     0.0036159875    -0.0016885978
|  7>  C        0.9011501871    -0.5655815381    -1.1571564754
|  8>  C        2.3533653316    -0.2490531981    -0.7070988727
|  9>  C        2.2987768818    -0.2774961178     0.8497489352
| 10>  C        0.8231559978    -0.5939450529     1.1872981553
| 11>  O        0.5653873054    -1.9979714544     1.2642399588
| 12>  C        1.0263448749    -2.7340102614     0.1393030470
| 13>  C        0.6507045793    -2.0867785871    -1.2029145447
| 14>  H        0.9209767644     2.0169483057     0.0518698861
| 15>  H       -0.5809362480     1.8974081946    -0.8665904514
| 16>  H       -0.6205655193     1.8698571411     0.9009617833
| 17>  H       -0.9658819592    -0.4186258669    -0.0167689584
| 18>  H        0.6635380338    -0.1157585141    -2.1264169556
| 19>  H        3.0680999772    -0.9719040166    -1.1123454683
| 20>  H        2.6627662875     0.7345088754    -1.0708852223
| 21>  H        2.9652937452    -1.0216435528     1.2930138919
| 22>  H        2.5774282653     0.6904044623     1.2752815950
| 23>  H        0.5143799384    -0.1986206077     2.1588043783
| 24>  H        2.1192014621    -2.8614976301     0.1918688284
| 25>  H        0.5849471976    -3.7306553175     0.2332045705
| 26>  H       -0.4074747938    -2.2696832847    -1.4233134273
| 27>  H        1.2359666723    -2.5595065536    -2.0010480076
| 28> *
| 29>
| 30>                          ****END OF INPUT****

CARTESIAN COORDINATES (ANGSTROEM)
---------------------------------
  C     -0.058951    1.530655    0.023703
  C      0.044757    0.003616   -0.001689
  C      0.901150   -0.565582   -1.157156
  C      2.353365   -0.249053   -0.707099
  C      2.298777   -0.277496    0.849749
  C      0.823156   -0.593945    1.187298
  O      0.565387   -1.997971    1.264240
  C      1.026345   -2.734010    0.139303
  C      0.650705   -2.086779   -1.202915
  H      0.920977    2.016948    0.051870
  H     -0.580936    1.897408   -0.866590
  H     -0.620566    1.869857    0.900962
  H     -0.965882   -0.418626   -0.016769
  H      0.663538   -0.115759   -2.126417
  H      3.068100   -0.971904   -1.112345
  H      2.662766    0.734509   -1.070885
  H      2.965294   -1.021644    1.293014
  H      2.577428    0.690404    1.275282
  H      0.514380   -0.198621    2.158804
  H      2.119201   -2.861498    0.191869
  H      0.584947   -3.730655    0.233205
  H     -0.407475   -2.269683   -1.423313
  H      1.235967   -2.559507   -2.001048

 Total Charge           Charge          ....    0
 Multiplicity           Mult            ....    1
 Number of Electrons    NEL             ....   70
 Basis Dimension        Dim             ....  363

ORBITAL ENERGIES
----------------

  NO   OCC          E(Eh)            E(eV)
   0   2.0000     -20.541682      -558.9676
   1   2.0000     -11.268263      -306.6250
   2   2.0000     -11.266327      -306.5723
   3   2.0000     -11.224322      -305.4293
   4   2.0000     -11.218757      -305.2779
   5   2.0000     -11.218471      -305.2701
   6   2.0000     -11.218344      -305.2667
   7   2.0000     -11.216452      -305.2152
   8   2.0000     -11.214753      -305.1689
   9   2.0000      -1.363297       -37.0972
  10   2.0000      -1.126766       -30.6609
  11   2.0000      -1.038009       -28.2457
  12   2.0000      -0.999999       -27.2114
  13   2.0000      -0.919203       -25.0128
  14   2.0000      -0.910802       -24.7842
  15   2.0000      -0.826010       -22.4769
  16   2.0000      -0.771709       -20.9993
  17   2.0000      -0.730697       -19.8833
  18   2.0000      -0.684417       -18.6239
  19   2.0000      -0.665949       -18.1214
  20   2.0000      -0.605728       -16.4827
  21   2.0000      -0.604657       -16.4536
  22   2.0000      -0.578996       -15.7553
  23   2.0000      -0.576437       -15.6856
  24   2.0000      -0.550075       -14.9683
  25   2.0000      -0.546182       -14.8624
  26   2.0000      -0.542363       -14.7585
  27   2.0000      -0.520834       -14.1726
  28   2.0000      -0.482971       -13.1423
  29   2.0000      -0.479413       -13.0455
  30   2.0000      -0.464366       -12.6360
  31   2.0000      -0.445032       -12.1099
  32   2.0000      -0.439453       -11.9581
  33   2.0000      -0.430107       -11.7038
  34   2.0000      -0.390117       -10.6156
  35   0.0000       0.131071         3.5666
  36   0.0000       0.152926         4.1613
  37   0.0000       0.162082         4.4105
  38   0.0000       0.173863         4.7311
  39   0.0000       0.183596         4.9959

MULLIKEN ATOMIC CHARGES
-----------------------
   0 C :   -0.445711
   1 C :   -0.076617
   2 C :    0.032153
   3 C :   -0.318240
   4 C :   -0.317602
   5 C :    0.116701
   6 O :   -0.318098
   7 C :   -0.080886
   8 C :   -0.275390
   9 H :    0.131471
  10 H :    0.134368
  11 H :    0.136357
  12 H :    0.095881
  13 H :    0.107587
  14 H :    0.125279
  15 H :    0.127907
  16 H :    0.132091
  17 H :    0.131498
  18 H :    0.110964
  19 H :    0.093848
  20 H :    0.125970
  21 H :    0.110499
  22 H :    0.119971
Sum of atomic charges:    0.0000000

LOEWDIN ATOMIC CHARGES
----------------------
   0 C :   -0.286272
   1 C :   -0.236526
   2 C :   -0.223211
   3 C :   -0.231767
   4 C :   -0.236276
   5 C :   -0.283194
   6 O :    0.167213
   7 C :   -0.313011
   8 C :   -0.246408
   9 H :    0.124611
  10 H :    0.125355
  11 H :    0.125500
  12 H :    0.154030
  13 H :    0.146129
  14 H :    0.135115
  15 H :    0.133668
  16 H :    0.138699
  17 H :    0.137619
  18 H :    0.141305
  19 H :    0.120371
  20 H :    0.129045
  21 H :    0.138732
  22 H :    0.139274

  Mayer bond orders larger than 0.1
B(  0-C ,  1-C ) :   0.8804 B(  0-C ,  9-H ) :   0.9328 B(  0-C , 10-H ) :   0.9387
B(  0-C , 11-H ) :   0.9429 B(  1-C ,  2-C ) :   0.8900 B(  1-C ,  5-C ) :   0.9263
B(  1-C , 12-H ) :   0.9227 B(  2-C ,  3-C ) :   0.8957 B(  2-C ,  8-C ) :   0.9027
B(  2-C , 13-H ) :   0.9279 B(  3-C ,  4-C ) :   0.9446 B(  3-C , 14-H ) :   0.9376
B(  3-C , 15-H ) :   0.9296 B(  4-C ,  5-C ) :   0.8872 B(  4-C , 16-H ) :   0.9352
B(  4-C , 17-H ) :   0.9253 B(  5-C ,  6-O ) :   0.9341 B(  5-C , 18-H ) :   0.9309
B(  6-O ,  7-C ) :   0.9447 B(  7-C ,  8-C ) :   0.9545 B(  7-C , 19-H ) :   0.9345
B(  7-C , 20-H ) :   0.9290 B(  8-C , 21-H ) :   0.9221 B(  8-C , 22-H ) :   0.9254

MP2 TOTAL ENERGY:     -387.648452454 Eh
FINAL SINGLE POINT ENERGY      -387.648452454401

DIPOLE MOMENT
-------------
                                X             Y             Z
Electronic contribution:     -1.08176      -3.46253       2.61764
Nuclear contribution   :      1.28353       3.74318      -3.09468
                        -----------------------------------------
Total Dipole Moment    :      0.20177       0.28065      -0.47704
                        -----------------------------------------
Magnitude (a.u.)       :      0.58910
Magnitude (Debye)      :      1.49737

                             ****ORCA TERMINATED NORMALLY****
TOTAL RUN TIME: 0 days 0 hours 23 minutes 49 seconds 926 msec
