                         Program Version 3.0.3 - RELEASE   -
|  1> ! RI-MP2 RIJK def2-TZVP def2-TZVP/C def2-TZVP/JK TIGHTSCF
|  2> % maxcore 2000
|  3> % mp2 density relaxed end
|  4> *xyz 0 1
|  5>  C        0.0573438098     1.4533953497     0.0815766530
|  6>  C       -0.0391161507    -0.0345493736    -0.0520605751
|  7>  C        0.5744898470    -0.9773221507    -1.1228392211
|  8>  C        0.0104874990    -1.8281660863     0.0328660071
|  9>  O        0.6161509961    -0.8806709976     0.9931651575
| 10>  C       -1.2876035444    -0.9725556485     0.0225332634
| 11>  C       -2.1626173296    -0.9412356783     1.2617889758
| 12>  O       -3.0092945799    -2.0834931394     1.3457046526
| 13>  H        1.1049806430     1.7689155493     0.0850810080
| 14>  H       -0.4486791035     1.9410789565    -0.7575976384
| 15>  H       -0.4096286294     1.7924157870     1.0112030151
| 16>  H        0.0864177493    -1.0352616968    -2.0991711167
| 17>  H        1.6632865774    -0.9518296132    -1.1852425896
| 18>  H        0.1441615550    -2.8923514553     0.2319330763
| 19>  H       -1.8879480066    -1.0398251464    -0.8906076087
| 20>  H       -1.5350173196    -0.8313839123     2.1543790602
| 21>  H       -2.8392115395    -0.0805222866     1.2159784046
| 22>  H       -2.4496536637    -2.8460616973     1.5221145960
| 23> *
| 24>
| 25>                          ****END OF INPUT****

CARTESIAN COORDINATES (ANGSTROEM)
---------------------------------
  C      0.057344    1.453395    0.081577
  C     -0.039116   -0.034549   -0.052061
  C      0.574490   -0.977322   -1.122839
  C      0.010487   -1.828166    0.032866
  O      0.616151   -0.880671    0.993165
  C     -1.287604   -0.972556    0.022533
  C     -2.162617   -0.941236    1.261789
  O     -3.009295   -2.083493    1.345705
  H      1.104981    1.768916    0.085081
  H     -0.448679    1.941079   -0.757598
  H     -0.409629    1.792416    1.011203
  H      0.086418   -1.035262   -2.099171
  H      1.663287   -0.951830   -1.185243
  H      0.144162   -2.892351    0.231933
  H     -1.887948   -1.039825   -0.890608
  H     -1.535017   -0.831384    2.154379
  H     -2.839212   -0.080522    1.215978
  H     -2.449654   -2.846062    1.522115

 Total Charge           Charge          ....    0
 Multiplicity           Mult            ....    1
 Number of Electrons    NEL             ....   62
 Basis Dimension        Dim             ....  308

ORBITAL ENERGIES
----------------

  NO   OCC          E(Eh)            E(eV)
   0   2.0000     -20.554085      -559.3051
   1   2.0000     -20.546801      -559.1069
   2   2.0000     -11.309108      -307.7365
   3   2.0000     -11.301445      -307.5280
   4   2.0000     -11.271408      -306.7106
   5   2.0000     -11.241000      -305.8831
   6   2.0000     -11.238224      -305.8076
   7   2.0000     -11.229908      -305.5813
   8   2.0000      -1.395438       -37.9718
   9   2.0000      -1.355972       -36.8979
  10   2.0000      -1.085797       -29.5460
  11   2.0000      -1.007554       -27.4169
  12   2.0000      -0.982147       -26.7256
  13   2.0000      -0.861517       -23.4431
  14   2.0000      -0.837316       -22.7845
  15   2.0000      -0.737203       -20.0603
  16   2.0000      -0.695743       -18.9321
  17   2.0000      -0.659945       -17.9580
  18   2.0000      -0.641022       -17.4431
  19   2.0000      -0.613178       -16.6854
  20   2.0000      -0.606073       -16.4921
  21   2.0000      -0.593480       -16.1494
  22   2.0000      -0.570199       -15.5159
  23   2.0000      -0.544339       -14.8122
  24   2.0000      -0.519292       -14.1306
  25   2.0000      -0.494869       -13.4661
  26   2.0000      -0.472258       -12.8508
  27   2.0000      -0.457627       -12.4527
  28   2.0000      -0.451984       -12.2991
  29   2.0000      -0.440496       -11.9865
  30   2.0000      -0.404164       -10.9979
  31   0.0000       0.134350         3.6558
  32   0.0000       0.136837         3.7235
  33   0.0000       0.165030         4.4907
  34   0.0000       0.179518         4.8849
  35   0.0000       0.193534         5.2663

MULLIKEN ATOMIC CHARGES
-----------------------
   0 C :   -0.419353
   1 C :    0.038134
   2 C :   -0.128265
   3 C :   -0.064555
   4 O :   -0.321079
   5 C :   -0.027660
   6 C :   -0.090239
   7 O :   -0.474763
   8 H :    0.147282
   9 H :    0.141127
  10 H :    0.147007
  11 H :    0.113851
  12 H :    0.120062
  13 H :    0.140983
  14 H :    0.107986
  15 H :    0.142027
  16 H :    0.112801
  17 H :    0.314652
Sum of atomic charges:   -0.0000000

LOEWDIN ATOMIC CHARGES
----------------------
   0 C :   -0.270038
   1 C :   -0.271337
   2 C :   -0.179477
   3 C :   -0.221790
   4 O :    0.135788
   5 C :   -0.185543
   6 C :   -0.326370
   7 O :   -0.052135
   8 H :    0.136125
   9 H :    0.135995
  10 H :    0.134858
  11 H :    0.129831
  12 H :    0.133435
  13 H :    0.122060
  14 H :    0.148727
  15 H :    0.126835
  16 H :    0.130657
  17 H :    0.172375

  Mayer bond orders larger than 0.1
B(  0-C ,  1-C ) :   0.8451 B(  0-C ,  8-H ) :   0.9394 B(  0-C ,  9-H ) :   0.9364
B(  0-C , 10-H ) :   0.9390 B(  1-C ,  2-C ) :   0.8811 B(  1-C ,  4-O ) :   0.8904
B(  1-C ,  5-C ) :   0.8386 B(  2-C ,  3-C ) :   0.9363 B(  2-C , 11-H ) :   0.9147
B(  2-C , 12-H ) :   0.9236 B(  3-C ,  4-O ) :   0.9063 B(  3-C ,  5-C ) :   0.9199
B(  3-C , 13-H ) :   0.8826 B(  5-C ,  6-C ) :   0.9099 B(  5-C , 14-H ) :   0.9194
B(  6-C ,  7-O ) :   0.8908 B(  6-C , 15-H ) :   0.9420 B(  6-C , 16-H ) :   0.9248
B(  7-O , 17-H ) :   0.8506

MP2 TOTAL ENERGY:     -384.242215398 Eh
FINAL SINGLE POINT ENERGY      -384.242215397842

DIPOLE MOMENT
-------------
                                X             Y             Z
Electronic contribution:     -0.03754      -3.41775       1.55256
Nuclear contribution   :      0.32209       3.56507      -2.17102
                        -----------------------------------------
Total Dipole Moment    :      0.28455       0.14732      -0.61847
                        -----------------------------------------
Magnitude (a.u.)       :      0.69654
Magnitude (Debye)      :      1.77047

                             ****ORCA TERMINATED NORMALLY****
TOTAL RUN TIME: 0 days 0 hours 11 minutes 46 seconds 276 msec
