                         Program Version 3.0.3 - RELEASE   -
|  1> ! RI-MP2 RIJK def2-TZVP def2-TZVP/C def2-TZVP/JK TIGHTSCF
|  2> % maxcore 2000
|  3> % mp2 density relaxed end
|  4> *xyz 0 1
|  5>  C       -0.3166440807     1.8215594628    -0.1503720777
|  6>  C       -0.1612006389     0.3076300504     0.0326264479
|  7>  C       -1.4642014767    -0.4529134430    -0.2060969279
|  8>  C       -2.0910891507    -0.5946598353    -1.6387946568
|  9>  C       -2.2637696427    -2.1013245501    -1.4014534449
| 10>  C       -0.9291970851    -2.7812385360    -1.1765446626
| 11>  C        0.3489318868    -2.5265307934    -1.9507090615
| 12>  C       -1.5411561900    -1.9789891960    -0.0567261212
| 13>  O       -1.8947873808    -2.5774215806     1.1468853388
| 14>  H        0.6258082626     2.3464144010     0.0348164009
| 15>  H       -0.6393173726     2.0671654212    -1.1681290095
| 16>  H       -1.0657582613     2.2272027214     0.5388920873
| 17>  H        0.6267186845    -0.0616544182    -0.6326675953
| 18>  H        0.1813723477     0.0984826768     1.0553741250
| 19>  H       -2.2340029025    -0.0374982896     0.4554855385
| 20>  H       -3.0363605401    -0.0595119181    -1.7470486523
| 21>  H       -1.4436453546    -0.3155768528    -2.4764616282
| 22>  H       -3.1526771578    -2.6703511553    -1.6456519326
| 23>  H       -1.0871548317    -3.8391182426    -0.9656436054
| 24>  H        0.4367421363    -1.4947676805    -2.2970122149
| 25>  H        1.2348820803    -2.7480104874    -1.3446309813
| 26>  H        0.3875277224    -3.1698299458    -2.8371437260
| 27>  H       -1.0997557445    -2.9403969386     1.5504591195
| 28> *
| 29>
| 30>                          ****END OF INPUT****

CARTESIAN COORDINATES (ANGSTROEM)
---------------------------------
  C     -0.316644    1.821559   -0.150372
  C     -0.161201    0.307630    0.032626
  C     -1.464201   -0.452913   -0.206097
  C     -2.091089   -0.594660   -1.638795
  C     -2.263770   -2.101325   -1.401453
  C     -0.929197   -2.781239   -1.176545
  C      0.348932   -2.526531   -1.950709
  C     -1.541156   -1.978989   -0.056726
  O     -1.894787   -2.577422    1.146885
  H      0.625808    2.346414    0.034816
  H     -0.639317    2.067165   -1.168129
  H     -1.065758    2.227203    0.538892
  H      0.626719   -0.061654   -0.632668
  H      0.181372    0.098483    1.055374
  H     -2.234003   -0.037498    0.455486
  H     -3.036361   -0.059512   -1.747049
  H     -1.443645   -0.315577   -2.476462
  H     -3.152677   -2.670351   -1.645652
  H     -1.087155   -3.839118   -0.965644
  H      0.436742   -1.494768   -2.297012
  H      1.234882   -2.748010   -1.344631
  H      0.387528   -3.169830   -2.837144
  H     -1.099756   -2.940397    1.550459

 Total Charge           Charge          ....    0
 Multiplicity           Mult            ....    1
 Number of Electrons    NEL             ....   70
 Basis Dimension        Dim             ....  363

ORBITAL ENERGIES
----------------

  NO   OCC          E(Eh)            E(eV)
   0   2.0000     -20.560559      -559.4813
   1   2.0000     -11.278865      -306.9135
   2   2.0000     -11.232548      -305.6532
   3   2.0000     -11.225071      -305.4497
   4   2.0000     -11.222938      -305.3917
   5   2.0000     -11.221070      -305.3408
   6   2.0000     -11.217231      -305.2364
   7   2.0000     -11.216620      -305.2198
   8   2.0000     -11.211841      -305.0897
   9   2.0000      -1.370877       -37.3034
  10   2.0000      -1.177103       -32.0306
  11   2.0000      -1.050919       -28.5970
  12   2.0000      -0.995949       -27.1011
  13   2.0000      -0.933719       -25.4078
  14   2.0000      -0.893209       -24.3055
  15   2.0000      -0.817452       -22.2440
  16   2.0000      -0.759195       -20.6588
  17   2.0000      -0.729368       -19.8471
  18   2.0000      -0.708923       -19.2908
  19   2.0000      -0.624859       -17.0033
  20   2.0000      -0.617945       -16.8151
  21   2.0000      -0.605031       -16.4637
  22   2.0000      -0.604087       -16.4380
  23   2.0000      -0.564293       -15.3552
  24   2.0000      -0.557390       -15.1674
  25   2.0000      -0.544721       -14.8226
  26   2.0000      -0.527722       -14.3601
  27   2.0000      -0.519131       -14.1263
  28   2.0000      -0.505849       -13.7648
  29   2.0000      -0.490612       -13.3502
  30   2.0000      -0.467244       -12.7143
  31   2.0000      -0.455655       -12.3990
  32   2.0000      -0.439129       -11.9493
  33   2.0000      -0.381923       -10.3927
  34   2.0000      -0.361286        -9.8311
  35   0.0000       0.129612         3.5269
  36   0.0000       0.143294         3.8992
  37   0.0000       0.160441         4.3658
  38   0.0000       0.166037         4.5181
  39   0.0000       0.185339         5.0433

MULLIKEN ATOMIC CHARGES
-----------------------
   0 C :   -0.392261
   1 C :   -0.215063
   2 C :   -0.076254
   3 C :   -0.277469
   4 C :   -0.123817
   5 C :   -0.188982
   6 C :   -0.373992
   7 C :    0.211933
   8 O :   -0.455314
   9 H :    0.133130
  10 H :    0.126396
  11 H :    0.124732
  12 H :    0.102064
  13 H :    0.107828
  14 H :    0.089172
  15 H :    0.124681
  16 H :    0.116706
  17 H :    0.133875
  18 H :    0.114814
  19 H :    0.126362
  20 H :    0.129053
  21 H :    0.135531
  22 H :    0.326874
Sum of atomic charges:   -0.0000000

LOEWDIN ATOMIC CHARGES
----------------------
   0 C :   -0.317206
   1 C :   -0.278601
   2 C :   -0.192859
   3 C :   -0.193776
   4 C :   -0.146377
   5 C :   -0.208241
   6 C :   -0.296988
   7 C :   -0.298253
   8 O :    0.022985
   9 H :    0.119998
  10 H :    0.120856
  11 H :    0.121045
  12 H :    0.135603
  13 H :    0.138170
  14 H :    0.160616
  15 H :    0.133715
  16 H :    0.127225
  17 H :    0.136368
  18 H :    0.161214
  19 H :    0.121171
  20 H :    0.123971
  21 H :    0.126220
  22 H :    0.183143

  Mayer bond orders larger than 0.1
B(  0-C ,  1-C ) :   0.9180 B(  0-C ,  9-H ) :   0.9416 B(  0-C , 10-H ) :   0.9404
B(  0-C , 11-H ) :   0.9392 B(  1-C ,  2-C ) :   0.9054 B(  1-C , 12-H ) :   0.9318
B(  1-C , 13-H ) :   0.9339 B(  2-C ,  3-C ) :   0.9575 B(  2-C ,  7-C ) :   0.9426
B(  2-C , 14-H ) :   0.9040 B(  3-C ,  4-C ) :   0.9340 B(  3-C , 15-H ) :   0.9215
B(  3-C , 16-H ) :   0.9211 B(  4-C ,  5-C ) :   0.8803 B(  4-C ,  7-C ) :   0.8191
B(  4-C , 17-H ) :   0.9008 B(  5-C ,  6-C ) :   0.8739 B(  5-C ,  7-C ) :   0.9178
B(  5-C , 18-H ) :   0.9385 B(  6-C , 19-H ) :   0.9391 B(  6-C , 20-H ) :   0.9383
B(  6-C , 21-H ) :   0.9333 B(  7-C ,  8-O ) :   1.0433 B(  8-O , 22-H ) :   0.8375

MP2 TOTAL ENERGY:     -387.586965935 Eh
FINAL SINGLE POINT ENERGY      -387.586965935175

DIPOLE MOMENT
-------------
                                X             Y             Z
Electronic contribution:     -4.57228      -5.86437       3.14387
Nuclear contribution   :      5.11321       5.82461      -3.26413
                        -----------------------------------------
Total Dipole Moment    :      0.54092      -0.03976      -0.12025
                        -----------------------------------------
Magnitude (a.u.)       :      0.55555
Magnitude (Debye)      :      1.41211

                             ****ORCA TERMINATED NORMALLY****
TOTAL RUN TIME: 0 days 0 hours 32 minutes 59 seconds 52 msec
