                         Program Version 3.0.3 - RELEASE   -
|  1> ! RI-MP2 RIJK def2-TZVP def2-TZVP/C def2-TZVP/JK TIGHTSCF
|  2> % maxcore 2000
|  3> % mp2 density relaxed end
|  4> *xyz 0 1
|  5>  C       -0.0166066371     1.3506948274     0.0948228201
|  6>  O       -0.0223469827    -0.0393439675    -0.1492252726
|  7>  C       -1.2914283812    -0.6305533688    -0.0264966071
|  8>  C       -1.2494482155    -2.1316345127    -0.3662421385
|  9>  C       -0.3012240976    -2.6797256116     0.7282018031
| 10>  C       -0.6911811898    -1.8262035217     1.9791076245
| 11>  C       -1.7892034712    -0.9088324821     1.4132723919
| 12>  O       -2.9702619909    -1.6812395455     1.1712783517
| 13>  C       -2.6864208887    -2.5066441402     0.0186171313
| 14>  H        1.0002057908     1.7061698143    -0.0881616625
| 15>  H       -0.7054949147     1.8817015672    -0.5799696423
| 16>  H       -0.2940049096     1.5948778448     1.1306115778
| 17>  H       -2.0416492652    -0.0761128505    -0.6096152086
| 18>  H       -0.9757722456    -2.3851989276    -1.3908477422
| 19>  H       -0.4490920922    -3.7518349188     0.8851783238
| 20>  H        0.7417363467    -2.5190259332     0.4498861026
| 21>  H       -1.0884521520    -2.4254831260     2.8013236823
| 22>  H        0.1577265691    -1.2477775575     2.3529811561
| 23>  H       -2.0663820635    -0.0558829597     2.0338822086
| 24>  H       -3.4111830735    -2.2800031228    -0.7743769056
| 25>  H       -2.7889649755    -3.5656485077     0.2864299259
| 26> *
| 27>
| 28>                          ****END OF INPUT****

CARTESIAN COORDINATES (ANGSTROEM)
---------------------------------
  C     -0.016607    1.350695    0.094823
  O     -0.022347   -0.039344   -0.149225
  C     -1.291428   -0.630553   -0.026497
  C     -1.249448   -2.131635   -0.366242
  C     -0.301224   -2.679726    0.728202
  C     -0.691181   -1.826204    1.979108
  C     -1.789203   -0.908832    1.413272
  O     -2.970262   -1.681240    1.171278
  C     -2.686421   -2.506644    0.018617
  H      1.000206    1.706170   -0.088162
  H     -0.705495    1.881702   -0.579970
  H     -0.294005    1.594878    1.130612
  H     -2.041649   -0.076113   -0.609615
  H     -0.975772   -2.385199   -1.390848
  H     -0.449092   -3.751835    0.885178
  H      0.741736   -2.519026    0.449886
  H     -1.088452   -2.425483    2.801324
  H      0.157727   -1.247778    2.352981
  H     -2.066382   -0.055883    2.033882
  H     -3.411183   -2.280003   -0.774377
  H     -2.788965   -3.565649    0.286430

 Total Charge           Charge          ....    0
 Multiplicity           Mult            ....    1
 Number of Electrons    NEL             ....   70
 Basis Dimension        Dim             ....  351

ORBITAL ENERGIES
----------------

  NO   OCC          E(Eh)            E(eV)
   0   2.0000     -20.561046      -559.4945
   1   2.0000     -20.547004      -559.1124
   2   2.0000     -11.277187      -306.8679
   3   2.0000     -11.275603      -306.8248
   4   2.0000     -11.272981      -306.7534
   5   2.0000     -11.271096      -306.7021
   6   2.0000     -11.228760      -305.5501
   7   2.0000     -11.218303      -305.2655
   8   2.0000     -11.215270      -305.1830
   9   2.0000      -1.389083       -37.7989
  10   2.0000      -1.366584       -37.1867
  11   2.0000      -1.107172       -30.1277
  12   2.0000      -1.008769       -27.4500
  13   2.0000      -0.970550       -26.4100
  14   2.0000      -0.914509       -24.8851
  15   2.0000      -0.859730       -23.3944
  16   2.0000      -0.779374       -21.2079
  17   2.0000      -0.750162       -20.4129
  18   2.0000      -0.710830       -19.3427
  19   2.0000      -0.681699       -18.5500
  20   2.0000      -0.667530       -18.1644
  21   2.0000      -0.628660       -17.1067
  22   2.0000      -0.601824       -16.3765
  23   2.0000      -0.590393       -16.0654
  24   2.0000      -0.560762       -15.2591
  25   2.0000      -0.555188       -15.1074
  26   2.0000      -0.538738       -14.6598
  27   2.0000      -0.518573       -14.1111
  28   2.0000      -0.500078       -13.6078
  29   2.0000      -0.487590       -13.2680
  30   2.0000      -0.479608       -13.0508
  31   2.0000      -0.463137       -12.6026
  32   2.0000      -0.450556       -12.2603
  33   2.0000      -0.417017       -11.3476
  34   2.0000      -0.389022       -10.5858
  35   0.0000       0.135773         3.6946
  36   0.0000       0.155461         4.2303
  37   0.0000       0.171520         4.6673
  38   0.0000       0.181819         4.9475
  39   0.0000       0.188069         5.1176

MULLIKEN ATOMIC CHARGES
-----------------------
   0 C :   -0.227146
   1 O :   -0.313399
   2 C :    0.013128
   3 C :   -0.019282
   4 C :   -0.266226
   5 C :   -0.251545
   6 C :    0.071430
   7 O :   -0.329526
   8 C :   -0.078064
   9 H :    0.143120
  10 H :    0.116671
  11 H :    0.115783
  12 H :    0.093679
  13 H :    0.129223
  14 H :    0.119109
  15 H :    0.122848
  16 H :    0.122793
  17 H :    0.111843
  18 H :    0.121785
  19 H :    0.102754
  20 H :    0.101023
Sum of atomic charges:   -0.0000000

LOEWDIN ATOMIC CHARGES
----------------------
   0 C :   -0.351844
   1 O :    0.171244
   2 C :   -0.288796
   3 C :   -0.223133
   4 C :   -0.223777
   5 C :   -0.228582
   6 C :   -0.288579
   7 O :    0.155619
   8 C :   -0.258971
   9 H :    0.114289
  10 H :    0.104230
  11 H :    0.102503
  12 H :    0.140593
  13 H :    0.148264
  14 H :    0.132523
  15 H :    0.138376
  16 H :    0.137189
  17 H :    0.137307
  18 H :    0.136478
  19 H :    0.121626
  20 H :    0.123441

  Mayer bond orders larger than 0.1
B(  0-C ,  1-O ) :   0.9054 B(  0-C ,  9-H ) :   0.9415 B(  0-C , 10-H ) :   0.9351
B(  0-C , 11-H ) :   0.9339 B(  1-O ,  2-C ) :   0.9749 B(  2-C ,  3-C ) :   0.8883
B(  2-C ,  6-C ) :   0.9448 B(  2-C , 12-H ) :   0.9296 B(  3-C ,  4-C ) :   0.9343
B(  3-C ,  8-C ) :   0.9408 B(  3-C , 13-H ) :   0.9085 B(  4-C ,  5-C ) :   0.9847
B(  4-C , 14-H ) :   0.9297 B(  4-C , 15-H ) :   0.9165 B(  5-C ,  6-C ) :   0.9215
B(  5-C , 16-H ) :   0.9265 B(  5-C , 17-H ) :   0.9110 B(  6-C ,  7-O ) :   0.9418
B(  6-C , 18-H ) :   0.9186 B(  7-O ,  8-C ) :   0.9277 B(  8-C , 19-H ) :   0.9268
B(  8-C , 20-H ) :   0.9147

MP2 TOTAL ENERGY:     -423.526175438 Eh
FINAL SINGLE POINT ENERGY      -423.526175437812

DIPOLE MOMENT
-------------
                                X             Y             Z
Electronic contribution:     -2.26000      -0.83292      -0.25483
Nuclear contribution   :      2.53549       1.12321       0.03068
                        -----------------------------------------
Total Dipole Moment    :      0.27548       0.29029      -0.22416
                        -----------------------------------------
Magnitude (a.u.)       :      0.45870
Magnitude (Debye)      :      1.16592

                             ****ORCA TERMINATED NORMALLY****
TOTAL RUN TIME: 0 days 0 hours 31 minutes 26 seconds 573 msec
