                         Program Version 3.0.3 - RELEASE   -
|  1> ! RI-MP2 RIJK def2-TZVP def2-TZVP/C def2-TZVP/JK TIGHTSCF
|  2> % maxcore 2000
|  3> % mp2 density relaxed end
|  4> *xyz 0 1
|  5>  C       -0.0037741826     1.4880045195     0.0791172016
|  6>  C        1.3198235038     0.7665295233     0.0010833740
|  7>  O        2.1608558854     0.4410954157     1.0685546166
|  8>  C        2.3958202323    -0.9868279555     1.0365081817
|  9>  C        1.0712334366    -1.8213504861     0.8867882332
| 10>  C       -0.0543074750    -0.8419800185     1.2734015565
| 11>  C        0.0238640193    -0.0133617903    -0.0133074493
| 12>  C        0.0017817367    -1.0757121081    -1.0825916341
| 13>  C        0.6612075775    -2.1221168092    -0.5702605776
| 14>  H       -0.3462952080     1.9009352017     1.0226329809
| 15>  H       -0.2538415615     2.0927860564    -0.7874986970
| 16>  H        1.8399695857     0.8601459203    -0.9536963460
| 17>  H        3.1024308482    -1.2251566087     0.2286302495
| 18>  H        2.8757676474    -1.2122638892     1.9922506722
| 19>  H        1.1411477173    -2.7219823345     1.5018871994
| 20>  H       -1.0206675299    -1.3458002144     1.3588220997
| 21>  H        0.1468938162    -0.2717621318     2.1812776151
| 22>  H       -0.3919482756    -0.9684340921    -2.0853303893
| 23>  H        0.8981030162    -3.0477166084    -1.0805308974
| 24> *
| 25>
| 26>                          ****END OF INPUT****

CARTESIAN COORDINATES (ANGSTROEM)
---------------------------------
  C     -0.003774    1.488005    0.079117
  C      1.319824    0.766530    0.001083
  O      2.160856    0.441095    1.068555
  C      2.395820   -0.986828    1.036508
  C      1.071233   -1.821350    0.886788
  C     -0.054307   -0.841980    1.273402
  C      0.023864   -0.013362   -0.013307
  C      0.001782   -1.075712   -1.082592
  C      0.661208   -2.122117   -0.570261
  H     -0.346295    1.900935    1.022633
  H     -0.253842    2.092786   -0.787499
  H      1.839970    0.860146   -0.953696
  H      3.102431   -1.225157    0.228630
  H      2.875768   -1.212264    1.992251
  H      1.141148   -2.721982    1.501887
  H     -1.020668   -1.345800    1.358822
  H      0.146894   -0.271762    2.181278
  H     -0.391948   -0.968434   -2.085330
  H      0.898103   -3.047717   -1.080531

 Total Charge           Charge          ....    0
 Multiplicity           Mult            ....    1
 Number of Electrons    NEL             ....   66
 Basis Dimension        Dim             ....  339

ORBITAL ENERGIES
----------------

  NO   OCC          E(Eh)            E(eV)
   0   2.0000     -20.555763      -559.3508
   1   2.0000     -11.276730      -306.8554
   2   2.0000     -11.270131      -306.6759
   3   2.0000     -11.239356      -305.8384
   4   2.0000     -11.237182      -305.7793
   5   2.0000     -11.234750      -305.7131
   6   2.0000     -11.234032      -305.6935
   7   2.0000     -11.224178      -305.4254
   8   2.0000     -11.221546      -305.3538
   9   2.0000      -1.376325       -37.4517
  10   2.0000      -1.171585       -31.8804
  11   2.0000      -1.092782       -29.7361
  12   2.0000      -0.984988       -26.8029
  13   2.0000      -0.923980       -25.1428
  14   2.0000      -0.867372       -23.6024
  15   2.0000      -0.820519       -22.3274
  16   2.0000      -0.730257       -19.8713
  17   2.0000      -0.729122       -19.8404
  18   2.0000      -0.693030       -18.8583
  19   2.0000      -0.668696       -18.1962
  20   2.0000      -0.643571       -17.5124
  21   2.0000      -0.618942       -16.8423
  22   2.0000      -0.570571       -15.5260
  23   2.0000      -0.557891       -15.1810
  24   2.0000      -0.542241       -14.7551
  25   2.0000      -0.532331       -14.4855
  26   2.0000      -0.507039       -13.7972
  27   2.0000      -0.481794       -13.1103
  28   2.0000      -0.461901       -12.5690
  29   2.0000      -0.451211       -12.2781
  30   2.0000      -0.418099       -11.3770
  31   2.0000      -0.406850       -11.0710
  32   2.0000      -0.315522        -8.5858
  33   0.0000       0.135713         3.6929
  34   0.0000       0.149783         4.0758
  35   0.0000       0.164045         4.4639
  36   0.0000       0.171719         4.6727
  37   0.0000       0.179144         4.8747

MULLIKEN ATOMIC CHARGES
-----------------------
   0 C :   -0.230233
   1 C :    0.015991
   2 O :   -0.309285
   3 C :   -0.099088
   4 C :   -0.022843
   5 C :   -0.257937
   6 C :    0.171173
   7 C :   -0.327116
   8 C :   -0.167428
   9 H :    0.135669
  10 H :    0.134263
  11 H :    0.093819
  12 H :    0.104160
  13 H :    0.126429
  14 H :    0.119669
  15 H :    0.120841
  16 H :    0.133183
  17 H :    0.128153
  18 H :    0.130579
Sum of atomic charges:   -0.0000000

LOEWDIN ATOMIC CHARGES
----------------------
   0 C :   -0.178047
   1 C :   -0.266209
   2 O :    0.168193
   3 C :   -0.250807
   4 C :   -0.214472
   5 C :   -0.173711
   6 C :   -0.211272
   7 C :   -0.114441
   8 C :   -0.134950
   9 H :    0.143389
  10 H :    0.139467
  11 H :    0.137326
  12 H :    0.123214
  13 H :    0.128781
  14 H :    0.145631
  15 H :    0.143271
  16 H :    0.143111
  17 H :    0.137940
  18 H :    0.133583

  Mayer bond orders larger than 0.1
B(  0-C ,  1-C ) :   0.9056 B(  0-C ,  6-C ) :   0.9043 B(  0-C ,  9-H ) :   0.8923
B(  0-C , 10-H ) :   0.9131 B(  1-C ,  2-O ) :   0.9994 B(  1-C ,  6-C ) :   0.7834
B(  1-C , 11-H ) :   0.9505 B(  2-O ,  3-C ) :   0.9046 B(  3-C ,  4-C ) :   0.8820
B(  3-C , 12-H ) :   0.9329 B(  3-C , 13-H ) :   0.9291 B(  4-C ,  5-C ) :   0.9493
B(  4-C ,  8-C ) :   0.8958 B(  4-C , 14-H ) :   0.9185 B(  5-C ,  6-C ) :   0.8973
B(  5-C , 15-H ) :   0.9150 B(  5-C , 16-H ) :   0.9183 B(  6-C ,  7-C ) :   0.9348
B(  7-C ,  8-C ) :   1.7817 B(  7-C , 17-H ) :   0.9362 B(  8-C , 18-H ) :   0.9277

MP2 TOTAL ENERGY:     -385.173369570 Eh
FINAL SINGLE POINT ENERGY      -385.173369570206

DIPOLE MOMENT
-------------
                                X             Y             Z
Electronic contribution:      0.57535       1.04721      -0.34538
Nuclear contribution   :     -0.75239      -1.39193       0.12046
                        -----------------------------------------
Total Dipole Moment    :     -0.17704      -0.34473      -0.22493
                        -----------------------------------------
Magnitude (a.u.)       :      0.44808
Magnitude (Debye)      :      1.13892

                             ****ORCA TERMINATED NORMALLY****
TOTAL RUN TIME: 0 days 0 hours 21 minutes 13 seconds 742 msec
