                         Program Version 3.0.3 - RELEASE   -
|  1> ! RI-MP2 RIJK def2-TZVP def2-TZVP/C def2-TZVP/JK TIGHTSCF
|  2> % maxcore 2000
|  3> % mp2 density relaxed end
|  4> *xyz 0 1
|  5>  C       -0.0817929257     1.6124235491     0.1313320284
|  6>  C        0.0062562647     0.0886692236     0.0010187237
|  7>  C        0.7786733425    -0.5597814559     1.1562131364
|  8>  C        0.8222929474    -2.1004673172     1.1431971660
|  9>  C        1.5747182873    -2.6445034262    -0.0815829787
| 10>  C        1.4237895452    -2.6133004610     2.4640268782
| 11>  C        1.3629770010    -4.1240661711     2.6590458392
| 12>  O        1.8156936721    -4.4031740733     3.9775851255
| 13>  H        0.9154519262     2.0664784457     0.1436072828
| 14>  H       -0.6375167366     2.0540509725    -0.7019141455
| 15>  H       -0.5862977043     1.9027032050     1.0596965897
| 16>  H       -1.0068432415    -0.3340943474    -0.0385775024
| 17>  H        0.4776505542    -0.1609484619    -0.9567929803
| 18>  H        1.8080072786    -0.1721884694     1.1678314399
| 19>  H        0.3258182898    -0.2336672008     2.1024198050
| 20>  H       -0.2173366451    -2.4589647761     1.0879580344
| 21>  H        1.5571333451    -3.7377085882    -0.1169404432
| 22>  H        1.1364150007    -2.2860744933    -1.0170498971
| 23>  H        2.6254601885    -2.3296835231    -0.0631812646
| 24>  H        2.4701013301    -2.2910403260     2.5478369980
| 25>  H        0.8921829560    -2.1561854304     3.3073620489
| 26>  H        0.3274251567    -4.4754609641     2.5124499382
| 27>  H        1.9896218811    -4.6378217052     1.9146813794
| 28>  H        1.8250938361    -5.3573836853     4.0953801385
| 29> *
| 30>
| 31>                          ****END OF INPUT****

CARTESIAN COORDINATES (ANGSTROEM)
---------------------------------
  C     -0.081793    1.612424    0.131332
  C      0.006256    0.088669    0.001019
  C      0.778673   -0.559781    1.156213
  C      0.822293   -2.100467    1.143197
  C      1.574718   -2.644503   -0.081583
  C      1.423790   -2.613300    2.464027
  C      1.362977   -4.124066    2.659046
  O      1.815694   -4.403174    3.977585
  H      0.915452    2.066478    0.143607
  H     -0.637517    2.054051   -0.701914
  H     -0.586298    1.902703    1.059697
  H     -1.006843   -0.334094   -0.038578
  H      0.477651   -0.160948   -0.956793
  H      1.808007   -0.172188    1.167831
  H      0.325818   -0.233667    2.102420
  H     -0.217337   -2.458965    1.087958
  H      1.557133   -3.737709   -0.116940
  H      1.136415   -2.286074   -1.017050
  H      2.625460   -2.329684   -0.063181
  H      2.470101   -2.291040    2.547837
  H      0.892183   -2.156185    3.307362
  H      0.327425   -4.475461    2.512450
  H      1.989622   -4.637822    1.914681
  H      1.825094   -5.357384    4.095380

 Total Charge           Charge          ....    0
 Multiplicity           Mult            ....    1
 Number of Electrons    NEL             ....   66
 Basis Dimension        Dim             ....  344

ORBITAL ENERGIES
----------------

  NO   OCC          E(Eh)            E(eV)
   0   2.0000     -20.551157      -559.2254
   1   2.0000     -11.270563      -306.6876
   2   2.0000     -11.225062      -305.4495
   3   2.0000     -11.216074      -305.2049
   4   2.0000     -11.213474      -305.1341
   5   2.0000     -11.211749      -305.0872
   6   2.0000     -11.210859      -305.0630
   7   2.0000     -11.210165      -305.0441
   8   2.0000      -1.354601       -36.8606
   9   2.0000      -1.097314       -29.8594
  10   2.0000      -1.035684       -28.1824
  11   2.0000      -0.970628       -26.4121
  12   2.0000      -0.921530       -25.0761
  13   2.0000      -0.854922       -23.2636
  14   2.0000      -0.795586       -21.6490
  15   2.0000      -0.763589       -20.7783
  16   2.0000      -0.690203       -18.7814
  17   2.0000      -0.651144       -17.7185
  18   2.0000      -0.631570       -17.1859
  19   2.0000      -0.603835       -16.4312
  20   2.0000      -0.588949       -16.0261
  21   2.0000      -0.570305       -15.5188
  22   2.0000      -0.559607       -15.2277
  23   2.0000      -0.536650       -14.6030
  24   2.0000      -0.521240       -14.1837
  25   2.0000      -0.509247       -13.8573
  26   2.0000      -0.501767       -13.6538
  27   2.0000      -0.481791       -13.1102
  28   2.0000      -0.472809       -12.8658
  29   2.0000      -0.455317       -12.3898
  30   2.0000      -0.449490       -12.2312
  31   2.0000      -0.441224       -12.0063
  32   2.0000      -0.433699       -11.8016
  33   0.0000       0.134781         3.6676
  34   0.0000       0.142972         3.8905
  35   0.0000       0.158354         4.3090
  36   0.0000       0.162549         4.4232
  37   0.0000       0.171008         4.6534

MULLIKEN ATOMIC CHARGES
-----------------------
   0 C :   -0.386059
   1 C :   -0.193530
   2 C :   -0.239226
   3 C :   -0.038504
   4 C :   -0.436176
   5 C :   -0.156182
   6 C :   -0.085710
   7 O :   -0.465185
   8 H :    0.121832
   9 H :    0.132242
  10 H :    0.122492
  11 H :    0.104337
  12 H :    0.106131
  13 H :    0.106435
  14 H :    0.111275
  15 H :    0.079102
  16 H :    0.130616
  17 H :    0.136542
  18 H :    0.123617
  19 H :    0.108414
  20 H :    0.116225
  21 H :    0.089992
  22 H :    0.097954
  23 H :    0.313366
Sum of atomic charges:   -0.0000000

LOEWDIN ATOMIC CHARGES
----------------------
   0 C :   -0.321701
   1 C :   -0.296501
   2 C :   -0.251070
   3 C :   -0.283852
   4 C :   -0.294318
   5 C :   -0.251443
   6 C :   -0.351696
   7 O :   -0.053586
   8 H :    0.120219
   9 H :    0.119646
  10 H :    0.119793
  11 H :    0.134249
  12 H :    0.132587
  13 H :    0.139048
  14 H :    0.140303
  15 H :    0.150093
  16 H :    0.120077
  17 H :    0.121477
  18 H :    0.124839
  19 H :    0.141224
  20 H :    0.143595
  21 H :    0.113986
  22 H :    0.112615
  23 H :    0.170416

  Mayer bond orders larger than 0.1
B(  0-C ,  1-C ) :   0.9232 B(  0-C ,  8-H ) :   0.9387 B(  0-C ,  9-H ) :   0.9436
B(  0-C , 10-H ) :   0.9415 B(  1-C ,  2-C ) :   0.9292 B(  1-C , 11-H ) :   0.9321
B(  1-C , 12-H ) :   0.9358 B(  2-C ,  3-C ) :   0.9281 B(  2-C , 13-H ) :   0.9234
B(  2-C , 14-H ) :   0.9332 B(  3-C ,  4-C ) :   0.8952 B(  3-C ,  5-C ) :   0.9142
B(  3-C , 15-H ) :   0.9237 B(  4-C , 16-H ) :   0.9421 B(  4-C , 17-H ) :   0.9421
B(  4-C , 18-H ) :   0.9298 B(  5-C ,  6-C ) :   0.9277 B(  5-C , 19-H ) :   0.9192
B(  5-C , 20-H ) :   0.9271 B(  6-C ,  7-O ) :   1.0216 B(  6-C , 21-H ) :   0.9300
B(  6-C , 22-H ) :   0.9387 B(  7-O , 23-H ) :   0.8504

MP2 TOTAL ENERGY:     -350.809848896 Eh
FINAL SINGLE POINT ENERGY      -350.809848896013

DIPOLE MOMENT
-------------
                                X             Y             Z
Electronic contribution:      1.45086      -5.63906       5.57749
Nuclear contribution   :     -1.64124       5.22489      -6.00677
                        -----------------------------------------
Total Dipole Moment    :     -0.19038      -0.41417      -0.42928
                        -----------------------------------------
Magnitude (a.u.)       :      0.62615
Magnitude (Debye)      :      1.59154

                             ****ORCA TERMINATED NORMALLY****
TOTAL RUN TIME: 0 days 0 hours 15 minutes 18 seconds 85 msec
