                         Program Version 3.0.3 - RELEASE   -
|  1> ! RI-MP2 RIJK def2-TZVP def2-TZVP/C def2-TZVP/JK TIGHTSCF
|  2> % maxcore 2000
|  3> % mp2 density relaxed end
|  4> *xyz 0 1
|  5>  C       -1.5624020548    -0.0516123726    -0.2494993591
|  6>  O       -0.1691210130     0.1913552364    -0.1778330083
|  7>  C        0.6495134997    -0.6588460720    -0.9740147219
|  8>  C        0.4933435040    -0.2890482260    -2.4494863184
|  9>  O        0.7484368705     1.0858026452    -2.6553822395
| 10>  C        2.1204700311    -0.6375125313    -0.4976990317
| 11>  C        2.1601138327    -2.1813106595    -0.6680769023
| 12>  C        0.6056465421    -2.1894284559    -0.7002653822
| 13>  H       -1.9900639819     0.2085093263    -1.2277873697
| 14>  H       -1.8036713108    -1.1013922949    -0.0341868743
| 15>  H       -2.0302889932     0.5780112501     0.5112003260
| 16>  H        1.2106467008    -0.8531669160    -3.0553716835
| 17>  H       -0.5140844471    -0.5696926011    -2.8003766347
| 18>  H        0.3634717203     1.5375866734    -1.8935500117
| 19>  H        2.8126808774    -0.0282041874    -1.0816392150
| 20>  H        2.1692077132    -0.3385733404     0.5517870279
| 21>  H        2.5968403258    -2.4863589454    -1.6221241657
| 22>  H        2.6384498282    -2.7551612457     0.1274228319
| 23>  H        0.1828588731    -2.3954033949     0.2867233006
| 24>  H        0.1092245118    -2.8237568383    -1.4400934082
| 25> *
| 26>
| 27>                          ****END OF INPUT****

CARTESIAN COORDINATES (ANGSTROEM)
---------------------------------
  C     -1.562402   -0.051612   -0.249499
  O     -0.169121    0.191355   -0.177833
  C      0.649513   -0.658846   -0.974015
  C      0.493344   -0.289048   -2.449486
  O      0.748437    1.085803   -2.655382
  C      2.120470   -0.637513   -0.497699
  C      2.160114   -2.181311   -0.668077
  C      0.605647   -2.189428   -0.700265
  H     -1.990064    0.208509   -1.227787
  H     -1.803671   -1.101392   -0.034187
  H     -2.030289    0.578011    0.511200
  H      1.210647   -0.853167   -3.055372
  H     -0.514084   -0.569693   -2.800377
  H      0.363472    1.537587   -1.893550
  H      2.812681   -0.028204   -1.081639
  H      2.169208   -0.338573    0.551787
  H      2.596840   -2.486359   -1.622124
  H      2.638450   -2.755161    0.127423
  H      0.182859   -2.395403    0.286723
  H      0.109225   -2.823757   -1.440093

 Total Charge           Charge          ....    0
 Multiplicity           Mult            ....    1
 Number of Electrons    NEL             ....   64
 Basis Dimension        Dim             ....  320

ORBITAL ENERGIES
----------------

  NO   OCC          E(Eh)            E(eV)
   0   2.0000     -20.562659      -559.5384
   1   2.0000     -20.548048      -559.1408
   2   2.0000     -11.285336      -307.0896
   3   2.0000     -11.276922      -306.8606
   4   2.0000     -11.271894      -306.7238
   5   2.0000     -11.228021      -305.5300
   6   2.0000     -11.226497      -305.4885
   7   2.0000     -11.217780      -305.2513
   8   2.0000      -1.386717       -37.7345
   9   2.0000      -1.349133       -36.7118
  10   2.0000      -1.130975       -30.7754
  11   2.0000      -0.968081       -26.3428
  12   2.0000      -0.935440       -25.4546
  13   2.0000      -0.902942       -24.5703
  14   2.0000      -0.840777       -22.8787
  15   2.0000      -0.749370       -20.3914
  16   2.0000      -0.690112       -18.7789
  17   2.0000      -0.683872       -18.6091
  18   2.0000      -0.648404       -17.6440
  19   2.0000      -0.636399       -17.3173
  20   2.0000      -0.618069       -16.8185
  21   2.0000      -0.602250       -16.3881
  22   2.0000      -0.584756       -15.9120
  23   2.0000      -0.550350       -14.9758
  24   2.0000      -0.538907       -14.6644
  25   2.0000      -0.501647       -13.6505
  26   2.0000      -0.478949       -13.0329
  27   2.0000      -0.474770       -12.9192
  28   2.0000      -0.468071       -12.7369
  29   2.0000      -0.461015       -12.5448
  30   2.0000      -0.431743       -11.7483
  31   2.0000      -0.405171       -11.0253
  32   0.0000       0.134240         3.6528
  33   0.0000       0.152299         4.1443
  34   0.0000       0.167178         4.5491
  35   0.0000       0.170439         4.6379
  36   0.0000       0.191162         5.2018

MULLIKEN ATOMIC CHARGES
-----------------------
   0 C :   -0.224489
   1 O :   -0.339198
   2 C :    0.163251
   3 C :   -0.042441
   4 O :   -0.477685
   5 C :   -0.218318
   6 C :   -0.252884
   7 C :   -0.269846
   8 H :    0.124546
   9 H :    0.119622
  10 H :    0.146586
  11 H :    0.110516
  12 H :    0.097665
  13 H :    0.325774
  14 H :    0.130733
  15 H :    0.119867
  16 H :    0.122731
  17 H :    0.119561
  18 H :    0.120379
  19 H :    0.123630
Sum of atomic charges:   -0.0000000

LOEWDIN ATOMIC CHARGES
----------------------
   0 C :   -0.352885
   1 O :    0.161766
   2 C :   -0.361325
   3 C :   -0.315498
   4 O :   -0.041070
   5 C :   -0.197951
   6 C :   -0.238799
   7 C :   -0.209595
   8 H :    0.103561
   9 H :    0.106140
  10 H :    0.115050
  11 H :    0.135488
  12 H :    0.118911
  13 H :    0.177896
  14 H :    0.132407
  15 H :    0.140804
  16 H :    0.131884
  17 H :    0.124646
  18 H :    0.140859
  19 H :    0.127708

  Mayer bond orders larger than 0.1
B(  0-C ,  1-O ) :   0.8892 B(  0-C ,  8-H ) :   0.9312 B(  0-C ,  9-H ) :   0.9321
B(  0-C , 10-H ) :   0.9401 B(  1-O ,  2-C ) :   0.9528 B(  2-C ,  3-C ) :   0.9795
B(  2-C ,  5-C ) :   0.8718 B(  2-C ,  7-C ) :   0.9080 B(  3-C ,  4-O ) :   0.9376
B(  3-C , 11-H ) :   0.9198 B(  3-C , 12-H ) :   0.9059 B(  4-O , 13-H ) :   0.8270
B(  5-C ,  6-C ) :   0.9383 B(  5-C , 14-H ) :   0.9232 B(  5-C , 15-H ) :   0.9202
B(  6-C ,  7-C ) :   0.9537 B(  6-C , 16-H ) :   0.9278 B(  6-C , 17-H ) :   0.9282
B(  7-C , 18-H ) :   0.9108 B(  7-C , 19-H ) :   0.9258

MP2 TOTAL ENERGY:     -385.486416057 Eh
FINAL SINGLE POINT ENERGY      -385.486416057059

DIPOLE MOMENT
-------------
                                X             Y             Z
Electronic contribution:      0.79336       3.55996      -0.64967
Nuclear contribution   :     -1.27807      -4.22038       1.01561
                        -----------------------------------------
Total Dipole Moment    :     -0.48471      -0.66043       0.36594
                        -----------------------------------------
Magnitude (a.u.)       :      0.89723
Magnitude (Debye)      :      2.28057

                             ****ORCA TERMINATED NORMALLY****
TOTAL RUN TIME: 0 days 0 hours 13 minutes 8 seconds 15 msec
