                         Program Version 3.0.3 - RELEASE   -
|  1> ! RI-MP2 RIJK def2-TZVP def2-TZVP/C def2-TZVP/JK TIGHTSCF
|  2> % maxcore 2000
|  3> % mp2 density relaxed end
|  4> *xyz 0 1
|  5>  C       -0.2880183077     1.5191032438    -0.1136165352
|  6>  C        0.1079173309     0.0482756569     0.0585117748
|  7>  C        0.7771825512    -0.4973600228    -1.2031714902
|  8>  O       -0.1381321096    -0.3788854990    -2.2826775982
|  9>  C        1.0321477688    -0.1727386456     1.2672938193
| 10>  N        0.4198764520     0.1929030334     2.5332956659
| 11>  C        0.2624876976    -0.7288858967     3.5433247482
| 12>  N       -0.2058823361    -0.1771465055     4.7344985523
| 13>  O        0.5280074215    -1.9114224465     3.4313404734
| 14>  H        0.6004643390     2.1515983037    -0.2397891012
| 15>  H       -0.9170773416     1.6450988905    -0.9969665723
| 16>  H       -0.8435097774     1.8840891411     0.7560796400
| 17>  H       -0.8017526026    -0.5429694291     0.2244215322
| 18>  H        1.7029999277     0.0685797781    -1.4051434305
| 19>  H        1.0641573649    -1.5485927295    -1.0418003976
| 20>  H        0.2925831489    -0.7014388992    -3.0792449489
| 21>  H        1.2978466953    -1.2288143879     1.3577884705
| 22>  H        1.9638994112     0.3949725558     1.1284280381
| 23>  H        0.4033748571     1.1677323017     2.7830336430
| 24>  H       -0.8374844527     0.6071981974     4.6623468812
| 25>  H       -0.5220204284    -0.8880207504     5.3771529652
| 26> *
| 27>
| 28>                          ****END OF INPUT****

CARTESIAN COORDINATES (ANGSTROEM)
---------------------------------
  C     -0.288018    1.519103   -0.113617
  C      0.107917    0.048276    0.058512
  C      0.777183   -0.497360   -1.203171
  O     -0.138132   -0.378885   -2.282678
  C      1.032148   -0.172739    1.267294
  N      0.419876    0.192903    2.533296
  C      0.262488   -0.728886    3.543325
  N     -0.205882   -0.177147    4.734499
  O      0.528007   -1.911422    3.431340
  H      0.600464    2.151598   -0.239789
  H     -0.917077    1.645099   -0.996967
  H     -0.843510    1.884089    0.756080
  H     -0.801753   -0.542969    0.224422
  H      1.703000    0.068580   -1.405143
  H      1.064157   -1.548593   -1.041800
  H      0.292583   -0.701439   -3.079245
  H      1.297847   -1.228814    1.357788
  H      1.963899    0.394973    1.128428
  H      0.403375    1.167732    2.783034
  H     -0.837484    0.607198    4.662347
  H     -0.522020   -0.888021    5.377153

 Total Charge           Charge          ....    0
 Multiplicity           Mult            ....    1
 Number of Electrons    NEL             ....   72
 Basis Dimension        Dim             ....  351

ORBITAL ENERGIES
----------------

  NO   OCC          E(Eh)            E(eV)
   0   2.0000     -20.557334      -559.3935
   1   2.0000     -20.506988      -558.0235
   2   2.0000     -15.578338      -423.9081
   3   2.0000     -15.576712      -423.8639
   4   2.0000     -11.372600      -309.4642
   5   2.0000     -11.276586      -306.8515
   6   2.0000     -11.258984      -306.3725
   7   2.0000     -11.227430      -305.5139
   8   2.0000     -11.212555      -305.1091
   9   2.0000      -1.388824       -37.7918
  10   2.0000      -1.361813       -37.0568
  11   2.0000      -1.239111       -33.7179
  12   2.0000      -1.189150       -32.3584
  13   2.0000      -1.071287       -29.1512
  14   2.0000      -0.934922       -25.4405
  15   2.0000      -0.916558       -24.9408
  16   2.0000      -0.805432       -21.9169
  17   2.0000      -0.775404       -21.0998
  18   2.0000      -0.742472       -20.2037
  19   2.0000      -0.710269       -19.3274
  20   2.0000      -0.690712       -18.7952
  21   2.0000      -0.652597       -17.7581
  22   2.0000      -0.630612       -17.1598
  23   2.0000      -0.611537       -16.6408
  24   2.0000      -0.599340       -16.3089
  25   2.0000      -0.581976       -15.8364
  26   2.0000      -0.569415       -15.4946
  27   2.0000      -0.553293       -15.0559
  28   2.0000      -0.538045       -14.6409
  29   2.0000      -0.493513       -13.4292
  30   2.0000      -0.481848       -13.1117
  31   2.0000      -0.468984       -12.7617
  32   2.0000      -0.445077       -12.1112
  33   2.0000      -0.443490       -12.0680
  34   2.0000      -0.422828       -11.5057
  35   2.0000      -0.392403       -10.6778
  36   0.0000       0.116506         3.1703
  37   0.0000       0.136104         3.7036
  38   0.0000       0.154906         4.2152
  39   0.0000       0.168580         4.5873
  40   0.0000       0.177330         4.8254

MULLIKEN ATOMIC CHARGES
-----------------------
   0 C :   -0.438352
   1 C :    0.026367
   2 C :   -0.080990
   3 O :   -0.467840
   4 C :   -0.167399
   5 N :   -0.384296
   6 C :    0.401668
   7 N :   -0.532497
   8 O :   -0.402564
   9 H :    0.113583
  10 H :    0.161887
  11 H :    0.118265
  12 H :    0.095969
  13 H :    0.091135
  14 H :    0.107463
  15 H :    0.316615
  16 H :    0.164959
  17 H :    0.127570
  18 H :    0.237585
  19 H :    0.245785
  20 H :    0.265087
Sum of atomic charges:    0.0000000

LOEWDIN ATOMIC CHARGES
----------------------
   0 C :   -0.299283
   1 C :   -0.292831
   2 C :   -0.329086
   3 O :   -0.046353
   4 C :   -0.258164
   5 N :    0.085661
   6 C :   -0.573034
   7 N :   -0.077034
   8 O :    0.049708
   9 H :    0.121556
  10 H :    0.131246
  11 H :    0.117104
  12 H :    0.158003
  13 H :    0.116341
  14 H :    0.120030
  15 H :    0.172896
  16 H :    0.151381
  17 H :    0.132264
  18 H :    0.180894
  19 H :    0.163709
  20 H :    0.174990

  Mayer bond orders larger than 0.1
B(  0-C ,  1-C ) :   0.9024 B(  0-C ,  9-H ) :   0.9301 B(  0-C , 10-H ) :   0.9348
B(  0-C , 11-H ) :   0.9407 B(  1-C ,  2-C ) :   0.9384 B(  1-C ,  4-C ) :   0.9032
B(  1-C , 12-H ) :   0.9134 B(  2-C ,  3-O ) :   1.0158 B(  2-C , 13-H ) :   0.9189
B(  2-C , 14-H ) :   0.9316 B(  3-O , 15-H ) :   0.8476 B(  4-C ,  5-N ) :   0.8669
B(  4-C , 16-H ) :   0.9194 B(  4-C , 17-H ) :   0.9350 B(  5-N ,  6-C ) :   1.1215
B(  5-N , 18-H ) :   0.8735 B(  6-C ,  7-N ) :   1.0694 B(  6-C ,  8-O ) :   1.9236
B(  7-N , 19-H ) :   0.8726 B(  7-N , 20-H ) :   0.8708

MP2 TOTAL ENERGY:     -456.857573490 Eh
FINAL SINGLE POINT ENERGY      -456.857573490470

DIPOLE MOMENT
-------------
                                X             Y             Z
Electronic contribution:     -0.17061      -4.38707       5.54372
Nuclear contribution   :      0.17474       5.47108      -5.74826
                        -----------------------------------------
Total Dipole Moment    :      0.00413       1.08401      -0.20454
                        -----------------------------------------
Magnitude (a.u.)       :      1.10315
Magnitude (Debye)      :      2.80398

                             ****ORCA TERMINATED NORMALLY****
TOTAL RUN TIME: 0 days 0 hours 16 minutes 8 seconds 24 msec
