                         Program Version 3.0.3 - RELEASE   -
|  1> ! RI-MP2 RIJK def2-TZVP def2-TZVP/C def2-TZVP/JK TIGHTSCF
|  2> % maxcore 2000
|  3> % mp2 density relaxed end
|  4> *xyz 0 1
|  5>  C       -0.2288057071     1.5961092045     0.0000741602
|  6>  C        0.0539049354     0.0995351124    -0.0022330639
|  7>  C        1.1355128094    -0.5604230712    -0.9182353973
|  8>  C        2.4090502425     0.2108374671    -0.5196352408
|  9>  C        2.3438463182    -0.0929487892     1.0058498153
| 10>  O        3.1287514335    -1.2600383835     1.2705421851
| 11>  C        2.5078367129    -2.3165424409     0.5212074939
| 12>  C        1.1492348442    -1.7438764756     0.1247524479
| 13>  C        0.8720520095    -0.5808555312     1.1222927921
| 14>  H        0.6629445108     2.1998124516     0.1894470596
| 15>  H       -0.6518804561     1.9182877515    -0.9582465214
| 16>  H       -0.9588773822     1.8427733674     0.7789601890
| 17>  H       -0.8917659781    -0.4410676009    -0.1244932675
| 18>  H        0.9541194180    -0.7335121872    -1.9800337646
| 19>  H        3.3312710874    -0.1916300811    -0.9455580161
| 20>  H        2.3559633085     1.2725820345    -0.7709620887
| 21>  H        2.6798318083     0.6941912985     1.6801983139
| 22>  H        3.1258768998    -2.5916687191    -0.3453474047
| 23>  H        2.4170883903    -3.1987496427     1.1660586506
| 24>  H        0.3446519324    -2.4664061831    -0.0107766958
| 25>  H        0.4878641526    -0.7460460920     2.1290472232
| 26> *
| 27>
| 28>                          ****END OF INPUT****

CARTESIAN COORDINATES (ANGSTROEM)
---------------------------------
  C     -0.228806    1.596109    0.000074
  C      0.053905    0.099535   -0.002233
  C      1.135513   -0.560423   -0.918235
  C      2.409050    0.210837   -0.519635
  C      2.343846   -0.092949    1.005850
  O      3.128751   -1.260038    1.270542
  C      2.507837   -2.316542    0.521207
  C      1.149235   -1.743876    0.124752
  C      0.872052   -0.580856    1.122293
  H      0.662945    2.199812    0.189447
  H     -0.651880    1.918288   -0.958247
  H     -0.958877    1.842773    0.778960
  H     -0.891766   -0.441068   -0.124493
  H      0.954119   -0.733512   -1.980034
  H      3.331271   -0.191630   -0.945558
  H      2.355963    1.272582   -0.770962
  H      2.679832    0.694191    1.680198
  H      3.125877   -2.591669   -0.345347
  H      2.417088   -3.198750    1.166059
  H      0.344652   -2.466406   -0.010777
  H      0.487864   -0.746046    2.129047

 Total Charge           Charge          ....    0
 Multiplicity           Mult            ....    1
 Number of Electrons    NEL             ....   68
 Basis Dimension        Dim             ....  351

ORBITAL ENERGIES
----------------

  NO   OCC          E(Eh)            E(eV)
   0   2.0000     -20.541819      -558.9713
   1   2.0000     -11.274202      -306.7866
   2   2.0000     -11.266167      -306.5680
   3   2.0000     -11.234090      -305.6951
   4   2.0000     -11.231862      -305.6345
   5   2.0000     -11.231021      -305.6116
   6   2.0000     -11.226230      -305.4813
   7   2.0000     -11.216647      -305.2205
   8   2.0000     -11.214878      -305.1723
   9   2.0000      -1.369882       -37.2764
  10   2.0000      -1.176995       -32.0277
  11   2.0000      -1.003210       -27.2987
  12   2.0000      -0.996915       -27.1274
  13   2.0000      -0.942895       -25.6575
  14   2.0000      -0.893891       -24.3240
  15   2.0000      -0.808299       -21.9949
  16   2.0000      -0.745631       -20.2896
  17   2.0000      -0.734994       -20.0002
  18   2.0000      -0.699968       -19.0471
  19   2.0000      -0.657733       -17.8978
  20   2.0000      -0.641375       -17.4527
  21   2.0000      -0.585184       -15.9237
  22   2.0000      -0.571577       -15.5534
  23   2.0000      -0.566404       -15.4126
  24   2.0000      -0.544738       -14.8231
  25   2.0000      -0.533880       -14.5276
  26   2.0000      -0.521078       -14.1793
  27   2.0000      -0.493027       -13.4160
  28   2.0000      -0.476788       -12.9741
  29   2.0000      -0.463596       -12.6151
  30   2.0000      -0.437644       -11.9089
  31   2.0000      -0.434535       -11.8243
  32   2.0000      -0.416914       -11.3448
  33   2.0000      -0.388205       -10.5636
  34   0.0000       0.133212         3.6249
  35   0.0000       0.156167         4.2495
  36   0.0000       0.164179         4.4675
  37   0.0000       0.176358         4.7989
  38   0.0000       0.188957         5.1418

MULLIKEN ATOMIC CHARGES
-----------------------
   0 C :   -0.425351
   1 C :   -0.101163
   2 C :   -0.029467
   3 C :   -0.311010
   4 C :    0.057919
   5 O :   -0.320325
   6 C :   -0.063721
   7 C :   -0.158629
   8 C :   -0.098288
   9 H :    0.127116
  10 H :    0.134396
  11 H :    0.135714
  12 H :    0.099207
  13 H :    0.125754
  14 H :    0.129276
  15 H :    0.126277
  16 H :    0.118098
  17 H :    0.097288
  18 H :    0.108961
  19 H :    0.122809
  20 H :    0.125139
Sum of atomic charges:    0.0000000

LOEWDIN ATOMIC CHARGES
----------------------
   0 C :   -0.297244
   1 C :   -0.217729
   2 C :   -0.165385
   3 C :   -0.208565
   4 C :   -0.261531
   5 O :    0.155109
   6 C :   -0.276619
   7 C :   -0.182022
   8 C :   -0.150369
   9 H :    0.122100
  10 H :    0.125867
  11 H :    0.126847
  12 H :    0.155825
  13 H :    0.131993
  14 H :    0.140256
  15 H :    0.133406
  16 H :    0.136619
  17 H :    0.121939
  18 H :    0.125083
  19 H :    0.148531
  20 H :    0.135890

  Mayer bond orders larger than 0.1
B(  0-C ,  1-C ) :   0.8954 B(  0-C ,  9-H ) :   0.9388 B(  0-C , 10-H ) :   0.9387
B(  0-C , 11-H ) :   0.9392 B(  1-C ,  2-C ) :   0.8856 B(  1-C ,  8-C ) :   0.8947
B(  1-C , 12-H ) :   0.9170 B(  2-C ,  3-C ) :   0.8936 B(  2-C ,  7-C ) :   0.8957
B(  2-C , 13-H ) :   0.9022 B(  3-C ,  4-C ) :   0.9108 B(  3-C , 14-H ) :   0.9279
B(  3-C , 15-H ) :   0.9310 B(  4-C ,  5-O ) :   0.9552 B(  4-C ,  8-C ) :   0.9162
B(  4-C , 16-H ) :   0.9292 B(  5-O ,  6-C ) :   0.9391 B(  6-C ,  7-C ) :   0.9751
B(  6-C , 17-H ) :   0.9167 B(  6-C , 18-H ) :   0.9248 B(  7-C ,  8-C ) :   0.8929
B(  7-C , 19-H ) :   0.9175 B(  8-C , 20-H ) :   0.9098

MP2 TOTAL ENERGY:     -386.416992118 Eh
FINAL SINGLE POINT ENERGY      -386.416992118111

DIPOLE MOMENT
-------------
                                X             Y             Z
Electronic contribution:      3.30801      -3.36978       2.21521
Nuclear contribution   :     -3.93301       3.43844      -2.59666
                        -----------------------------------------
Total Dipole Moment    :     -0.62500       0.06866      -0.38145
                        -----------------------------------------
Magnitude (a.u.)       :      0.73542
Magnitude (Debye)      :      1.86930

                             ****ORCA TERMINATED NORMALLY****
TOTAL RUN TIME: 0 days 0 hours 21 minutes 0 seconds 791 msec
