                         Program Version 3.0.3 - RELEASE   -
|  1> ! RI-MP2 RIJK def2-TZVP def2-TZVP/C def2-TZVP/JK TIGHTSCF
|  2> % maxcore 2000
|  3> % mp2 density relaxed end
|  4> *xyz 0 1
|  5>  C        0.0559706215     1.6556825587     0.0188157644
|  6>  C        0.1342932243     0.1447869270     0.0905098554
|  7>  C        1.3298604069    -0.7192715820    -0.2831296190
|  8>  O        1.0934628448    -1.9034834125    -1.0006070130
|  9>  C        2.7317892905    -0.1301762721    -0.3293119290
| 10>  C        2.9610293076     0.5168516767     1.0640396977
| 11>  C        1.9149571022    -0.1082955956     2.0281816055
| 12>  C        0.8380629998    -0.7077065739     1.1408267290
| 13>  O        0.1613449522    -1.8153068485     1.6515270731
| 14>  H        0.9830809648     2.1496549497     0.3139430496
| 15>  H       -0.1798995336     1.9872704906    -0.9991840794
| 16>  H       -0.7369186441     2.0285691138     0.6764294185
| 17>  H       -0.7953831475    -0.3433822695    -0.1989993931
| 18>  H        0.6962239949    -1.6813896419    -1.8485649778
| 19>  H        3.4231049980    -0.9631850543    -0.4956716523
| 20>  H        2.8855460151     0.5851395487    -1.1453386507
| 21>  H        3.9805416662     0.3440468132     1.4185452171
| 22>  H        2.8386626916     1.6011518896     1.0108250776
| 23>  H        2.3492018399    -0.9322577476     2.6035519788
| 24>  H        1.5317270752     0.6211171453     2.7490361399
| 25>  H        0.1661447895    -2.4783128353     0.9469837877
| 26> *
| 27>
| 28>                          ****END OF INPUT****

CARTESIAN COORDINATES (ANGSTROEM)
---------------------------------
  C      0.055971    1.655683    0.018816
  C      0.134293    0.144787    0.090510
  C      1.329860   -0.719272   -0.283130
  O      1.093463   -1.903483   -1.000607
  C      2.731789   -0.130176   -0.329312
  C      2.961029    0.516852    1.064040
  C      1.914957   -0.108296    2.028182
  C      0.838063   -0.707707    1.140827
  O      0.161345   -1.815307    1.651527
  H      0.983081    2.149655    0.313943
  H     -0.179900    1.987270   -0.999184
  H     -0.736919    2.028569    0.676429
  H     -0.795383   -0.343382   -0.198999
  H      0.696224   -1.681390   -1.848565
  H      3.423105   -0.963185   -0.495672
  H      2.885546    0.585140   -1.145339
  H      3.980542    0.344047    1.418545
  H      2.838663    1.601152    1.010825
  H      2.349202   -0.932258    2.603552
  H      1.531727    0.621117    2.749036
  H      0.166145   -2.478313    0.946984

 Total Charge           Charge          ....    0
 Multiplicity           Mult            ....    1
 Number of Electrons    NEL             ....   70
 Basis Dimension        Dim             ....  351

ORBITAL ENERGIES
----------------

  NO   OCC          E(Eh)            E(eV)
   0   2.0000     -20.573141      -559.8236
   1   2.0000     -20.549512      -559.1807
   2   2.0000     -11.280017      -306.9449
   3   2.0000     -11.275261      -306.8154
   4   2.0000     -11.230977      -305.6104
   5   2.0000     -11.225596      -305.4640
   6   2.0000     -11.224725      -305.4403
   7   2.0000     -11.222261      -305.3732
   8   2.0000     -11.219990      -305.3114
   9   2.0000      -1.389417       -37.8080
  10   2.0000      -1.354327       -36.8531
  11   2.0000      -1.152974       -31.3740
  12   2.0000      -1.040262       -28.3070
  13   2.0000      -0.962104       -26.1802
  14   2.0000      -0.959560       -26.1109
  15   2.0000      -0.837601       -22.7923
  16   2.0000      -0.776665       -21.1341
  17   2.0000      -0.746153       -20.3039
  18   2.0000      -0.711588       -19.3633
  19   2.0000      -0.665903       -18.1201
  20   2.0000      -0.639277       -17.3956
  21   2.0000      -0.628815       -17.1109
  22   2.0000      -0.594152       -16.1677
  23   2.0000      -0.578584       -15.7441
  24   2.0000      -0.560495       -15.2518
  25   2.0000      -0.559611       -15.2278
  26   2.0000      -0.543141       -14.7796
  27   2.0000      -0.537395       -14.6233
  28   2.0000      -0.512935       -13.9577
  29   2.0000      -0.508722       -13.8430
  30   2.0000      -0.478814       -13.0292
  31   2.0000      -0.467467       -12.7204
  32   2.0000      -0.458231       -12.4691
  33   2.0000      -0.385945       -10.5021
  34   2.0000      -0.365715        -9.9516
  35   0.0000       0.124058         3.3758
  36   0.0000       0.144477         3.9314
  37   0.0000       0.165904         4.5145
  38   0.0000       0.175749         4.7824
  39   0.0000       0.182288         4.9603

MULLIKEN ATOMIC CHARGES
-----------------------
   0 C :   -0.395651
   1 C :   -0.168484
   2 C :    0.124819
   3 O :   -0.477763
   4 C :   -0.258145
   5 C :   -0.258678
   6 C :   -0.214772
   7 C :    0.210368
   8 O :   -0.464803
   9 H :    0.128060
  10 H :    0.129760
  11 H :    0.140219
  12 H :    0.116148
  13 H :    0.334112
  14 H :    0.124719
  15 H :    0.110825
  16 H :    0.123767
  17 H :    0.122119
  18 H :    0.118713
  19 H :    0.119784
  20 H :    0.334882
Sum of atomic charges:    0.0000000

LOEWDIN ATOMIC CHARGES
----------------------
   0 C :   -0.290617
   1 C :   -0.186835
   2 C :   -0.321800
   3 O :    0.014798
   4 C :   -0.216105
   5 C :   -0.241532
   6 C :   -0.206293
   7 C :   -0.312051
   8 O :    0.023025
   9 H :    0.125293
  10 H :    0.125552
  11 H :    0.129313
  12 H :    0.160081
  13 H :    0.183043
  14 H :    0.146106
  15 H :    0.135023
  16 H :    0.134265
  17 H :    0.128265
  18 H :    0.146597
  19 H :    0.138065
  20 H :    0.185807

  Mayer bond orders larger than 0.1
B(  0-C ,  1-C ) :   0.8539 B(  0-C ,  9-H ) :   0.9403 B(  0-C , 10-H ) :   0.9368
B(  0-C , 11-H ) :   0.9352 B(  1-C ,  2-C ) :   0.8872 B(  1-C ,  7-C ) :   0.8446
B(  1-C , 12-H ) :   0.9320 B(  2-C ,  3-O ) :   1.0004 B(  2-C ,  4-C ) :   0.9459
B(  2-C ,  7-C ) :   0.8202 B(  3-O , 13-H ) :   0.8361 B(  4-C ,  5-C ) :   0.9311
B(  4-C , 14-H ) :   0.9226 B(  4-C , 15-H ) :   0.9176 B(  5-C ,  6-C ) :   0.9245
B(  5-C , 16-H ) :   0.9279 B(  5-C , 17-H ) :   0.9354 B(  6-C ,  7-C ) :   0.9158
B(  6-C , 18-H ) :   0.9223 B(  6-C , 19-H ) :   0.9309 B(  7-C ,  8-O ) :   1.1292
B(  8-O , 20-H ) :   0.8189

MP2 TOTAL ENERGY:     -423.525075635 Eh
FINAL SINGLE POINT ENERGY      -423.525075635089

DIPOLE MOMENT
-------------
                                X             Y             Z
Electronic contribution:     -2.11568      -6.44638      -0.23292
Nuclear contribution   :      2.26928       6.97413      -0.57913
                        -----------------------------------------
Total Dipole Moment    :      0.15361       0.52775      -0.81205
                        -----------------------------------------
Magnitude (a.u.)       :      0.98059
Magnitude (Debye)      :      2.49245

                             ****ORCA TERMINATED NORMALLY****
TOTAL RUN TIME: 0 days 0 hours 18 minutes 55 seconds 475 msec
