                         Program Version 3.0.3 - RELEASE   -
|  1> ! RI-MP2 RIJK def2-TZVP def2-TZVP/C def2-TZVP/JK TIGHTSCF
|  2> % maxcore 2000
|  3> % mp2 density relaxed end
|  4> *xyz 0 1
|  5>  C        0.7576775231     0.2286915854    -0.9004615251
|  6>  C       -0.1783819951     0.3187534730     0.2872975440
|  7>  O        0.0723809888     1.0040884544     1.2567642928
|  8>  C       -1.4525320262    -0.4731283429     0.2376945816
|  9>  C       -2.5398840416    -0.1692764069     1.2596102721
| 10>  C       -3.4639853342    -1.4078565214     1.2476541065
| 11>  C       -2.5532667908    -2.5872659575     0.8336424841
| 12>  C       -1.4752910522    -1.9571240761    -0.0329020910
| 13>  N       -1.8597260447    -1.0136436108    -1.0769763817
| 14>  H        1.6583851589     0.8061841817    -0.6900833470
| 15>  H        1.0216040139    -0.8103534612    -1.1214304859
| 16>  H        0.2579388574     0.6118593696    -1.7951092152
| 17>  H       -2.0572174999    -0.0323373267     2.2313669568
| 18>  H       -3.0758777702     0.7597521737     1.0390369894
| 19>  H       -3.9474680860    -1.5751886446     2.2128077122
| 20>  H       -4.2725208524    -1.2782728390     0.5202438431
| 21>  H       -2.0751991258    -3.0392632059     1.7107527988
| 22>  H       -3.0985837320    -3.3853677836     0.3180362614
| 23>  H       -0.5672792958    -2.5181216589    -0.2359934740
| 24>  H       -2.8698021151    -0.9652453121    -1.1884194029
| 25> *
| 26>
| 27>                          ****END OF INPUT****

CARTESIAN COORDINATES (ANGSTROEM)
---------------------------------
  C      0.757678    0.228692   -0.900462
  C     -0.178382    0.318753    0.287298
  O      0.072381    1.004088    1.256764
  C     -1.452532   -0.473128    0.237695
  C     -2.539884   -0.169276    1.259610
  C     -3.463985   -1.407857    1.247654
  C     -2.553267   -2.587266    0.833642
  C     -1.475291   -1.957124   -0.032902
  N     -1.859726   -1.013644   -1.076976
  H      1.658385    0.806184   -0.690083
  H      1.021604   -0.810353   -1.121430
  H      0.257939    0.611859   -1.795109
  H     -2.057217   -0.032337    2.231367
  H     -3.075878    0.759752    1.039037
  H     -3.947468   -1.575189    2.212808
  H     -4.272521   -1.278273    0.520244
  H     -2.075199   -3.039263    1.710753
  H     -3.098584   -3.385368    0.318036
  H     -0.567279   -2.518122   -0.235993
  H     -2.869802   -0.965245   -1.188419

 Total Charge           Charge          ....    0
 Multiplicity           Mult            ....    1
 Number of Electrons    NEL             ....   68
 Basis Dimension        Dim             ....  345

ORBITAL ENERGIES
----------------

  NO   OCC          E(Eh)            E(eV)
   0   2.0000     -20.538345      -558.8768
   1   2.0000     -15.571425      -423.7200
   2   2.0000     -11.326953      -308.2221
   3   2.0000     -11.274703      -306.8003
   4   2.0000     -11.271404      -306.7105
   5   2.0000     -11.239084      -305.8310
   6   2.0000     -11.235041      -305.7210
   7   2.0000     -11.230543      -305.5986
   8   2.0000     -11.224314      -305.4291
   9   2.0000      -1.382945       -37.6319
  10   2.0000      -1.287553       -35.0361
  11   2.0000      -1.078038       -29.3349
  12   2.0000      -1.012004       -27.5380
  13   2.0000      -0.981019       -26.6949
  14   2.0000      -0.921824       -25.0841
  15   2.0000      -0.825751       -22.4698
  16   2.0000      -0.802257       -21.8305
  17   2.0000      -0.727151       -19.7868
  18   2.0000      -0.688631       -18.7386
  19   2.0000      -0.655215       -17.8293
  20   2.0000      -0.642345       -17.4791
  21   2.0000      -0.612272       -16.6608
  22   2.0000      -0.594389       -16.1741
  23   2.0000      -0.587114       -15.9762
  24   2.0000      -0.565948       -15.4002
  25   2.0000      -0.533161       -14.5080
  26   2.0000      -0.522318       -14.2130
  27   2.0000      -0.508955       -13.8494
  28   2.0000      -0.493106       -13.4181
  29   2.0000      -0.486002       -13.2248
  30   2.0000      -0.476494       -12.9661
  31   2.0000      -0.446971       -12.1627
  32   2.0000      -0.419253       -11.4085
  33   2.0000      -0.385503       -10.4901
  34   0.0000       0.124588         3.3902
  35   0.0000       0.143945         3.9169
  36   0.0000       0.151009         4.1092
  37   0.0000       0.162117         4.4114
  38   0.0000       0.173566         4.7230

MULLIKEN ATOMIC CHARGES
-----------------------
   0 C :   -0.388669
   1 C :    0.146320
   2 O :   -0.298342
   3 C :    0.106782
   4 C :   -0.219042
   5 C :   -0.291639
   6 C :   -0.183931
   7 C :   -0.085346
   8 N :   -0.351429
   9 H :    0.149426
  10 H :    0.136504
  11 H :    0.153304
  12 H :    0.143896
  13 H :    0.126802
  14 H :    0.136142
  15 H :    0.127461
  16 H :    0.118094
  17 H :    0.127945
  18 H :    0.127873
  19 H :    0.217849
Sum of atomic charges:    0.0000000

LOEWDIN ATOMIC CHARGES
----------------------
   0 C :   -0.272212
   1 C :   -0.317304
   2 O :    0.145227
   3 C :   -0.244964
   4 C :   -0.210294
   5 C :   -0.253036
   6 C :   -0.240354
   7 C :   -0.224506
   8 N :    0.050210
   9 H :    0.131293
  10 H :    0.135793
  11 H :    0.142561
  12 H :    0.153227
  13 H :    0.141402
  14 H :    0.137376
  15 H :    0.132051
  16 H :    0.145637
  17 H :    0.138180
  18 H :    0.140165
  19 H :    0.169549

  Mayer bond orders larger than 0.1
B(  0-C ,  1-C ) :   0.9608 B(  0-C ,  9-H ) :   0.9375 B(  0-C , 10-H ) :   0.9138
B(  0-C , 11-H ) :   0.9059 B(  1-C ,  2-O ) :   1.9961 B(  1-C ,  3-C ) :   0.8762
B(  3-C ,  4-C ) :   0.9330 B(  3-C ,  7-C ) :   0.8403 B(  3-C ,  8-N ) :   0.9020
B(  4-C ,  5-C ) :   0.9068 B(  4-C , 12-H ) :   0.9147 B(  4-C , 13-H ) :   0.9346
B(  5-C ,  6-C ) :   0.9213 B(  5-C , 14-H ) :   0.9301 B(  5-C , 15-H ) :   0.9462
B(  6-C ,  7-C ) :   0.9423 B(  6-C , 16-H ) :   0.9130 B(  6-C , 17-H ) :   0.9293
B(  7-C ,  8-N ) :   0.9356 B(  7-C , 18-H ) :   0.9103 B(  8-N , 19-H ) :   0.8640

MP2 TOTAL ENERGY:     -402.475076177 Eh
FINAL SINGLE POINT ENERGY      -402.475076177435

DIPOLE MOMENT
-------------
                                X             Y             Z
Electronic contribution:      2.66920       3.06869       0.51986
Nuclear contribution   :     -3.39764      -3.91324      -0.74614
                        -----------------------------------------
Total Dipole Moment    :     -0.72845      -0.84455      -0.22628
                        -----------------------------------------
Magnitude (a.u.)       :      1.13802
Magnitude (Debye)      :      2.89263

                             ****ORCA TERMINATED NORMALLY****
TOTAL RUN TIME: 0 days 0 hours 21 minutes 8 seconds 562 msec
