                         Program Version 3.0.3 - RELEASE   -
|  1> ! RI-MP2 RIJK def2-TZVP def2-TZVP/C def2-TZVP/JK TIGHTSCF
|  2> % maxcore 2000
|  3> % mp2 density relaxed end
|  4> *xyz 0 1
|  5>  O       -0.3769152791     0.2381854812    -0.4022998941
|  6>  C       -0.0211363469     1.3179078758    -0.0217193847
|  7>  N        1.2870732946     1.7304112405     0.1994536100
|  8>  C        2.4493470562     0.9765851644     0.0265776895
|  9>  O        2.5207192333    -0.1582887315    -0.3452249502
| 10>  O        3.4957267569     1.7703463350     0.3744337291
| 11>  C        4.7754455322     1.1751373332     0.2365009280
| 12>  C        5.5977088985     1.5472508100    -0.9586698895
| 13>  C        5.9274884520     2.1060944745     0.4130483174
| 14>  H       -0.7189142600     2.1485750203     0.2075916928
| 15>  H        1.4259953670     2.6753177960     0.5259141859
| 16>  H        4.8144542467     0.1632862785     0.6195573402
| 17>  H        6.2394742799     0.7888119323    -1.3917475225
| 18>  H        5.1481591150     2.2274237716    -1.6728667880
| 19>  H        5.6927161188     3.1492618268     0.5910575823
| 20>  H        6.8032112649     1.7418163516     0.9375420237
| 21> *
| 22>
| 23>                          ****END OF INPUT****

CARTESIAN COORDINATES (ANGSTROEM)
---------------------------------
  O     -0.376915    0.238185   -0.402300
  C     -0.021136    1.317908   -0.021719
  N      1.287073    1.730411    0.199454
  C      2.449347    0.976585    0.026578
  O      2.520719   -0.158289   -0.345225
  O      3.495727    1.770346    0.374434
  C      4.775446    1.175137    0.236501
  C      5.597709    1.547251   -0.958670
  C      5.927488    2.106094    0.413048
  H     -0.718914    2.148575    0.207592
  H      1.425995    2.675318    0.525914
  H      4.814454    0.163286    0.619557
  H      6.239474    0.788812   -1.391748
  H      5.148159    2.227424   -1.672867
  H      5.692716    3.149262    0.591058
  H      6.803211    1.741816    0.937542

 Total Charge           Charge          ....    0
 Multiplicity           Mult            ....    1
 Number of Electrons    NEL             ....   68
 Basis Dimension        Dim             ....  321

ORBITAL ENERGIES
----------------

  NO   OCC          E(Eh)            E(eV)
   0   2.0000     -20.621378      -561.1362
   1   2.0000     -20.552375      -559.2586
   2   2.0000     -20.548988      -559.1664
   3   2.0000     -15.627401      -425.2432
   4   2.0000     -11.425495      -310.9035
   5   2.0000     -11.376053      -309.5581
   6   2.0000     -11.304676      -307.6159
   7   2.0000     -11.243325      -305.9464
   8   2.0000     -11.241028      -305.8839
   9   2.0000      -1.486443       -40.4482
  10   2.0000      -1.411623       -38.4122
  11   2.0000      -1.380578       -37.5674
  12   2.0000      -1.263130       -34.3715
  13   2.0000      -1.152283       -31.3552
  14   2.0000      -0.949804       -25.8455
  15   2.0000      -0.848169       -23.0798
  16   2.0000      -0.835418       -22.7329
  17   2.0000      -0.792376       -21.5616
  18   2.0000      -0.781045       -21.2533
  19   2.0000      -0.715815       -19.4783
  20   2.0000      -0.695320       -18.9206
  21   2.0000      -0.681181       -18.5359
  22   2.0000      -0.652036       -17.7428
  23   2.0000      -0.643437       -17.5088
  24   2.0000      -0.626656       -17.0522
  25   2.0000      -0.587064       -15.9748
  26   2.0000      -0.560241       -15.2449
  27   2.0000      -0.533905       -14.5283
  28   2.0000      -0.513065       -13.9612
  29   2.0000      -0.490296       -13.3416
  30   2.0000      -0.450985       -12.2719
  31   2.0000      -0.444744       -12.1021
  32   2.0000      -0.439052       -11.9472
  33   2.0000      -0.422097       -11.4858
  34   0.0000       0.123987         3.3739
  35   0.0000       0.131076         3.5668
  36   0.0000       0.155165         4.2222
  37   0.0000       0.166629         4.5342
  38   0.0000       0.171953         4.6791

MULLIKEN ATOMIC CHARGES
-----------------------
   0 O :   -0.267410
   1 C :    0.183611
   2 N :   -0.320179
   3 C :    0.426154
   4 O :   -0.295122
   5 O :   -0.287534
   6 C :    0.015288
   7 C :   -0.250056
   8 C :   -0.244038
   9 H :    0.088013
  10 H :    0.260104
  11 H :    0.138685
  12 H :    0.138656
  13 H :    0.136679
  14 H :    0.138243
  15 H :    0.138907
Sum of atomic charges:    0.0000000

LOEWDIN ATOMIC CHARGES
----------------------
   0 O :    0.129686
   1 C :   -0.392889
   2 N :    0.116526
   3 C :   -0.541740
   4 O :    0.147285
   5 O :    0.256747
   6 C :   -0.276821
   7 C :   -0.221000
   8 C :   -0.223082
   9 H :    0.112803
  10 H :    0.199981
  11 H :    0.144489
  12 H :    0.135660
  13 H :    0.138519
  14 H :    0.138825
  15 H :    0.135010

  Mayer bond orders larger than 0.1
B(  0-O ,  1-C ) :   1.9962 B(  1-C ,  2-N ) :   1.0124 B(  1-C ,  9-H ) :   0.9263
B(  2-N ,  3-C ) :   1.0129 B(  2-N , 10-H ) :   0.8608 B(  3-C ,  4-O ) :   1.9602
B(  3-C ,  5-O ) :   1.0661 B(  5-O ,  6-C ) :   0.8634 B(  6-C ,  7-C ) :   0.9151
B(  6-C ,  8-C ) :   0.8850 B(  6-C , 11-H ) :   0.9356 B(  7-C ,  8-C ) :   0.9027
B(  7-C , 12-H ) :   0.9221 B(  7-C , 13-H ) :   0.9235 B(  8-C , 14-H ) :   0.9193
B(  8-C , 15-H ) :   0.9257

MP2 TOTAL ENERGY:     -474.304883778 Eh
FINAL SINGLE POINT ENERGY      -474.304883778215

DIPOLE MOMENT
-------------
                                X             Y             Z
Electronic contribution:     -8.24308      -2.66911       0.34916
Nuclear contribution   :      9.08182       4.32417       0.18342
                        -----------------------------------------
Total Dipole Moment    :      0.83874       1.65507       0.53257
                        -----------------------------------------
Magnitude (a.u.)       :      1.93038
Magnitude (Debye)      :      4.90664

                             ****ORCA TERMINATED NORMALLY****
TOTAL RUN TIME: 0 days 0 hours 11 minutes 48 seconds 112 msec
