                         Program Version 3.0.3 - RELEASE   -
|  1> ! RI-MP2 RIJK def2-TZVP def2-TZVP/C def2-TZVP/JK TIGHTSCF
|  2> % maxcore 2000
|  3> % mp2 density relaxed end
|  4> *xyz 0 1
|  5>  C        0.0380494386     1.5341928770     0.1041697431
|  6>  C       -0.0106189609     0.0356192522    -0.0018722315
|  7>  C        0.6308720110    -0.7966615143    -1.1607958413
|  8>  C        0.6017285846    -1.8138640940     0.0142366950
|  9>  O        0.8839803571    -0.6905576321     0.9148573721
| 10>  C       -0.9104360674    -2.0082087739     0.2188259326
| 11>  C       -1.3419808917    -0.7442117825     0.2104883128
| 12>  C       -2.7059966229    -0.1676737155     0.3797009200
| 13>  O       -3.6873417067    -1.1328445143     0.7110995473
| 14>  H        1.0568149989     1.8967382551    -0.0555041429
| 15>  H       -0.6144819502     1.9951368542    -0.6446368407
| 16>  H       -0.2906501731     1.8640910396     1.0949646652
| 17>  H        0.0379197277    -1.0057434099    -2.0538483401
| 18>  H        1.6403338681    -0.4544469756    -1.4043075145
| 19>  H        1.2846121540    -2.6562335028     0.1112741576
| 20>  H       -1.4544994485    -2.9355024438     0.3173983623
| 21>  H       -2.6754748620     0.6485023047     1.1229743730
| 22>  H       -3.0465468064     0.2947818374    -0.5569824461
| 23>  H       -3.3921641904    -1.5712735516     1.5165415962
| 24> *
| 25>
| 26>                          ****END OF INPUT****

CARTESIAN COORDINATES (ANGSTROEM)
---------------------------------
  C      0.038049    1.534193    0.104170
  C     -0.010619    0.035619   -0.001872
  C      0.630872   -0.796662   -1.160796
  C      0.601729   -1.813864    0.014237
  O      0.883980   -0.690558    0.914857
  C     -0.910436   -2.008209    0.218826
  C     -1.341981   -0.744212    0.210488
  C     -2.705997   -0.167674    0.379701
  O     -3.687342   -1.132845    0.711100
  H      1.056815    1.896738   -0.055504
  H     -0.614482    1.995137   -0.644637
  H     -0.290650    1.864091    1.094965
  H      0.037920   -1.005743   -2.053848
  H      1.640334   -0.454447   -1.404308
  H      1.284612   -2.656234    0.111274
  H     -1.454499   -2.935502    0.317398
  H     -2.675475    0.648502    1.122974
  H     -3.046547    0.294782   -0.556982
  H     -3.392164   -1.571274    1.516542

 Total Charge           Charge          ....    0
 Multiplicity           Mult            ....    1
 Number of Electrons    NEL             ....   68
 Basis Dimension        Dim             ....  339

ORBITAL ENERGIES
----------------

  NO   OCC          E(Eh)            E(eV)
   0   2.0000     -20.562302      -559.5287
   1   2.0000     -20.544864      -559.0542
   2   2.0000     -11.303246      -307.5770
   3   2.0000     -11.293732      -307.3181
   4   2.0000     -11.290654      -307.2343
   5   2.0000     -11.238592      -305.8176
   6   2.0000     -11.235582      -305.7357
   7   2.0000     -11.228043      -305.5306
   8   2.0000     -11.227210      -305.5079
   9   2.0000      -1.388143       -37.7733
  10   2.0000      -1.367521       -37.2121
  11   2.0000      -1.103399       -30.0250
  12   2.0000      -1.021801       -27.8046
  13   2.0000      -0.993880       -27.0448
  14   2.0000      -0.928752       -25.2726
  15   2.0000      -0.872666       -23.7465
  16   2.0000      -0.766351       -20.8535
  17   2.0000      -0.730821       -19.8867
  18   2.0000      -0.688632       -18.7386
  19   2.0000      -0.666750       -18.1432
  20   2.0000      -0.660872       -17.9832
  21   2.0000      -0.618004       -16.8167
  22   2.0000      -0.598526       -16.2867
  23   2.0000      -0.586644       -15.9634
  24   2.0000      -0.577778       -15.7221
  25   2.0000      -0.557260       -15.1638
  26   2.0000      -0.530609       -14.4386
  27   2.0000      -0.521797       -14.1988
  28   2.0000      -0.494864       -13.4659
  29   2.0000      -0.483405       -13.1541
  30   2.0000      -0.463729       -12.6187
  31   2.0000      -0.444987       -12.1087
  32   2.0000      -0.416443       -11.3320
  33   2.0000      -0.343492        -9.3469
  34   0.0000       0.130252         3.5443
  35   0.0000       0.139509         3.7962
  36   0.0000       0.147036         4.0010
  37   0.0000       0.167805         4.5662
  38   0.0000       0.182705         4.9716

MULLIKEN ATOMIC CHARGES
-----------------------
   0 C :   -0.438209
   1 C :    0.140568
   2 C :   -0.151994
   3 C :    0.044381
   4 O :   -0.291686
   5 C :   -0.252017
   6 C :   -0.072327
   7 C :   -0.034582
   8 O :   -0.465133
   9 H :    0.148296
  10 H :    0.138779
  11 H :    0.147293
  12 H :    0.115884
  13 H :    0.117775
  14 H :    0.138751
  15 H :    0.146225
  16 H :    0.121340
  17 H :    0.126778
  18 H :    0.319878
Sum of atomic charges:   -0.0000000

LOEWDIN ATOMIC CHARGES
----------------------
   0 C :   -0.267811
   1 C :   -0.277994
   2 C :   -0.167160
   3 C :   -0.234370
   4 O :    0.165320
   5 C :   -0.116596
   6 C :   -0.129369
   7 C :   -0.315660
   8 O :   -0.035277
   9 H :    0.134137
  10 H :    0.134209
  11 H :    0.134425
  12 H :    0.128419
  13 H :    0.134406
  14 H :    0.130213
  15 H :    0.136241
  16 H :    0.128312
  17 H :    0.140979
  18 H :    0.177579

  Mayer bond orders larger than 0.1
B(  0-C ,  1-C ) :   0.8190 B(  0-C ,  9-H ) :   0.9437 B(  0-C , 10-H ) :   0.9387
B(  0-C , 11-H ) :   0.9475 B(  1-C ,  2-C ) :   0.9222 B(  1-C ,  4-O ) :   0.9604
B(  1-C ,  6-C ) :   0.9246 B(  2-C ,  3-C ) :   0.9333 B(  2-C , 12-H ) :   0.9087
B(  2-C , 13-H ) :   0.9264 B(  3-C ,  4-O ) :   0.9004 B(  3-C ,  5-C ) :   0.9345
B(  3-C , 14-H ) :   0.9079 B(  5-C ,  6-C ) :   1.7501 B(  5-C , 15-H ) :   0.9237
B(  6-C ,  7-C ) :   0.8828 B(  7-C ,  8-O ) :   0.9483 B(  7-C , 16-H ) :   0.9581
B(  7-C , 17-H ) :   0.9162 B(  8-O , 18-H ) :   0.8401

MP2 TOTAL ENERGY:     -422.276481384 Eh
FINAL SINGLE POINT ENERGY      -422.276481383960

DIPOLE MOMENT
-------------
                                X             Y             Z
Electronic contribution:     -0.03714      -3.89466       1.86856
Nuclear contribution   :      0.18562       4.03806      -2.18229
                        -----------------------------------------
Total Dipole Moment    :      0.14848       0.14340      -0.31373
                        -----------------------------------------
Magnitude (a.u.)       :      0.37555
Magnitude (Debye)      :      0.95456

                             ****ORCA TERMINATED NORMALLY****
TOTAL RUN TIME: 0 days 0 hours 18 minutes 13 seconds 682 msec
