                         Program Version 3.0.3 - RELEASE   -
|  1> ! RI-MP2 RIJK def2-TZVP def2-TZVP/C def2-TZVP/JK TIGHTSCF
|  2> % maxcore 2000
|  3> % mp2 density relaxed end
|  4> *xyz 0 1
|  5>  N       -0.8156897580    -0.7246651247    -1.2534154144
|  6>  C       -0.4959320189     0.2309866560    -0.6874333463
|  7>  C       -0.0840873400     1.4577835935    -0.0016246517
|  8>  N       -0.0043484586     1.3651542975     1.4714763147
|  9>  C        1.2889780743     2.0982406685     1.5036436646
| 10>  C        2.4209703557     1.3206774358     2.1980091070
| 11>  C        2.9654622788     0.4589748033     1.0811853812
| 12>  C        2.4360432105     0.7435507101    -0.1093550576
| 13>  C        1.4318753582     1.8585416187    -0.0316341604
| 14>  H       -0.7111499069     2.2796915274    -0.3734102668
| 15>  H       -0.7767250327     1.7946600309     1.9672329737
| 16>  H        1.2088668109     3.1429782585     1.8204043117
| 17>  H        3.1927232421     1.9837894548     2.6112610330
| 18>  H        2.0261192508     0.7262344598     3.0301479015
| 19>  H        3.7140496904    -0.3064705373     1.2543384730
| 20>  H        2.6845003364     0.2493487073    -1.0411881982
| 21>  H        1.6517608971     2.7023796300    -0.6889272650
| 22> *
| 23>
| 24>                          ****END OF INPUT****

CARTESIAN COORDINATES (ANGSTROEM)
---------------------------------
  N     -0.815690   -0.724665   -1.253415
  C     -0.495932    0.230987   -0.687433
  C     -0.084087    1.457784   -0.001625
  N     -0.004348    1.365154    1.471476
  C      1.288978    2.098241    1.503644
  C      2.420970    1.320677    2.198009
  C      2.965462    0.458975    1.081185
  C      2.436043    0.743551   -0.109355
  C      1.431875    1.858542   -0.031634
  H     -0.711150    2.279692   -0.373410
  H     -0.776725    1.794660    1.967233
  H      1.208867    3.142978    1.820404
  H      3.192723    1.983789    2.611261
  H      2.026119    0.726234    3.030148
  H      3.714050   -0.306471    1.254338
  H      2.684500    0.249349   -1.041188
  H      1.651761    2.702380   -0.688927

 Total Charge           Charge          ....    0
 Multiplicity           Mult            ....    1
 Number of Electrons    NEL             ....   64
 Basis Dimension        Dim             ....  327

ORBITAL ENERGIES
----------------

  NO   OCC          E(Eh)            E(eV)
   0   2.0000     -15.568473      -423.6397
   1   2.0000     -15.564862      -423.5414
   2   2.0000     -11.311608      -307.8045
   3   2.0000     -11.277470      -306.8756
   4   2.0000     -11.264748      -306.5294
   5   2.0000     -11.259965      -306.3992
   6   2.0000     -11.239498      -305.8423
   7   2.0000     -11.235469      -305.7327
   8   2.0000     -11.234209      -305.6984
   9   2.0000      -1.272071       -34.6148
  10   2.0000      -1.208166       -32.8759
  11   2.0000      -1.115059       -30.3423
  12   2.0000      -1.018438       -27.7131
  13   2.0000      -0.952695       -25.9241
  14   2.0000      -0.933068       -25.3901
  15   2.0000      -0.774217       -21.0675
  16   2.0000      -0.763857       -20.7856
  17   2.0000      -0.734542       -19.9879
  18   2.0000      -0.685772       -18.6608
  19   2.0000      -0.665497       -18.1091
  20   2.0000      -0.623680       -16.9712
  21   2.0000      -0.565430       -15.3861
  22   2.0000      -0.557726       -15.1765
  23   2.0000      -0.548734       -14.9318
  24   2.0000      -0.538292       -14.6477
  25   2.0000      -0.513889       -13.9836
  26   2.0000      -0.507567       -13.8116
  27   2.0000      -0.481278       -13.0963
  28   2.0000      -0.456240       -12.4149
  29   2.0000      -0.445593       -12.1252
  30   2.0000      -0.403578       -10.9819
  31   2.0000      -0.359650        -9.7866
  32   0.0000       0.115459         3.1418
  33   0.0000       0.137738         3.7480
  34   0.0000       0.142278         3.8716
  35   0.0000       0.159361         4.3364
  36   0.0000       0.170037         4.6269

MULLIKEN ATOMIC CHARGES
-----------------------
   0 N :   -0.052106
   1 C :   -0.200865
   2 C :    0.073530
   3 N :   -0.362727
   4 C :   -0.062206
   5 C :   -0.132204
   6 C :   -0.195022
   7 C :   -0.220433
   8 C :    0.040271
   9 H :    0.132384
  10 H :    0.213596
  11 H :    0.117816
  12 H :    0.115122
  13 H :    0.122541
  14 H :    0.132503
  15 H :    0.144735
  16 H :    0.133065
Sum of atomic charges:   -0.0000000

LOEWDIN ATOMIC CHARGES
----------------------
   0 N :    0.065564
   1 C :   -0.167056
   2 C :   -0.243040
   3 N :    0.041696
   4 C :   -0.215850
   5 C :   -0.224706
   6 C :   -0.137520
   7 C :   -0.137699
   8 C :   -0.152646
   9 H :    0.157997
  10 H :    0.161823
  11 H :    0.133720
  12 H :    0.139530
  13 H :    0.146782
  14 H :    0.139428
  15 H :    0.144343
  16 H :    0.147633

  Mayer bond orders larger than 0.1
B(  0-N ,  1-C ) :   2.8713 B(  1-C ,  2-C ) :   0.8987 B(  2-C ,  3-N ) :   0.9897
B(  2-C ,  8-C ) :   0.8824 B(  2-C ,  9-H ) :   0.9159 B(  3-N ,  4-C ) :   1.0386
B(  3-N , 10-H ) :   0.8771 B(  4-C ,  5-C ) :   0.9250 B(  4-C ,  8-C ) :   0.8899
B(  4-C , 11-H ) :   0.9235 B(  5-C ,  6-C ) :   0.9590 B(  5-C , 12-H ) :   0.9116
B(  5-C , 13-H ) :   0.9012 B(  6-C ,  7-C ) :   1.7993 B(  6-C , 14-H ) :   0.9242
B(  7-C ,  8-C ) :   0.9432 B(  7-C , 15-H ) :   0.9173 B(  8-C , 16-H ) :   0.9087

MP2 TOTAL ENERGY:     -380.190154583 Eh
FINAL SINGLE POINT ENERGY      -380.190154583041

DIPOLE MOMENT
-------------
                                X             Y             Z
Electronic contribution:     -4.02383      -2.65873      -3.59102
Nuclear contribution   :      4.59591       4.30717       4.34856
                        -----------------------------------------
Total Dipole Moment    :      0.57209       1.64844       0.75755
                        -----------------------------------------
Magnitude (a.u.)       :      1.90224
Magnitude (Debye)      :      4.83511

                             ****ORCA TERMINATED NORMALLY****
TOTAL RUN TIME: 0 days 0 hours 18 minutes 11 seconds 198 msec
