                         Program Version 3.0.3 - RELEASE   -
|  1> ! RI-MP2 RIJK def2-TZVP def2-TZVP/C def2-TZVP/JK TIGHTSCF
|  2> % maxcore 2000
|  3> % mp2 density relaxed end
|  4> *xyz 0 1
|  5>  C       -0.0447356907     1.5231156113    -0.0156208188
|  6>  C        0.0048222637     0.0233598955     0.0209417739
|  7>  C       -0.1271317946    -0.8420682041    -1.2176871278
|  8>  O        0.7079853935    -1.9580642122    -1.4039658155
|  9>  C        0.8922158683    -2.5234995625    -0.1149766305
| 10>  C        1.8900083722    -1.6635806920     0.7069636849
| 11>  C        0.6785496891    -0.8113065425     1.1439047466
| 12>  C       -0.3022846446    -1.9661731891     0.7808648321
| 13>  C       -1.1235127527    -1.0331248318    -0.1223789017
| 14>  H        0.9546862211     1.9468944264    -0.1740583011
| 15>  H       -0.6881818745     1.8816622541    -0.8263500830
| 16>  H       -0.4346400017     1.9335015685     0.9233438518
| 17>  H       -0.3932553291    -0.3617323237    -2.1518798918
| 18>  H        1.0684720672    -3.5949493557    -0.2233605305
| 19>  H        2.3035180441    -2.2227348252     1.5524428477
| 20>  H        2.6998670348    -1.1971436460     0.1401573207
| 21>  H        0.6579324443    -0.3281663914     2.1227783353
| 22>  H       -0.7647949695    -2.6166112440     1.5180814955
| 23>  H       -2.1988739911    -0.9448885755    -0.2115855679
| 24> *
| 25>
| 26>                          ****END OF INPUT****

CARTESIAN COORDINATES (ANGSTROEM)
---------------------------------
  C     -0.044736    1.523116   -0.015621
  C      0.004822    0.023360    0.020942
  C     -0.127132   -0.842068   -1.217687
  O      0.707985   -1.958064   -1.403966
  C      0.892216   -2.523500   -0.114977
  C      1.890008   -1.663581    0.706964
  C      0.678550   -0.811307    1.143905
  C     -0.302285   -1.966173    0.780865
  C     -1.123513   -1.033125   -0.122379
  H      0.954686    1.946894   -0.174058
  H     -0.688182    1.881662   -0.826350
  H     -0.434640    1.933502    0.923344
  H     -0.393255   -0.361732   -2.151880
  H      1.068472   -3.594949   -0.223361
  H      2.303518   -2.222735    1.552443
  H      2.699867   -1.197144    0.140157
  H      0.657932   -0.328166    2.122778
  H     -0.764795   -2.616611    1.518081
  H     -2.198874   -0.944889   -0.211586

 Total Charge           Charge          ....    0
 Multiplicity           Mult            ....    1
 Number of Electrons    NEL             ....   66
 Basis Dimension        Dim             ....  339

ORBITAL ENERGIES
----------------

  NO   OCC          E(Eh)            E(eV)
   0   2.0000     -20.552266      -559.2556
   1   2.0000     -11.277955      -306.8887
   2   2.0000     -11.277358      -306.8725
   3   2.0000     -11.240777      -305.8771
   4   2.0000     -11.232228      -305.6445
   5   2.0000     -11.231679      -305.6295
   6   2.0000     -11.226225      -305.4811
   7   2.0000     -11.222127      -305.3696
   8   2.0000     -11.216325      -305.2117
   9   2.0000      -1.389234       -37.8030
  10   2.0000      -1.187543       -32.3147
  11   2.0000      -1.078857       -29.3572
  12   2.0000      -0.981645       -26.7119
  13   2.0000      -0.905628       -24.6434
  14   2.0000      -0.878168       -23.8962
  15   2.0000      -0.809549       -22.0289
  16   2.0000      -0.774226       -21.0678
  17   2.0000      -0.712323       -19.3833
  18   2.0000      -0.679483       -18.4897
  19   2.0000      -0.631207       -17.1760
  20   2.0000      -0.609278       -16.5793
  21   2.0000      -0.601645       -16.3716
  22   2.0000      -0.588045       -16.0015
  23   2.0000      -0.566683       -15.4202
  24   2.0000      -0.560078       -15.2405
  25   2.0000      -0.543764       -14.7966
  26   2.0000      -0.521862       -14.2006
  27   2.0000      -0.476921       -12.9777
  28   2.0000      -0.463024       -12.5995
  29   2.0000      -0.429129       -11.6772
  30   2.0000      -0.418113       -11.3774
  31   2.0000      -0.364289        -9.9128
  32   2.0000      -0.359712        -9.7883
  33   0.0000       0.139649         3.8000
  34   0.0000       0.157987         4.2990
  35   0.0000       0.168243         4.5781
  36   0.0000       0.180769         4.9190
  37   0.0000       0.188646         5.1333

MULLIKEN ATOMIC CHARGES
-----------------------
   0 C :   -0.418534
   1 C :    0.027439
   2 C :    0.002580
   3 O :   -0.306585
   4 C :    0.060511
   5 C :   -0.253383
   6 C :   -0.058203
   7 C :   -0.101446
   8 C :   -0.207575
   9 H :    0.138542
  10 H :    0.130277
  11 H :    0.131542
  12 H :    0.127940
  13 H :    0.116485
  14 H :    0.111441
  15 H :    0.110776
  16 H :    0.110798
  17 H :    0.136771
  18 H :    0.140626
Sum of atomic charges:    0.0000000

LOEWDIN ATOMIC CHARGES
----------------------
   0 C :   -0.276068
   1 C :   -0.176910
   2 C :   -0.242176
   3 O :    0.208152
   4 C :   -0.241143
   5 C :   -0.208768
   6 C :   -0.144717
   7 C :   -0.129564
   8 C :   -0.129074
   9 H :    0.131088
  10 H :    0.130129
  11 H :    0.126901
  12 H :    0.146973
  13 H :    0.128016
  14 H :    0.137700
  15 H :    0.128973
  16 H :    0.138011
  17 H :    0.137748
  18 H :    0.134729

  Mayer bond orders larger than 0.1
B(  0-C ,  1-C ) :   0.8762 B(  0-C ,  9-H ) :   0.9353 B(  0-C , 10-H ) :   0.9372
B(  0-C , 11-H ) :   0.9413 B(  1-C ,  2-C ) :   0.8838 B(  1-C ,  6-C ) :   0.8940
B(  1-C ,  8-C ) :   0.8027 B(  2-C ,  3-O ) :   0.9726 B(  2-C ,  8-C ) :   0.8513
B(  2-C , 12-H ) :   0.9506 B(  3-O ,  4-C ) :   0.9287 B(  4-C ,  5-C ) :   0.9115
B(  4-C ,  7-C ) :   0.9002 B(  4-C , 13-H ) :   0.9265 B(  5-C ,  6-C ) :   0.9543
B(  5-C , 14-H ) :   0.9171 B(  5-C , 15-H ) :   0.9077 B(  6-C ,  7-C ) :   0.9754
B(  6-C , 16-H ) :   0.9262 B(  7-C ,  8-C ) :   0.9717 B(  7-C , 17-H ) :   0.9118
B(  8-C , 18-H ) :   0.9061

MP2 TOTAL ENERGY:     -385.167730316 Eh
FINAL SINGLE POINT ENERGY      -385.167730316184

DIPOLE MOMENT
-------------
                                X             Y             Z
Electronic contribution:     -0.41662      -4.10419      -2.39047
Nuclear contribution   :      0.17172       4.38122       2.91249
                        -----------------------------------------
Total Dipole Moment    :     -0.24490       0.27704       0.52202
                        -----------------------------------------
Magnitude (a.u.)       :      0.63971
Magnitude (Debye)      :      1.62602

                             ****ORCA TERMINATED NORMALLY****
TOTAL RUN TIME: 0 days 0 hours 19 minutes 56 seconds 701 msec
