                         Program Version 3.0.3 - RELEASE   -
|  1> ! RI-MP2 RIJK def2-TZVP def2-TZVP/C def2-TZVP/JK TIGHTSCF
|  2> % maxcore 2000
|  3> % mp2 density relaxed end
|  4> *xyz 0 1
|  5>  O        0.3097310977     0.0644151866    -0.5808160486
|  6>  C        0.1403098029     1.1636972498    -0.1507271292
|  7>  C       -1.0530730468     1.9402446257     0.4407785327
|  8>  N       -0.2148686347     3.1789982732     0.5223745541
|  9>  C        0.4709242220     3.3209805932     1.8505805512
| 10>  C        1.7281201414     2.6349810602     1.3023974508
| 11>  C        3.1445645092     2.9728734898     1.5565881274
| 12>  N        2.5956869907     1.6574337031     1.9383574939
| 13>  C        0.9986212269     2.4342717059    -0.0309417663
| 14>  H       -1.8903012160     2.0471213494    -0.2577183096
| 15>  H       -1.4424508652     1.5697132726     1.3961129134
| 16>  H        0.5980800388     4.3689358197     2.1388575942
| 17>  H       -0.0351039824     2.7920767782     2.6682366298
| 18>  H        3.8675801090     2.9457784982     0.7457176843
| 19>  H        3.3572199186     3.7033940652     2.3339696936
| 20>  H        2.4141532201     1.6184372493     2.9387373298
| 21>  H        1.4797525679     2.7995770600    -0.9420920913
| 22> *
| 23>
| 24>                          ****END OF INPUT****

CARTESIAN COORDINATES (ANGSTROEM)
---------------------------------
  O      0.309731    0.064415   -0.580816
  C      0.140310    1.163697   -0.150727
  C     -1.053073    1.940245    0.440779
  N     -0.214869    3.178998    0.522375
  C      0.470924    3.320981    1.850581
  C      1.728120    2.634981    1.302397
  C      3.144565    2.972873    1.556588
  N      2.595687    1.657434    1.938357
  C      0.998621    2.434272   -0.030942
  H     -1.890301    2.047121   -0.257718
  H     -1.442451    1.569713    1.396113
  H      0.598080    4.368936    2.138858
  H     -0.035104    2.792077    2.668237
  H      3.867580    2.945778    0.745718
  H      3.357220    3.703394    2.333970
  H      2.414153    1.618437    2.938737
  H      1.479753    2.799577   -0.942092

 Total Charge           Charge          ....    0
 Multiplicity           Mult            ....    1
 Number of Electrons    NEL             ....   66
 Basis Dimension        Dim             ....  327

ORBITAL ENERGIES
----------------

  NO   OCC          E(Eh)            E(eV)
   0   2.0000     -20.562109      -559.5234
   1   2.0000     -15.574276      -423.7976
   2   2.0000     -15.569451      -423.6663
   3   2.0000     -11.339625      -308.5669
   4   2.0000     -11.288471      -307.1749
   5   2.0000     -11.277352      -306.8724
   6   2.0000     -11.274382      -306.7915
   7   2.0000     -11.272946      -306.7525
   8   2.0000     -11.271068      -306.7013
   9   2.0000      -1.405646       -38.2496
  10   2.0000      -1.301760       -35.4227
  11   2.0000      -1.256688       -34.1962
  12   2.0000      -1.026109       -27.9218
  13   2.0000      -0.965836       -26.2817
  14   2.0000      -0.901322       -24.5262
  15   2.0000      -0.877998       -23.8915
  16   2.0000      -0.792365       -21.5614
  17   2.0000      -0.726156       -19.7597
  18   2.0000      -0.706738       -19.2313
  19   2.0000      -0.681689       -18.5497
  20   2.0000      -0.675866       -18.3913
  21   2.0000      -0.644199       -17.5295
  22   2.0000      -0.609584       -16.5876
  23   2.0000      -0.597155       -16.2494
  24   2.0000      -0.552663       -15.0387
  25   2.0000      -0.532597       -14.4927
  26   2.0000      -0.520795       -14.1715
  27   2.0000      -0.493506       -13.4290
  28   2.0000      -0.490122       -13.3369
  29   2.0000      -0.461169       -12.5491
  30   2.0000      -0.425397       -11.5756
  31   2.0000      -0.393077       -10.6962
  32   2.0000      -0.385577       -10.4921
  33   0.0000       0.118965         3.2372
  34   0.0000       0.127516         3.4699
  35   0.0000       0.146822         3.9952
  36   0.0000       0.161653         4.3988
  37   0.0000       0.173023         4.7082

MULLIKEN ATOMIC CHARGES
-----------------------
   0 O :   -0.229343
   1 C :    0.089601
   2 C :   -0.161482
   3 N :   -0.176031
   4 C :   -0.153268
   5 C :   -0.053810
   6 C :   -0.192746
   7 N :   -0.349024
   8 C :    0.085260
   9 H :    0.146399
  10 H :    0.126853
  11 H :    0.129348
  12 H :    0.117571
  13 H :    0.127497
  14 H :    0.132851
  15 H :    0.222109
  16 H :    0.138215
Sum of atomic charges:   -0.0000000

LOEWDIN ATOMIC CHARGES
----------------------
   0 O :    0.182175
   1 C :   -0.297371
   2 C :   -0.225452
   3 N :    0.100006
   4 C :   -0.213329
   5 C :   -0.284725
   6 C :   -0.236433
   7 N :    0.015179
   8 C :   -0.138432
   9 H :    0.140887
  10 H :    0.132576
  11 H :    0.131060
  12 H :    0.125322
  13 H :    0.129579
  14 H :    0.124605
  15 H :    0.169213
  16 H :    0.145139

  Mayer bond orders larger than 0.1
B(  0-O ,  1-C ) :   2.0629 B(  1-C ,  2-C ) :   0.9413 B(  1-C ,  8-C ) :   0.8579
B(  2-C ,  3-N ) :   0.9302 B(  2-C ,  8-C ) :  -0.1171 B(  2-C ,  9-H ) :   0.8944
B(  2-C , 10-H ) :   0.9083 B(  3-N ,  4-C ) :   0.9242 B(  3-N ,  8-C ) :   0.9801
B(  4-C ,  5-C ) :   0.9227 B(  4-C , 11-H ) :   0.9106 B(  4-C , 12-H ) :   0.9282
B(  5-C ,  6-C ) :   0.9266 B(  5-C ,  7-N ) :   0.9413 B(  5-C ,  8-C ) :   0.8776
B(  6-C ,  7-N ) :   0.9586 B(  6-C , 13-H ) :   0.9145 B(  6-C , 14-H ) :   0.9235
B(  7-N , 15-H ) :   0.8627 B(  8-C , 16-H ) :   0.8815

MP2 TOTAL ENERGY:     -417.225028120 Eh
FINAL SINGLE POINT ENERGY      -417.225028120238

DIPOLE MOMENT
-------------
                                X             Y             Z
Electronic contribution:     -1.03815      -3.49154      -3.56816
Nuclear contribution   :      1.06000       4.47250       4.52367
                        -----------------------------------------
Total Dipole Moment    :      0.02185       0.98096       0.95551
                        -----------------------------------------
Magnitude (a.u.)       :      1.36958
Magnitude (Debye)      :      3.48121

                             ****ORCA TERMINATED NORMALLY****
TOTAL RUN TIME: 0 days 0 hours 17 minutes 35 seconds 55 msec
