                         Program Version 3.0.3 - RELEASE   -
|  1> ! RI-MP2 RIJK def2-TZVP def2-TZVP/C def2-TZVP/JK TIGHTSCF
|  2> % maxcore 2000
|  3> % mp2 density relaxed end
|  4> *xyz 0 1
|  5>  N        0.5181982584    -0.0330734061     1.5420966831
|  6>  C        0.2239407560     0.6406694031     0.6508679581
|  7>  C       -0.1514553697     1.5023403815    -0.4896074518
|  8>  O        0.9083269549     2.2782313743    -0.9804225643
|  9>  C        1.2683035220     3.3690241642    -0.1559615340
| 10>  C        2.3216231528     3.1844650179     0.9832245556
| 11>  C        3.3827306383     2.9745980769    -0.1400577843
| 12>  C        2.5012396205     4.1676373179    -0.6260280500
| 13>  C        2.5734683117     4.7115802849     0.8311786859
| 14>  H       -0.4877196180     0.8608717956    -1.3099770251
| 15>  H       -1.0046100562     2.1259466213    -0.1797294002
| 16>  H        0.3716795260     3.9501221008     0.1039839936
| 17>  H        2.2083411337     2.6211517786     1.9079834845
| 18>  H        4.4144847228     3.2174984891     0.1251808831
| 19>  H        3.3161692107     2.0507980555    -0.7131055816
| 20>  H        2.5935143248     4.7345690198    -1.5527102949
| 21>  H        1.7755984661     5.3873421149     1.1533567289
| 22>  H        3.5533560853     5.0653587400     1.1566533132
| 23> *
| 24>
| 25>                          ****END OF INPUT****

CARTESIAN COORDINATES (ANGSTROEM)
---------------------------------
  N      0.518198   -0.033073    1.542097
  C      0.223941    0.640669    0.650868
  C     -0.151455    1.502340   -0.489607
  O      0.908327    2.278231   -0.980423
  C      1.268304    3.369024   -0.155962
  C      2.321623    3.184465    0.983225
  C      3.382731    2.974598   -0.140058
  C      2.501240    4.167637   -0.626028
  C      2.573468    4.711580    0.831179
  H     -0.487720    0.860872   -1.309977
  H     -1.004610    2.125947   -0.179729
  H      0.371680    3.950122    0.103984
  H      2.208341    2.621152    1.907983
  H      4.414485    3.217498    0.125181
  H      3.316169    2.050798   -0.713106
  H      2.593514    4.734569   -1.552710
  H      1.775598    5.387342    1.153357
  H      3.553356    5.065359    1.156653

 Total Charge           Charge          ....    0
 Multiplicity           Mult            ....    1
 Number of Electrons    NEL             ....   66
 Basis Dimension        Dim             ....  333

ORBITAL ENERGIES
----------------

  NO   OCC          E(Eh)            E(eV)
   0   2.0000     -20.588766      -560.2488
   1   2.0000     -15.579253      -423.9330
   2   2.0000     -11.341393      -308.6150
   3   2.0000     -11.300450      -307.5009
   4   2.0000     -11.278291      -306.8979
   5   2.0000     -11.251058      -306.1569
   6   2.0000     -11.249205      -306.1064
   7   2.0000     -11.238239      -305.8080
   8   2.0000     -11.232066      -305.6400
   9   2.0000      -1.414930       -38.5022
  10   2.0000      -1.225344       -33.3433
  11   2.0000      -1.214607       -33.0511
  12   2.0000      -1.018521       -27.7154
  13   2.0000      -0.915483       -24.9115
  14   2.0000      -0.893648       -24.3174
  15   2.0000      -0.867453       -23.6046
  16   2.0000      -0.759571       -20.6690
  17   2.0000      -0.739428       -20.1209
  18   2.0000      -0.687263       -18.7014
  19   2.0000      -0.677389       -18.4327
  20   2.0000      -0.671074       -18.2608
  21   2.0000      -0.625156       -17.0114
  22   2.0000      -0.588468       -16.0130
  23   2.0000      -0.562060       -15.2944
  24   2.0000      -0.531711       -14.4686
  25   2.0000      -0.514733       -14.0066
  26   2.0000      -0.483049       -13.1444
  27   2.0000      -0.471342       -12.8259
  28   2.0000      -0.465450       -12.6655
  29   2.0000      -0.462916       -12.5966
  30   2.0000      -0.455549       -12.3961
  31   2.0000      -0.449453       -12.2302
  32   2.0000      -0.428635       -11.6637
  33   0.0000       0.128863         3.5065
  34   0.0000       0.151028         4.1097
  35   0.0000       0.153292         4.1713
  36   0.0000       0.165119         4.4931
  37   0.0000       0.171716         4.6726

MULLIKEN ATOMIC CHARGES
-----------------------
   0 N :   -0.068842
   1 C :   -0.169492
   2 C :    0.029766
   3 O :   -0.293743
   4 C :    0.015318
   5 C :   -0.144457
   6 C :   -0.222627
   7 C :   -0.103358
   8 C :   -0.228944
   9 H :    0.168135
  10 H :    0.143357
  11 H :    0.088118
  12 H :    0.159139
  13 H :    0.116289
  14 H :    0.131492
  15 H :    0.139669
  16 H :    0.116075
  17 H :    0.124105
Sum of atomic charges:   -0.0000000

LOEWDIN ATOMIC CHARGES
----------------------
   0 N :    0.065772
   1 C :   -0.187562
   2 C :   -0.312850
   3 O :    0.204550
   4 C :   -0.263921
   5 C :   -0.171101
   6 C :   -0.190146
   7 C :   -0.164759
   8 C :   -0.194314
   9 H :    0.156318
  10 H :    0.146052
  11 H :    0.134059
  12 H :    0.129933
  13 H :    0.128925
  14 H :    0.131444
  15 H :    0.126472
  16 H :    0.128124
  17 H :    0.133005

  Mayer bond orders larger than 0.1
B(  0-N ,  1-C ) :   2.8321 B(  1-C ,  2-C ) :   0.8684 B(  2-C ,  3-O ) :   0.9748
B(  2-C ,  9-H ) :   0.9091 B(  2-C , 10-H ) :   0.9396 B(  3-O ,  4-C ) :   0.9421
B(  4-C ,  5-C ) :   0.9131 B(  4-C ,  7-C ) :   0.9005 B(  4-C , 11-H ) :   0.9354
B(  5-C ,  6-C ) :   0.9085 B(  5-C ,  8-C ) :   0.9032 B(  5-C , 12-H ) :   0.8921
B(  6-C ,  7-C ) :   0.9183 B(  6-C , 13-H ) :   0.9334 B(  6-C , 14-H ) :   0.9185
B(  7-C ,  8-C ) :   0.8937 B(  7-C , 15-H ) :   0.8922 B(  8-C , 16-H ) :   0.9327
B(  8-C , 17-H ) :   0.9266

MP2 TOTAL ENERGY:     -401.204543842 Eh
FINAL SINGLE POINT ENERGY      -401.204543841506

DIPOLE MOMENT
-------------
                                X             Y             Z
Electronic contribution:     -3.44975      -5.69825       0.07413
Nuclear contribution   :      3.06035       6.67576      -0.68123
                        -----------------------------------------
Total Dipole Moment    :     -0.38940       0.97751      -0.60710
                        -----------------------------------------
Magnitude (a.u.)       :      1.21480
Magnitude (Debye)      :      3.08776

                             ****ORCA TERMINATED NORMALLY****
TOTAL RUN TIME: 0 days 0 hours 17 minutes 59 seconds 872 msec
