                         Program Version 3.0.3 - RELEASE   -
|  1> ! RI-MP2 RIJK def2-TZVP def2-TZVP/C def2-TZVP/JK TIGHTSCF
|  2> % maxcore 2000
|  3> % mp2 density relaxed end
|  4> *xyz 0 1
|  5>  C       -0.0759122605     1.6178048201    -0.0150046058
|  6>  C        0.0263480761     0.0845422379    -0.0071702191
|  7>  C        0.5635786114    -0.4467704725    -1.3531869118
|  8>  C        0.0202735369    -1.8271308886    -1.7420946362
|  9>  O        0.4893123769    -2.9111219395    -0.9689364646
| 10>  C        0.1612889597    -2.8740691952     0.4100447218
| 11>  C        1.0929124442    -1.9610188547     1.2157600705
| 12>  C        0.7892422148    -0.4408245743     1.2419692211
| 13>  C        2.0961269122     0.3146067819     1.5343251430
| 14>  H        0.8883155992     2.0891931107    -0.2310236500
| 15>  H       -0.7825285039     1.9502701533    -0.7825564584
| 16>  H       -0.4264910118     2.0022328599     0.9492332392
| 17>  H       -1.0033433163    -0.2893264314     0.0834602498
| 18>  H        0.2635332793     0.2439751754    -2.1521354496
| 19>  H        1.6603404804    -0.4678652878    -1.3628757948
| 20>  H       -1.0839626272    -1.7933315159    -1.7148089029
| 21>  H        0.3146606092    -2.0637312700    -2.7701290186
| 22>  H       -0.8989921459    -2.6083467671     0.5522092458
| 23>  H        0.2856924417    -3.9046769192     0.7593124643
| 24>  H        1.1251756642    -2.3198797792     2.2522125255
| 25>  H        2.0982842780    -2.1282896572     0.8094806309
| 26>  H        0.1168990491    -0.2550243616     2.0913192997
| 27>  H        2.7889986497     0.2565786527     0.6866535283
| 28>  H        1.9265780996     1.3708211175     1.7589627509
| 29>  H        2.6038967929    -0.1283999653     2.3977702107
| 30> *
| 31>
| 32>                          ****END OF INPUT****

CARTESIAN COORDINATES (ANGSTROEM)
---------------------------------
  C     -0.075912    1.617805   -0.015005
  C      0.026348    0.084542   -0.007170
  C      0.563579   -0.446770   -1.353187
  C      0.020274   -1.827131   -1.742095
  O      0.489312   -2.911122   -0.968936
  C      0.161289   -2.874069    0.410045
  C      1.092912   -1.961019    1.215760
  C      0.789242   -0.440825    1.241969
  C      2.096127    0.314607    1.534325
  H      0.888316    2.089193   -0.231024
  H     -0.782529    1.950270   -0.782556
  H     -0.426491    2.002233    0.949233
  H     -1.003343   -0.289326    0.083460
  H      0.263533    0.243975   -2.152135
  H      1.660340   -0.467865   -1.362876
  H     -1.083963   -1.793332   -1.714809
  H      0.314661   -2.063731   -2.770129
  H     -0.898992   -2.608347    0.552209
  H      0.285692   -3.904677    0.759312
  H      1.125176   -2.319880    2.252213
  H      2.098284   -2.128290    0.809481
  H      0.116899   -0.255024    2.091319
  H      2.788999    0.256579    0.686654
  H      1.926578    1.370821    1.758963
  H      2.603897   -0.128400    2.397770

 Total Charge           Charge          ....    0
 Multiplicity           Mult            ....    1
 Number of Electrons    NEL             ....   72
 Basis Dimension        Dim             ....  375

ORBITAL ENERGIES
----------------

  NO   OCC          E(Eh)            E(eV)
   0   2.0000     -20.543638      -559.0208
   1   2.0000     -11.267717      -306.6102
   2   2.0000     -11.267402      -306.6016
   3   2.0000     -11.226281      -305.4826
   4   2.0000     -11.225726      -305.4675
   5   2.0000     -11.216857      -305.2262
   6   2.0000     -11.215031      -305.1765
   7   2.0000     -11.212628      -305.1111
   8   2.0000     -11.210394      -305.0503
   9   2.0000      -1.365088       -37.1459
  10   2.0000      -1.104755       -30.0619
  11   2.0000      -1.047146       -28.4943
  12   2.0000      -0.972573       -26.4651
  13   2.0000      -0.966516       -26.3002
  14   2.0000      -0.868767       -23.6403
  15   2.0000      -0.861345       -23.4384
  16   2.0000      -0.795621       -21.6500
  17   2.0000      -0.731004       -19.8916
  18   2.0000      -0.662153       -18.0181
  19   2.0000      -0.654004       -17.7964
  20   2.0000      -0.639233       -17.3944
  21   2.0000      -0.629529       -17.1304
  22   2.0000      -0.589813       -16.0496
  23   2.0000      -0.565419       -15.3858
  24   2.0000      -0.557462       -15.1693
  25   2.0000      -0.548436       -14.9237
  26   2.0000      -0.531991       -14.4762
  27   2.0000      -0.521370       -14.1872
  28   2.0000      -0.516237       -14.0475
  29   2.0000      -0.505438       -13.7537
  30   2.0000      -0.492084       -13.3903
  31   2.0000      -0.452920       -12.3246
  32   2.0000      -0.440716       -11.9925
  33   2.0000      -0.438711       -11.9379
  34   2.0000      -0.435228       -11.8432
  35   2.0000      -0.403235       -10.9726
  36   0.0000       0.134180         3.6512
  37   0.0000       0.148861         4.0507
  38   0.0000       0.157576         4.2879
  39   0.0000       0.163847         4.4585
  40   0.0000       0.189679         5.1614

MULLIKEN ATOMIC CHARGES
-----------------------
   0 C :   -0.423715
   1 C :    0.015520
   2 C :   -0.235373
   3 C :   -0.100329
   4 O :   -0.306629
   5 C :   -0.074988
   6 C :   -0.203837
   7 C :   -0.104105
   8 C :   -0.439847
   9 H :    0.137311
  10 H :    0.133223
  11 H :    0.133753
  12 H :    0.082177
  13 H :    0.115659
  14 H :    0.108623
  15 H :    0.096778
  16 H :    0.121838
  17 H :    0.099192
  18 H :    0.127397
  19 H :    0.117783
  20 H :    0.107468
  21 H :    0.087918
  22 H :    0.128562
  23 H :    0.138593
  24 H :    0.137029
Sum of atomic charges:    0.0000000

LOEWDIN ATOMIC CHARGES
----------------------
   0 C :   -0.296164
   1 C :   -0.264585
   2 C :   -0.246253
   3 C :   -0.332259
   4 O :    0.151097
   5 C :   -0.319385
   6 C :   -0.251937
   7 C :   -0.261521
   8 C :   -0.296000
   9 H :    0.124072
  10 H :    0.121907
  11 H :    0.123616
  12 H :    0.151852
  13 H :    0.145939
  14 H :    0.140668
  15 H :    0.119539
  16 H :    0.129704
  17 H :    0.120070
  18 H :    0.130003
  19 H :    0.141506
  20 H :    0.146998
  21 H :    0.151861
  22 H :    0.122359
  23 H :    0.121490
  24 H :    0.125423

  Mayer bond orders larger than 0.1
B(  0-C ,  1-C ) :   0.8804 B(  0-C ,  9-H ) :   0.9400 B(  0-C , 10-H ) :   0.9379
B(  0-C , 11-H ) :   0.9434 B(  1-C ,  2-C ) :   0.9016 B(  1-C ,  7-C ) :   0.9101
B(  1-C , 12-H ) :   0.9346 B(  2-C ,  3-C ) :   0.9294 B(  2-C , 13-H ) :   0.9215
B(  2-C , 14-H ) :   0.9086 B(  3-C ,  4-O ) :   0.9554 B(  3-C , 15-H ) :   0.9462
B(  3-C , 16-H ) :   0.9350 B(  4-O ,  5-C ) :   0.9281 B(  5-C ,  6-C ) :   0.9244
B(  5-C , 17-H ) :   0.9439 B(  5-C , 18-H ) :   0.9331 B(  6-C ,  7-C ) :   0.9189
B(  6-C , 19-H ) :   0.9198 B(  6-C , 20-H ) :   0.9120 B(  7-C ,  8-C ) :   0.9050
B(  7-C , 21-H ) :   0.9271 B(  8-C , 22-H ) :   0.9327 B(  8-C , 23-H ) :   0.9405
B(  8-C , 24-H ) :   0.9394

MP2 TOTAL ENERGY:     -388.827157725 Eh
FINAL SINGLE POINT ENERGY      -388.827157725183

DIPOLE MOMENT
-------------
                                X             Y             Z
Electronic contribution:     -0.83872      -6.17185      -2.46628
Nuclear contribution   :      0.61065       6.60510       2.72250
                        -----------------------------------------
Total Dipole Moment    :     -0.22807       0.43325       0.25622
                        -----------------------------------------
Magnitude (a.u.)       :      0.55260
Magnitude (Debye)      :      1.40460

                             ****ORCA TERMINATED NORMALLY****
TOTAL RUN TIME: 0 days 0 hours 22 minutes 46 seconds 96 msec
