                         Program Version 3.0.3 - RELEASE   -
|  1> ! RI-MP2 RIJK def2-TZVP def2-TZVP/C def2-TZVP/JK TIGHTSCF
|  2> % maxcore 2000
|  3> % mp2 density relaxed end
|  4> *xyz 0 1
|  5>  C        0.0231932015     1.3086002461     0.0092949136
|  6>  C        1.3240821431     1.7743701703    -0.0006280388
|  7>  N        2.1014953526     0.6519606596    -0.0144345325
|  8>  N        3.4458000057     0.6062276712    -0.0276254782
|  9>  C        3.9474917061    -0.6063068044    -0.0393191476
| 10>  C        3.1863563876    -1.8040339616    -0.0387809107
| 11>  C        1.8177848213    -1.7263865107    -0.0251778127
| 12>  C        1.2276055514    -0.4515487327    -0.0122809175
| 13>  N       -0.0375481131    -0.0513188685     0.0021553207
| 14>  H       -0.8760685326     1.9073293407     0.0213499037
| 15>  H        1.7605376571     2.7579802399     0.0007206408
| 16>  H        5.0318189807    -0.6417596667    -0.0499536521
| 17>  H        3.6973854802    -2.7586790104    -0.0491033526
| 18>  H        1.1760069083    -2.5989495527    -0.0239474360
| 19> *
| 20>
| 21>                          ****END OF INPUT****

CARTESIAN COORDINATES (ANGSTROEM)
---------------------------------
  C      0.023193    1.308600    0.009295
  C      1.324082    1.774370   -0.000628
  N      2.101495    0.651961   -0.014435
  N      3.445800    0.606228   -0.027625
  C      3.947492   -0.606307   -0.039319
  C      3.186356   -1.804034   -0.038781
  C      1.817785   -1.726387   -0.025178
  C      1.227606   -0.451549   -0.012281
  N     -0.037548   -0.051319    0.002155
  H     -0.876069    1.907329    0.021350
  H      1.760538    2.757980    0.000721
  H      5.031819   -0.641760   -0.049954
  H      3.697385   -2.758679   -0.049103
  H      1.176007   -2.598950   -0.023947

 Total Charge           Charge          ....    0
 Multiplicity           Mult            ....    1
 Number of Electrons    NEL             ....   62
 Basis Dimension        Dim             ....  309

ORBITAL ENERGIES
----------------

  NO   OCC          E(Eh)            E(eV)
   0   2.0000     -15.675966      -426.5647
   1   2.0000     -15.630957      -425.3400
   2   2.0000     -15.551705      -423.1834
   3   2.0000     -11.310002      -307.7608
   4   2.0000     -11.296788      -307.4012
   5   2.0000     -11.277853      -306.8860
   6   2.0000     -11.265057      -306.5378
   7   2.0000     -11.262539      -306.4693
   8   2.0000     -11.259047      -306.3742
   9   2.0000      -1.408292       -38.3216
  10   2.0000      -1.271274       -34.5931
  11   2.0000      -1.151412       -31.3315
  12   2.0000      -1.096870       -29.8474
  13   2.0000      -1.016176       -27.6515
  14   2.0000      -0.903430       -24.5836
  15   2.0000      -0.868760       -23.6402
  16   2.0000      -0.827787       -22.5252
  17   2.0000      -0.740232       -20.1427
  18   2.0000      -0.706503       -19.2249
  19   2.0000      -0.674287       -18.3483
  20   2.0000      -0.654565       -17.8116
  21   2.0000      -0.628278       -17.0963
  22   2.0000      -0.606817       -16.5123
  23   2.0000      -0.585939       -15.9442
  24   2.0000      -0.567657       -15.4467
  25   2.0000      -0.508958       -13.8494
  26   2.0000      -0.490221       -13.3396
  27   2.0000      -0.458439       -12.4748
  28   2.0000      -0.432632       -11.7725
  29   2.0000      -0.350342        -9.5333
  30   2.0000      -0.307255        -8.3608
  31   0.0000       0.062936         1.7126
  32   0.0000       0.126510         3.4425
  33   0.0000       0.147907         4.0248
  34   0.0000       0.176654         4.8070
  35   0.0000       0.178715         4.8631

MULLIKEN ATOMIC CHARGES
-----------------------
   0 C :   -0.042430
   1 C :   -0.140616
   2 N :    0.149364
   3 N :   -0.225145
   4 C :   -0.060898
   5 C :   -0.085925
   6 C :   -0.230543
   7 C :    0.166051
   8 N :   -0.262759
   9 H :    0.140169
  10 H :    0.161297
  11 H :    0.145229
  12 H :    0.141731
  13 H :    0.144476
Sum of atomic charges:   -0.0000000

LOEWDIN ATOMIC CHARGES
----------------------
   0 C :   -0.235284
   1 C :   -0.207896
   2 N :    0.259022
   3 N :    0.089245
   4 C :   -0.229052
   5 C :   -0.163111
   6 C :   -0.089354
   7 C :   -0.272138
   8 N :    0.110608
   9 H :    0.136561
  10 H :    0.141720
  11 H :    0.146863
  12 H :    0.152017
  13 H :    0.160800

  Mayer bond orders larger than 0.1
B(  0-C ,  1-C ) :   1.4017 B(  0-C ,  8-N ) :   1.3061 B(  0-C ,  9-H ) :   0.9373
B(  1-C ,  2-N ) :   1.1492 B(  1-C , 10-H ) :   0.9172 B(  2-N ,  3-N ) :   0.9152
B(  2-N ,  7-C ) :   1.0146 B(  3-N ,  4-C ) :   1.5603 B(  4-C ,  5-C ) :   1.1828
B(  4-C , 11-H ) :   0.9324 B(  5-C ,  6-C ) :   1.4683 B(  5-C , 12-H ) :   0.9260
B(  6-C ,  7-C ) :   1.2219 B(  6-C , 13-H ) :   0.9331 B(  7-C ,  8-N ) :   1.5163

MP2 TOTAL ENERGY:     -395.081717730 Eh
FINAL SINGLE POINT ENERGY      -395.081717730272

DIPOLE MOMENT
-------------
                                X             Y             Z
Electronic contribution:     -0.47361       0.88576       0.00958
Nuclear contribution   :      1.20279      -1.14536      -0.01807
                        -----------------------------------------
Total Dipole Moment    :      0.72918      -0.25960      -0.00849
                        -----------------------------------------
Magnitude (a.u.)       :      0.77406
Magnitude (Debye)      :      1.96750

                             ****ORCA TERMINATED NORMALLY****
TOTAL RUN TIME: 0 days 0 hours 16 minutes 13 seconds 602 msec
