                         Program Version 3.0.3 - RELEASE   -
|  1> ! RI-MP2 RIJK def2-TZVP def2-TZVP/C def2-TZVP/JK TIGHTSCF
|  2> % maxcore 2000
|  3> % mp2 density relaxed end
|  4> *xyz 0 1
|  5>  C       -0.4256966136     1.4085000786    -0.0477846596
|  6>  N       -0.1091987918    -0.0099290108     0.0486116052
|  7>  C        1.2424277791    -0.4038329390    -0.3143462785
|  8>  C        0.8240543533    -0.4407787569     1.1185557174
|  9>  C        1.3739124113     0.4796796694     2.1356878479
| 10>  C        0.9279349675     0.7324246857     3.4186701435
| 11>  C        1.7949956976     1.6923446787     4.0048705695
| 12>  C        2.7537891866     2.0021703978     3.0681956202
| 13>  N        2.4873952481     1.2685089503     1.9410126876
| 14>  H        0.4203551300     2.0775961183     0.1731573744
| 15>  H       -0.7771051905     1.6184657104    -1.0629795805
| 16>  H       -1.2330825184     1.6446338387     0.6516812685
| 17>  H        1.3459351412    -1.3269180945    -0.8793976766
| 18>  H        1.9292316649     0.3836345264    -0.6282466758
| 19>  H        0.5366201880    -1.4077253305     1.5253069460
| 20>  H        0.0640212446     0.2749783291     3.8771216287
| 21>  H        1.7239953424     2.1080076377     4.9982014317
| 22>  H        3.5970541079     2.6727859030     3.1077542329
| 23>  H        3.0623655319     1.2456786376     1.1174694875
| 24> *
| 25>
| 26>                          ****END OF INPUT****

CARTESIAN COORDINATES (ANGSTROEM)
---------------------------------
  C     -0.425697    1.408500   -0.047785
  N     -0.109199   -0.009929    0.048612
  C      1.242428   -0.403833   -0.314346
  C      0.824054   -0.440779    1.118556
  C      1.373912    0.479680    2.135688
  C      0.927935    0.732425    3.418670
  C      1.794996    1.692345    4.004871
  C      2.753789    2.002170    3.068196
  N      2.487395    1.268509    1.941013
  H      0.420355    2.077596    0.173157
  H     -0.777105    1.618466   -1.062980
  H     -1.233083    1.644634    0.651681
  H      1.345935   -1.326918   -0.879398
  H      1.929232    0.383635   -0.628247
  H      0.536620   -1.407725    1.525307
  H      0.064021    0.274978    3.877122
  H      1.723995    2.108008    4.998201
  H      3.597054    2.672786    3.107754
  H      3.062366    1.245679    1.117469

 Total Charge           Charge          ....    0
 Multiplicity           Mult            ....    1
 Number of Electrons    NEL             ....   66
 Basis Dimension        Dim             ....  339

ORBITAL ENERGIES
----------------

  NO   OCC          E(Eh)            E(eV)
   0   2.0000     -15.605610      -424.6502
   1   2.0000     -15.560308      -423.4175
   2   2.0000     -11.268034      -306.6188
   3   2.0000     -11.260680      -306.4187
   4   2.0000     -11.258362      -306.3556
   5   2.0000     -11.252677      -306.2009
   6   2.0000     -11.242013      -305.9107
   7   2.0000     -11.210155      -305.0438
   8   2.0000     -11.208400      -304.9961
   9   2.0000      -1.298229       -35.3266
  10   2.0000      -1.267089       -34.4792
  11   2.0000      -1.044619       -28.4255
  12   2.0000      -1.014137       -27.5961
  13   2.0000      -0.975230       -26.5374
  14   2.0000      -0.855204       -23.2713
  15   2.0000      -0.825864       -22.4729
  16   2.0000      -0.788978       -21.4692
  17   2.0000      -0.769695       -20.9445
  18   2.0000      -0.710885       -19.3442
  19   2.0000      -0.663381       -18.0515
  20   2.0000      -0.626787       -17.0557
  21   2.0000      -0.595489       -16.2041
  22   2.0000      -0.594172       -16.1682
  23   2.0000      -0.573162       -15.5965
  24   2.0000      -0.555679       -15.1208
  25   2.0000      -0.546580       -14.8732
  26   2.0000      -0.541220       -14.7273
  27   2.0000      -0.527119       -14.3436
  28   2.0000      -0.467891       -12.7320
  29   2.0000      -0.454035       -12.3549
  30   2.0000      -0.377350       -10.2682
  31   2.0000      -0.349770        -9.5177
  32   2.0000      -0.292123        -7.9491
  33   0.0000       0.130231         3.5438
  34   0.0000       0.157603         4.2886
  35   0.0000       0.163942         4.4611
  36   0.0000       0.176633         4.8064
  37   0.0000       0.177128         4.8199

MULLIKEN ATOMIC CHARGES
-----------------------
   0 C :   -0.283509
   1 N :   -0.199434
   2 C :   -0.157776
   3 C :   -0.140850
   4 C :    0.176100
   5 C :   -0.267943
   6 C :   -0.143115
   7 C :   -0.116516
   8 N :   -0.249846
   9 H :    0.106406
  10 H :    0.140397
  11 H :    0.135372
  12 H :    0.130868
  13 H :    0.100041
  14 H :    0.129632
  15 H :    0.128851
  16 H :    0.129919
  17 H :    0.144105
  18 H :    0.237298
Sum of atomic charges:   -0.0000000

LOEWDIN ATOMIC CHARGES
----------------------
   0 C :   -0.330522
   1 N :    0.088780
   2 C :   -0.249649
   3 C :   -0.224982
   4 C :   -0.227270
   5 C :   -0.165607
   6 C :   -0.198838
   7 C :   -0.238264
   8 N :    0.202893
   9 H :    0.106713
  10 H :    0.118168
  11 H :    0.120756
  12 H :    0.125473
  13 H :    0.117712
  14 H :    0.154098
  15 H :    0.141802
  16 H :    0.138418
  17 H :    0.131795
  18 H :    0.188523

  Mayer bond orders larger than 0.1
B(  0-C ,  1-N ) :   0.8860 B(  0-C ,  9-H ) :   0.9260 B(  0-C , 10-H ) :   0.9349
B(  0-C , 11-H ) :   0.9386 B(  1-N ,  2-C ) :   0.9071 B(  1-N ,  3-C ) :   0.8782
B(  2-C ,  3-C ) :   0.9378 B(  2-C , 12-H ) :   0.9178 B(  2-C , 13-H ) :   0.9247
B(  3-C ,  4-C ) :   0.9244 B(  3-C , 14-H ) :   0.9434 B(  4-C ,  5-C ) :   1.4533
B(  4-C ,  8-N ) :   1.0707 B(  5-C ,  6-C ) :   1.2924 B(  5-C , 15-H ) :   0.9462
B(  6-C ,  7-C ) :   1.4652 B(  6-C , 16-H ) :   0.9358 B(  7-C ,  8-N ) :   1.1496
B(  7-C , 17-H ) :   0.9154 B(  8-N , 18-H ) :   0.8707

MP2 TOTAL ENERGY:     -381.389732071 Eh
FINAL SINGLE POINT ENERGY      -381.389732071086

DIPOLE MOMENT
-------------
                                X             Y             Z
Electronic contribution:      1.95174      -1.28393       2.98310
Nuclear contribution   :     -1.20629       1.59662      -3.40512
                        -----------------------------------------
Total Dipole Moment    :      0.74545       0.31269      -0.42202
                        -----------------------------------------
Magnitude (a.u.)       :      0.91191
Magnitude (Debye)      :      2.31789

                             ****ORCA TERMINATED NORMALLY****
TOTAL RUN TIME: 0 days 0 hours 18 minutes 5 seconds 545 msec
