                         Program Version 3.0.3 - RELEASE   -
|  1> ! RI-MP2 RIJK def2-TZVP def2-TZVP/C def2-TZVP/JK TIGHTSCF
|  2> % maxcore 2000
|  3> % mp2 density relaxed end
|  4> *xyz 0 1
|  5>  O       -0.0057462540    -0.0241149098     0.1622140319
|  6>  C        0.0796567034     1.1314924068    -0.1539480860
|  7>  C        1.3058611453     1.9683050477    -0.0473824213
|  8>  C        1.0926673623     3.4521044618     0.2110653064
|  9>  C        1.5280465595     2.9958046973    -1.1545670111
| 10>  C        2.9784818273     3.1569148691    -1.6025202792
| 11>  O        3.7811096334     2.0440121151    -1.2254536627
| 12>  C        3.6617675094     1.7759006185     0.1351167597
| 13>  O        2.3846265602     1.2792712092     0.4885384867
| 14>  H       -0.7892968169     1.6982091502    -0.5659190192
| 15>  H        0.0759823909     3.8052332870     0.3454136473
| 16>  H        1.8263975416     3.9422377184     0.8427803216
| 17>  H        0.7849528348     3.0231616130    -1.9450922848
| 18>  H        3.0352260478     3.2106458885    -2.6913328652
| 19>  H        3.4127604024     4.0817420091    -1.1919090025
| 20>  H        4.3668463541     0.9806762662     0.3813850208
| 21>  H        3.8932345883     2.6813688317     0.7268350877
| 22> *
| 23>
| 24>                          ****END OF INPUT****

CARTESIAN COORDINATES (ANGSTROEM)
---------------------------------
  O     -0.005746   -0.024115    0.162214
  C      0.079657    1.131492   -0.153948
  C      1.305861    1.968305   -0.047382
  C      1.092667    3.452104    0.211065
  C      1.528047    2.995805   -1.154567
  C      2.978482    3.156915   -1.602520
  O      3.781110    2.044012   -1.225454
  C      3.661768    1.775901    0.135117
  O      2.384627    1.279271    0.488538
  H     -0.789297    1.698209   -0.565919
  H      0.075982    3.805233    0.345414
  H      1.826398    3.942238    0.842780
  H      0.784953    3.023162   -1.945092
  H      3.035226    3.210646   -2.691333
  H      3.412760    4.081742   -1.191909
  H      4.366846    0.980676    0.381385
  H      3.893235    2.681369    0.726835

 Total Charge           Charge          ....    0
 Multiplicity           Mult            ....    1
 Number of Electrons    NEL             ....   68
 Basis Dimension        Dim             ....  327

ORBITAL ENERGIES
----------------

  NO   OCC          E(Eh)            E(eV)
   0   2.0000     -20.578722      -559.9755
   1   2.0000     -20.578682      -559.9744
   2   2.0000     -20.555025      -559.3307
   3   2.0000     -11.341960      -308.6304
   4   2.0000     -11.334896      -308.4382
   5   2.0000     -11.316222      -307.9301
   6   2.0000     -11.303353      -307.5799
   7   2.0000     -11.266125      -306.5669
   8   2.0000     -11.258362      -306.3556
   9   2.0000      -1.444784       -39.3146
  10   2.0000      -1.396965       -38.0133
  11   2.0000      -1.365070       -37.1455
  12   2.0000      -1.175522       -31.9876
  13   2.0000      -0.989269       -26.9194
  14   2.0000      -0.958647       -26.0861
  15   2.0000      -0.879455       -23.9312
  16   2.0000      -0.826039       -22.4777
  17   2.0000      -0.775291       -21.0968
  18   2.0000      -0.727408       -19.7938
  19   2.0000      -0.705784       -19.2054
  20   2.0000      -0.673726       -18.3330
  21   2.0000      -0.658036       -17.9061
  22   2.0000      -0.650260       -17.6945
  23   2.0000      -0.640915       -17.4402
  24   2.0000      -0.605454       -16.4752
  25   2.0000      -0.581866       -15.8334
  26   2.0000      -0.571042       -15.5388
  27   2.0000      -0.523670       -14.2498
  28   2.0000      -0.518995       -14.1226
  29   2.0000      -0.501452       -13.6452
  30   2.0000      -0.469068       -12.7640
  31   2.0000      -0.452679       -12.3180
  32   2.0000      -0.416161       -11.3243
  33   2.0000      -0.396600       -10.7920
  34   0.0000       0.122747         3.3401
  35   0.0000       0.134991         3.6733
  36   0.0000       0.149289         4.0624
  37   0.0000       0.163951         4.4613
  38   0.0000       0.183168         4.9842

MULLIKEN ATOMIC CHARGES
-----------------------
   0 O :   -0.242376
   1 C :   -0.011245
   2 C :    0.328250
   3 C :   -0.325129
   4 C :   -0.174958
   5 C :   -0.066066
   6 O :   -0.295302
   7 C :    0.059831
   8 O :   -0.266208
   9 H :    0.075100
  10 H :    0.149706
  11 H :    0.148126
  12 H :    0.142245
  13 H :    0.134676
  14 H :    0.112871
  15 H :    0.142868
  16 H :    0.087611
Sum of atomic charges:    0.0000000

LOEWDIN ATOMIC CHARGES
----------------------
   0 O :    0.151817
   1 C :   -0.272191
   2 C :   -0.312976
   3 C :   -0.180168
   4 C :   -0.184967
   5 C :   -0.283792
   6 O :    0.171437
   7 C :   -0.379071
   8 O :    0.234459
   9 H :    0.118571
  10 H :    0.140428
  11 H :    0.143288
  12 H :    0.153431
  13 H :    0.137848
  14 H :    0.126974
  15 H :    0.128575
  16 H :    0.106338

  Mayer bond orders larger than 0.1
B(  0-O ,  1-C ) :   2.0567 B(  1-C ,  2-C ) :   0.8137 B(  1-C ,  9-H ) :   0.9702
B(  2-C ,  3-C ) :   0.8349 B(  2-C ,  4-C ) :   0.8098 B(  2-C ,  8-O ) :   1.0151
B(  2-C ,  9-H ) :  -0.1029 B(  3-C ,  4-C ) :   0.8599 B(  3-C , 10-H ) :   0.9198
B(  3-C , 11-H ) :   0.9088 B(  4-C ,  5-C ) :   0.9190 B(  4-C , 12-H ) :   0.9069
B(  5-C ,  6-O ) :   0.9276 B(  5-C , 13-H ) :   0.9306 B(  5-C , 14-H ) :   0.9385
B(  6-O ,  7-C ) :   0.9844 B(  7-C ,  8-O ) :   0.9380 B(  7-C , 15-H ) :   0.9271
B(  7-C , 16-H ) :   0.9306

MP2 TOTAL ENERGY:     -458.206385568 Eh
FINAL SINGLE POINT ENERGY      -458.206385567634

DIPOLE MOMENT
-------------
                                X             Y             Z
Electronic contribution:     -1.18473      -5.55528       0.90993
Nuclear contribution   :      1.34211       7.27408      -1.21904
                        -----------------------------------------
Total Dipole Moment    :      0.15738       1.71880      -0.30911
                        -----------------------------------------
Magnitude (a.u.)       :      1.75345
Magnitude (Debye)      :      4.45692

                             ****ORCA TERMINATED NORMALLY****
TOTAL RUN TIME: 0 days 0 hours 17 minutes 17 seconds 976 msec
