                         Program Version 3.0.3 - RELEASE   -
|  1> ! RI-MP2 RIJK def2-TZVP def2-TZVP/C def2-TZVP/JK TIGHTSCF
|  2> % maxcore 2000
|  3> % mp2 density relaxed end
|  4> *xyz 0 1
|  5>  N       -0.0102062340    -1.0814341247    -0.4297645512
|  6>  C       -0.0038634156     0.0501299792    -0.1938421904
|  7>  C       -0.0464221053     1.4792043421     0.0973330057
|  8>  C       -0.4104574480     2.3689597060    -1.1346401411
|  9>  C        1.0657369531     2.8469000849    -1.1401347011
| 10>  N        1.3103723158     2.1269493513     0.1558680849
| 11>  C        1.2493942640     2.8993300346     1.3291801535
| 12>  N        0.2542929586     2.7595321196     2.1104053423
| 13>  C       -0.6698431859     1.8017633838     1.4919371159
| 14>  H       -0.7555294914     1.8393774811    -2.0226149093
| 15>  H       -1.1252706358     3.1520766506    -0.8742606318
| 16>  H        1.6723937205     2.4267289103    -1.9451219211
| 17>  H        1.2313997886     3.9255842673    -1.0864714619
| 18>  H        2.0727974211     3.5783031743     1.5350112597
| 19>  H       -1.6724163239     2.2359955627     1.4111486614
| 20>  H       -0.7483013918     0.9013234369     2.1085144846
| 21> *
| 22>
| 23>                          ****END OF INPUT****

CARTESIAN COORDINATES (ANGSTROEM)
---------------------------------
  N     -0.010206   -1.081434   -0.429765
  C     -0.003863    0.050130   -0.193842
  C     -0.046422    1.479204    0.097333
  C     -0.410457    2.368960   -1.134640
  C      1.065737    2.846900   -1.140135
  N      1.310372    2.126949    0.155868
  C      1.249394    2.899330    1.329180
  N      0.254293    2.759532    2.110405
  C     -0.669843    1.801763    1.491937
  H     -0.755529    1.839377   -2.022615
  H     -1.125271    3.152077   -0.874261
  H      1.672394    2.426729   -1.945122
  H      1.231400    3.925584   -1.086471
  H      2.072797    3.578303    1.535011
  H     -1.672416    2.235996    1.411149
  H     -0.748301    0.901323    2.108514

 Total Charge           Charge          ....    0
 Multiplicity           Mult            ....    1
 Number of Electrons    NEL             ....   64
 Basis Dimension        Dim             ....  321

ORBITAL ENERGIES
----------------

  NO   OCC          E(Eh)            E(eV)
   0   2.0000     -15.597466      -424.4286
   1   2.0000     -15.578632      -423.9161
   2   2.0000     -15.567699      -423.6186
   3   2.0000     -11.328069      -308.2524
   4   2.0000     -11.320978      -308.0595
   5   2.0000     -11.294699      -307.3444
   6   2.0000     -11.282621      -307.0157
   7   2.0000     -11.277799      -306.8845
   8   2.0000     -11.268870      -306.6415
   9   2.0000      -1.341284       -36.4982
  10   2.0000      -1.226641       -33.3786
  11   2.0000      -1.207430       -32.8558
  12   2.0000      -1.068715       -29.0812
  13   2.0000      -1.002493       -27.2792
  14   2.0000      -0.921482       -25.0748
  15   2.0000      -0.848425       -23.0868
  16   2.0000      -0.810715       -22.0607
  17   2.0000      -0.717476       -19.5235
  18   2.0000      -0.704118       -19.1600
  19   2.0000      -0.651682       -17.7332
  20   2.0000      -0.626993       -17.0614
  21   2.0000      -0.597351       -16.2548
  22   2.0000      -0.585429       -15.9303
  23   2.0000      -0.573946       -15.6179
  24   2.0000      -0.562715       -15.3123
  25   2.0000      -0.535357       -14.5678
  26   2.0000      -0.523710       -14.2509
  27   2.0000      -0.488112       -13.2822
  28   2.0000      -0.465678       -12.6718
  29   2.0000      -0.461494       -12.5579
  30   2.0000      -0.431475       -11.7410
  31   2.0000      -0.379571       -10.3287
  32   0.0000       0.121523         3.3068
  33   0.0000       0.134232         3.6526
  34   0.0000       0.142008         3.8642
  35   0.0000       0.151803         4.1308
  36   0.0000       0.158738         4.3195

MULLIKEN ATOMIC CHARGES
-----------------------
   0 N :   -0.042094
   1 C :   -0.261335
   2 C :    0.276319
   3 C :   -0.259756
   4 C :   -0.165586
   5 N :   -0.157714
   6 C :    0.005737
   7 N :   -0.241934
   8 C :   -0.144010
   9 H :    0.157184
  10 H :    0.131802
  11 H :    0.140520
  12 H :    0.134240
  13 H :    0.148066
  14 H :    0.131754
  15 H :    0.146807
Sum of atomic charges:    0.0000000

LOEWDIN ATOMIC CHARGES
----------------------
   0 N :    0.076608
   1 C :   -0.148748
   2 C :   -0.239925
   3 C :   -0.177039
   4 C :   -0.214698
   5 N :    0.165049
   6 C :   -0.292426
   7 N :    0.084966
   8 C :   -0.219092
   9 H :    0.140414
  10 H :    0.142134
  11 H :    0.132545
  12 H :    0.127940
  13 H :    0.138904
  14 H :    0.138404
  15 H :    0.144963

  Mayer bond orders larger than 0.1
B(  0-N ,  1-C ) :   2.8695 B(  1-C ,  2-C ) :   0.9260 B(  2-C ,  3-C ) :   0.8684
B(  2-C ,  5-N ) :   0.8662 B(  2-C ,  8-C ) :   0.9127 B(  3-C ,  4-C ) :   0.9500
B(  3-C ,  9-H ) :   0.9213 B(  3-C , 10-H ) :   0.9100 B(  4-C ,  5-N ) :   0.8668
B(  4-C , 11-H ) :   0.9214 B(  4-C , 12-H ) :   0.9275 B(  5-N ,  6-C ) :   1.0239
B(  6-C ,  7-N ) :   1.8151 B(  6-C , 13-H ) :   0.9178 B(  7-N ,  8-C ) :   0.9424
B(  8-C , 14-H ) :   0.9096 B(  8-C , 15-H ) :   0.9230

MP2 TOTAL ENERGY:     -396.233479102 Eh
FINAL SINGLE POINT ENERGY      -396.233479102485

DIPOLE MOMENT
-------------
                                X             Y             Z
Electronic contribution:      1.18024      -4.12458       1.75088
Nuclear contribution   :     -1.35162       5.60628      -2.45345
                        -----------------------------------------
Total Dipole Moment    :     -0.17138       1.48170      -0.70257
                        -----------------------------------------
Magnitude (a.u.)       :      1.64876
Magnitude (Debye)      :      4.19081

                             ****ORCA TERMINATED NORMALLY****
TOTAL RUN TIME: 0 days 0 hours 17 minutes 4 seconds 912 msec
