                         Program Version 3.0.3 - RELEASE   -
|  1> ! RI-MP2 RIJK def2-TZVP def2-TZVP/C def2-TZVP/JK TIGHTSCF
|  2> % maxcore 2000
|  3> % mp2 density relaxed end
|  4> *xyz 0 1
|  5>  O       -0.2450061356     1.5061583194    -0.2179252752
|  6>  C        0.0324859988     0.1284534662     0.0401852680
|  7>  C       -1.2308249589    -0.7716217666     0.1418072380
|  8>  C       -1.2855031188    -1.5894438565    -1.1709181853
|  9>  C        0.0963043434    -1.4036832107    -1.7663463111
| 10>  C        0.5416092458    -2.1936988422    -2.9666512507
| 11>  C        0.8481628531    -3.6308465098    -2.5616196060
| 12>  O        0.2271644172    -4.5939535863    -2.9250335451
| 13>  C        0.8140362153    -0.5061039219    -1.0843208710
| 14>  H       -0.5873673619     1.5661627949    -1.1168706927
| 15>  H        0.5854688557     0.1468764222     0.9847665160
| 16>  H       -1.1309798070    -1.4474670429     0.9961331044
| 17>  H       -2.1190062494    -0.1592628409     0.3136441291
| 18>  H       -1.5178221364    -2.6460367878    -0.9949372053
| 19>  H       -2.0531076911    -1.2306533172    -1.8702892852
| 20>  H       -0.2304463622    -2.2202641180    -3.7424275463
| 21>  H        1.4580465170    -1.7587212635    -3.3838502575
| 22>  H        1.7079077794    -3.7245621294    -1.8595955116
| 23>  H        1.8187080457    -0.1835534790    -1.3373656625
| 24> *
| 25>
| 26>                          ****END OF INPUT****

CARTESIAN COORDINATES (ANGSTROEM)
---------------------------------
  O     -0.245006    1.506158   -0.217925
  C      0.032486    0.128453    0.040185
  C     -1.230825   -0.771622    0.141807
  C     -1.285503   -1.589444   -1.170918
  C      0.096304   -1.403683   -1.766346
  C      0.541609   -2.193699   -2.966651
  C      0.848163   -3.630847   -2.561620
  O      0.227164   -4.593954   -2.925034
  C      0.814036   -0.506104   -1.084321
  H     -0.587367    1.566163   -1.116871
  H      0.585469    0.146876    0.984767
  H     -1.130980   -1.447467    0.996133
  H     -2.119006   -0.159263    0.313644
  H     -1.517822   -2.646037   -0.994937
  H     -2.053108   -1.230653   -1.870289
  H     -0.230446   -2.220264   -3.742428
  H      1.458047   -1.758721   -3.383850
  H      1.707908   -3.724562   -1.859596
  H      1.818708   -0.183553   -1.337366

 Total Charge           Charge          ....    0
 Multiplicity           Mult            ....    1
 Number of Electrons    NEL             ....   68
 Basis Dimension        Dim             ....  339

ORBITAL ENERGIES
----------------

  NO   OCC          E(Eh)            E(eV)
   0   2.0000     -20.565387      -559.6126
   1   2.0000     -20.556683      -559.3758
   2   2.0000     -11.340554      -308.5922
   3   2.0000     -11.287854      -307.1581
   4   2.0000     -11.258281      -306.3534
   5   2.0000     -11.255415      -306.2754
   6   2.0000     -11.238860      -305.8249
   7   2.0000     -11.234827      -305.7152
   8   2.0000     -11.228833      -305.5521
   9   2.0000      -1.404775       -38.2259
  10   2.0000      -1.361790       -37.0562
  11   2.0000      -1.150323       -31.3019
  12   2.0000      -1.047435       -28.5022
  13   2.0000      -0.975101       -26.5339
  14   2.0000      -0.937659       -25.5150
  15   2.0000      -0.811850       -22.0916
  16   2.0000      -0.807821       -21.9819
  17   2.0000      -0.736071       -20.0295
  18   2.0000      -0.705316       -19.1926
  19   2.0000      -0.670912       -18.2564
  20   2.0000      -0.656764       -17.8715
  21   2.0000      -0.636909       -17.3312
  22   2.0000      -0.628242       -17.0953
  23   2.0000      -0.588703       -16.0194
  24   2.0000      -0.583017       -15.8647
  25   2.0000      -0.557988       -15.1836
  26   2.0000      -0.537096       -14.6151
  27   2.0000      -0.531899       -14.4737
  28   2.0000      -0.505878       -13.7656
  29   2.0000      -0.486163       -13.2292
  30   2.0000      -0.482213       -13.1217
  31   2.0000      -0.440997       -12.0001
  32   2.0000      -0.431649       -11.7458
  33   2.0000      -0.365988        -9.9591
  34   0.0000       0.106019         2.8849
  35   0.0000       0.133921         3.6442
  36   0.0000       0.149264         4.0617
  37   0.0000       0.151146         4.1129
  38   0.0000       0.165618         4.5067

MULLIKEN ATOMIC CHARGES
-----------------------
   0 O :   -0.461315
   1 C :    0.144968
   2 C :   -0.262286
   3 C :   -0.237384
   4 C :   -0.017686
   5 C :   -0.164701
   6 C :    0.094120
   7 O :   -0.256600
   8 C :   -0.260666
   9 H :    0.308125
  10 H :    0.106875
  11 H :    0.119566
  12 H :    0.137386
  13 H :    0.143324
  14 H :    0.128001
  15 H :    0.123363
  16 H :    0.140451
  17 H :    0.082333
  18 H :    0.132126
Sum of atomic charges:    0.0000000

LOEWDIN ATOMIC CHARGES
----------------------
   0 O :   -0.028658
   1 C :   -0.319006
   2 C :   -0.222496
   3 C :   -0.213447
   4 C :   -0.163600
   5 C :   -0.221577
   6 C :   -0.286300
   7 O :    0.137529
   8 C :   -0.128539
   9 H :    0.172826
  10 H :    0.142979
  11 H :    0.140924
  12 H :    0.138475
  13 H :    0.144967
  14 H :    0.142723
  15 H :    0.152815
  16 H :    0.156772
  17 H :    0.112143
  18 H :    0.141470

  Mayer bond orders larger than 0.1
B(  0-O ,  1-C ) :   0.9330 B(  0-O ,  9-H ) :   0.8434 B(  1-C ,  2-C ) :   0.9013
B(  1-C ,  8-C ) :   0.9611 B(  1-C , 10-H ) :   0.9408 B(  2-C ,  3-C ) :   0.9301
B(  2-C , 11-H ) :   0.9205 B(  2-C , 12-H ) :   0.9427 B(  3-C ,  4-C ) :   0.9343
B(  3-C , 13-H ) :   0.9215 B(  3-C , 14-H ) :   0.9107 B(  4-C ,  5-C ) :   0.8849
B(  4-C ,  8-C ) :   1.6845 B(  5-C ,  6-C ) :   0.8667 B(  5-C , 15-H ) :   0.8980
B(  5-C , 16-H ) :   0.9289 B(  6-C ,  7-O ) :   1.9986 B(  6-C , 17-H ) :   0.9309
B(  8-C , 18-H ) :   0.9376

MP2 TOTAL ENERGY:     -422.336959936 Eh
FINAL SINGLE POINT ENERGY      -422.336959936026

DIPOLE MOMENT
-------------
                                X             Y             Z
Electronic contribution:      1.79448      -2.19216      -1.93029
Nuclear contribution   :     -1.59950       2.51037       1.73370
                        -----------------------------------------
Total Dipole Moment    :      0.19498       0.31821      -0.19659
                        -----------------------------------------
Magnitude (a.u.)       :      0.42181
Magnitude (Debye)      :      1.07217

                             ****ORCA TERMINATED NORMALLY****
TOTAL RUN TIME: 0 days 0 hours 16 minutes 3 seconds 391 msec
