                         Program Version 3.0.3 - RELEASE   -
|  1> ! RI-MP2 RIJK def2-TZVP def2-TZVP/C def2-TZVP/JK TIGHTSCF
|  2> % maxcore 2000
|  3> % mp2 density relaxed end
|  4> *xyz 0 1
|  5>  C        0.0252482104     1.5644326814    -0.1292608874
|  6>  C        0.0388253235     0.0478406067     0.0743505795
|  7>  O        0.6478435631    -0.3124086742     1.3035887280
|  8>  C       -1.3658751198    -0.5600717588    -0.0064322023
|  9>  C       -1.4113542736    -2.1011954944     0.1865672345
| 10>  O       -2.1836672399    -2.2959729365     1.3653469102
| 11>  C       -2.9546016789    -1.1299025714     1.5270392845
| 12>  C       -3.3573898197    -0.9511018770     2.9718900471
| 13>  O       -2.1240585034    -0.0640479736     1.1008366332
| 14>  H        1.0378161066     1.9612817708    -0.0224214483
| 15>  H       -0.3493302607     1.8267891745    -1.1247020071
| 16>  H       -0.6187409635     2.0440644227     0.6140682787
| 17>  H        0.6504007152    -0.4177229697    -0.7091966199
| 18>  H       -0.0048061587    -0.1104304377     1.9863642179
| 19>  H       -1.8482466883    -0.2680683907    -0.9501835870
| 20>  H       -1.8792011374    -2.5957838721    -0.6752981909
| 21>  H       -0.4195062512    -2.5250402153     0.3575489361
| 22>  H       -3.8432382713    -1.1726743044     0.8673144461
| 23>  H       -2.4659759574    -0.9158378668     3.6032245589
| 24>  H       -3.9229824144    -0.0238888253     3.0916408330
| 25>  H       -3.9830627507    -1.7892608883     3.2879574753
| 26> *
| 27>
| 28>                          ****END OF INPUT****

CARTESIAN COORDINATES (ANGSTROEM)
---------------------------------
  C      0.025248    1.564433   -0.129261
  C      0.038825    0.047841    0.074351
  O      0.647844   -0.312409    1.303589
  C     -1.365875   -0.560072   -0.006432
  C     -1.411354   -2.101195    0.186567
  O     -2.183667   -2.295973    1.365347
  C     -2.954602   -1.129903    1.527039
  C     -3.357390   -0.951102    2.971890
  O     -2.124059   -0.064048    1.100837
  H      1.037816    1.961282   -0.022421
  H     -0.349330    1.826789   -1.124702
  H     -0.618741    2.044064    0.614068
  H      0.650401   -0.417723   -0.709197
  H     -0.004806   -0.110430    1.986364
  H     -1.848247   -0.268068   -0.950184
  H     -1.879201   -2.595784   -0.675298
  H     -0.419506   -2.525040    0.357549
  H     -3.843238   -1.172674    0.867314
  H     -2.465976   -0.915838    3.603225
  H     -3.922982   -0.023889    3.091641
  H     -3.983063   -1.789261    3.287957

 Total Charge           Charge          ....    0
 Multiplicity           Mult            ....    1
 Number of Electrons    NEL             ....   72
 Basis Dimension        Dim             ....  351

ORBITAL ENERGIES
----------------

  NO   OCC          E(Eh)            E(eV)
   0   2.0000     -20.570888      -559.7623
   1   2.0000     -20.565164      -559.6066
   2   2.0000     -20.550259      -559.2010
   3   2.0000     -11.337127      -308.4989
   4   2.0000     -11.290124      -307.2199
   5   2.0000     -11.283938      -307.0516
   6   2.0000     -11.281870      -306.9953
   7   2.0000     -11.222249      -305.3729
   8   2.0000     -11.215320      -305.1844
   9   2.0000      -1.446302       -39.3559
  10   2.0000      -1.362320       -37.0706
  11   2.0000      -1.335009       -36.3275
  12   2.0000      -1.072965       -29.1969
  13   2.0000      -1.013264       -27.5723
  14   2.0000      -0.958892       -26.0928
  15   2.0000      -0.873425       -23.7671
  16   2.0000      -0.834412       -22.7055
  17   2.0000      -0.808047       -21.9881
  18   2.0000      -0.720342       -19.6015
  19   2.0000      -0.695508       -18.9257
  20   2.0000      -0.666672       -18.1411
  21   2.0000      -0.649609       -17.6768
  22   2.0000      -0.632473       -17.2105
  23   2.0000      -0.609347       -16.5812
  24   2.0000      -0.589252       -16.0344
  25   2.0000      -0.560405       -15.2494
  26   2.0000      -0.551099       -14.9962
  27   2.0000      -0.542396       -14.7593
  28   2.0000      -0.537280       -14.6201
  29   2.0000      -0.532043       -14.4776
  30   2.0000      -0.512621       -13.9491
  31   2.0000      -0.489918       -13.3313
  32   2.0000      -0.487227       -13.2581
  33   2.0000      -0.452577       -12.3153
  34   2.0000      -0.432939       -11.7809
  35   2.0000      -0.429235       -11.6801
  36   0.0000       0.138104         3.7580
  37   0.0000       0.146299         3.9810
  38   0.0000       0.161003         4.3811
  39   0.0000       0.175302         4.7702
  40   0.0000       0.186054         5.0628

MULLIKEN ATOMIC CHARGES
-----------------------
   0 C :   -0.388572
   1 C :    0.103663
   2 O :   -0.476183
   3 C :   -0.002924
   4 C :   -0.030641
   5 O :   -0.302636
   6 C :    0.188285
   7 C :   -0.353258
   8 O :   -0.338619
   9 H :    0.143494
  10 H :    0.117386
  11 H :    0.135660
  12 H :    0.097508
  13 H :    0.322432
  14 H :    0.094467
  15 H :    0.097024
  16 H :    0.126746
  17 H :    0.063794
  18 H :    0.126539
  19 H :    0.136377
  20 H :    0.139458
Sum of atomic charges:    0.0000000

LOEWDIN ATOMIC CHARGES
----------------------
   0 C :   -0.299303
   1 C :   -0.364851
   2 O :   -0.012816
   3 C :   -0.298342
   4 C :   -0.278923
   5 O :    0.176060
   6 C :   -0.431199
   7 C :   -0.286363
   8 O :    0.185927
   9 H :    0.126521
  10 H :    0.124216
  11 H :    0.126707
  12 H :    0.146967
  13 H :    0.177817
  14 H :    0.139497
  15 H :    0.118886
  16 H :    0.134532
  17 H :    0.123487
  18 H :    0.128072
  19 H :    0.130645
  20 H :    0.132464

  Mayer bond orders larger than 0.1
B(  0-C ,  1-C ) :   0.9348 B(  0-C ,  9-H ) :   0.9395 B(  0-C , 10-H ) :   0.9297
B(  0-C , 11-H ) :   0.9276 B(  1-C ,  2-O ) :   0.9125 B(  1-C ,  3-C ) :   0.9226
B(  1-C , 12-H ) :   0.9232 B(  2-O , 13-H ) :   0.8258 B(  3-C ,  4-C ) :   0.9233
B(  3-C ,  8-O ) :   0.9203 B(  3-C , 14-H ) :   0.9208 B(  4-C ,  5-O ) :   0.9371
B(  4-C , 15-H ) :   0.9269 B(  4-C , 16-H ) :   0.9112 B(  5-O ,  6-C ) :   0.9947
B(  6-C ,  7-C ) :   0.9269 B(  6-C ,  8-O ) :   0.9411 B(  6-C , 17-H ) :   0.9287
B(  7-C , 18-H ) :   0.9302 B(  7-C , 19-H ) :   0.9329 B(  7-C , 20-H ) :   0.9339

MP2 TOTAL ENERGY:     -460.646447846 Eh
FINAL SINGLE POINT ENERGY      -460.646447846319

DIPOLE MOMENT
-------------
                                X             Y             Z
Electronic contribution:      0.22343      -3.23221       0.53134
Nuclear contribution   :     -0.81039       3.43577      -1.05452
                        -----------------------------------------
Total Dipole Moment    :     -0.58696       0.20356      -0.52318
                        -----------------------------------------
Magnitude (a.u.)       :      0.81221
Magnitude (Debye)      :      2.06446

                             ****ORCA TERMINATED NORMALLY****
TOTAL RUN TIME: 0 days 0 hours 18 minutes 28 seconds 105 msec
