                         Program Version 3.0.3 - RELEASE   -
|  1> ! RI-MP2 RIJK def2-TZVP def2-TZVP/C def2-TZVP/JK TIGHTSCF
|  2> % maxcore 2000
|  3> % mp2 density relaxed end
|  4> *xyz 0 1
|  5>  C        0.1218110840     1.6415517276    -0.0239441080
|  6>  C        1.6718930359     1.3484889083    -0.0255357873
|  7>  C        1.2877458198    -0.0152426464     0.4998335990
|  8>  C        1.4672112726    -0.8722638288     1.5015510173
|  9>  C        0.1527476149    -1.5612909293     1.8206195130
| 10>  O       -0.4053386117    -1.0976499089     3.0796292017
| 11>  C       -1.3004586438    -0.1969382842     2.3946408866
| 12>  C       -0.9234961233    -0.7620411168     1.0068254211
| 13>  C       -0.1297893659     0.0873507019     0.0036061146
| 14>  H       -0.1852668907     2.1329282675     0.9014901954
| 15>  H       -0.2774601194     2.1915220193    -0.8790918763
| 16>  H        2.0653139890     1.3267134788    -1.0472810076
| 17>  H        2.3213932213     1.9719824294     0.5926526475
| 18>  H        2.3427416950    -0.9853093713     2.1301460539
| 19>  H        0.1669623147    -2.6567633670     1.7897145940
| 20>  H       -2.3402955860    -0.3471627124     2.7061582943
| 21>  H       -1.0323783859     0.8544075922     2.5609900942
| 22>  H       -1.7177771720    -1.3575513792     0.5556755048
| 23>  H       -0.2675249487    -0.2725590006    -1.0228941182
| 24> *
| 25>
| 26>                          ****END OF INPUT****

CARTESIAN COORDINATES (ANGSTROEM)
---------------------------------
  C      0.121811    1.641552   -0.023944
  C      1.671893    1.348489   -0.025536
  C      1.287746   -0.015243    0.499834
  C      1.467211   -0.872264    1.501551
  C      0.152748   -1.561291    1.820620
  O     -0.405339   -1.097650    3.079629
  C     -1.300459   -0.196938    2.394641
  C     -0.923496   -0.762041    1.006825
  C     -0.129789    0.087351    0.003606
  H     -0.185267    2.132928    0.901490
  H     -0.277460    2.191522   -0.879092
  H      2.065314    1.326713   -1.047281
  H      2.321393    1.971982    0.592653
  H      2.342742   -0.985309    2.130146
  H      0.166962   -2.656763    1.789715
  H     -2.340296   -0.347163    2.706158
  H     -1.032378    0.854408    2.560990
  H     -1.717777   -1.357551    0.555676
  H     -0.267525   -0.272559   -1.022894

 Total Charge           Charge          ....    0
 Multiplicity           Mult            ....    1
 Number of Electrons    NEL             ....   66
 Basis Dimension        Dim             ....  339

ORBITAL ENERGIES
----------------

  NO   OCC          E(Eh)            E(eV)
   0   2.0000     -20.539514      -558.9086
   1   2.0000     -11.281579      -306.9874
   2   2.0000     -11.273803      -306.7758
   3   2.0000     -11.240715      -305.8754
   4   2.0000     -11.239043      -305.8299
   5   2.0000     -11.235710      -305.7392
   6   2.0000     -11.234239      -305.6992
   7   2.0000     -11.232427      -305.6499
   8   2.0000     -11.218223      -305.2634
   9   2.0000      -1.369707       -37.2716
  10   2.0000      -1.167699       -31.7747
  11   2.0000      -1.040911       -28.3246
  12   2.0000      -0.997921       -27.1548
  13   2.0000      -0.906787       -24.6749
  14   2.0000      -0.883832       -24.0503
  15   2.0000      -0.843539       -22.9539
  16   2.0000      -0.737382       -20.0652
  17   2.0000      -0.719051       -19.5664
  18   2.0000      -0.687408       -18.7053
  19   2.0000      -0.648278       -17.6405
  20   2.0000      -0.646531       -17.5930
  21   2.0000      -0.593622       -16.1533
  22   2.0000      -0.588949       -16.0261
  23   2.0000      -0.567689       -15.4476
  24   2.0000      -0.547055       -14.8861
  25   2.0000      -0.511597       -13.9213
  26   2.0000      -0.490086       -13.3359
  27   2.0000      -0.486360       -13.2345
  28   2.0000      -0.452893       -12.3238
  29   2.0000      -0.438579       -11.9343
  30   2.0000      -0.434625       -11.8267
  31   2.0000      -0.408132       -11.1058
  32   2.0000      -0.342040        -9.3074
  33   0.0000       0.133063         3.6208
  34   0.0000       0.149072         4.0565
  35   0.0000       0.158986         4.3262
  36   0.0000       0.159732         4.3465
  37   0.0000       0.185021         5.0347

MULLIKEN ATOMIC CHARGES
-----------------------
   0 C :   -0.238079
   1 C :   -0.183015
   2 C :   -0.058110
   3 C :   -0.241783
   4 C :    0.125974
   5 O :   -0.331911
   6 C :   -0.049337
   7 C :   -0.068830
   8 C :   -0.089715
   9 H :    0.118355
  10 H :    0.120157
  11 H :    0.128274
  12 H :    0.125152
  13 H :    0.134380
  14 H :    0.100426
  15 H :    0.101915
  16 H :    0.079422
  17 H :    0.117875
  18 H :    0.108849
Sum of atomic charges:   -0.0000000

LOEWDIN ATOMIC CHARGES
----------------------
   0 C :   -0.195461
   1 C :   -0.193435
   2 C :   -0.136752
   3 C :   -0.120643
   4 C :   -0.224762
   5 O :    0.127518
   6 C :   -0.249559
   7 C :   -0.174509
   8 C :   -0.164361
   9 H :    0.132871
  10 H :    0.123754
  11 H :    0.142509
  12 H :    0.131100
  13 H :    0.140413
  14 H :    0.130278
  15 H :    0.117142
  16 H :    0.116095
  17 H :    0.143339
  18 H :    0.154465

  Mayer bond orders larger than 0.1
B(  0-C ,  1-C ) :   0.9418 B(  0-C ,  8-C ) :   0.9020 B(  0-C ,  9-H ) :   0.9155
B(  0-C , 10-H ) :   0.9259 B(  1-C ,  2-C ) :   0.9188 B(  1-C , 11-H ) :   0.9186
B(  1-C , 12-H ) :   0.9157 B(  2-C ,  3-C ) :   1.7495 B(  2-C ,  8-C ) :   0.9313
B(  3-C ,  4-C ) :   0.8959 B(  3-C , 13-H ) :   0.9217 B(  4-C ,  5-O ) :   0.9310
B(  4-C ,  7-C ) :   0.9334 B(  4-C , 14-H ) :   0.9190 B(  5-O ,  6-C ) :   0.9581
B(  6-C ,  7-C ) :   0.9616 B(  6-C , 15-H ) :   0.9164 B(  6-C , 16-H ) :   0.8987
B(  7-C ,  8-C ) :   0.9628 B(  7-C , 17-H ) :   0.9182 B(  8-C , 18-H ) :   0.9050

MP2 TOTAL ENERGY:     -385.165145871 Eh
FINAL SINGLE POINT ENERGY      -385.165145871020

DIPOLE MOMENT
-------------
                                X             Y             Z
Electronic contribution:      0.60997      -3.69692       2.46295
Nuclear contribution   :     -0.75024       4.09963      -3.24242
                        -----------------------------------------
Total Dipole Moment    :     -0.14028       0.40271      -0.77947
                        -----------------------------------------
Magnitude (a.u.)       :      0.88850
Magnitude (Debye)      :      2.25839

                             ****ORCA TERMINATED NORMALLY****
TOTAL RUN TIME: 0 days 0 hours 21 minutes 7 seconds 570 msec
