                         Program Version 3.0.3 - RELEASE   -
|  1> ! RI-MP2 RIJK def2-TZVP def2-TZVP/C def2-TZVP/JK TIGHTSCF
|  2> % maxcore 2000
|  3> % mp2 density relaxed end
|  4> *xyz 0 1
|  5>  O        0.0822803851     1.3710198826    -0.2226714550
|  6>  C        0.0461709539    -0.0406114752    -0.0347908084
|  7>  C        0.7541951177    -0.4985910363     1.2131874810
|  8>  C        0.3954056694    -0.0999311997     2.4475512253
|  9>  C       -0.7931171853     0.6532707078     2.7831584943
| 10>  C       -1.9553436416     0.6548297347     2.0914549759
| 11>  N       -2.2414365282    -0.0253837575     0.9265915004
| 12>  C       -1.4035473372    -0.5421134749    -0.0622345845
| 13>  O       -1.8440360115    -1.2870000329    -0.9091845087
| 14>  H       -0.0252604687     1.7839480215     0.6416300013
| 15>  H        0.5109188616    -0.4765749687    -0.9205294547
| 16>  H        1.6267898253    -1.1304896173     1.0859432174
| 17>  H        1.0427268211    -0.3591124094     3.2823753596
| 18>  H       -0.7918555711     1.2081370067     3.7152926210
| 19>  H       -2.8062985790     1.2018262298     2.4846798070
| 20>  H       -3.2171588713    -0.1847913412     0.7153960980
| 21> *
| 22>
| 23>                          ****END OF INPUT****

CARTESIAN COORDINATES (ANGSTROEM)
---------------------------------
  O      0.082280    1.371020   -0.222671
  C      0.046171   -0.040611   -0.034791
  C      0.754195   -0.498591    1.213187
  C      0.395406   -0.099931    2.447551
  C     -0.793117    0.653271    2.783158
  C     -1.955344    0.654830    2.091455
  N     -2.241437   -0.025384    0.926592
  C     -1.403547   -0.542113   -0.062235
  O     -1.844036   -1.287000   -0.909185
  H     -0.025260    1.783948    0.641630
  H      0.510919   -0.476575   -0.920529
  H      1.626790   -1.130490    1.085943
  H      1.042727   -0.359112    3.282375
  H     -0.791856    1.208137    3.715293
  H     -2.806299    1.201826    2.484680
  H     -3.217159   -0.184791    0.715396

 Total Charge           Charge          ....    0
 Multiplicity           Mult            ....    1
 Number of Electrons    NEL             ....   66
 Basis Dimension        Dim             ....  321

ORBITAL ENERGIES
----------------

  NO   OCC          E(Eh)            E(eV)
   0   2.0000     -20.569126      -559.7144
   1   2.0000     -20.536576      -558.8286
   2   2.0000     -15.614458      -424.8910
   3   2.0000     -11.364138      -309.2339
   4   2.0000     -11.308770      -307.7273
   5   2.0000     -11.306272      -307.6593
   6   2.0000     -11.258815      -306.3679
   7   2.0000     -11.250301      -306.1363
   8   2.0000     -11.246751      -306.0397
   9   2.0000      -1.405442       -38.2440
  10   2.0000      -1.372494       -37.3475
  11   2.0000      -1.267014       -34.4772
  12   2.0000      -1.112033       -30.2599
  13   2.0000      -1.047505       -28.5041
  14   2.0000      -0.956058       -26.0157
  15   2.0000      -0.896684       -24.4000
  16   2.0000      -0.795099       -21.6358
  17   2.0000      -0.773647       -21.0520
  18   2.0000      -0.722845       -19.6696
  19   2.0000      -0.698840       -19.0164
  20   2.0000      -0.670945       -18.2573
  21   2.0000      -0.651766       -17.7355
  22   2.0000      -0.627181       -17.0665
  23   2.0000      -0.605394       -16.4736
  24   2.0000      -0.588852       -16.0235
  25   2.0000      -0.579057       -15.7570
  26   2.0000      -0.550758       -14.9869
  27   2.0000      -0.506993       -13.7960
  28   2.0000      -0.498907       -13.5760
  29   2.0000      -0.490120       -13.3368
  30   2.0000      -0.431495       -11.7416
  31   2.0000      -0.411130       -11.1874
  32   2.0000      -0.323060        -8.7909
  33   0.0000       0.087376         2.3776
  34   0.0000       0.125885         3.4255
  35   0.0000       0.142752         3.8845
  36   0.0000       0.154179         4.1954
  37   0.0000       0.167232         4.5506

MULLIKEN ATOMIC CHARGES
-----------------------
   0 O :   -0.448920
   1 C :    0.149334
   2 C :   -0.196041
   3 C :   -0.135410
   4 C :   -0.215124
   5 C :   -0.051147
   6 N :   -0.264346
   7 C :    0.216881
   8 O :   -0.317830
   9 H :    0.335518
  10 H :    0.118326
  11 H :    0.140888
  12 H :    0.134014
  13 H :    0.140011
  14 H :    0.143525
  15 H :    0.250323
Sum of atomic charges:    0.0000000

LOEWDIN ATOMIC CHARGES
----------------------
   0 O :    0.001674
   1 C :   -0.303066
   2 C :   -0.135404
   3 C :   -0.164481
   4 C :   -0.207561
   5 C :   -0.218300
   6 N :    0.164039
   7 C :   -0.398846
   8 O :    0.110075
   9 H :    0.179848
  10 H :    0.161406
  11 H :    0.148165
  12 H :    0.154008
  13 H :    0.154869
  14 H :    0.147818
  15 H :    0.205755

  Mayer bond orders larger than 0.1
B(  0-O ,  1-C ) :   0.9634 B(  0-O ,  9-H ) :   0.8272 B(  1-C ,  2-C ) :   0.9182
B(  1-C ,  7-C ) :   0.8587 B(  1-C , 10-H ) :   0.9242 B(  2-C ,  3-C ) :   1.6887
B(  2-C , 11-H ) :   0.9232 B(  3-C ,  4-C ) :   1.0465 B(  3-C , 12-H ) :   0.9244
B(  4-C ,  5-C ) :   1.6256 B(  4-C , 13-H ) :   0.9244 B(  5-C ,  6-N ) :   1.0821
B(  5-C , 14-H ) :   0.9156 B(  6-N ,  7-C ) :   1.0720 B(  6-N , 15-H ) :   0.8568
B(  7-C ,  8-O ) :   1.9982

MP2 TOTAL ENERGY:     -437.196470359 Eh
FINAL SINGLE POINT ENERGY      -437.196470358540

DIPOLE MOMENT
-------------
                                X             Y             Z
Electronic contribution:     -1.88862      -1.24146      -3.15774
Nuclear contribution   :      1.73981       1.67652       4.65028
                        -----------------------------------------
Total Dipole Moment    :     -0.14881       0.43506       1.49254
                        -----------------------------------------
Magnitude (a.u.)       :      1.56176
Magnitude (Debye)      :      3.96968

                             ****ORCA TERMINATED NORMALLY****
TOTAL RUN TIME: 0 days 0 hours 17 minutes 13 seconds 338 msec
