                         Program Version 3.0.3 - RELEASE   -
|  1> ! RI-MP2 RIJK def2-TZVP def2-TZVP/C def2-TZVP/JK TIGHTSCF
|  2> % maxcore 2000
|  3> % mp2 density relaxed end
|  4> *xyz 0 1
|  5>  C       -0.0537767462     1.5046330294     0.0737691853
|  6>  C       -0.0311788701     0.0033664388    -0.0085165892
|  7>  C       -0.0231686177    -0.6889762682    -1.1607675543
|  8>  C        0.0412854735    -2.1878015362    -1.2625385678
|  9>  C        0.5333322395    -2.8468961162     0.0323638093
| 10>  C       -0.2060737595    -2.2480502555     1.2284231669
| 11>  O        0.1887298815    -2.8336369265     2.4372697240
| 12>  C        0.0143876791    -0.7363272773     1.2720856422
| 13>  O        0.2014119469    -0.1910452685     2.3470290983
| 14>  H        0.8219149441     1.8744275586     0.6163242770
| 15>  H       -0.0694810712     1.9556245947    -0.9213609235
| 16>  H       -0.9295761397     1.8534853013     0.6314689415
| 17>  H       -0.0661662392    -0.1398717931    -2.1002950043
| 18>  H       -0.9618126096    -2.5647451213    -1.5181406103
| 19>  H        0.6788656359    -2.4692453819    -2.1084506226
| 20>  H        0.3814171178    -3.9297662949     0.0080102182
| 21>  H        1.6079522697    -2.6711721863     0.1610318072
| 22>  H       -1.2936225773    -2.3902514367     1.0657622643
| 23>  H        0.2880744826    -2.0901372004     3.0541332579
| 24> *
| 25>
| 26>                          ****END OF INPUT****

CARTESIAN COORDINATES (ANGSTROEM)
---------------------------------
  C     -0.053777    1.504633    0.073769
  C     -0.031179    0.003366   -0.008517
  C     -0.023169   -0.688976   -1.160768
  C      0.041285   -2.187802   -1.262539
  C      0.533332   -2.846896    0.032364
  C     -0.206074   -2.248050    1.228423
  O      0.188730   -2.833637    2.437270
  C      0.014388   -0.736327    1.272086
  O      0.201412   -0.191045    2.347029
  H      0.821915    1.874428    0.616324
  H     -0.069481    1.955625   -0.921361
  H     -0.929576    1.853485    0.631469
  H     -0.066166   -0.139872   -2.100295
  H     -0.961813   -2.564745   -1.518141
  H      0.678866   -2.469245   -2.108451
  H      0.381417   -3.929766    0.008010
  H      1.607952   -2.671172    0.161032
  H     -1.293623   -2.390251    1.065762
  H      0.288074   -2.090137    3.054133

 Total Charge           Charge          ....    0
 Multiplicity           Mult            ....    1
 Number of Electrons    NEL             ....   68
 Basis Dimension        Dim             ....  339

ORBITAL ENERGIES
----------------

  NO   OCC          E(Eh)            E(eV)
   0   2.0000     -20.555066      -559.3318
   1   2.0000     -20.551473      -559.2340
   2   2.0000     -11.334843      -308.4368
   3   2.0000     -11.292072      -307.2729
   4   2.0000     -11.265920      -306.5613
   5   2.0000     -11.251658      -306.1732
   6   2.0000     -11.250739      -306.1482
   7   2.0000     -11.238036      -305.8025
   8   2.0000     -11.228444      -305.5415
   9   2.0000      -1.405855       -38.2553
  10   2.0000      -1.355966       -36.8977
  11   2.0000      -1.142494       -31.0888
  12   2.0000      -1.054141       -28.6846
  13   2.0000      -0.988500       -26.8985
  14   2.0000      -0.938870       -25.5480
  15   2.0000      -0.835891       -22.7458
  16   2.0000      -0.826418       -22.4880
  17   2.0000      -0.734797       -19.9949
  18   2.0000      -0.697619       -18.9832
  19   2.0000      -0.665869       -18.1192
  20   2.0000      -0.644677       -17.5426
  21   2.0000      -0.622685       -16.9441
  22   2.0000      -0.610103       -16.6017
  23   2.0000      -0.586100       -15.9486
  24   2.0000      -0.568855       -15.4793
  25   2.0000      -0.565482       -15.3875
  26   2.0000      -0.534158       -14.5352
  27   2.0000      -0.532439       -14.4884
  28   2.0000      -0.513535       -13.9740
  29   2.0000      -0.510681       -13.8963
  30   2.0000      -0.505140       -13.7455
  31   2.0000      -0.445663       -12.1271
  32   2.0000      -0.415534       -11.3072
  33   2.0000      -0.371562       -10.1107
  34   0.0000       0.085662         2.3310
  35   0.0000       0.126436         3.4405
  36   0.0000       0.151656         4.1268
  37   0.0000       0.156285         4.2527
  38   0.0000       0.168684         4.5901

MULLIKEN ATOMIC CHARGES
-----------------------
   0 C :   -0.394819
   1 C :   -0.032976
   2 C :   -0.137355
   3 C :   -0.216201
   4 C :   -0.204496
   5 C :    0.113647
   6 O :   -0.471761
   7 C :    0.159698
   8 O :   -0.332584
   9 H :    0.152010
  10 H :    0.132925
  11 H :    0.144338
  12 H :    0.131833
  13 H :    0.133768
  14 H :    0.139200
  15 H :    0.137454
  16 H :    0.120339
  17 H :    0.090077
  18 H :    0.334902
Sum of atomic charges:    0.0000000

LOEWDIN ATOMIC CHARGES
----------------------
   0 C :   -0.261031
   1 C :   -0.170037
   2 C :   -0.096312
   3 C :   -0.247311
   4 C :   -0.227829
   5 C :   -0.330673
   6 O :   -0.005070
   7 C :   -0.274367
   8 O :    0.136938
   9 H :    0.138126
  10 H :    0.128396
  11 H :    0.135865
  12 H :    0.147957
  13 H :    0.152744
  14 H :    0.147557
  15 H :    0.143265
  16 H :    0.145879
  17 H :    0.152469
  18 H :    0.183435

  Mayer bond orders larger than 0.1
B(  0-C ,  1-C ) :   0.9050 B(  0-C ,  9-H ) :   0.9220 B(  0-C , 10-H ) :   0.9466
B(  0-C , 11-H ) :   0.9251 B(  1-C ,  2-C ) :   1.6859 B(  1-C ,  7-C ) :   0.9732
B(  2-C ,  3-C ) :   0.9310 B(  2-C , 12-H ) :   0.9221 B(  3-C ,  4-C ) :   0.9182
B(  3-C , 13-H ) :   0.9051 B(  3-C , 14-H ) :   0.9269 B(  4-C ,  5-C ) :   0.8615
B(  4-C , 15-H ) :   0.9297 B(  4-C , 16-H ) :   0.9243 B(  5-C ,  6-O ) :   1.0858
B(  5-C ,  7-C ) :   0.9488 B(  5-C , 17-H ) :   0.9084 B(  6-O , 18-H ) :   0.8029
B(  7-C ,  8-O ) :   1.9017

MP2 TOTAL ENERGY:     -422.363439296 Eh
FINAL SINGLE POINT ENERGY      -422.363439295738

DIPOLE MOMENT
-------------
                                X             Y             Z
Electronic contribution:      0.10871      -0.67512       5.40035
Nuclear contribution   :     -0.31125       0.89378      -6.75539
                        -----------------------------------------
Total Dipole Moment    :     -0.20254       0.21867      -1.35505
                        -----------------------------------------
Magnitude (a.u.)       :      1.38744
Magnitude (Debye)      :      3.52659

                             ****ORCA TERMINATED NORMALLY****
TOTAL RUN TIME: 0 days 0 hours 17 minutes 34 seconds 623 msec
