                         Program Version 3.0.3 - RELEASE   -
|  1> ! RI-MP2 RIJK def2-TZVP def2-TZVP/C def2-TZVP/JK TIGHTSCF
|  2> % maxcore 2000
|  3> % mp2 density relaxed end
|  4> *xyz 0 1
|  5>  C        0.1357204751     1.5356912415     0.1873780207
|  6>  C       -0.0194599577     0.0299030429    -0.0455352613
|  7>  C        0.6522101989    -0.4706957128    -1.3320902269
|  8>  C        0.0238797754     0.0955144879    -2.6091053844
|  9>  N        2.1528937346    -0.3767444697    -1.2802910262
| 10>  C        2.3385917878    -1.8328387256    -1.5257625565
| 11>  C        0.8181993063    -2.0043739159    -1.3971996050
| 12>  O        0.0660269006    -2.9314094720    -1.3492979832
| 13>  H        1.1939531660     1.8147885055     0.1780188177
| 14>  H       -0.3818748222     2.1267474112    -0.5746947916
| 15>  H       -0.2788506905     1.8196010706     1.1592302044
| 16>  H        0.4250657242    -0.5083066448     0.7990733181
| 17>  H       -1.0789078840    -0.2515209626    -0.0761784073
| 18>  H        0.1594628093     1.1806206996    -2.6604845238
| 19>  H        0.4774717470    -0.3440730500    -3.5036950731
| 20>  H       -1.0495150707    -0.1149041156    -2.6380114768
| 21>  H        2.5387478777     0.2019212178    -2.0179511936
| 22>  H        2.7128309248    -2.1116737509    -2.5200908896
| 23>  H        2.9444915874    -2.3477368471    -0.7720633815
| 24> *
| 25>
| 26>                          ****END OF INPUT****

CARTESIAN COORDINATES (ANGSTROEM)
---------------------------------
  C      0.135720    1.535691    0.187378
  C     -0.019460    0.029903   -0.045535
  C      0.652210   -0.470696   -1.332090
  C      0.023880    0.095514   -2.609105
  N      2.152894   -0.376744   -1.280291
  C      2.338592   -1.832839   -1.525763
  C      0.818199   -2.004374   -1.397200
  O      0.066027   -2.931409   -1.349298
  H      1.193953    1.814789    0.178019
  H     -0.381875    2.126747   -0.574695
  H     -0.278851    1.819601    1.159230
  H      0.425066   -0.508307    0.799073
  H     -1.078908   -0.251521   -0.076178
  H      0.159463    1.180621   -2.660485
  H      0.477472   -0.344073   -3.503695
  H     -1.049515   -0.114904   -2.638011
  H      2.538748    0.201921   -2.017951
  H      2.712831   -2.111674   -2.520091
  H      2.944492   -2.347737   -0.772063

 Total Charge           Charge          ....    0
 Multiplicity           Mult            ....    1
 Number of Electrons    NEL             ....   62
 Basis Dimension        Dim             ....  314

ORBITAL ENERGIES
----------------

  NO   OCC          E(Eh)            E(eV)
   0   2.0000     -20.558467      -559.4243
   1   2.0000     -15.556406      -423.3113
   2   2.0000     -11.331977      -308.3588
   3   2.0000     -11.276266      -306.8428
   4   2.0000     -11.268885      -306.6419
   5   2.0000     -11.234561      -305.7080
   6   2.0000     -11.227800      -305.5240
   7   2.0000     -11.216952      -305.2288
   8   2.0000      -1.401871       -38.1469
   9   2.0000      -1.247340       -33.9418
  10   2.0000      -1.062379       -28.9088
  11   2.0000      -0.989529       -26.9264
  12   2.0000      -0.944476       -25.7005
  13   2.0000      -0.898382       -24.4462
  14   2.0000      -0.822362       -22.3776
  15   2.0000      -0.702660       -19.1204
  16   2.0000      -0.681268       -18.5382
  17   2.0000      -0.662317       -18.0226
  18   2.0000      -0.646339       -17.5878
  19   2.0000      -0.618320       -16.8253
  20   2.0000      -0.579833       -15.7780
  21   2.0000      -0.573127       -15.5956
  22   2.0000      -0.558475       -15.1969
  23   2.0000      -0.549467       -14.9518
  24   2.0000      -0.530702       -14.4411
  25   2.0000      -0.515279       -14.0214
  26   2.0000      -0.510182       -13.8828
  27   2.0000      -0.484466       -13.1830
  28   2.0000      -0.476953       -12.9786
  29   2.0000      -0.395610       -10.7651
  30   2.0000      -0.390333       -10.6215
  31   0.0000       0.121472         3.3054
  32   0.0000       0.131052         3.5661
  33   0.0000       0.156333         4.2540
  34   0.0000       0.165254         4.4968
  35   0.0000       0.176171         4.7939

MULLIKEN ATOMIC CHARGES
-----------------------
   0 C :   -0.433908
   1 C :   -0.156018
   2 C :    0.145629
   3 C :   -0.454951
   4 N :   -0.343784
   5 C :   -0.160560
   6 C :    0.112988
   7 O :   -0.249011
   8 H :    0.143616
   9 H :    0.124356
  10 H :    0.138743
  11 H :    0.107698
  12 H :    0.118532
  13 H :    0.149847
  14 H :    0.138158
  15 H :    0.145654
  16 H :    0.209926
  17 H :    0.131254
  18 H :    0.131831
Sum of atomic charges:    0.0000000

LOEWDIN ATOMIC CHARGES
----------------------
   0 C :   -0.315678
   1 C :   -0.245917
   2 C :   -0.302136
   3 C :   -0.267993
   4 N :    0.015301
   5 C :   -0.244774
   6 C :   -0.283301
   7 O :    0.171699
   8 H :    0.125684
   9 H :    0.118196
  10 H :    0.123271
  11 H :    0.144794
  12 H :    0.143624
  13 H :    0.129171
  14 H :    0.128488
  15 H :    0.135874
  16 H :    0.158315
  17 H :    0.132375
  18 H :    0.133006

  Mayer bond orders larger than 0.1
B(  0-C ,  1-C ) :   0.9035 B(  0-C ,  8-H ) :   0.9371 B(  0-C ,  9-H ) :   0.9395
B(  0-C , 10-H ) :   0.9391 B(  1-C ,  2-C ) :   0.8856 B(  1-C , 11-H ) :   0.9221
B(  1-C , 12-H ) :   0.9326 B(  2-C ,  3-C ) :   0.9262 B(  2-C ,  4-N ) :   1.0112
B(  2-C ,  6-C ) :   0.7799 B(  3-C , 13-H ) :   0.9358 B(  3-C , 14-H ) :   0.9262
B(  3-C , 15-H ) :   0.9302 B(  4-N ,  5-C ) :   0.9727 B(  4-N , 16-H ) :   0.8786
B(  5-C ,  6-C ) :   0.9311 B(  5-C , 17-H ) :   0.9036 B(  5-C , 18-H ) :   0.9024
B(  6-C ,  7-O ) :   2.0727

MP2 TOTAL ENERGY:     -364.441223653 Eh
FINAL SINGLE POINT ENERGY      -364.441223652571

DIPOLE MOMENT
-------------
                                X             Y             Z
Electronic contribution:      1.04298      -8.14094      -0.77411
Nuclear contribution   :     -0.69022       8.86715       0.27903
                        -----------------------------------------
Total Dipole Moment    :      0.35277       0.72622      -0.49508
                        -----------------------------------------
Magnitude (a.u.)       :      0.94707
Magnitude (Debye)      :      2.40726

                             ****ORCA TERMINATED NORMALLY****
TOTAL RUN TIME: 0 days 0 hours 13 minutes 54 seconds 618 msec
