                         Program Version 3.0.3 - RELEASE   -
|  1> ! RI-MP2 RIJK def2-TZVP def2-TZVP/C def2-TZVP/JK TIGHTSCF
|  2> % maxcore 2000
|  3> % mp2 density relaxed end
|  4> *xyz 0 1
|  5>  C       -0.1370250604     1.5451022907     0.0629573173
|  6>  C       -0.0634364419     0.0117124790     0.0439002379
|  7>  C       -1.4994851735    -0.5100803804    -0.1027616272
|  8>  O       -2.0896960343    -0.1270828098    -1.3428573982
|  9>  C        1.0473800942    -0.5848203021    -0.9056584518
| 10>  C        2.0683085681    -0.2469551430     0.2198070627
| 11>  C        0.8711532738    -0.6269903739     1.1391984921
| 12>  C        0.7835227630    -2.1425750807     0.8574953797
| 13>  C        0.9035376802    -2.1093640061    -0.7060018179
| 14>  H        0.8313431203     2.0411791389    -0.0118042183
| 15>  H       -0.7557340043     1.8840244143    -0.7723261402
| 16>  H       -0.6154883832     1.8902219980     0.9873170429
| 17>  H       -1.5641270404    -1.5957106690     0.0279593248
| 18>  H       -2.1309039488    -0.0588466960     0.6713539874
| 19>  H       -1.5813930687    -0.5459571969    -2.0449807421
| 20>  H        1.1796426921    -0.2209666780    -1.9268517513
| 21>  H        2.9606012927    -0.8771760963     0.2836263878
| 22>  H        2.3600321372     0.7995530697     0.2675159916
| 23>  H        0.8198788889    -0.3063759835     2.1813591821
| 24>  H        1.6129988046    -2.6809764175     1.3249421285
| 25>  H       -0.1423728782    -2.6035889778     1.2092668912
| 26>  H        0.0307970960    -2.5352262008    -1.2096999488
| 27>  H        1.7826699024    -2.6481750088    -1.0704426202
| 28> *
| 29>
| 30>                          ****END OF INPUT****

CARTESIAN COORDINATES (ANGSTROEM)
---------------------------------
  C     -0.137025    1.545102    0.062957
  C     -0.063436    0.011712    0.043900
  C     -1.499485   -0.510080   -0.102762
  O     -2.089696   -0.127083   -1.342857
  C      1.047380   -0.584820   -0.905658
  C      2.068309   -0.246955    0.219807
  C      0.871153   -0.626990    1.139198
  C      0.783523   -2.142575    0.857495
  C      0.903538   -2.109364   -0.706002
  H      0.831343    2.041179   -0.011804
  H     -0.755734    1.884024   -0.772326
  H     -0.615488    1.890222    0.987317
  H     -1.564127   -1.595711    0.027959
  H     -2.130904   -0.058847    0.671354
  H     -1.581393   -0.545957   -2.044981
  H      1.179643   -0.220967   -1.926852
  H      2.960601   -0.877176    0.283626
  H      2.360032    0.799553    0.267516
  H      0.819879   -0.306376    2.181359
  H      1.612999   -2.680976    1.324942
  H     -0.142373   -2.603589    1.209267
  H      0.030797   -2.535226   -1.209700
  H      1.782670   -2.648175   -1.070443

 Total Charge           Charge          ....    0
 Multiplicity           Mult            ....    1
 Number of Electrons    NEL             ....   70
 Basis Dimension        Dim             ....  363

ORBITAL ENERGIES
----------------

  NO   OCC          E(Eh)            E(eV)
   0   2.0000     -20.550629      -559.2110
   1   2.0000     -11.265820      -306.5585
   2   2.0000     -11.234874      -305.7165
   3   2.0000     -11.232619      -305.6551
   4   2.0000     -11.231911      -305.6358
   5   2.0000     -11.224173      -305.4253
   6   2.0000     -11.222241      -305.3727
   7   2.0000     -11.220337      -305.3209
   8   2.0000     -11.206033      -304.9317
   9   2.0000      -1.353776       -36.8381
  10   2.0000      -1.186526       -32.2870
  11   2.0000      -1.020774       -27.7767
  12   2.0000      -0.963612       -26.2212
  13   2.0000      -0.938113       -25.5274
  14   2.0000      -0.909040       -24.7362
  15   2.0000      -0.833583       -22.6829
  16   2.0000      -0.764112       -20.7925
  17   2.0000      -0.712717       -19.3940
  18   2.0000      -0.682431       -18.5699
  19   2.0000      -0.672432       -18.2978
  20   2.0000      -0.654406       -17.8073
  21   2.0000      -0.610680       -16.6174
  22   2.0000      -0.601101       -16.3568
  23   2.0000      -0.553568       -15.0633
  24   2.0000      -0.535886       -14.5822
  25   2.0000      -0.532521       -14.4906
  26   2.0000      -0.525856       -14.3093
  27   2.0000      -0.502986       -13.6869
  28   2.0000      -0.494004       -13.4425
  29   2.0000      -0.483821       -13.1654
  30   2.0000      -0.465550       -12.6683
  31   2.0000      -0.440292       -11.9810
  32   2.0000      -0.432553       -11.7704
  33   2.0000      -0.411513       -11.1979
  34   2.0000      -0.410359       -11.1664
  35   0.0000       0.130809         3.5595
  36   0.0000       0.148890         4.0515
  37   0.0000       0.158353         4.3090
  38   0.0000       0.166346         4.5265
  39   0.0000       0.183713         4.9991

MULLIKEN ATOMIC CHARGES
-----------------------
   0 C :   -0.442912
   1 C :   -0.010025
   2 C :   -0.047155
   3 O :   -0.471570
   4 C :   -0.076995
   5 C :   -0.302507
   6 C :   -0.013002
   7 C :   -0.289790
   8 C :   -0.262676
   9 H :    0.124370
  10 H :    0.154509
  11 H :    0.128213
  12 H :    0.118169
  13 H :    0.108985
  14 H :    0.313923
  15 H :    0.123979
  16 H :    0.110241
  17 H :    0.123812
  18 H :    0.121419
  19 H :    0.121575
  20 H :    0.123932
  21 H :    0.119474
  22 H :    0.124033
Sum of atomic charges:    0.0000000

LOEWDIN ATOMIC CHARGES
----------------------
   0 C :   -0.269066
   1 C :   -0.238857
   2 C :   -0.299756
   3 O :   -0.045785
   4 C :   -0.181346
   5 C :   -0.195280
   6 C :   -0.170574
   7 C :   -0.228710
   8 C :   -0.229410
   9 H :    0.121831
  10 H :    0.132726
  11 H :    0.126599
  12 H :    0.121371
  13 H :    0.133964
  14 H :    0.172828
  15 H :    0.132605
  16 H :    0.128088
  17 H :    0.131640
  18 H :    0.133829
  19 H :    0.133165
  20 H :    0.128690
  21 H :    0.128192
  22 H :    0.133257

  Mayer bond orders larger than 0.1
B(  0-C ,  1-C ) :   0.9017 B(  0-C ,  9-H ) :   0.9308 B(  0-C , 10-H ) :   0.9370
B(  0-C , 11-H ) :   0.9363 B(  1-C ,  2-C ) :   0.9335 B(  1-C ,  4-C ) :   0.8788
B(  1-C ,  6-C ) :   0.8634 B(  2-C ,  3-O ) :   0.8993 B(  2-C , 12-H ) :   0.9326
B(  2-C , 13-H ) :   0.9195 B(  3-O , 14-H ) :   0.8485 B(  4-C ,  5-C ) :   0.9222
B(  4-C ,  8-C ) :   0.8877 B(  4-C , 15-H ) :   0.9101 B(  5-C ,  6-C ) :   0.9176
B(  5-C , 16-H ) :   0.9223 B(  5-C , 17-H ) :   0.9261 B(  6-C ,  7-C ) :   0.8872
B(  6-C , 18-H ) :   0.9080 B(  7-C ,  8-C ) :   0.9590 B(  7-C , 19-H ) :   0.9262
B(  7-C , 20-H ) :   0.9389 B(  8-C , 21-H ) :   0.9353 B(  8-C , 22-H ) :   0.9293

MP2 TOTAL ENERGY:     -387.612363801 Eh
FINAL SINGLE POINT ENERGY      -387.612363801271

DIPOLE MOMENT
-------------
                                X             Y             Z
Electronic contribution:     -1.90029      -0.17253      -1.30557
Nuclear contribution   :      2.46837      -0.16679       1.38767
                        -----------------------------------------
Total Dipole Moment    :      0.56809      -0.33932       0.08210
                        -----------------------------------------
Magnitude (a.u.)       :      0.66678
Magnitude (Debye)      :      1.69483

                             ****ORCA TERMINATED NORMALLY****
TOTAL RUN TIME: 0 days 0 hours 22 minutes 25 seconds 509 msec
