                         Program Version 3.0.3 - RELEASE   -
|  1> ! RI-MP2 RIJK def2-TZVP def2-TZVP/C def2-TZVP/JK TIGHTSCF
|  2> % maxcore 2000
|  3> % mp2 density relaxed end
|  4> *xyz 0 1
|  5>  O       -0.1444864152    -0.0292730827     0.1217669722
|  6>  C       -0.1071358326     1.1653665341     0.0992136202
|  7>  C       -1.1575948908     2.2758700744     0.2598712811
|  8>  C        0.0165087753     3.2653114417     0.5245207301
|  9>  C        1.0529267946     2.1924703189     0.0472749962
| 10>  C        2.2822317426     1.9131398736     0.8648499349
| 11>  C        3.4583476453     1.2450665739     0.2568842573
| 12>  N        3.5316775130     2.6653579891     0.6429649802
| 13>  H       -1.6879600464     2.4660949778    -0.6791530712
| 14>  H       -1.8976766564     2.1246586769     1.0493682872
| 15>  H       -0.0003289619     4.1990775718    -0.0381782016
| 16>  H        0.1339169003     3.4954907308     1.5860205870
| 17>  H        1.3298986042     2.3571433480    -1.0031572492
| 18>  H        2.0844795974     1.7268217745     1.9191473589
| 19>  H        4.0704835321     0.5751627175     0.8531066033
| 20>  H        3.4066277158     0.9892283231    -0.7983790454
| 21>  H        3.4380392430     3.2510558565    -0.1841275214
| 22> *
| 23>
| 24>                          ****END OF INPUT****

CARTESIAN COORDINATES (ANGSTROEM)
---------------------------------
  O     -0.144486   -0.029273    0.121767
  C     -0.107136    1.165367    0.099214
  C     -1.157595    2.275870    0.259871
  C      0.016509    3.265311    0.524521
  C      1.052927    2.192470    0.047275
  C      2.282232    1.913140    0.864850
  C      3.458348    1.245067    0.256884
  N      3.531678    2.665358    0.642965
  H     -1.687960    2.466095   -0.679153
  H     -1.897677    2.124659    1.049368
  H     -0.000329    4.199078   -0.038178
  H      0.133917    3.495491    1.586021
  H      1.329899    2.357143   -1.003157
  H      2.084480    1.726822    1.919147
  H      4.070484    0.575163    0.853107
  H      3.406628    0.989228   -0.798379
  H      3.438039    3.251056   -0.184128

 Total Charge           Charge          ....    0
 Multiplicity           Mult            ....    1
 Number of Electrons    NEL             ....   60
 Basis Dimension        Dim             ....  302

ORBITAL ENERGIES
----------------

  NO   OCC          E(Eh)            E(eV)
   0   2.0000     -20.558166      -559.4161
   1   2.0000     -15.563243      -423.4974
   2   2.0000     -11.336815      -308.4904
   3   2.0000     -11.268819      -306.6401
   4   2.0000     -11.258571      -306.3613
   5   2.0000     -11.255577      -306.2798
   6   2.0000     -11.247244      -306.0531
   7   2.0000     -11.246614      -306.0359
   8   2.0000      -1.401078       -38.1253
   9   2.0000      -1.266277       -34.4572
  10   2.0000      -1.141583       -31.0641
  11   2.0000      -0.968906       -26.3653
  12   2.0000      -0.892521       -24.2867
  13   2.0000      -0.869043       -23.6479
  14   2.0000      -0.825271       -22.4568
  15   2.0000      -0.745817       -20.2947
  16   2.0000      -0.687913       -18.7191
  17   2.0000      -0.675464       -18.3803
  18   2.0000      -0.641639       -17.4599
  19   2.0000      -0.627595       -17.0777
  20   2.0000      -0.611593       -16.6423
  21   2.0000      -0.549398       -14.9499
  22   2.0000      -0.540497       -14.7077
  23   2.0000      -0.521376       -14.1874
  24   2.0000      -0.509886       -13.8747
  25   2.0000      -0.487552       -13.2670
  26   2.0000      -0.484044       -13.1715
  27   2.0000      -0.462901       -12.5962
  28   2.0000      -0.410506       -11.1704
  29   2.0000      -0.383064       -10.4237
  30   0.0000       0.109257         2.9730
  31   0.0000       0.141024         3.8375
  32   0.0000       0.149093         4.0570
  33   0.0000       0.155321         4.2265
  34   0.0000       0.169261         4.6058

MULLIKEN ATOMIC CHARGES
-----------------------
   0 O :   -0.242910
   1 C :    0.077559
   2 C :   -0.187382
   3 C :   -0.264308
   4 C :   -0.063003
   5 C :   -0.036255
   6 C :   -0.185986
   7 N :   -0.356905
   8 H :    0.137559
   9 H :    0.137629
  10 H :    0.127668
  11 H :    0.133778
  12 H :    0.121893
  13 H :    0.128618
  14 H :    0.128362
  15 H :    0.127036
  16 H :    0.216647
Sum of atomic charges:    0.0000000

LOEWDIN ATOMIC CHARGES
----------------------
   0 O :    0.169885
   1 C :   -0.292943
   2 C :   -0.210580
   3 C :   -0.207547
   4 C :   -0.200624
   5 C :   -0.260510
   6 C :   -0.258256
   7 N :   -0.018293
   8 H :    0.148120
   9 H :    0.139137
  10 H :    0.128223
  11 H :    0.139049
  12 H :    0.165326
  13 H :    0.147326
  14 H :    0.126265
  15 H :    0.122546
  16 H :    0.162876

  Mayer bond orders larger than 0.1
B(  0-O ,  1-C ) :   2.0626 B(  1-C ,  2-C ) :   0.8975 B(  1-C ,  4-C ) :   0.8190
B(  2-C ,  3-C ) :   0.9406 B(  2-C ,  4-C ) :  -0.1237 B(  2-C ,  8-H ) :   0.9000
B(  2-C ,  9-H ) :   0.9055 B(  3-C ,  4-C ) :   0.9266 B(  3-C , 10-H ) :   0.9320
B(  3-C , 11-H ) :   0.9247 B(  4-C ,  5-C ) :   0.9398 B(  4-C , 12-H ) :   0.8762
B(  5-C ,  6-C ) :   0.9504 B(  5-C ,  7-N ) :   0.9404 B(  5-C , 13-H ) :   0.9002
B(  6-C ,  7-N ) :   0.9254 B(  6-C , 14-H ) :   0.9220 B(  6-C , 15-H ) :   0.9168
B(  7-N , 16-H ) :   0.8750

MP2 TOTAL ENERGY:     -363.211208202 Eh
FINAL SINGLE POINT ENERGY      -363.211208201874

DIPOLE MOMENT
-------------
                                X             Y             Z
Electronic contribution:     -1.08080      -3.63529      -0.10653
Nuclear contribution   :      0.72416       4.42736      -0.37648
                        -----------------------------------------
Total Dipole Moment    :     -0.35664       0.79207      -0.48301
                        -----------------------------------------
Magnitude (a.u.)       :      0.99392
Magnitude (Debye)      :      2.52634

                             ****ORCA TERMINATED NORMALLY****
TOTAL RUN TIME: 0 days 0 hours 12 minutes 10 seconds 495 msec
