                         Program Version 3.0.3 - RELEASE   -
|  1> ! RI-MP2 RIJK def2-TZVP def2-TZVP/C def2-TZVP/JK TIGHTSCF
|  2> % maxcore 2000
|  3> % mp2 density relaxed end
|  4> *xyz 0 1
|  5>  C        0.1038678020     1.5626141901    -0.0568772874
|  6>  C        0.0380951222     0.0333975478    -0.0596782143
|  7>  C       -1.3935971212    -0.5052668278     0.0407571535
|  8>  C       -1.4557432689    -2.0335198366     0.1138340980
|  9>  O       -0.8344064863    -2.5320316489     1.2991302641
| 10>  C       -2.8841559293    -2.6261734796    -0.0738581149
| 11>  C       -2.8080674346    -4.1571679617    -0.0837600828
| 12>  C       -3.8618179762    -2.1406598733     0.9984665839
| 13>  O       -3.4182806181    -2.1534524654    -1.3175953084
| 14>  H        1.1358998454     1.9180505748    -0.1382956314
| 15>  H       -0.4620114772     1.9863336374    -0.8941990478
| 16>  H       -0.3177552435     1.9764655481     0.8662814186
| 17>  H        0.5024360473    -0.3519743539    -0.9772402408
| 18>  H        0.6301589559    -0.3691822891     0.7701645951
| 19>  H       -1.8778798313    -0.0822343511     0.9338031616
| 20>  H       -1.9895366698    -0.1740251858    -0.8159709380
| 21>  H       -0.8436797245    -2.4429547534    -0.7038797919
| 22>  H       -1.1913621889    -2.0375184154     2.0447302247
| 23>  H       -2.3851746752    -4.5330530803     0.8502292314
| 24>  H       -3.8033851183    -4.5860694172    -0.2304784025
| 25>  H       -2.1609392071    -4.5044864492    -0.8992844310
| 26>  H       -4.0029067735    -1.0586065591     0.9415919346
| 27>  H       -4.8367651483    -2.6138192782     0.8547967214
| 28>  H       -3.5039802679    -2.4009436135     1.9990932719
| 29>  H       -2.9250337227    -2.5772044087    -2.0286425576
| 30> *
| 31>
| 32>                          ****END OF INPUT****

CARTESIAN COORDINATES (ANGSTROEM)
---------------------------------
  C      0.103868    1.562614   -0.056877
  C      0.038095    0.033398   -0.059678
  C     -1.393597   -0.505267    0.040757
  C     -1.455743   -2.033520    0.113834
  O     -0.834406   -2.532032    1.299130
  C     -2.884156   -2.626173   -0.073858
  C     -2.808067   -4.157168   -0.083760
  C     -3.861818   -2.140660    0.998467
  O     -3.418281   -2.153452   -1.317595
  H      1.135900    1.918051   -0.138296
  H     -0.462011    1.986334   -0.894199
  H     -0.317755    1.976466    0.866281
  H      0.502436   -0.351974   -0.977240
  H      0.630159   -0.369182    0.770165
  H     -1.877880   -0.082234    0.933803
  H     -1.989537   -0.174025   -0.815971
  H     -0.843680   -2.442955   -0.703880
  H     -1.191362   -2.037518    2.044730
  H     -2.385175   -4.533053    0.850229
  H     -3.803385   -4.586069   -0.230478
  H     -2.160939   -4.504486   -0.899284
  H     -4.002907   -1.058607    0.941592
  H     -4.836765   -2.613819    0.854797
  H     -3.503980   -2.400944    1.999093
  H     -2.925034   -2.577204   -2.028643

 Total Charge           Charge          ....    0
 Multiplicity           Mult            ....    1
 Number of Electrons    NEL             ....   74
 Basis Dimension        Dim             ....  375

ORBITAL ENERGIES
----------------

  NO   OCC          E(Eh)            E(eV)
   0   2.0000     -20.556072      -559.3592
   1   2.0000     -20.554144      -559.3067
   2   2.0000     -11.285752      -307.1009
   3   2.0000     -11.277507      -306.8766
   4   2.0000     -11.217697      -305.2491
   5   2.0000     -11.217088      -305.2325
   6   2.0000     -11.215012      -305.1760
   7   2.0000     -11.212702      -305.1131
   8   2.0000     -11.211972      -305.0933
   9   2.0000      -1.369187       -37.2575
  10   2.0000      -1.354992       -36.8712
  11   2.0000      -1.073387       -29.2084
  12   2.0000      -1.046385       -28.4736
  13   2.0000      -0.967781       -26.3346
  14   2.0000      -0.941784       -25.6272
  15   2.0000      -0.872656       -23.7462
  16   2.0000      -0.800277       -21.7766
  17   2.0000      -0.775519       -21.1030
  18   2.0000      -0.691282       -18.8108
  19   2.0000      -0.655213       -17.8292
  20   2.0000      -0.651232       -17.7209
  21   2.0000      -0.633680       -17.2433
  22   2.0000      -0.615202       -16.7405
  23   2.0000      -0.584243       -15.8981
  24   2.0000      -0.571214       -15.5435
  25   2.0000      -0.545010       -14.8305
  26   2.0000      -0.542408       -14.7597
  27   2.0000      -0.536066       -14.5871
  28   2.0000      -0.527595       -14.3566
  29   2.0000      -0.516895       -14.0654
  30   2.0000      -0.507781       -13.8174
  31   2.0000      -0.500623       -13.6226
  32   2.0000      -0.477801       -13.0016
  33   2.0000      -0.476746       -12.9729
  34   2.0000      -0.465879       -12.6772
  35   2.0000      -0.448386       -12.2012
  36   2.0000      -0.406322       -11.0566
  37   0.0000       0.126700         3.4477
  38   0.0000       0.140414         3.8209
  39   0.0000       0.150866         4.1053
  40   0.0000       0.176844         4.8122
  41   0.0000       0.184037         5.0079

MULLIKEN ATOMIC CHARGES
-----------------------
   0 C :   -0.385047
   1 C :   -0.165291
   2 C :   -0.306036
   3 C :    0.036847
   4 O :   -0.476402
   5 C :    0.273335
   6 C :   -0.398476
   7 C :   -0.449686
   8 O :   -0.476897
   9 H :    0.134228
  10 H :    0.121586
  11 H :    0.119668
  12 H :    0.103438
  13 H :    0.113786
  14 H :    0.109049
  15 H :    0.133778
  16 H :    0.081420
  17 H :    0.314007
  18 H :    0.143975
  19 H :    0.142007
  20 H :    0.113938
  21 H :    0.148330
  22 H :    0.140319
  23 H :    0.117145
  24 H :    0.310983
Sum of atomic charges:    0.0000000

LOEWDIN ATOMIC CHARGES
----------------------
   0 C :   -0.322291
   1 C :   -0.295205
   2 C :   -0.262110
   3 C :   -0.317643
   4 O :   -0.013445
   5 C :   -0.413341
   6 C :   -0.281102
   7 C :   -0.273385
   8 O :    0.004964
   9 H :    0.120442
  10 H :    0.120115
  11 H :    0.119179
  12 H :    0.134581
  13 H :    0.136326
  14 H :    0.136897
  15 H :    0.147646
  16 H :    0.146899
  17 H :    0.172635
  18 H :    0.132506
  19 H :    0.126288
  20 H :    0.122137
  21 H :    0.128722
  22 H :    0.131047
  23 H :    0.124445
  24 H :    0.173691

  Mayer bond orders larger than 0.1
B(  0-C ,  1-C ) :   0.9184 B(  0-C ,  9-H ) :   0.9445 B(  0-C , 10-H ) :   0.9380
B(  0-C , 11-H ) :   0.9406 B(  1-C ,  2-C ) :   0.9286 B(  1-C , 12-H ) :   0.9334
B(  1-C , 13-H ) :   0.9318 B(  2-C ,  3-C ) :   0.9336 B(  2-C , 14-H ) :   0.9178
B(  2-C , 15-H ) :   0.9232 B(  3-C ,  4-O ) :   0.9007 B(  3-C ,  5-C ) :   0.8916
B(  3-C , 16-H ) :   0.9213 B(  4-O , 17-H ) :   0.8413 B(  5-C ,  6-C ) :   0.9449
B(  5-C ,  7-C ) :   0.8373 B(  5-C ,  8-O ) :   0.8881 B(  6-C , 18-H ) :   0.9293
B(  6-C , 19-H ) :   0.9439 B(  6-C , 20-H ) :   0.9168 B(  7-C , 21-H ) :   0.9434
B(  7-C , 22-H ) :   0.9344 B(  7-C , 23-H ) :   0.9389 B(  8-O , 24-H ) :   0.8427

MP2 TOTAL ENERGY:     -425.942913628 Eh
FINAL SINGLE POINT ENERGY      -425.942913627941

DIPOLE MOMENT
-------------
                                X             Y             Z
Electronic contribution:     -1.32134      -3.89557      -0.90106
Nuclear contribution   :      1.34820       3.94717       0.95099
                        -----------------------------------------
Total Dipole Moment    :      0.02686       0.05160       0.04993
                        -----------------------------------------
Magnitude (a.u.)       :      0.07667
Magnitude (Debye)      :      0.19487

                             ****ORCA TERMINATED NORMALLY****
TOTAL RUN TIME: 0 days 0 hours 20 minutes 10 seconds 265 msec
