                         Program Version 3.0.3 - RELEASE   -
|  1> ! RI-MP2 RIJK def2-TZVP def2-TZVP/C def2-TZVP/JK TIGHTSCF
|  2> % maxcore 2000
|  3> % mp2 density relaxed end
|  4> *xyz 0 1
|  5>  C       -0.0286077787     1.3776406465     0.1110526039
|  6>  O        0.0243424344    -0.0302791283     0.0012560477
|  7>  C        0.6329768893    -0.5737189399    -1.0921162373
|  8>  C        1.2117807649     0.1734538375    -2.1173159319
|  9>  C        1.8117674603    -0.4782093642    -3.1963034870
| 10>  C        1.8348286622    -1.8643261541    -3.2533329882
| 11>  C        1.2516944217    -2.5999836950    -2.2203272732
| 12>  C        0.6460185214    -1.9818986000    -1.1315513062
| 13>  C        0.0150092137    -2.7690878464    -0.0134981064
| 14>  H        0.9752953861     1.8201230490     0.1506223889
| 15>  H       -0.5827274251     1.8295573044    -0.7219537614
| 16>  H       -0.5506805272     1.5905561749     1.0455778185
| 17>  H        1.2012802216     1.2553263255    -2.0862165371
| 18>  H        2.2595036901     0.1119660027    -3.9891979098
| 19>  H        2.2998622364    -2.3742513652    -4.0896933872
| 20>  H        1.2659434390    -3.6855351426    -2.2582762065
| 21>  H        0.4825229609    -2.5384078432     0.9499873613
| 22>  H       -1.0477994427    -2.5266074066     0.0945783795
| 23>  H        0.1077544419    -3.8429012849    -0.1941053875
| 24> *
| 25>
| 26>                          ****END OF INPUT****

CARTESIAN COORDINATES (ANGSTROEM)
---------------------------------
  C     -0.028608    1.377641    0.111053
  O      0.024342   -0.030279    0.001256
  C      0.632977   -0.573719   -1.092116
  C      1.211781    0.173454   -2.117316
  C      1.811767   -0.478209   -3.196303
  C      1.834829   -1.864326   -3.253333
  C      1.251694   -2.599984   -2.220327
  C      0.646019   -1.981899   -1.131551
  C      0.015009   -2.769088   -0.013498
  H      0.975295    1.820123    0.150622
  H     -0.582727    1.829557   -0.721954
  H     -0.550681    1.590556    1.045578
  H      1.201280    1.255326   -2.086217
  H      2.259504    0.111966   -3.989198
  H      2.299862   -2.374251   -4.089693
  H      1.265943   -3.685535   -2.258276
  H      0.482523   -2.538408    0.949987
  H     -1.047799   -2.526607    0.094578
  H      0.107754   -3.842901   -0.194105

 Total Charge           Charge          ....    0
 Multiplicity           Mult            ....    1
 Number of Electrons    NEL             ....   66
 Basis Dimension        Dim             ....  339

ORBITAL ENERGIES
----------------

  NO   OCC          E(Eh)            E(eV)
   0   2.0000     -20.581353      -560.0471
   1   2.0000     -11.292782      -307.2922
   2   2.0000     -11.283614      -307.0427
   3   2.0000     -11.231352      -305.6206
   4   2.0000     -11.231180      -305.6159
   5   2.0000     -11.228347      -305.5388
   6   2.0000     -11.226060      -305.4766
   7   2.0000     -11.220583      -305.3276
   8   2.0000     -11.215268      -305.1830
   9   2.0000      -1.408724       -38.3333
  10   2.0000      -1.145901       -31.1816
  11   2.0000      -1.044046       -28.4099
  12   2.0000      -1.010236       -27.4899
  13   2.0000      -0.948874       -25.8202
  14   2.0000      -0.920354       -25.0441
  15   2.0000      -0.812581       -22.1115
  16   2.0000      -0.797550       -21.7024
  17   2.0000      -0.711402       -19.3582
  18   2.0000      -0.668391       -18.1878
  19   2.0000      -0.654979       -17.8229
  20   2.0000      -0.647981       -17.6324
  21   2.0000      -0.612843       -16.6763
  22   2.0000      -0.583399       -15.8751
  23   2.0000      -0.566746       -15.4219
  24   2.0000      -0.563734       -15.3400
  25   2.0000      -0.538717       -14.6592
  26   2.0000      -0.520662       -14.1679
  27   2.0000      -0.508952       -13.8493
  28   2.0000      -0.497352       -13.5336
  29   2.0000      -0.473775       -12.8921
  30   2.0000      -0.464106       -12.6290
  31   2.0000      -0.330903        -9.0043
  32   2.0000      -0.304436        -8.2841
  33   0.0000       0.128705         3.5022
  34   0.0000       0.142529         3.8784
  35   0.0000       0.143236         3.8977
  36   0.0000       0.155832         4.2404
  37   0.0000       0.166211         4.5228

MULLIKEN ATOMIC CHARGES
-----------------------
   0 C :   -0.252964
   1 O :   -0.267150
   2 C :    0.284715
   3 C :   -0.267649
   4 C :   -0.136723
   5 C :   -0.141197
   6 C :   -0.152247
   7 C :    0.043577
   8 C :   -0.414397
   9 H :    0.131891
  10 H :    0.131890
  11 H :    0.149718
  12 H :    0.125518
  13 H :    0.120774
  14 H :    0.119095
  15 H :    0.113677
  16 H :    0.140326
  17 H :    0.140357
  18 H :    0.130787
Sum of atomic charges:   -0.0000000

LOEWDIN ATOMIC CHARGES
----------------------
   0 C :   -0.334846
   1 O :    0.234900
   2 C :   -0.220577
   3 C :   -0.146810
   4 C :   -0.153592
   5 C :   -0.159639
   6 C :   -0.125788
   7 C :   -0.143388
   8 C :   -0.263937
   9 H :    0.109145
  10 H :    0.109149
  11 H :    0.116908
  12 H :    0.148911
  13 H :    0.145131
  14 H :    0.144372
  15 H :    0.147539
  16 H :    0.132734
  17 H :    0.132729
  18 H :    0.127059

  Mayer bond orders larger than 0.1
B(  0-C ,  1-O ) :   0.8872 B(  0-C ,  9-H ) :   0.9321 B(  0-C , 10-H ) :   0.9321
B(  0-C , 11-H ) :   0.9391 B(  1-O ,  2-C ) :   1.1096 B(  2-C ,  3-C ) :   1.2801
B(  2-C ,  7-C ) :   1.2377 B(  3-C ,  4-C ) :   1.2968 B(  3-C , 12-H ) :   0.9291
B(  4-C ,  5-C ) :   1.3551 B(  4-C , 13-H ) :   0.9289 B(  5-C ,  6-C ) :   1.3118
B(  5-C , 14-H ) :   0.9375 B(  6-C ,  7-C ) :   1.3688 B(  6-C , 15-H ) :   0.9363
B(  7-C ,  8-C ) :   0.9066 B(  8-C , 16-H ) :   0.9273 B(  8-C , 17-H ) :   0.9273
B(  8-C , 18-H ) :   0.9470

MP2 TOTAL ENERGY:     -385.263910320 Eh
FINAL SINGLE POINT ENERGY      -385.263910320210

DIPOLE MOMENT
-------------
                                X             Y             Z
Electronic contribution:      1.26893      -0.41980      -2.26969
Nuclear contribution   :     -1.32574       0.89392       2.37628
                        -----------------------------------------
Total Dipole Moment    :     -0.05682       0.47412       0.10659
                        -----------------------------------------
Magnitude (a.u.)       :      0.48926
Magnitude (Debye)      :      1.24361

                             ****ORCA TERMINATED NORMALLY****
TOTAL RUN TIME: 0 days 0 hours 18 minutes 39 seconds 808 msec
