                         Program Version 3.0.3 - RELEASE   -
|  1> ! RI-MP2 RIJK def2-TZVP def2-TZVP/C def2-TZVP/JK TIGHTSCF
|  2> % maxcore 2000
|  3> % mp2 density relaxed end
|  4> *xyz 0 1
|  5>  O       -0.2858787718    -0.0015363793     0.0025430879
|  6>  C       -0.0822619305     1.1807508637     0.0085224803
|  7>  N        1.1682995229     1.7862892155     0.0012498928
|  8>  C        2.4010793222     1.1846242130    -0.0131999140
|  9>  N        3.5344019418     1.8316357616    -0.0184071223
| 10>  C        4.4234017849     0.7888414281    -0.0330719775
| 11>  N        3.9023145737    -0.4057845641    -0.0366452043
| 12>  O        2.5107344775    -0.1396095245    -0.0231944108
| 13>  H       -0.8763115650     1.9503269804     0.0200501206
| 14>  H        1.2109840653     2.7954263901     0.0075102954
| 15>  H        5.4950056992     0.9264070854    -0.0411641580
| 16> *
| 17>
| 18>                          ****END OF INPUT****

CARTESIAN COORDINATES (ANGSTROEM)
---------------------------------
  O     -0.285879   -0.001536    0.002543
  C     -0.082262    1.180751    0.008522
  N      1.168300    1.786289    0.001250
  C      2.401079    1.184624   -0.013200
  N      3.534402    1.831636   -0.018407
  C      4.423402    0.788841   -0.033072
  N      3.902315   -0.405785   -0.036645
  O      2.510734   -0.139610   -0.023194
  H     -0.876312    1.950327    0.020050
  H      1.210984    2.795426    0.007510
  H      5.495006    0.926407   -0.041164

 Total Charge           Charge          ....    0
 Multiplicity           Mult            ....    1
 Number of Electrons    NEL             ....   58
 Basis Dimension        Dim             ....  266

ORBITAL ENERGIES
----------------

  NO   OCC          E(Eh)            E(eV)
   0   2.0000     -20.666580      -562.3662
   1   2.0000     -20.569409      -559.7221
   2   2.0000     -15.651842      -425.9083
   3   2.0000     -15.633369      -425.4056
   4   2.0000     -15.581430      -423.9923
   5   2.0000     -11.416653      -310.6629
   6   2.0000     -11.394145      -310.0504
   7   2.0000     -11.323941      -308.1401
   8   2.0000      -1.534338       -41.7514
   9   2.0000      -1.430282       -38.9200
  10   2.0000      -1.309412       -35.6309
  11   2.0000      -1.263942       -34.3936
  12   2.0000      -1.155459       -31.4416
  13   2.0000      -0.944096       -25.6902
  14   2.0000      -0.880861       -23.9694
  15   2.0000      -0.828131       -22.5346
  16   2.0000      -0.772553       -21.0222
  17   2.0000      -0.745393       -20.2832
  18   2.0000      -0.707889       -19.2626
  19   2.0000      -0.665514       -18.1096
  20   2.0000      -0.649473       -17.6731
  21   2.0000      -0.611230       -16.6324
  22   2.0000      -0.603602       -16.4248
  23   2.0000      -0.538180       -14.6446
  24   2.0000      -0.507248       -13.8029
  25   2.0000      -0.481734       -13.1086
  26   2.0000      -0.480069       -13.0633
  27   2.0000      -0.473047       -12.8723
  28   2.0000      -0.387880       -10.5547
  29   0.0000       0.100286         2.7289
  30   0.0000       0.114199         3.1075
  31   0.0000       0.158711         4.3187
  32   0.0000       0.164895         4.4870
  33   0.0000       0.173795         4.7292

MULLIKEN ATOMIC CHARGES
-----------------------
   0 O :   -0.274259
   1 C :    0.187956
   2 N :   -0.317908
   3 C :    0.376498
   4 N :   -0.334427
   5 C :    0.035897
   6 N :   -0.133909
   7 O :   -0.074733
   8 H :    0.100750
   9 H :    0.273845
  10 H :    0.160290
Sum of atomic charges:    0.0000000

LOEWDIN ATOMIC CHARGES
----------------------
   0 O :    0.128644
   1 C :   -0.390799
   2 N :    0.139402
   3 C :   -0.437967
   4 N :    0.086621
   5 C :   -0.336704
   6 N :    0.037620
   7 O :    0.301871
   8 H :    0.117722
   9 H :    0.212737
  10 H :    0.140853

  Mayer bond orders larger than 0.1
B(  0-O ,  1-C ) :   1.9749 B(  1-C ,  2-N ) :   1.0166 B(  1-C ,  8-H ) :   0.9267
B(  2-N ,  3-C ) :   1.0319 B(  2-N ,  9-H ) :   0.8549 B(  3-C ,  4-N ) :   1.5672
B(  3-C ,  7-O ) :   1.2088 B(  4-N ,  5-C ) :   1.2161 B(  5-C ,  6-N ) :   1.6025
B(  5-C , 10-H ) :   0.9249 B(  6-N ,  7-O ) :   0.8472

MP2 TOTAL ENERGY:     -430.050874479 Eh
FINAL SINGLE POINT ENERGY      -430.050874479260

DIPOLE MOMENT
-------------
                                X             Y             Z
Electronic contribution:      0.44964      -1.56080      -0.01421
Nuclear contribution   :     -0.59750       3.15291       0.02588
                        -----------------------------------------
Total Dipole Moment    :     -0.14785       1.59211       0.01167
                        -----------------------------------------
Magnitude (a.u.)       :      1.59900
Magnitude (Debye)      :      4.06434

                             ****ORCA TERMINATED NORMALLY****
TOTAL RUN TIME: 0 days 0 hours 8 minutes 42 seconds 545 msec
