                         Program Version 3.0.3 - RELEASE   -
|  1> ! RI-MP2 RIJK def2-TZVP def2-TZVP/C def2-TZVP/JK TIGHTSCF
|  2> % maxcore 2000
|  3> % mp2 density relaxed end
|  4> *xyz 0 1
|  5>  C        0.1319055093     1.3565268851     0.0033112418
|  6>  O       -0.0584460675    -0.0365936588     0.0940949263
|  7>  C       -1.4029699329    -0.5328598439     0.0472137849
|  8>  C       -2.2120363244    -0.0727089654     1.2694563533
|  9>  C       -2.1092076894    -0.1269121886    -1.2538855073
| 10>  C       -1.2009258294    -2.0781159324     0.0410292040
| 11>  C       -0.3888687043    -2.6089281774     1.2196696594
| 12>  O       -2.4490737142    -2.7566319640    -0.0794445386
| 13>  H        1.2095877489     1.5263385116     0.0755611033
| 14>  H       -0.2184820624     1.7705961591    -0.9521149241
| 15>  H       -0.3572637001     1.9071154965     0.8194103548
| 16>  H       -2.4423886115     0.9949754717     1.2179129964
| 17>  H       -3.1682331840    -0.6032395667     1.3078471076
| 18>  H       -1.6672074069    -0.2576589961     2.1991217609
| 19>  H       -1.4618994941    -0.3292998956    -2.1131990981
| 20>  H       -3.0238694871    -0.7122706268    -1.3674944856
| 21>  H       -2.3769958711     0.9335765685    -1.2639528937
| 22>  H       -0.6603620863    -2.3062947793    -0.8850154568
| 23>  H       -0.9229691973    -2.4688925059     2.1676771257
| 24>  H       -0.2080689441    -3.6797852017     1.0908811799
| 25>  H        0.5676854438    -2.0893851903     1.2925472897
| 26>  H       -2.8123605750    -2.8637423495     0.8053956962
| 27> *
| 28>
| 29>                          ****END OF INPUT****

CARTESIAN COORDINATES (ANGSTROEM)
---------------------------------
  C      0.131906    1.356527    0.003311
  O     -0.058446   -0.036594    0.094095
  C     -1.402970   -0.532860    0.047214
  C     -2.212036   -0.072709    1.269456
  C     -2.109208   -0.126912   -1.253886
  C     -1.200926   -2.078116    0.041029
  C     -0.388869   -2.608928    1.219670
  O     -2.449074   -2.756632   -0.079445
  H      1.209588    1.526339    0.075561
  H     -0.218482    1.770596   -0.952115
  H     -0.357264    1.907115    0.819410
  H     -2.442389    0.994975    1.217913
  H     -3.168233   -0.603240    1.307847
  H     -1.667207   -0.257659    2.199122
  H     -1.461899   -0.329300   -2.113199
  H     -3.023869   -0.712271   -1.367494
  H     -2.376996    0.933577   -1.263953
  H     -0.660362   -2.306295   -0.885015
  H     -0.922969   -2.468893    2.167677
  H     -0.208069   -3.679785    1.090881
  H      0.567685   -2.089385    1.292547
  H     -2.812361   -2.863742    0.805396

 Total Charge           Charge          ....    0
 Multiplicity           Mult            ....    1
 Number of Electrons    NEL             ....   66
 Basis Dimension        Dim             ....  332

ORBITAL ENERGIES
----------------

  NO   OCC          E(Eh)            E(eV)
   0   2.0000     -20.551780      -559.2424
   1   2.0000     -20.549167      -559.1713
   2   2.0000     -11.283887      -307.0502
   3   2.0000     -11.273958      -306.7800
   4   2.0000     -11.268000      -306.6179
   5   2.0000     -11.216664      -305.2210
   6   2.0000     -11.210847      -305.0627
   7   2.0000     -11.207511      -304.9719
   8   2.0000      -1.372682       -37.3526
   9   2.0000      -1.355545       -36.8862
  10   2.0000      -1.067439       -29.0465
  11   2.0000      -0.993002       -27.0210
  12   2.0000      -0.940676       -25.5971
  13   2.0000      -0.927562       -25.2402
  14   2.0000      -0.851345       -23.1663
  15   2.0000      -0.755398       -20.5554
  16   2.0000      -0.679730       -18.4964
  17   2.0000      -0.657269       -17.8852
  18   2.0000      -0.642811       -17.4918
  19   2.0000      -0.636816       -17.3287
  20   2.0000      -0.610052       -16.6003
  21   2.0000      -0.577717       -15.7205
  22   2.0000      -0.566658       -15.4196
  23   2.0000      -0.559036       -15.2121
  24   2.0000      -0.547004       -14.8847
  25   2.0000      -0.530010       -14.4223
  26   2.0000      -0.523292       -14.2395
  27   2.0000      -0.508281       -13.8310
  28   2.0000      -0.494109       -13.4454
  29   2.0000      -0.473345       -12.8804
  30   2.0000      -0.467690       -12.7265
  31   2.0000      -0.418259       -11.3814
  32   2.0000      -0.414544       -11.2803
  33   0.0000       0.129406         3.5213
  34   0.0000       0.153966         4.1896
  35   0.0000       0.175602         4.7784
  36   0.0000       0.179829         4.8934
  37   0.0000       0.189586         5.1589

MULLIKEN ATOMIC CHARGES
-----------------------
   0 C :   -0.234784
   1 O :   -0.316049
   2 C :    0.264892
   3 C :   -0.514207
   4 C :   -0.444811
   5 C :    0.121473
   6 C :   -0.437817
   7 O :   -0.482657
   8 H :    0.141806
   9 H :    0.120028
  10 H :    0.112214
  11 H :    0.139432
  12 H :    0.130570
  13 H :    0.149334
  14 H :    0.135636
  15 H :    0.158299
  16 H :    0.131901
  17 H :    0.094946
  18 H :    0.114862
  19 H :    0.146934
  20 H :    0.153916
  21 H :    0.314081
Sum of atomic charges:    0.0000000

LOEWDIN ATOMIC CHARGES
----------------------
   0 C :   -0.359203
   1 O :    0.172129
   2 C :   -0.387747
   3 C :   -0.281786
   4 C :   -0.278515
   5 C :   -0.330185
   6 C :   -0.304754
   7 O :   -0.017151
   8 H :    0.114116
   9 H :    0.103528
  10 H :    0.101639
  11 H :    0.125790
  12 H :    0.128218
  13 H :    0.127687
  14 H :    0.129206
  15 H :    0.135980
  16 H :    0.121743
  17 H :    0.149898
  18 H :    0.119016
  19 H :    0.125710
  20 H :    0.133336
  21 H :    0.171344

  Mayer bond orders larger than 0.1
B(  0-C ,  1-O ) :   0.9213 B(  0-C ,  8-H ) :   0.9422 B(  0-C ,  9-H ) :   0.9353
B(  0-C , 10-H ) :   0.9317 B(  1-O ,  2-C ) :   0.9399 B(  2-C ,  3-C ) :   0.8661
B(  2-C ,  4-C ) :   0.9061 B(  2-C ,  5-C ) :   0.8553 B(  3-C , 11-H ) :   0.9313
B(  3-C , 12-H ) :   0.9358 B(  3-C , 13-H ) :   0.9439 B(  4-C , 14-H ) :   0.9376
B(  4-C , 15-H ) :   0.9243 B(  4-C , 16-H ) :   0.9330 B(  5-C ,  6-C ) :   0.9421
B(  5-C ,  7-O ) :   0.9248 B(  5-C , 17-H ) :   0.9264 B(  6-C , 18-H ) :   0.9212
B(  6-C , 19-H ) :   0.9425 B(  6-C , 20-H ) :   0.9310 B(  7-O , 21-H ) :   0.8431

MP2 TOTAL ENERGY:     -386.708391100 Eh
FINAL SINGLE POINT ENERGY      -386.708391100141

DIPOLE MOMENT
-------------
                                X             Y             Z
Electronic contribution:      0.36356      -3.12466      -1.34636
Nuclear contribution   :     -0.44741       3.61870       1.82837
                        -----------------------------------------
Total Dipole Moment    :     -0.08385       0.49404       0.48201
                        -----------------------------------------
Magnitude (a.u.)       :      0.69530
Magnitude (Debye)      :      1.76731

                             ****ORCA TERMINATED NORMALLY****
TOTAL RUN TIME: 0 days 0 hours 14 minutes 49 seconds 339 msec
