                         Program Version 3.0.3 - RELEASE   -
|  1> ! RI-MP2 RIJK def2-TZVP def2-TZVP/C def2-TZVP/JK TIGHTSCF
|  2> % maxcore 2000
|  3> % mp2 density relaxed end
|  4> *xyz 0 1
|  5>  C       -0.0788492304     1.5143685237     0.0034296665
|  6>  C       -0.0299370677    -0.0055722063     0.1447474755
|  7>  C        0.7905736488    -0.4773582338     1.3210580974
|  8>  O        1.3632498440     0.2658662708     2.0847604727
|  9>  C        0.9286166462    -2.0070293571     1.5613699650
| 10>  O        1.8182399017    -2.2411712240     2.6176692648
| 11>  C       -0.3960770775    -2.5926492277     1.8003440682
| 12>  C       -1.4836682162    -3.0637577424     1.9995964003
| 13>  H        0.9244786365     1.9297859631    -0.1197364706
| 14>  H       -0.6799837454     1.7977008532    -0.8644332284
| 15>  H       -0.5168970996     1.9750957582     0.8923132263
| 16>  H       -1.0330358682    -0.4363700031     0.2507690563
| 17>  H        0.3868228074    -0.4783372113    -0.7558146503
| 18>  H        1.3379713850    -2.4413770043     0.6340563216
| 19>  H        1.9923855493    -1.3608583038     2.9930593614
| 20>  H       -2.4384429039    -3.4927082253     2.1810512533
| 21> *
| 22>
| 23>                          ****END OF INPUT****

CARTESIAN COORDINATES (ANGSTROEM)
---------------------------------
  C     -0.078849    1.514369    0.003430
  C     -0.029937   -0.005572    0.144747
  C      0.790574   -0.477358    1.321058
  O      1.363250    0.265866    2.084760
  C      0.928617   -2.007029    1.561370
  O      1.818240   -2.241171    2.617669
  C     -0.396077   -2.592649    1.800344
  C     -1.483668   -3.063758    1.999596
  H      0.924479    1.929786   -0.119736
  H     -0.679984    1.797701   -0.864433
  H     -0.516897    1.975096    0.892313
  H     -1.033036   -0.436370    0.250769
  H      0.386823   -0.478337   -0.755815
  H      1.337971   -2.441377    0.634056
  H      1.992386   -1.360858    2.993059
  H     -2.438443   -3.492708    2.181051

 Total Charge           Charge          ....    0
 Multiplicity           Mult            ....    1
 Number of Electrons    NEL             ....   60
 Basis Dimension        Dim             ....  296

ORBITAL ENERGIES
----------------

  NO   OCC          E(Eh)            E(eV)
   0   2.0000     -20.574359      -559.8568
   1   2.0000     -20.565127      -559.6055
   2   2.0000     -11.354544      -308.9729
   3   2.0000     -11.330003      -308.3051
   4   2.0000     -11.255111      -306.2671
   5   2.0000     -11.249062      -306.1026
   6   2.0000     -11.242159      -305.9147
   7   2.0000     -11.229947      -305.5824
   8   2.0000      -1.428327       -38.8667
   9   2.0000      -1.371795       -37.3284
  10   2.0000      -1.088945       -29.6317
  11   2.0000      -1.054544       -28.6956
  12   2.0000      -0.980588       -26.6832
  13   2.0000      -0.893233       -24.3061
  14   2.0000      -0.782102       -21.2821
  15   2.0000      -0.742744       -20.2111
  16   2.0000      -0.724639       -19.7184
  17   2.0000      -0.688475       -18.7344
  18   2.0000      -0.671977       -18.2854
  19   2.0000      -0.637142       -17.3375
  20   2.0000      -0.622320       -16.9342
  21   2.0000      -0.578466       -15.7409
  22   2.0000      -0.541316       -14.7299
  23   2.0000      -0.536888       -14.6095
  24   2.0000      -0.523911       -14.2563
  25   2.0000      -0.507018       -13.7967
  26   2.0000      -0.482981       -13.1426
  27   2.0000      -0.455553       -12.3962
  28   2.0000      -0.411462       -11.1964
  29   2.0000      -0.395925       -10.7737
  30   0.0000       0.116021         3.1571
  31   0.0000       0.122459         3.3323
  32   0.0000       0.154846         4.2136
  33   0.0000       0.158033         4.3003
  34   0.0000       0.164342         4.4720

MULLIKEN ATOMIC CHARGES
-----------------------
   0 C :   -0.368509
   1 C :   -0.245915
   2 C :    0.200642
   3 O :   -0.312360
   4 C :   -0.056236
   5 O :   -0.459230
   6 C :    0.015008
   7 C :   -0.151753
   8 H :    0.136005
   9 H :    0.138109
  10 H :    0.138208
  11 H :    0.162085
  12 H :    0.137427
  13 H :    0.134489
  14 H :    0.337166
  15 H :    0.194865
Sum of atomic charges:   -0.0000000

LOEWDIN ATOMIC CHARGES
----------------------
   0 C :   -0.305500
   1 C :   -0.261067
   2 C :   -0.286027
   3 O :    0.159378
   4 C :   -0.327031
   5 O :    0.008622
   6 C :   -0.086370
   7 C :   -0.081552
   8 H :    0.127816
   9 H :    0.124052
  10 H :    0.128599
  11 H :    0.161985
  12 H :    0.156656
  13 H :    0.166082
  14 H :    0.184920
  15 H :    0.129438

  Mayer bond orders larger than 0.1
B(  0-C ,  1-C ) :   0.9278 B(  0-C ,  8-H ) :   0.9342 B(  0-C ,  9-H ) :   0.9377
B(  0-C , 10-H ) :   0.9352 B(  1-C ,  2-C ) :   0.9355 B(  1-C , 11-H ) :   0.9069
B(  1-C , 12-H ) :   0.9052 B(  2-C ,  3-O ) :   1.8954 B(  2-C ,  4-C ) :   0.9364
B(  4-C ,  5-O ) :   1.2048 B(  4-C ,  6-C ) :   0.8580 B(  4-C , 13-H ) :   0.9874
B(  5-O ,  6-C ) :  -0.1149 B(  5-O , 14-H ) :   0.7963 B(  6-C ,  7-C ) :   2.7104
B(  7-C , 15-H ) :   0.9074

MP2 TOTAL ENERGY:     -383.078256263 Eh
FINAL SINGLE POINT ENERGY      -383.078256262744

DIPOLE MOMENT
-------------
                                X             Y             Z
Electronic contribution:      2.43993      -5.01873       5.02299
Nuclear contribution   :     -3.17931       5.26519      -5.96329
                        -----------------------------------------
Total Dipole Moment    :     -0.73938       0.24645      -0.94029
                        -----------------------------------------
Magnitude (a.u.)       :      1.22130
Magnitude (Debye)      :      3.10430

                             ****ORCA TERMINATED NORMALLY****
TOTAL RUN TIME: 0 days 0 hours 11 minutes 12 seconds 917 msec
