                         Program Version 3.0.3 - RELEASE   -
|  1> ! RI-MP2 RIJK def2-TZVP def2-TZVP/C def2-TZVP/JK TIGHTSCF
|  2> % maxcore 2000
|  3> % mp2 density relaxed end
|  4> *xyz 0 1
|  5>  C       -0.4655449236     1.2281084606    -0.3230795017
|  6>  N       -0.2416577641    -0.1989984429    -0.4299137941
|  7>  C        0.8754148230    -0.7208321126    -0.9938920217
|  8>  O        1.7744627541    -0.0796322270    -1.5042424024
|  9>  C        0.9434841310    -2.2657843435    -0.9864363054
| 10>  O       -0.0568942338    -2.8302002124    -0.1476930766
| 11>  C       -0.7582371942    -3.8160981832    -0.9080051574
| 12>  C       -0.5641991879    -3.3213652122    -2.3372698980
| 13>  O        0.7506406281    -2.7825228885    -2.2900111678
| 14>  H        0.3434538608     1.7264674297    -0.8590975569
| 15>  H       -1.4233670033     1.5127437599    -0.7716794742
| 16>  H       -0.4573683906     1.5590138958     0.7218484813
| 17>  H       -0.8488725571    -0.8512159926     0.0405347559
| 18>  H        1.9495610799    -2.5567541739    -0.6597295629
| 19>  H       -0.3079425209    -4.8065076732    -0.7597404277
| 20>  H       -1.7985712889    -3.8371734822    -0.5748944688
| 21>  H       -0.5828788467    -4.1113331437    -3.0909007092
| 22>  H       -1.3043579158    -2.5513529281    -2.5987461124
| 23> *
| 24>
| 25>                          ****END OF INPUT****

CARTESIAN COORDINATES (ANGSTROEM)
---------------------------------
  C     -0.465545    1.228108   -0.323080
  N     -0.241658   -0.198998   -0.429914
  C      0.875415   -0.720832   -0.993892
  O      1.774463   -0.079632   -1.504242
  C      0.943484   -2.265784   -0.986436
  O     -0.056894   -2.830200   -0.147693
  C     -0.758237   -3.816098   -0.908005
  C     -0.564199   -3.321365   -2.337270
  O      0.750641   -2.782523   -2.290011
  H      0.343454    1.726467   -0.859098
  H     -1.423367    1.512744   -0.771679
  H     -0.457368    1.559014    0.721848
  H     -0.848873   -0.851216    0.040535
  H      1.949561   -2.556754   -0.659730
  H     -0.307943   -4.806508   -0.759740
  H     -1.798571   -3.837173   -0.574894
  H     -0.582879   -4.111333   -3.090901
  H     -1.304358   -2.551353   -2.598746

 Total Charge           Charge          ....    0
 Multiplicity           Mult            ....    1
 Number of Electrons    NEL             ....   70
 Basis Dimension        Dim             ....  333

ORBITAL ENERGIES
----------------

  NO   OCC          E(Eh)            E(eV)
   0   2.0000     -20.587307      -560.2091
   1   2.0000     -20.580494      -560.0237
   2   2.0000     -20.513771      -558.2081
   3   2.0000     -15.583698      -424.0540
   4   2.0000     -11.351940      -308.9020
   5   2.0000     -11.344321      -308.6947
   6   2.0000     -11.300648      -307.5063
   7   2.0000     -11.296885      -307.4039
   8   2.0000     -11.259170      -306.3776
   9   2.0000      -1.458820       -39.6965
  10   2.0000      -1.376837       -37.4656
  11   2.0000      -1.351346       -36.7720
  12   2.0000      -1.230407       -33.4811
  13   2.0000      -1.056016       -28.7357
  14   2.0000      -0.965286       -26.2668
  15   2.0000      -0.891785       -24.2667
  16   2.0000      -0.870575       -23.6896
  17   2.0000      -0.784610       -21.3503
  18   2.0000      -0.749881       -20.4053
  19   2.0000      -0.730258       -19.8713
  20   2.0000      -0.680637       -18.5211
  21   2.0000      -0.651211       -17.7204
  22   2.0000      -0.626620       -17.0512
  23   2.0000      -0.620043       -16.8722
  24   2.0000      -0.610382       -16.6093
  25   2.0000      -0.595717       -16.2103
  26   2.0000      -0.586681       -15.9644
  27   2.0000      -0.548219       -14.9178
  28   2.0000      -0.532724       -14.4962
  29   2.0000      -0.525924       -14.3111
  30   2.0000      -0.516353       -14.0507
  31   2.0000      -0.474378       -12.9085
  32   2.0000      -0.460305       -12.5255
  33   2.0000      -0.405202       -11.0261
  34   2.0000      -0.390863       -10.6359
  35   0.0000       0.127624         3.4728
  36   0.0000       0.151917         4.1339
  37   0.0000       0.169891         4.6230
  38   0.0000       0.173312         4.7160
  39   0.0000       0.175063         4.7637

MULLIKEN ATOMIC CHARGES
-----------------------
   0 C :   -0.298491
   1 N :   -0.315813
   2 C :    0.227903
   3 O :   -0.372035
   4 C :    0.264138
   5 O :   -0.361689
   6 C :   -0.051820
   7 C :   -0.064216
   8 O :   -0.308303
   9 H :    0.176018
  10 H :    0.134434
  11 H :    0.137723
  12 H :    0.255448
  13 H :    0.111503
  14 H :    0.110765
  15 H :    0.125062
  16 H :    0.131091
  17 H :    0.098280
Sum of atomic charges:   -0.0000000

LOEWDIN ATOMIC CHARGES
----------------------
   0 C :   -0.310451
   1 N :    0.088955
   2 C :   -0.454378
   3 O :    0.086619
   4 C :   -0.338323
   5 O :    0.155424
   6 C :   -0.305737
   7 C :   -0.309742
   8 O :    0.186079
   9 H :    0.134884
  10 H :    0.115593
  11 H :    0.116027
  12 H :    0.187433
  13 H :    0.141394
  14 H :    0.124808
  15 H :    0.127894
  16 H :    0.131927
  17 H :    0.121593

  Mayer bond orders larger than 0.1
B(  0-C ,  1-N ) :   0.8537 B(  0-C ,  9-H ) :   0.9276 B(  0-C , 10-H ) :   0.9342
B(  0-C , 11-H ) :   0.9364 B(  1-N ,  2-C ) :   1.1719 B(  1-N , 12-H ) :   0.8544
B(  2-C ,  3-O ) :   1.9128 B(  2-C ,  4-C ) :   0.8960 B(  4-C ,  5-O ) :   0.9179
B(  4-C ,  8-O ) :   0.9341 B(  4-C , 13-H ) :   0.9225 B(  5-O ,  6-C ) :   0.8870
B(  6-C ,  7-C ) :   0.9616 B(  6-C , 14-H ) :   0.9308 B(  6-C , 15-H ) :   0.9236
B(  7-C ,  8-O ) :   0.9281 B(  7-C , 16-H ) :   0.9190 B(  7-C , 17-H ) :   0.9231

MP2 TOTAL ENERGY:     -475.495222698 Eh
FINAL SINGLE POINT ENERGY      -475.495222697963

DIPOLE MOMENT
-------------
                                X             Y             Z
Electronic contribution:      4.53460      -1.41941      -0.72816
Nuclear contribution   :     -6.19456       0.76760       1.26566
                        -----------------------------------------
Total Dipole Moment    :     -1.65995      -0.65181       0.53751
                        -----------------------------------------
Magnitude (a.u.)       :      1.86258
Magnitude (Debye)      :      4.73431

                             ****ORCA TERMINATED NORMALLY****
TOTAL RUN TIME: 0 days 0 hours 15 minutes 38 seconds 214 msec
