                         Program Version 3.0.3 - RELEASE   -
|  1> ! RI-MP2 RIJK def2-TZVP def2-TZVP/C def2-TZVP/JK TIGHTSCF
|  2> % maxcore 2000
|  3> % mp2 density relaxed end
|  4> *xyz 0 1
|  5>  C       -0.0680108510     1.5054707224     0.0431005162
|  6>  C       -0.0726820173    -0.0117464895    -0.0898176865
|  7>  C        0.8414689058    -0.5090098248    -1.2145736281
|  8>  C        0.4362630414    -1.9060734954    -1.7076964705
|  9>  O       -0.0985591094    -2.7152852607    -0.6759755826
| 10>  C        0.7449180610    -2.8490595322     0.4477624910
| 11>  C        0.5282342201    -1.8003929306     1.5302692461
| 12>  N        0.6013133377    -2.1711771535     2.7406787976
| 13>  O        0.3489231594    -0.4918793313     1.2087560914
| 14>  H        0.9512230754     1.8771154944     0.1883445614
| 15>  H       -0.4814687713     1.9656073179    -0.8590063084
| 16>  H       -0.6711769077     1.8140867512     0.9003268900
| 17>  H       -1.0960343692    -0.3655461465    -0.2636263340
| 18>  H        0.8059327697     0.1897331432    -2.0576604351
| 19>  H        1.8726117077    -0.4956490007    -0.8439557448
| 20>  H       -0.3649331846    -1.8299024618    -2.4494117184
| 21>  H        1.2912329287    -2.4071270227    -2.1884475385
| 22>  H        0.5391443323    -3.8147468782     0.9115260346
| 23>  H        1.8051298209    -2.8425068577     0.1490964647
| 24>  H        0.4885639405    -1.3650955735     3.3595900340
| 25> *
| 26>
| 27>                          ****END OF INPUT****

CARTESIAN COORDINATES (ANGSTROEM)
---------------------------------
  C     -0.068011    1.505471    0.043101
  C     -0.072682   -0.011746   -0.089818
  C      0.841469   -0.509010   -1.214574
  C      0.436263   -1.906073   -1.707696
  O     -0.098559   -2.715285   -0.675976
  C      0.744918   -2.849060    0.447762
  C      0.528234   -1.800393    1.530269
  N      0.601313   -2.171177    2.740679
  O      0.348923   -0.491879    1.208756
  H      0.951223    1.877115    0.188345
  H     -0.481469    1.965607   -0.859006
  H     -0.671177    1.814087    0.900327
  H     -1.096034   -0.365546   -0.263626
  H      0.805933    0.189733   -2.057660
  H      1.872612   -0.495649   -0.843956
  H     -0.364933   -1.829902   -2.449412
  H      1.291233   -2.407127   -2.188448
  H      0.539144   -3.814747    0.911526
  H      1.805130   -2.842507    0.149096
  H      0.488564   -1.365096    3.359590

 Total Charge           Charge          ....    0
 Multiplicity           Mult            ....    1
 Number of Electrons    NEL             ....   70
 Basis Dimension        Dim             ....  345

ORBITAL ENERGIES
----------------

  NO   OCC          E(Eh)            E(eV)
   0   2.0000     -20.586179      -560.1784
   1   2.0000     -20.569636      -559.7282
   2   2.0000     -15.527021      -422.5117
   3   2.0000     -11.333354      -308.3962
   4   2.0000     -11.303312      -307.5788
   5   2.0000     -11.291614      -307.2604
   6   2.0000     -11.289987      -307.2162
   7   2.0000     -11.240828      -305.8785
   8   2.0000     -11.227739      -305.5223
   9   2.0000      -1.421614       -38.6841
  10   2.0000      -1.387278       -37.7497
  11   2.0000      -1.194485       -32.5036
  12   2.0000      -1.079873       -29.3848
  13   2.0000      -1.007683       -27.4205
  14   2.0000      -0.971201       -26.4277
  15   2.0000      -0.876848       -23.8603
  16   2.0000      -0.820502       -22.3270
  17   2.0000      -0.779468       -21.2104
  18   2.0000      -0.707283       -19.2461
  19   2.0000      -0.697534       -18.9809
  20   2.0000      -0.668683       -18.1958
  21   2.0000      -0.653071       -17.7710
  22   2.0000      -0.626617       -17.0511
  23   2.0000      -0.600742       -16.3470
  24   2.0000      -0.583394       -15.8750
  25   2.0000      -0.569523       -15.4975
  26   2.0000      -0.557816       -15.1789
  27   2.0000      -0.550423       -14.9778
  28   2.0000      -0.522533       -14.2188
  29   2.0000      -0.511543       -13.9198
  30   2.0000      -0.475354       -12.9350
  31   2.0000      -0.465029       -12.6541
  32   2.0000      -0.444730       -12.1017
  33   2.0000      -0.426193       -11.5973
  34   2.0000      -0.391686       -10.6583
  35   0.0000       0.127727         3.4756
  36   0.0000       0.148506         4.0411
  37   0.0000       0.159238         4.3331
  38   0.0000       0.162859         4.4316
  39   0.0000       0.181759         4.9459

MULLIKEN ATOMIC CHARGES
-----------------------
   0 C :   -0.364018
   1 C :    0.065366
   2 C :   -0.275654
   3 C :   -0.071627
   4 O :   -0.316223
   5 C :   -0.010430
   6 C :    0.087803
   7 N :   -0.369053
   8 O :   -0.252052
   9 H :    0.131210
  10 H :    0.126151
  11 H :    0.145553
  12 H :    0.107317
  13 H :    0.133594
  14 H :    0.134295
  15 H :    0.123449
  16 H :    0.117776
  17 H :    0.154128
  18 H :    0.115810
  19 H :    0.216602
Sum of atomic charges:   -0.0000000

LOEWDIN ATOMIC CHARGES
----------------------
   0 C :   -0.289622
   1 C :   -0.309142
   2 C :   -0.257798
   3 C :   -0.325743
   4 O :    0.159281
   5 C :   -0.282252
   6 C :   -0.418585
   7 N :   -0.057826
   8 O :    0.253260
   9 H :    0.127951
  10 H :    0.127034
  11 H :    0.128627
  12 H :    0.147739
  13 H :    0.149391
  14 H :    0.144871
  15 H :    0.131553
  16 H :    0.122539
  17 H :    0.148505
  18 H :    0.135630
  19 H :    0.164586

  Mayer bond orders larger than 0.1
B(  0-C ,  1-C ) :   0.9128 B(  0-C ,  9-H ) :   0.9299 B(  0-C , 10-H ) :   0.9335
B(  0-C , 11-H ) :   0.9406 B(  1-C ,  2-C ) :   0.8831 B(  1-C ,  8-O ) :   0.8677
B(  1-C , 12-H ) :   0.9386 B(  2-C ,  3-C ) :   0.9189 B(  2-C , 13-H ) :   0.9133
B(  2-C , 14-H ) :   0.9263 B(  3-C ,  4-O ) :   0.9173 B(  3-C , 15-H ) :   0.9323
B(  3-C , 16-H ) :   0.9505 B(  4-O ,  5-C ) :   0.9104 B(  5-C ,  6-C ) :   0.8989
B(  5-C , 17-H ) :   0.9176 B(  5-C , 18-H ) :   0.9270 B(  6-C ,  7-N ) :   2.0320
B(  6-C ,  8-O ) :   1.1137 B(  7-N , 19-H ) :   0.8573

MP2 TOTAL ENERGY:     -439.568187906 Eh
FINAL SINGLE POINT ENERGY      -439.568187905589

DIPOLE MOMENT
-------------
                                X             Y             Z
Electronic contribution:     -0.88297      -4.71433       4.32709
Nuclear contribution   :      1.09675       5.62053      -5.48735
                        -----------------------------------------
Total Dipole Moment    :      0.21377       0.90621      -1.16026
                        -----------------------------------------
Magnitude (a.u.)       :      1.48765
Magnitude (Debye)      :      3.78131

                             ****ORCA TERMINATED NORMALLY****
TOTAL RUN TIME: 0 days 0 hours 18 minutes 58 seconds 733 msec
