                         Program Version 3.0.3 - RELEASE   -
|  1> ! RI-MP2 RIJK def2-TZVP def2-TZVP/C def2-TZVP/JK TIGHTSCF
|  2> % maxcore 2000
|  3> % mp2 density relaxed end
|  4> *xyz 0 1
|  5>  O       -0.0309281584     1.3576013387     0.3663192351
|  6>  C        0.0326961093    -0.0002875238    -0.0506337602
|  7>  C       -1.3705720910    -0.5409774345    -0.0653056083
|  8>  C       -1.9991697599    -1.1005683737     1.1933811236
|  9>  C       -1.7043537981    -2.0085598175     0.0068328656
| 10>  C       -2.8502986073    -2.2360382512    -0.9611076549
| 11>  O       -3.3438924547    -3.3006678949    -1.2517392836
| 12>  C       -3.2165609249    -0.8912287131    -1.4930282630
| 13>  C       -2.3769233949     0.0368323259    -1.0143038273
| 14>  H        0.8362351612     1.7532731120     0.2372026276
| 15>  H        0.4736235189    -0.0842887780    -1.0560093744
| 16>  H        0.6504764385    -0.6038582413     0.6326573233
| 17>  H       -1.3599239237    -1.2230426814     2.0624270253
| 18>  H       -3.0294125497    -0.8447238227     1.4139381652
| 19>  H       -0.9577489455    -2.7844233415     0.1199399697
| 20>  H       -4.0591837506    -0.7371838553    -2.1541280400
| 21>  H       -2.4029505994     1.1000700224    -1.2221385437
| 22> *
| 23>
| 24>                          ****END OF INPUT****

CARTESIAN COORDINATES (ANGSTROEM)
---------------------------------
  O     -0.030928    1.357601    0.366319
  C      0.032696   -0.000288   -0.050634
  C     -1.370572   -0.540977   -0.065306
  C     -1.999170   -1.100568    1.193381
  C     -1.704354   -2.008560    0.006833
  C     -2.850299   -2.236038   -0.961108
  O     -3.343892   -3.300668   -1.251739
  C     -3.216561   -0.891229   -1.493028
  C     -2.376923    0.036832   -1.014304
  H      0.836235    1.753273    0.237203
  H      0.473624   -0.084289   -1.056009
  H      0.650476   -0.603858    0.632657
  H     -1.359924   -1.223043    2.062427
  H     -3.029413   -0.844724    1.413938
  H     -0.957749   -2.784423    0.119940
  H     -4.059184   -0.737184   -2.154128
  H     -2.402951    1.100070   -1.222139

 Total Charge           Charge          ....    0
 Multiplicity           Mult            ....    1
 Number of Electrons    NEL             ....   66
 Basis Dimension        Dim             ....  327

ORBITAL ENERGIES
----------------

  NO   OCC          E(Eh)            E(eV)
   0   2.0000     -20.573442      -559.8318
   1   2.0000     -20.537284      -558.8479
   2   2.0000     -11.328991      -308.2775
   3   2.0000     -11.299662      -307.4794
   4   2.0000     -11.265479      -306.5493
   5   2.0000     -11.261180      -306.4323
   6   2.0000     -11.254531      -306.2514
   7   2.0000     -11.248862      -306.0971
   8   2.0000     -11.237206      -305.7799
   9   2.0000      -1.380143       -37.5556
  10   2.0000      -1.377684       -37.4887
  11   2.0000      -1.208542       -32.8861
  12   2.0000      -1.058455       -28.8020
  13   2.0000      -0.982269       -26.7289
  14   2.0000      -0.900727       -24.5100
  15   2.0000      -0.846350       -23.0304
  16   2.0000      -0.766398       -20.8548
  17   2.0000      -0.745116       -20.2756
  18   2.0000      -0.716690       -19.5021
  19   2.0000      -0.679993       -18.5036
  20   2.0000      -0.651592       -17.7307
  21   2.0000      -0.636739       -17.3265
  22   2.0000      -0.606159       -16.4944
  23   2.0000      -0.598850       -16.2955
  24   2.0000      -0.571529       -15.5521
  25   2.0000      -0.561004       -15.2657
  26   2.0000      -0.538335       -14.6489
  27   2.0000      -0.510773       -13.8988
  28   2.0000      -0.483629       -13.1602
  29   2.0000      -0.453827       -12.3493
  30   2.0000      -0.431020       -11.7287
  31   2.0000      -0.406288       -11.0556
  32   2.0000      -0.366443        -9.9714
  33   0.0000       0.088463         2.4072
  34   0.0000       0.123028         3.3478
  35   0.0000       0.151952         4.1348
  36   0.0000       0.169946         4.6245
  37   0.0000       0.176957         4.8152

MULLIKEN ATOMIC CHARGES
-----------------------
   0 O :   -0.464937
   1 C :   -0.094952
   2 C :    0.211987
   3 C :   -0.294500
   4 C :   -0.137329
   5 C :    0.170444
   6 O :   -0.280321
   7 C :   -0.188049
   8 C :   -0.184891
   9 H :    0.316759
  10 H :    0.112213
  11 H :    0.101848
  12 H :    0.137868
  13 H :    0.149003
  14 H :    0.151331
  15 H :    0.143298
  16 H :    0.150227
Sum of atomic charges:   -0.0000000

LOEWDIN ATOMIC CHARGES
----------------------
   0 O :   -0.041177
   1 C :   -0.301635
   2 C :   -0.217073
   3 C :   -0.141142
   4 C :   -0.128363
   5 C :   -0.301134
   6 O :    0.145602
   7 C :   -0.113658
   8 C :   -0.060183
   9 H :    0.174033
  10 H :    0.125372
  11 H :    0.125455
  12 H :    0.141033
  13 H :    0.142698
  14 H :    0.155531
  15 H :    0.144984
  16 H :    0.149658

  Mayer bond orders larger than 0.1
B(  0-O ,  1-C ) :   1.0530 B(  0-O ,  2-C ) :  -0.1169 B(  0-O ,  9-H ) :   0.8452
B(  1-C ,  2-C ) :   0.9126 B(  1-C , 10-H ) :   0.9208 B(  1-C , 11-H ) :   0.9170
B(  2-C ,  3-C ) :   0.8539 B(  2-C ,  4-C ) :   0.7684 B(  2-C ,  8-C ) :   0.9255
B(  3-C ,  4-C ) :   0.8644 B(  3-C , 12-H ) :   0.9213 B(  3-C , 13-H ) :   0.9112
B(  4-C ,  5-C ) :   0.8957 B(  4-C , 14-H ) :   0.9152 B(  5-C ,  6-O ) :   1.9935
B(  5-C ,  7-C ) :   1.0047 B(  7-C ,  8-C ) :   1.6548 B(  7-C , 15-H ) :   0.9229
B(  8-C , 16-H ) :   0.9182

MP2 TOTAL ENERGY:     -421.126881548 Eh
FINAL SINGLE POINT ENERGY      -421.126881547958

DIPOLE MOMENT
-------------
                                X             Y             Z
Electronic contribution:     -3.24133      -2.76777      -2.36748
Nuclear contribution   :      4.42129       3.76957       2.61462
                        -----------------------------------------
Total Dipole Moment    :      1.17996       1.00180       0.24715
                        -----------------------------------------
Magnitude (a.u.)       :      1.56748
Magnitude (Debye)      :      3.98421

                             ****ORCA TERMINATED NORMALLY****
TOTAL RUN TIME: 0 days 0 hours 17 minutes 2 seconds 677 msec
