                         Program Version 3.0.3 - RELEASE   -
|  1> ! RI-MP2 RIJK def2-TZVP def2-TZVP/C def2-TZVP/JK TIGHTSCF
|  2> % maxcore 2000
|  3> % mp2 density relaxed end
|  4> *xyz 0 1
|  5>  C       -0.0003168419     1.4885619008     0.0460906327
|  6>  C       -0.0044475025    -0.0144212687    -0.0051326054
|  7>  C       -0.1348762659    -0.7118293257    -1.2041990423
|  8>  N       -0.1433702738    -2.0502676944    -1.2475784515
|  9>  C       -0.0139960169    -2.6913225431    -0.0989749002
| 10>  C        0.1216328556    -1.9975723062     1.1225361959
| 11>  N        0.3085919609    -2.6639665335     2.3138145681
| 12>  N        0.1185415971    -0.6647217907     1.1606854738
| 13>  H        0.9388579639     1.8539077270     0.4741542371
| 14>  H       -0.1228895766     1.9232676380    -0.9487851082
| 15>  H       -0.8078801374     1.8519754077     0.6897025532
| 16>  H       -0.2389439079    -0.1864039819    -2.1487837599
| 17>  H       -0.0149721912    -3.7793463614    -0.1240071961
| 18>  H       -0.0380472679    -3.6079645609     2.3744022983
| 19>  H        0.1483087044    -2.1006560669     3.1354065644
| 20> *
| 21>
| 22>                          ****END OF INPUT****

CARTESIAN COORDINATES (ANGSTROEM)
---------------------------------
  C     -0.000317    1.488562    0.046091
  C     -0.004448   -0.014421   -0.005133
  C     -0.134876   -0.711829   -1.204199
  N     -0.143370   -2.050268   -1.247578
  C     -0.013996   -2.691323   -0.098975
  C      0.121633   -1.997572    1.122536
  N      0.308592   -2.663967    2.313815
  N      0.118542   -0.664722    1.160685
  H      0.938858    1.853908    0.474154
  H     -0.122890    1.923268   -0.948785
  H     -0.807880    1.851975    0.689703
  H     -0.238944   -0.186404   -2.148784
  H     -0.014972   -3.779346   -0.124007
  H     -0.038047   -3.607965    2.374402
  H      0.148309   -2.100656    3.135407

 Total Charge           Charge          ....    0
 Multiplicity           Mult            ....    1
 Number of Electrons    NEL             ....   58
 Basis Dimension        Dim             ....  290

ORBITAL ENERGIES
----------------

  NO   OCC          E(Eh)            E(eV)
   0   2.0000     -15.585020      -424.0900
   1   2.0000     -15.575603      -423.8337
   2   2.0000     -15.564864      -423.5415
   3   2.0000     -11.321295      -308.0681
   4   2.0000     -11.283293      -307.0340
   5   2.0000     -11.264863      -306.5325
   6   2.0000     -11.252288      -306.1903
   7   2.0000     -11.227539      -305.5169
   8   2.0000      -1.310186       -35.6520
   9   2.0000      -1.233763       -33.5724
  10   2.0000      -1.187278       -32.3075
  11   2.0000      -1.045612       -28.4526
  12   2.0000      -0.963057       -26.2061
  13   2.0000      -0.879751       -23.9392
  14   2.0000      -0.847472       -23.0609
  15   2.0000      -0.732768       -19.9396
  16   2.0000      -0.705587       -19.2000
  17   2.0000      -0.680368       -18.5138
  18   2.0000      -0.649318       -17.6688
  19   2.0000      -0.602960       -16.4074
  20   2.0000      -0.584837       -15.9142
  21   2.0000      -0.557695       -15.1757
  22   2.0000      -0.552141       -15.0245
  23   2.0000      -0.542815       -14.7707
  24   2.0000      -0.484072       -13.1723
  25   2.0000      -0.481227       -13.0948
  26   2.0000      -0.410337       -11.1658
  27   2.0000      -0.401929       -10.9370
  28   2.0000      -0.309883        -8.4324
  29   0.0000       0.093097         2.5333
  30   0.0000       0.130690         3.5563
  31   0.0000       0.143296         3.8993
  32   0.0000       0.152033         4.1370
  33   0.0000       0.177603         4.8328

MULLIKEN ATOMIC CHARGES
-----------------------
   0 C :   -0.413726
   1 C :    0.160242
   2 C :   -0.077175
   3 N :   -0.255674
   4 C :   -0.088413
   5 C :    0.269372
   6 N :   -0.496477
   7 N :   -0.287347
   8 H :    0.145212
   9 H :    0.132695
  10 H :    0.143305
  11 H :    0.128725
  12 H :    0.127685
  13 H :    0.252341
  14 H :    0.259235
Sum of atomic charges:   -0.0000000

LOEWDIN ATOMIC CHARGES
----------------------
   0 C :   -0.267084
   1 C :   -0.258265
   2 C :   -0.210317
   3 N :    0.131965
   4 C :   -0.205304
   5 C :   -0.336560
   6 N :   -0.047198
   7 N :    0.174123
   8 H :    0.134664
   9 H :    0.128463
  10 H :    0.134017
  11 H :    0.140718
  12 H :    0.138647
  13 H :    0.169409
  14 H :    0.172722

  Mayer bond orders larger than 0.1
B(  0-C ,  1-C ) :   0.8885 B(  0-C ,  8-H ) :   0.9280 B(  0-C ,  9-H ) :   0.9505
B(  0-C , 10-H ) :   0.9298 B(  1-C ,  2-C ) :   1.3345 B(  1-C ,  7-N ) :   1.3322
B(  2-C ,  3-N ) :   1.3541 B(  2-C , 11-H ) :   0.9368 B(  3-N ,  4-C ) :   1.4644
B(  4-C ,  5-C ) :   1.2272 B(  4-C , 12-H ) :   0.9363 B(  5-C ,  6-N ) :   1.0805
B(  5-C ,  7-N ) :   1.3977 B(  6-N , 13-H ) :   0.8753 B(  6-N , 14-H ) :   0.8608

MP2 TOTAL ENERGY:     -358.277774918 Eh
FINAL SINGLE POINT ENERGY      -358.277774918128

DIPOLE MOMENT
-------------
                                X             Y             Z
Electronic contribution:      0.06632      -3.92240      -0.59258
Nuclear contribution   :     -0.33397       3.81178       1.26043
                        -----------------------------------------
Total Dipole Moment    :     -0.26765      -0.11062       0.66785
                        -----------------------------------------
Magnitude (a.u.)       :      0.72794
Magnitude (Debye)      :      1.85027

                             ****ORCA TERMINATED NORMALLY****
TOTAL RUN TIME: 0 days 0 hours 11 minutes 11 seconds 553 msec
