                         Program Version 3.0.3 - RELEASE   -
|  1> ! RI-MP2 RIJK def2-TZVP def2-TZVP/C def2-TZVP/JK TIGHTSCF
|  2> % maxcore 2000
|  3> % mp2 density relaxed end
|  4> *xyz 0 1
|  5>  C       -0.1697359401     1.5039253437     0.1561808571
|  6>  C        0.0117786907     0.0025075949    -0.0023357459
|  7>  O       -1.2708824929    -0.5740077893    -0.1719559461
|  8>  C       -1.3486802716    -1.9859984747    -0.0934007906
|  9>  C       -0.5300848494    -2.6812451442    -1.1734493146
| 10>  C       -1.2285616048    -2.5360804073     1.3642129714
| 11>  N       -2.6966780096    -2.5002612219     1.4766458351
| 12>  C       -3.3657375050    -3.5898597523     2.1449017159
| 13>  C       -2.8470709199    -2.3650965900     0.0165013135
| 14>  H        0.8005225092     1.9971034809     0.2696732365
| 15>  H       -0.6709236645     1.9216566188    -0.7217264747
| 16>  H       -0.7811171047     1.7253070913     1.0353491825
| 17>  H        0.6558120125    -0.2108200103    -0.8690871179
| 18>  H        0.5122898736    -0.4167604257     0.8844960604
| 19>  H        0.5446926609    -2.5331446490    -1.0271627671
| 20>  H       -0.7176126496    -3.7582496819    -1.1653838239
| 21>  H       -0.7978143778    -2.2903347693    -2.1607686314
| 22>  H       -0.8056635962    -3.5545196282     1.3868944918
| 23>  H       -0.6983108181    -1.9179074627     2.0971372020
| 24>  H       -3.0952066468    -3.5987926327     3.2064519704
| 25>  H       -4.4511760959    -3.4577876838     2.0784513296
| 26>  H       -3.1173710827    -4.5842844656     1.7222793265
| 27>  H       -3.5534015805    -1.5935092559    -0.3058012363
| 28>  H       -3.0780869969    -3.3132357051    -0.4959471042
| 29> *
| 30>
| 31>                          ****END OF INPUT****

CARTESIAN COORDINATES (ANGSTROEM)
---------------------------------
  C     -0.169736    1.503925    0.156181
  C      0.011779    0.002508   -0.002336
  O     -1.270882   -0.574008   -0.171956
  C     -1.348680   -1.985998   -0.093401
  C     -0.530085   -2.681245   -1.173449
  C     -1.228562   -2.536080    1.364213
  N     -2.696678   -2.500261    1.476646
  C     -3.365738   -3.589860    2.144902
  C     -2.847071   -2.365097    0.016501
  H      0.800523    1.997103    0.269673
  H     -0.670924    1.921657   -0.721726
  H     -0.781117    1.725307    1.035349
  H      0.655812   -0.210820   -0.869087
  H      0.512290   -0.416760    0.884496
  H      0.544693   -2.533145   -1.027163
  H     -0.717613   -3.758250   -1.165384
  H     -0.797814   -2.290335   -2.160769
  H     -0.805664   -3.554520    1.386894
  H     -0.698311   -1.917907    2.097137
  H     -3.095207   -3.598793    3.206452
  H     -4.451176   -3.457788    2.078451
  H     -3.117371   -4.584284    1.722279
  H     -3.553402   -1.593509   -0.305801
  H     -3.078087   -3.313236   -0.495947

 Total Charge           Charge          ....    0
 Multiplicity           Mult            ....    1
 Number of Electrons    NEL             ....   72
 Basis Dimension        Dim             ....  369

ORBITAL ENERGIES
----------------

  NO   OCC          E(Eh)            E(eV)
   0   2.0000     -20.547565      -559.1277
   1   2.0000     -15.537496      -422.7968
   2   2.0000     -11.284466      -307.0659
   3   2.0000     -11.270859      -306.6957
   4   2.0000     -11.244917      -305.9898
   5   2.0000     -11.241249      -305.8899
   6   2.0000     -11.238793      -305.8231
   7   2.0000     -11.217726      -305.2498
   8   2.0000     -11.210632      -305.0568
   9   2.0000      -1.373010       -37.3615
  10   2.0000      -1.237734       -33.6805
  11   2.0000      -1.049220       -28.5507
  12   2.0000      -0.996115       -27.1057
  13   2.0000      -0.957245       -26.0480
  14   2.0000      -0.919367       -25.0172
  15   2.0000      -0.848769       -23.0962
  16   2.0000      -0.812913       -22.1205
  17   2.0000      -0.740763       -20.1572
  18   2.0000      -0.675799       -18.3894
  19   2.0000      -0.663429       -18.0528
  20   2.0000      -0.639541       -17.4028
  21   2.0000      -0.618279       -16.8242
  22   2.0000      -0.605119       -16.4661
  23   2.0000      -0.583486       -15.8775
  24   2.0000      -0.569081       -15.4855
  25   2.0000      -0.556649       -15.1472
  26   2.0000      -0.540069       -14.6960
  27   2.0000      -0.529676       -14.4132
  28   2.0000      -0.523814       -14.2537
  29   2.0000      -0.518658       -14.1134
  30   2.0000      -0.480722       -13.0811
  31   2.0000      -0.477053       -12.9813
  32   2.0000      -0.471521       -12.8307
  33   2.0000      -0.432886       -11.7794
  34   2.0000      -0.406716       -11.0673
  35   2.0000      -0.348419        -9.4810
  36   0.0000       0.131627         3.5817
  37   0.0000       0.152290         4.1440
  38   0.0000       0.160703         4.3729
  39   0.0000       0.180578         4.9138
  40   0.0000       0.189066         5.1447

MULLIKEN ATOMIC CHARGES
-----------------------
   0 C :   -0.368731
   1 C :   -0.056624
   2 O :   -0.296432
   3 C :    0.309517
   4 C :   -0.450256
   5 C :   -0.241420
   6 N :   -0.122020
   7 C :   -0.320763
   8 C :   -0.207223
   9 H :    0.119901
  10 H :    0.129158
  11 H :    0.133106
  12 H :    0.098570
  13 H :    0.087298
  14 H :    0.137076
  15 H :    0.132574
  16 H :    0.139682
  17 H :    0.097149
  18 H :    0.105887
  19 H :    0.134823
  20 H :    0.136749
  21 H :    0.094766
  22 H :    0.110365
  23 H :    0.096850
Sum of atomic charges:    0.0000000

LOEWDIN ATOMIC CHARGES
----------------------
   0 C :   -0.316781
   1 C :   -0.347639
   2 O :    0.206290
   3 C :   -0.358858
   4 C :   -0.282405
   5 C :   -0.222962
   6 N :    0.066030
   7 C :   -0.345715
   8 C :   -0.211295
   9 H :    0.122828
  10 H :    0.124073
  11 H :    0.124432
  12 H :    0.116575
  13 H :    0.116861
  14 H :    0.125871
  15 H :    0.127595
  16 H :    0.130549
  17 H :    0.121453
  18 H :    0.121362
  19 H :    0.118009
  20 H :    0.118430
  21 H :    0.097474
  22 H :    0.126427
  23 H :    0.121397

  Mayer bond orders larger than 0.1
B(  0-C ,  1-C ) :   0.9556 B(  0-C ,  9-H ) :   0.9339 B(  0-C , 10-H ) :   0.9357
B(  0-C , 11-H ) :   0.9382 B(  1-C ,  2-O ) :   0.9052 B(  1-C , 12-H ) :   0.9213
B(  1-C , 13-H ) :   0.9152 B(  2-O ,  3-C ) :   0.9624 B(  3-C ,  4-C ) :   0.8816
B(  3-C ,  5-C ) :   0.9248 B(  3-C ,  8-C ) :   0.8972 B(  4-C , 14-H ) :   0.9309
B(  4-C , 15-H ) :   0.9273 B(  4-C , 16-H ) :   0.9380 B(  5-C ,  6-N ) :   0.9640
B(  5-C , 17-H ) :   0.9097 B(  5-C , 18-H ) :   0.9055 B(  6-N ,  7-C ) :   0.9102
B(  6-N ,  8-C ) :   0.9674 B(  7-C , 19-H ) :   0.9382 B(  7-C , 20-H ) :   0.9390
B(  7-C , 21-H ) :   0.9238 B(  8-C , 22-H ) :   0.9095 B(  8-C , 23-H ) :   0.9165

MP2 TOTAL ENERGY:     -404.823624681 Eh
FINAL SINGLE POINT ENERGY      -404.823624681138

DIPOLE MOMENT
-------------
                                X             Y             Z
Electronic contribution:     -2.27627       0.69013       0.07974
Nuclear contribution   :      2.77542      -1.12581      -0.19577
                        -----------------------------------------
Total Dipole Moment    :      0.49915      -0.43567      -0.11603
                        -----------------------------------------
Magnitude (a.u.)       :      0.67263
Magnitude (Debye)      :      1.70968

                             ****ORCA TERMINATED NORMALLY****
TOTAL RUN TIME: 0 days 0 hours 19 minutes 15 seconds 316 msec
