                         Program Version 3.0.3 - RELEASE   -
|  1> ! RI-MP2 RIJK def2-TZVP def2-TZVP/C def2-TZVP/JK TIGHTSCF
|  2> % maxcore 2000
|  3> % mp2 density relaxed end
|  4> *xyz 0 1
|  5>  N        0.0033380095     1.3649373394     0.1053045703
|  6>  C       -0.0014390148     0.0061943161     0.0402384194
|  7>  C       -1.2109496250    -0.7353987533     0.0282693369
|  8>  N       -1.2228095054    -2.0498366234     0.0009343114
|  9>  C       -0.0273416509    -2.6734513881    -0.0128009919
| 10>  C        1.1632846456    -1.9439424575    -0.0031260276
| 11>  N        1.1842222811    -0.6151179976     0.0199378478
| 12>  C       -0.0051626260    -4.1048326300    -0.0411794920
| 13>  N        0.0536517378    -5.2607121253    -0.0644664538
| 14>  H        0.8843742070     1.8260668679    -0.0550604004
| 15>  H       -0.8339457944     1.8803571216    -0.1045198770
| 16>  H       -2.1724993155    -0.2262629131     0.0417339840
| 17>  H        2.1224952109    -2.4536986468    -0.0186565069
| 18> *
| 19>
| 20>                          ****END OF INPUT****

CARTESIAN COORDINATES (ANGSTROEM)
---------------------------------
  N      0.003338    1.364937    0.105305
  C     -0.001439    0.006194    0.040238
  C     -1.210950   -0.735399    0.028269
  N     -1.222810   -2.049837    0.000934
  C     -0.027342   -2.673451   -0.012801
  C      1.163285   -1.943942   -0.003126
  N      1.184222   -0.615118    0.019938
  C     -0.005163   -4.104833   -0.041179
  N      0.053652   -5.260712   -0.064466
  H      0.884374    1.826067   -0.055060
  H     -0.833946    1.880357   -0.104520
  H     -2.172499   -0.226263    0.041734
  H      2.122495   -2.453699   -0.018657

 Total Charge           Charge          ....    0
 Multiplicity           Mult            ....    1
 Number of Electrons    NEL             ....   62
 Basis Dimension        Dim             ....  303

ORBITAL ENERGIES
----------------

  NO   OCC          E(Eh)            E(eV)
   0   2.0000     -15.623350      -425.1330
   1   2.0000     -15.607678      -424.7065
   2   2.0000     -15.597961      -424.4421
   3   2.0000     -15.571968      -423.7348
   4   2.0000     -11.360560      -309.1366
   5   2.0000     -11.316701      -307.9431
   6   2.0000     -11.311667      -307.8061
   7   2.0000     -11.300741      -307.5088
   8   2.0000     -11.275107      -306.8113
   9   2.0000      -1.346921       -36.6516
  10   2.0000      -1.274712       -34.6867
  11   2.0000      -1.220102       -33.2007
  12   2.0000      -1.214770       -33.0556
  13   2.0000      -1.070601       -29.1325
  14   2.0000      -0.934731       -25.4353
  15   2.0000      -0.923802       -25.1379
  16   2.0000      -0.787049       -21.4167
  17   2.0000      -0.772096       -21.0098
  18   2.0000      -0.752367       -20.4729
  19   2.0000      -0.683497       -18.5989
  20   2.0000      -0.652168       -17.7464
  21   2.0000      -0.626699       -17.0533
  22   2.0000      -0.618172       -16.8213
  23   2.0000      -0.557252       -15.1636
  24   2.0000      -0.539147       -14.6709
  25   2.0000      -0.519564       -14.1381
  26   2.0000      -0.472838       -12.8666
  27   2.0000      -0.472419       -12.8552
  28   2.0000      -0.452450       -12.3118
  29   2.0000      -0.437344       -11.9007
  30   2.0000      -0.336026        -9.1437
  31   0.0000       0.062305         1.6954
  32   0.0000       0.084610         2.3024
  33   0.0000       0.113290         3.0828
  34   0.0000       0.151888         4.1331
  35   0.0000       0.156944         4.2707

MULLIKEN ATOMIC CHARGES
-----------------------
   0 N :   -0.486719
   1 C :    0.300165
   2 C :   -0.084442
   3 N :   -0.255555
   4 C :    0.272574
   5 C :   -0.080005
   6 N :   -0.260897
   7 C :   -0.184863
   8 N :   -0.048539
   9 H :    0.271429
  10 H :    0.263114
  11 H :    0.138797
  12 H :    0.154941
Sum of atomic charges:    0.0000000

LOEWDIN ATOMIC CHARGES
----------------------
   0 N :   -0.012539
   1 C :   -0.328418
   2 C :   -0.180364
   3 N :    0.181428
   4 C :   -0.239952
   5 C :   -0.169467
   6 N :    0.162274
   7 C :   -0.146631
   8 N :    0.082084
   9 H :    0.179519
  10 H :    0.175124
  11 H :    0.144474
  12 H :    0.152468

  Mayer bond orders larger than 0.1
B(  0-N ,  1-C ) :   1.1296 B(  0-N ,  9-H ) :   0.8542 B(  0-N , 10-H ) :   0.8724
B(  1-C ,  2-C ) :   1.1958 B(  1-C ,  6-N ) :   1.3524 B(  2-C ,  3-N ) :   1.5063
B(  2-C , 11-H ) :   0.9333 B(  3-N ,  4-C ) :   1.2588 B(  4-C ,  5-C ) :   1.3033
B(  4-C ,  7-C ) :   0.9277 B(  5-C ,  6-N ) :   1.4145 B(  5-C , 12-H ) :   0.9294
B(  7-C ,  8-N ) :   2.8504

MP2 TOTAL ENERGY:     -411.138983525 Eh
FINAL SINGLE POINT ENERGY      -411.138983524628

DIPOLE MOMENT
-------------
                                X             Y             Z
Electronic contribution:     -0.05815      -4.74171      -0.01878
Nuclear contribution   :      0.02319       7.34980      -0.15487
                        -----------------------------------------
Total Dipole Moment    :     -0.03496       2.60809      -0.17364
                        -----------------------------------------
Magnitude (a.u.)       :      2.61409
Magnitude (Debye)      :      6.64450

                             ****ORCA TERMINATED NORMALLY****
TOTAL RUN TIME: 0 days 0 hours 15 minutes 3 seconds 509 msec
