                         Program Version 3.0.3 - RELEASE   -
|  1> ! RI-MP2 RIJK def2-TZVP def2-TZVP/C def2-TZVP/JK TIGHTSCF
|  2> % maxcore 2000
|  3> % mp2 density relaxed end
|  4> *xyz 0 1
|  5>  C        0.1254649878     1.5381330222    -0.2685007905
|  6>  C        0.0010401413     0.0477810625     0.0540866305
|  7>  N        0.4029032727    -0.7548468322    -1.1227227219
|  8>  C        1.3836316235    -1.4620201132    -0.7493628713
|  9>  O        1.8202589357    -1.4021405592     0.5295979959
| 10>  C        0.8948999600    -0.5046390592     1.2166040330
| 11>  C        1.6908953415     0.4839567822     2.0559472967
| 12>  C        2.5222376048    -0.1980379505     3.1477597665
| 13>  O        3.1912301201     0.7353818856     3.9806098761
| 14>  H        1.1536828598     1.8082944340    -0.5261078391
| 15>  H       -0.5047109953     1.7709620453    -1.1304403010
| 16>  H       -0.1982385237     2.1589624472     0.5723119322
| 17>  H       -1.0504727017    -0.1674457802     0.2726166990
| 18>  H        1.9443628441    -2.1430972698    -1.3808326554
| 19>  H        0.2933225276    -1.1403970962     1.8781589521
| 20>  H        2.3512422241     1.0697336775     1.4046943803
| 21>  H        1.0009944901     1.1884586293     2.5341804119
| 22>  H        1.8636892169    -0.7689078373     3.8124928402
| 23>  H        3.2226041211    -0.9120323151     2.6927003428
| 24>  H        3.8671339297     1.1708344173     3.4517722420
| 25> *
| 26>
| 27>                          ****END OF INPUT****

CARTESIAN COORDINATES (ANGSTROEM)
---------------------------------
  C      0.125465    1.538133   -0.268501
  C      0.001040    0.047781    0.054087
  N      0.402903   -0.754847   -1.122723
  C      1.383632   -1.462020   -0.749363
  O      1.820259   -1.402141    0.529598
  C      0.894900   -0.504639    1.216604
  C      1.690895    0.483957    2.055947
  C      2.522238   -0.198038    3.147760
  O      3.191230    0.735382    3.980610
  H      1.153683    1.808294   -0.526108
  H     -0.504711    1.770962   -1.130440
  H     -0.198239    2.158962    0.572312
  H     -1.050473   -0.167446    0.272617
  H      1.944363   -2.143097   -1.380833
  H      0.293323   -1.140397    1.878159
  H      2.351242    1.069734    1.404694
  H      1.000994    1.188459    2.534180
  H      1.863689   -0.768908    3.812493
  H      3.222604   -0.912032    2.692700
  H      3.867134    1.170834    3.451772

 Total Charge           Charge          ....    0
 Multiplicity           Mult            ....    1
 Number of Electrons    NEL             ....   70
 Basis Dimension        Dim             ....  345

ORBITAL ENERGIES
----------------

  NO   OCC          E(Eh)            E(eV)
   0   2.0000     -20.595534      -560.4330
   1   2.0000     -20.559014      -559.4392
   2   2.0000     -15.547973      -423.0819
   3   2.0000     -11.331433      -308.3440
   4   2.0000     -11.300628      -307.5057
   5   2.0000     -11.279110      -306.9202
   6   2.0000     -11.270143      -306.6762
   7   2.0000     -11.235035      -305.7209
   8   2.0000     -11.221379      -305.3492
   9   2.0000      -1.438131       -39.1335
  10   2.0000      -1.363123       -37.0925
  11   2.0000      -1.215287       -33.0697
  12   2.0000      -1.085828       -29.5469
  13   2.0000      -1.011015       -27.5111
  14   2.0000      -0.935044       -25.4438
  15   2.0000      -0.864141       -23.5145
  16   2.0000      -0.805929       -21.9305
  17   2.0000      -0.791308       -21.5326
  18   2.0000      -0.716413       -19.4946
  19   2.0000      -0.694316       -18.8933
  20   2.0000      -0.673894       -18.3376
  21   2.0000      -0.637609       -17.3502
  22   2.0000      -0.609204       -16.5773
  23   2.0000      -0.598173       -16.2771
  24   2.0000      -0.580182       -15.7876
  25   2.0000      -0.574111       -15.6223
  26   2.0000      -0.545650       -14.8479
  27   2.0000      -0.534351       -14.5404
  28   2.0000      -0.526567       -14.3286
  29   2.0000      -0.501579       -13.6487
  30   2.0000      -0.493836       -13.4380
  31   2.0000      -0.486560       -13.2400
  32   2.0000      -0.453819       -12.3490
  33   2.0000      -0.425027       -11.5656
  34   2.0000      -0.382825       -10.4172
  35   0.0000       0.127681         3.4744
  36   0.0000       0.137518         3.7421
  37   0.0000       0.158629         4.3165
  38   0.0000       0.169645         4.6163
  39   0.0000       0.180946         4.9238

MULLIKEN ATOMIC CHARGES
-----------------------
   0 C :   -0.413362
   1 C :    0.081227
   2 N :   -0.282647
   3 C :    0.091609
   4 O :   -0.277575
   5 C :   -0.016395
   6 C :   -0.224914
   7 C :   -0.030504
   8 O :   -0.468833
   9 H :    0.127565
  10 H :    0.151518
  11 H :    0.126389
  12 H :    0.106841
  13 H :    0.145408
  14 H :    0.109602
  15 H :    0.103152
  16 H :    0.123258
  17 H :    0.108382
  18 H :    0.124978
  19 H :    0.314301
Sum of atomic charges:   -0.0000000

LOEWDIN ATOMIC CHARGES
----------------------
   0 C :   -0.292276
   1 C :   -0.277303
   2 N :    0.081706
   3 C :   -0.354791
   4 O :    0.225353
   5 C :   -0.238603
   6 C :   -0.264860
   7 C :   -0.345797
   8 O :   -0.050460
   9 H :    0.124097
  10 H :    0.131284
  11 H :    0.123686
  12 H :    0.147990
  13 H :    0.133864
  14 H :    0.145026
  15 H :    0.140343
  16 H :    0.147954
  17 H :    0.129139
  18 H :    0.120293
  19 H :    0.173357

  Mayer bond orders larger than 0.1
B(  0-C ,  1-C ) :   0.9095 B(  0-C ,  9-H ) :   0.9383 B(  0-C , 10-H ) :   0.9325
B(  0-C , 11-H ) :   0.9336 B(  1-C ,  2-N ) :   0.8952 B(  1-C ,  5-C ) :   0.9101
B(  1-C , 12-H ) :   0.9199 B(  2-N ,  3-C ) :   1.8299 B(  3-C ,  4-O ) :   1.0721
B(  3-C , 13-H ) :   0.9216 B(  4-O ,  5-C ) :   0.8296 B(  5-C ,  6-C ) :   0.9059
B(  5-C , 14-H ) :   0.9299 B(  6-C ,  7-C ) :   0.9265 B(  6-C , 15-H ) :   0.9167
B(  6-C , 16-H ) :   0.9231 B(  7-C ,  8-O ) :   0.9253 B(  7-C , 17-H ) :   0.9215
B(  7-C , 18-H ) :   0.9431 B(  8-O , 19-H ) :   0.8483

MP2 TOTAL ENERGY:     -439.580026203 Eh
FINAL SINGLE POINT ENERGY      -439.580026203083

DIPOLE MOMENT
-------------
                                X             Y             Z
Electronic contribution:      1.35490      -5.05582      -1.91603
Nuclear contribution   :     -1.22254       5.23998       1.92606
                        -----------------------------------------
Total Dipole Moment    :      0.13236       0.18417       0.01003
                        -----------------------------------------
Magnitude (a.u.)       :      0.22702
Magnitude (Debye)      :      0.57703

                             ****ORCA TERMINATED NORMALLY****
TOTAL RUN TIME: 0 days 0 hours 16 minutes 8 seconds 373 msec
