                         Program Version 3.0.3 - RELEASE   -
|  1> ! RI-MP2 RIJK def2-TZVP def2-TZVP/C def2-TZVP/JK TIGHTSCF
|  2> % maxcore 2000
|  3> % mp2 density relaxed end
|  4> *xyz 0 1
|  5>  C        0.1152449500     1.5583917060    -0.2096604887
|  6>  C        0.0980594545     0.0369825578    -0.0531677444
|  7>  C        0.7138458677    -0.7153139510    -1.2473367544
|  8>  C        0.7166036238    -2.2288647583    -1.0293236831
|  9>  O       -0.6417517843    -2.6596704886    -1.0169800975
| 10>  N        0.0210903341    -0.4278304475    -2.4984507795
| 11>  C        0.5581422475     0.3077966174    -3.5044930290
| 12>  O        1.6345415103     0.8688955221    -3.4707900247
| 13>  H        1.1337767322     1.9341189342    -0.3503373613
| 14>  H       -0.4728278069     1.8728155243    -1.0766110803
| 15>  H       -0.3067601170     2.0442213377     0.6753493749
| 16>  H        0.6598920533    -0.2494441462     0.8451322728
| 17>  H       -0.9269326955    -0.3197485727     0.0983119152
| 18>  H        1.7457054534    -0.3810053412    -1.3921689553
| 19>  H        1.2750941225    -2.7135179318    -1.8429030340
| 20>  H        1.2184317877    -2.4645281562    -0.0790702682
| 21>  H       -0.6590331103    -3.6195796258    -0.9740738708
| 22>  H       -0.8530183629    -0.9078875939    -2.6496738398
| 23>  H       -0.1136519100     0.3477001236    -4.3856513219
| 24> *
| 25>
| 26>                          ****END OF INPUT****

CARTESIAN COORDINATES (ANGSTROEM)
---------------------------------
  C      0.115245    1.558392   -0.209660
  C      0.098059    0.036983   -0.053168
  C      0.713846   -0.715314   -1.247337
  C      0.716604   -2.228865   -1.029324
  O     -0.641752   -2.659670   -1.016980
  N      0.021090   -0.427830   -2.498451
  C      0.558142    0.307797   -3.504493
  O      1.634542    0.868896   -3.470790
  H      1.133777    1.934119   -0.350337
  H     -0.472828    1.872816   -1.076611
  H     -0.306760    2.044221    0.675349
  H      0.659892   -0.249444    0.845132
  H     -0.926933   -0.319749    0.098312
  H      1.745705   -0.381005   -1.392169
  H      1.275094   -2.713518   -1.842903
  H      1.218432   -2.464528   -0.079070
  H     -0.659033   -3.619580   -0.974074
  H     -0.853018   -0.907888   -2.649674
  H     -0.113652    0.347700   -4.385651

 Total Charge           Charge          ....    0
 Multiplicity           Mult            ....    1
 Number of Electrons    NEL             ....   64
 Basis Dimension        Dim             ....  314

ORBITAL ENERGIES
----------------

  NO   OCC          E(Eh)            E(eV)
   0   2.0000     -20.572855      -559.8158
   1   2.0000     -20.515587      -558.2575
   2   2.0000     -15.579717      -423.9456
   3   2.0000     -11.343099      -308.6614
   4   2.0000     -11.288193      -307.1673
   5   2.0000     -11.268009      -306.6181
   6   2.0000     -11.221144      -305.3428
   7   2.0000     -11.207915      -304.9829
   8   2.0000      -1.379817       -37.5467
   9   2.0000      -1.373786       -37.3826
  10   2.0000      -1.232065       -33.5262
  11   2.0000      -1.060721       -28.8637
  12   2.0000      -0.983883       -26.7728
  13   2.0000      -0.874891       -23.8070
  14   2.0000      -0.835310       -22.7299
  15   2.0000      -0.791677       -21.5426
  16   2.0000      -0.722393       -19.6573
  17   2.0000      -0.705156       -19.1883
  18   2.0000      -0.656531       -17.8651
  19   2.0000      -0.641592       -17.4586
  20   2.0000      -0.614992       -16.7348
  21   2.0000      -0.600942       -16.3525
  22   2.0000      -0.580622       -15.7995
  23   2.0000      -0.549833       -14.9617
  24   2.0000      -0.540413       -14.7054
  25   2.0000      -0.536092       -14.5878
  26   2.0000      -0.491590       -13.3768
  27   2.0000      -0.484970       -13.1967
  28   2.0000      -0.480928       -13.0867
  29   2.0000      -0.457214       -12.4414
  30   2.0000      -0.424557       -11.5528
  31   2.0000      -0.387066       -10.5326
  32   0.0000       0.123154         3.3512
  33   0.0000       0.151945         4.1346
  34   0.0000       0.152898         4.1606
  35   0.0000       0.172144         4.6843
  36   0.0000       0.179114         4.8739

MULLIKEN ATOMIC CHARGES
-----------------------
   0 C :   -0.379013
   1 C :   -0.227611
   2 C :    0.066174
   3 C :   -0.081652
   4 O :   -0.489911
   5 N :   -0.340141
   6 C :    0.188903
   7 O :   -0.373483
   8 H :    0.132043
   9 H :    0.127152
  10 H :    0.133494
  11 H :    0.102884
  12 H :    0.123215
  13 H :    0.141469
  14 H :    0.119189
  15 H :    0.106796
  16 H :    0.321678
  17 H :    0.250532
  18 H :    0.078280
Sum of atomic charges:   -0.0000000

LOEWDIN ATOMIC CHARGES
----------------------
   0 C :   -0.315824
   1 C :   -0.272848
   2 C :   -0.283505
   3 C :   -0.324570
   4 O :   -0.053572
   5 N :    0.116390
   6 C :   -0.444188
   7 O :    0.047340
   8 H :    0.125285
   9 H :    0.122909
  10 H :    0.120951
  11 H :    0.139382
  12 H :    0.140262
  13 H :    0.164563
  14 H :    0.121439
  15 H :    0.121859
  16 H :    0.175556
  17 H :    0.189749
  18 H :    0.108821

  Mayer bond orders larger than 0.1
B(  0-C ,  1-C ) :   0.9336 B(  0-C ,  8-H ) :   0.9344 B(  0-C ,  9-H ) :   0.9374
B(  0-C , 10-H ) :   0.9395 B(  1-C ,  2-C ) :   0.9255 B(  1-C , 11-H ) :   0.9332
B(  1-C , 12-H ) :   0.9281 B(  2-C ,  3-C ) :   0.9093 B(  2-C ,  5-N ) :   0.8082
B(  2-C , 13-H ) :   0.9208 B(  3-C ,  4-O ) :   0.9833 B(  3-C , 14-H ) :   0.9282
B(  3-C , 15-H ) :   0.9295 B(  4-O , 16-H ) :   0.8454 B(  5-N ,  6-C ) :   1.1745
B(  5-N , 17-H ) :   0.8594 B(  6-C ,  7-O ) :   1.8777 B(  6-C , 18-H ) :   0.9287

MP2 TOTAL ENERGY:     -401.583390767 Eh
FINAL SINGLE POINT ENERGY      -401.583390766954

DIPOLE MOMENT
-------------
                                X             Y             Z
Electronic contribution:      0.78695      -1.70515      -5.76297
Nuclear contribution   :     -1.45995       0.35438       6.32496
                        -----------------------------------------
Total Dipole Moment    :     -0.67300      -1.35077       0.56199
                        -----------------------------------------
Magnitude (a.u.)       :      1.61039
Magnitude (Debye)      :      4.09329

                             ****ORCA TERMINATED NORMALLY****
TOTAL RUN TIME: 0 days 0 hours 12 minutes 34 seconds 253 msec
