                         Program Version 3.0.3 - RELEASE   -
|  1> ! RI-MP2 RIJK def2-TZVP def2-TZVP/C def2-TZVP/JK TIGHTSCF
|  2> % maxcore 2000
|  3> % mp2 density relaxed end
|  4> *xyz 0 1
|  5>  O        0.0573934215     0.0630097131    -0.5941932838
|  6>  C        0.0149214117     1.1916282910    -0.1723884046
|  7>  C       -1.2542088259     1.9765132007     0.1759522830
|  8>  C       -0.7864817934     3.2635607156     0.8881956261
|  9>  C       -0.6469455663     3.0347457432     2.4075462167
| 10>  C        0.6375923039     2.1861454585     2.5031759857
| 11>  N        1.4947212450     2.6320566756     1.3728737962
| 12>  C        0.6903717512     3.4364664504     0.4596900087
| 13>  C        1.1985146744     2.1031904004     0.0158905908
| 14>  H       -1.7380305716     2.2166966278    -0.7788012688
| 15>  H       -1.9585082893     1.3651940235     0.7476949577
| 16>  H       -1.4115242468     4.1234792284     0.6437098284
| 17>  H       -0.4990672903     3.9918379650     2.9186041129
| 18>  H       -1.5207403086     2.5496679750     2.8519629429
| 19>  H        1.1853940946     2.3634640264     3.4322854667
| 20>  H        0.4355151063     1.1112436260     2.4447169986
| 21>  H        1.0890274768     4.3834628720     0.1101103469
| 22>  H        2.0730897069     1.9371204875    -0.6052145041
| 23> *
| 24>
| 25>                          ****END OF INPUT****

CARTESIAN COORDINATES (ANGSTROEM)
---------------------------------
  O      0.057393    0.063010   -0.594193
  C      0.014921    1.191628   -0.172388
  C     -1.254209    1.976513    0.175952
  C     -0.786482    3.263561    0.888196
  C     -0.646946    3.034746    2.407546
  C      0.637592    2.186145    2.503176
  N      1.494721    2.632057    1.372874
  C      0.690372    3.436466    0.459690
  C      1.198515    2.103190    0.015891
  H     -1.738031    2.216697   -0.778801
  H     -1.958508    1.365194    0.747695
  H     -1.411524    4.123479    0.643710
  H     -0.499067    3.991838    2.918604
  H     -1.520740    2.549668    2.851963
  H      1.185394    2.363464    3.432285
  H      0.435515    1.111244    2.444717
  H      1.089027    4.383463    0.110110
  H      2.073090    1.937120   -0.605215

 Total Charge           Charge          ....    0
 Multiplicity           Mult            ....    1
 Number of Electrons    NEL             ....   66
 Basis Dimension        Dim             ....  333

ORBITAL ENERGIES
----------------

  NO   OCC          E(Eh)            E(eV)
   0   2.0000     -20.549543      -559.1815
   1   2.0000     -15.577398      -423.8826
   2   2.0000     -11.333970      -308.4130
   3   2.0000     -11.273632      -306.7711
   4   2.0000     -11.270957      -306.6983
   5   2.0000     -11.262293      -306.4626
   6   2.0000     -11.253316      -306.2183
   7   2.0000     -11.243867      -305.9612
   8   2.0000     -11.237703      -305.7934
   9   2.0000      -1.393314       -37.9140
  10   2.0000      -1.303137       -35.4601
  11   2.0000      -1.091036       -29.6886
  12   2.0000      -1.053686       -28.6723
  13   2.0000      -0.953316       -25.9410
  14   2.0000      -0.902113       -24.5478
  15   2.0000      -0.814666       -22.1682
  16   2.0000      -0.785046       -21.3622
  17   2.0000      -0.749623       -20.3983
  18   2.0000      -0.703360       -19.1394
  19   2.0000      -0.656715       -17.8701
  20   2.0000      -0.633058       -17.2264
  21   2.0000      -0.611370       -16.6362
  22   2.0000      -0.606348       -16.4996
  23   2.0000      -0.583907       -15.8889
  24   2.0000      -0.575487       -15.6598
  25   2.0000      -0.526881       -14.3372
  26   2.0000      -0.516643       -14.0586
  27   2.0000      -0.503516       -13.7014
  28   2.0000      -0.484183       -13.1753
  29   2.0000      -0.464592       -12.6422
  30   2.0000      -0.454821       -12.3763
  31   2.0000      -0.406319       -11.0565
  32   2.0000      -0.382431       -10.4065
  33   0.0000       0.122597         3.3360
  34   0.0000       0.133701         3.6382
  35   0.0000       0.158192         4.3046
  36   0.0000       0.164162         4.4671
  37   0.0000       0.176133         4.7928

MULLIKEN ATOMIC CHARGES
-----------------------
   0 O :   -0.262225
   1 C :    0.103560
   2 C :   -0.240894
   3 C :    0.015996
   4 C :   -0.288406
   5 C :   -0.152970
   6 N :   -0.201047
   7 C :   -0.056266
   8 C :   -0.125318
   9 H :    0.147640
  10 H :    0.134108
  11 H :    0.123349
  12 H :    0.125860
  13 H :    0.126824
  14 H :    0.132691
  15 H :    0.134120
  16 H :    0.144872
  17 H :    0.138106
Sum of atomic charges:   -0.0000000

LOEWDIN ATOMIC CHARGES
----------------------
   0 O :    0.156233
   1 C :   -0.315074
   2 C :   -0.194222
   3 C :   -0.213033
   4 C :   -0.234938
   5 C :   -0.258171
   6 N :    0.148705
   7 C :   -0.187978
   8 C :   -0.186552
   9 H :    0.159291
  10 H :    0.147067
  11 H :    0.149444
  12 H :    0.140475
  13 H :    0.137316
  14 H :    0.132936
  15 H :    0.133350
  16 H :    0.137957
  17 H :    0.147194

  Mayer bond orders larger than 0.1
B(  0-O ,  1-C ) :   2.0349 B(  1-C ,  2-C ) :   0.9236 B(  1-C ,  8-C ) :   0.9024
B(  2-C ,  3-C ) :   0.9029 B(  2-C ,  8-C ) :  -0.1087 B(  2-C ,  9-H ) :   0.9001
B(  2-C , 10-H ) :   0.9126 B(  3-C ,  4-C ) :   0.8875 B(  3-C ,  7-C ) :   0.8730
B(  3-C , 11-H ) :   0.9185 B(  4-C ,  5-C ) :   0.9396 B(  4-C , 12-H ) :   0.9229
B(  4-C , 13-H ) :   0.9248 B(  5-C ,  6-N ) :   0.8799 B(  5-C , 14-H ) :   0.9315
B(  5-C , 15-H ) :   0.9298 B(  6-N ,  7-C ) :   0.9185 B(  6-N ,  8-C ) :   0.8936
B(  7-C ,  8-C ) :   0.8719 B(  7-C , 16-H ) :   0.8957 B(  8-C , 17-H ) :   0.9305

MP2 TOTAL ENERGY:     -401.268767125 Eh
FINAL SINGLE POINT ENERGY      -401.268767124604

DIPOLE MOMENT
-------------
                                X             Y             Z
Electronic contribution:      2.75026      -3.04605      -3.97509
Nuclear contribution   :     -3.40963       4.11115       4.37091
                        -----------------------------------------
Total Dipole Moment    :     -0.65937       1.06511       0.39582
                        -----------------------------------------
Magnitude (a.u.)       :      1.31373
Magnitude (Debye)      :      3.33924

                             ****ORCA TERMINATED NORMALLY****
TOTAL RUN TIME: 0 days 0 hours 19 minutes 6 seconds 577 msec
