                         Program Version 3.0.3 - RELEASE   -
|  1> ! RI-MP2 RIJK def2-TZVP def2-TZVP/C def2-TZVP/JK TIGHTSCF
|  2> % maxcore 2000
|  3> % mp2 density relaxed end
|  4> *xyz 0 1
|  5>  N        0.0973093579     1.2708257282     0.3034673296
|  6>  C        0.0776029751    -0.1050790588    -0.1015599228
|  7>  C       -1.3403766335    -0.7929687040    -0.2824575411
|  8>  N       -0.8422716189    -1.3129337864    -1.5634037693
|  9>  C        0.2853345044    -0.4905652981    -1.5779660573
| 10>  N        1.1338687659    -0.0976489292    -2.4243311127
| 11>  C       -1.7458368166    -1.8027882774     0.6904640427
| 12>  N       -2.0612264731    -2.5948252424     1.4708662804
| 13>  H        0.9890338259     1.5100980369     0.7195065559
| 14>  H       -0.0299704575     1.8842861764    -0.4950821894
| 15>  H        0.6997315993    -0.7051576997     0.5651955137
| 16>  H       -2.1245832037    -0.0332989720    -0.3732186731
| 17>  H       -1.4173684984    -1.5724309103    -2.3525754468
| 18>  H        0.9641163330    -0.4778533232    -3.3567892099
| 19> *
| 20>
| 21>                          ****END OF INPUT****

CARTESIAN COORDINATES (ANGSTROEM)
---------------------------------
  N      0.097309    1.270826    0.303467
  C      0.077603   -0.105079   -0.101560
  C     -1.340377   -0.792969   -0.282458
  N     -0.842272   -1.312934   -1.563404
  C      0.285335   -0.490565   -1.577966
  N      1.133869   -0.097649   -2.424331
  C     -1.745837   -1.802788    0.690464
  N     -2.061226   -2.594825    1.470866
  H      0.989034    1.510098    0.719507
  H     -0.029970    1.884286   -0.495082
  H      0.699732   -0.705158    0.565196
  H     -2.124583   -0.033299   -0.373219
  H     -1.417368   -1.572431   -2.352575
  H      0.964116   -0.477853   -3.356789

 Total Charge           Charge          ....    0
 Multiplicity           Mult            ....    1
 Number of Electrons    NEL             ....   58
 Basis Dimension        Dim             ....  284

ORBITAL ENERGIES
----------------

  NO   OCC          E(Eh)            E(eV)
   0   2.0000     -15.608373      -424.7254
   1   2.0000     -15.581541      -423.9953
   2   2.0000     -15.572175      -423.7404
   3   2.0000     -15.549711      -423.1292
   4   2.0000     -11.336087      -308.4706
   5   2.0000     -11.331946      -308.3579
   6   2.0000     -11.307079      -307.6813
   7   2.0000     -11.280456      -306.9568
   8   2.0000      -1.327954       -36.1355
   9   2.0000      -1.226839       -33.3840
  10   2.0000      -1.208127       -32.8748
  11   2.0000      -1.191696       -32.4277
  12   2.0000      -1.011908       -27.5354
  13   2.0000      -0.946680       -25.7605
  14   2.0000      -0.793451       -21.5909
  15   2.0000      -0.748187       -20.3592
  16   2.0000      -0.734895       -19.9975
  17   2.0000      -0.684615       -18.6293
  18   2.0000      -0.673487       -18.3265
  19   2.0000      -0.609327       -16.5806
  20   2.0000      -0.592394       -16.1199
  21   2.0000      -0.566489       -15.4150
  22   2.0000      -0.550879       -14.9902
  23   2.0000      -0.524309       -14.2672
  24   2.0000      -0.477045       -12.9811
  25   2.0000      -0.473598       -12.8873
  26   2.0000      -0.451381       -12.2827
  27   2.0000      -0.414514       -11.2795
  28   2.0000      -0.393163       -10.6985
  29   0.0000       0.110982         3.0200
  30   0.0000       0.120776         3.2865
  31   0.0000       0.148607         4.0438
  32   0.0000       0.154480         4.2036
  33   0.0000       0.159821         4.3489

MULLIKEN ATOMIC CHARGES
-----------------------
   0 N :   -0.543608
   1 C :    0.086140
   2 C :    0.193325
   3 N :   -0.342404
   4 C :   -0.011723
   5 N :   -0.353370
   6 C :   -0.212318
   7 N :   -0.052892
   8 H :    0.251293
   9 H :    0.244410
  10 H :    0.141390
  11 H :    0.140900
  12 H :    0.240829
  13 H :    0.218028
Sum of atomic charges:   -0.0000000

LOEWDIN ATOMIC CHARGES
----------------------
   0 N :   -0.125314
   1 C :   -0.232839
   2 C :   -0.220418
   3 N :    0.117786
   4 C :   -0.368317
   5 N :   -0.067712
   6 C :   -0.170672
   7 N :    0.073018
   8 H :    0.166626
   9 H :    0.164970
  10 H :    0.160376
  11 H :    0.162461
  12 H :    0.173907
  13 H :    0.166128

  Mayer bond orders larger than 0.1
B(  0-N ,  1-C ) :   1.0635 B(  0-N ,  8-H ) :   0.8874 B(  0-N ,  9-H ) :   0.8844
B(  1-C ,  2-C ) :   0.8413 B(  1-C ,  4-C ) :   0.8709 B(  1-C , 10-H ) :   0.9054
B(  2-C ,  3-N ) :   0.9445 B(  2-C ,  6-C ) :   0.9152 B(  2-C , 11-H ) :   0.9116
B(  3-N ,  4-C ) :   1.0976 B(  3-N , 12-H ) :   0.8650 B(  4-C ,  5-N ) :   2.1269
B(  5-N , 13-H ) :   0.8510 B(  6-C ,  7-N ) :   2.8492

MP2 TOTAL ENERGY:     -374.260531744 Eh
FINAL SINGLE POINT ENERGY      -374.260531744321

DIPOLE MOMENT
-------------
                                X             Y             Z
Electronic contribution:     -2.14590      -3.69425       1.13586
Nuclear contribution   :      2.05674       4.45454      -2.32939
                        -----------------------------------------
Total Dipole Moment    :     -0.08916       0.76029      -1.19353
                        -----------------------------------------
Magnitude (a.u.)       :      1.41792
Magnitude (Debye)      :      3.60408

                             ****ORCA TERMINATED NORMALLY****
TOTAL RUN TIME: 0 days 0 hours 10 minutes 0 seconds 908 msec
