                         Program Version 3.0.3 - RELEASE   -
|  1> ! RI-MP2 RIJK def2-TZVP def2-TZVP/C def2-TZVP/JK TIGHTSCF
|  2> % maxcore 2000
|  3> % mp2 density relaxed end
|  4> *xyz 0 1
|  5>  C        0.1044052108     1.5136149838     0.1921851431
|  6>  C       -0.0366407599     0.0192625401    -0.1292552900
|  7>  C       -1.4599898955    -0.4530854841    -0.0339380178
|  8>  C       -2.0659357656    -1.0034010820     1.1999308329
|  9>  N       -1.8582642570    -1.9180656916     0.0608760452
| 10>  C       -2.9953179841    -1.6210995016    -0.8775418850
| 11>  C       -2.5318377309    -0.1502131972    -1.1025845746
| 12>  C       -3.4898325930     0.9841265618    -0.8513825554
| 13>  O       -3.6938903318     1.8873030520    -1.6232265118
| 14>  H        1.1456218606     1.8356540420     0.1012452378
| 15>  H       -0.4935556046     2.1254628666    -0.4916117692
| 16>  H       -0.2288435760     1.7312525281     1.2121547631
| 17>  H        0.3428471742    -0.1817472243    -1.1390540654
| 18>  H        0.5749545405    -0.5777898460     0.5570104805
| 19>  H       -1.3912456611    -1.1995657339     2.0277460327
| 20>  H       -3.0820029182    -0.7586833195     1.5007595221
| 21>  H       -2.9241810178    -2.2321642023    -1.7780196912
| 22>  H       -3.9838001466    -1.7619188197    -0.4260464553
| 23>  H       -2.0871906841    -0.0085313061    -2.0898057279
| 24>  H       -4.0191451298     0.9440445439     0.1284258662
| 25> *
| 26>
| 27>                          ****END OF INPUT****

CARTESIAN COORDINATES (ANGSTROEM)
---------------------------------
  C      0.104405    1.513615    0.192185
  C     -0.036641    0.019263   -0.129255
  C     -1.459990   -0.453085   -0.033938
  C     -2.065936   -1.003401    1.199931
  N     -1.858264   -1.918066    0.060876
  C     -2.995318   -1.621100   -0.877542
  C     -2.531838   -0.150213   -1.102585
  C     -3.489833    0.984127   -0.851383
  O     -3.693890    1.887303   -1.623227
  H      1.145622    1.835654    0.101245
  H     -0.493556    2.125463   -0.491612
  H     -0.228844    1.731253    1.212155
  H      0.342847   -0.181747   -1.139054
  H      0.574955   -0.577790    0.557010
  H     -1.391246   -1.199566    2.027746
  H     -3.082003   -0.758683    1.500760
  H     -2.924181   -2.232164   -1.778020
  H     -3.983800   -1.761919   -0.426046
  H     -2.087191   -0.008531   -2.089806
  H     -4.019145    0.944045    0.128426

 Total Charge           Charge          ....    0
 Multiplicity           Mult            ....    1
 Number of Electrons    NEL             ....   68
 Basis Dimension        Dim             ....  345

ORBITAL ENERGIES
----------------

  NO   OCC          E(Eh)            E(eV)
   0   2.0000     -20.562813      -559.5426
   1   2.0000     -15.571459      -423.7209
   2   2.0000     -11.336012      -308.4686
   3   2.0000     -11.284275      -307.0607
   4   2.0000     -11.275136      -306.8120
   5   2.0000     -11.268132      -306.6214
   6   2.0000     -11.254039      -306.2380
   7   2.0000     -11.236732      -305.7670
   8   2.0000     -11.225179      -305.4526
   9   2.0000      -1.400486       -38.1092
  10   2.0000      -1.305966       -35.5371
  11   2.0000      -1.058134       -28.7933
  12   2.0000      -1.044051       -28.4101
  13   2.0000      -0.955006       -25.9870
  14   2.0000      -0.889504       -24.2046
  15   2.0000      -0.830800       -22.6072
  16   2.0000      -0.814123       -22.1534
  17   2.0000      -0.747073       -20.3289
  18   2.0000      -0.690316       -18.7844
  19   2.0000      -0.664423       -18.0799
  20   2.0000      -0.648729       -17.6528
  21   2.0000      -0.638026       -17.3616
  22   2.0000      -0.609627       -16.5888
  23   2.0000      -0.576920       -15.6988
  24   2.0000      -0.562183       -15.2978
  25   2.0000      -0.553754       -15.0684
  26   2.0000      -0.545119       -14.8334
  27   2.0000      -0.528104       -14.3704
  28   2.0000      -0.506353       -13.7786
  29   2.0000      -0.473476       -12.8839
  30   2.0000      -0.461564       -12.5598
  31   2.0000      -0.436172       -11.8688
  32   2.0000      -0.427026       -11.6200
  33   2.0000      -0.378150       -10.2900
  34   0.0000       0.117385         3.1942
  35   0.0000       0.131480         3.5777
  36   0.0000       0.148045         4.0285
  37   0.0000       0.158776         4.3205
  38   0.0000       0.172819         4.7027

MULLIKEN ATOMIC CHARGES
-----------------------
   0 C :   -0.416275
   1 C :   -0.231806
   2 C :    0.058833
   3 C :   -0.172641
   4 N :   -0.223645
   5 C :   -0.166201
   6 C :   -0.008117
   7 C :    0.062090
   8 O :   -0.256718
   9 H :    0.140586
  10 H :    0.142067
  11 H :    0.128750
  12 H :    0.117144
  13 H :    0.125523
  14 H :    0.131980
  15 H :    0.122060
  16 H :    0.135630
  17 H :    0.126002
  18 H :    0.112470
  19 H :    0.072269
Sum of atomic charges:   -0.0000000

LOEWDIN ATOMIC CHARGES
----------------------
   0 C :   -0.306952
   1 C :   -0.250970
   2 C :   -0.234197
   3 C :   -0.228336
   4 N :    0.114947
   5 C :   -0.212831
   6 C :   -0.193566
   7 C :   -0.281148
   8 O :    0.135547
   9 H :    0.123670
  10 H :    0.126099
  11 H :    0.123013
  12 H :    0.143892
  13 H :    0.147651
  14 H :    0.137161
  15 H :    0.124174
  16 H :    0.132687
  17 H :    0.125715
  18 H :    0.162144
  19 H :    0.111301

  Mayer bond orders larger than 0.1
B(  0-C ,  1-C ) :   0.9124 B(  0-C ,  9-H ) :   0.9359 B(  0-C , 10-H ) :   0.9363
B(  0-C , 11-H ) :   0.9363 B(  1-C ,  2-C ) :   0.9100 B(  1-C , 12-H ) :   0.9298
B(  1-C , 13-H ) :   0.9299 B(  2-C ,  3-C ) :   0.9564 B(  2-C ,  4-N ) :   0.8668
B(  2-C ,  6-C ) :   0.8118 B(  3-C ,  4-N ) :   0.9108 B(  3-C , 14-H ) :   0.9207
B(  3-C , 15-H ) :   0.9033 B(  4-N ,  5-C ) :   0.9281 B(  5-C ,  6-C ) :   0.9381
B(  5-C , 16-H ) :   0.9181 B(  5-C , 17-H ) :   0.9314 B(  6-C ,  7-C ) :   0.8746
B(  6-C , 18-H ) :   0.9141 B(  7-C ,  8-O ) :   1.9880 B(  7-C , 19-H ) :   0.9437

MP2 TOTAL ENERGY:     -402.419321498 Eh
FINAL SINGLE POINT ENERGY      -402.419321497963

DIPOLE MOMENT
-------------
                                X             Y             Z
Electronic contribution:     -5.37366      -0.63370      -2.78042
Nuclear contribution   :      5.54165       0.37584       3.30179
                        -----------------------------------------
Total Dipole Moment    :      0.16800      -0.25786       0.52137
                        -----------------------------------------
Magnitude (a.u.)       :      0.60543
Magnitude (Debye)      :      1.53887

                             ****ORCA TERMINATED NORMALLY****
TOTAL RUN TIME: 0 days 0 hours 18 minutes 14 seconds 81 msec
