                         Program Version 3.0.3 - RELEASE   -
|  1> ! RI-MP2 RIJK def2-TZVP def2-TZVP/C def2-TZVP/JK TIGHTSCF
|  2> % maxcore 2000
|  3> % mp2 density relaxed end
|  4> *xyz 0 1
|  5>  C        0.0339411924     1.1291190249    -0.5760185473
|  6>  O        1.2943998639     1.5611705827    -0.0246700240
|  7>  C        1.3758314086     0.4009250498     0.8296124767
|  8>  C        0.1392449571    -0.2253463195     0.1696956824
|  9>  O       -0.8721540603    -0.5487275686     1.0889686875
| 10>  C       -2.0331471044    -1.0718795683     0.4965385102
| 11>  C       -2.0390394288    -2.5748370684     0.1185980052
| 12>  O       -3.1582449047    -2.8182476752     0.9946917101
| 13>  C       -3.1030728715    -1.4755812959     1.5208118136
| 14>  H       -0.8057167487     1.7477767335    -0.2318540816
| 15>  H        0.0520707713     1.1066256433    -1.6714982005
| 16>  H        2.3272265915    -0.1297910172     0.7175766272
| 17>  H        1.2080585690     0.6442083716     1.8861526235
| 18>  H        0.3591369891    -1.0760894246    -0.4883468138
| 19>  H       -2.3972853739    -0.4137706631    -0.3031065154
| 20>  H       -2.2684523720    -2.8345020660    -0.9210433016
| 21>  H       -1.1333325247    -3.1052896723     0.4419044641
| 22>  H       -2.7287490526    -1.4430297439     2.5515560702
| 23>  H       -4.0714255111    -0.9675101129     1.4614721735
| 24> *
| 25>
| 26>                          ****END OF INPUT****

CARTESIAN COORDINATES (ANGSTROEM)
---------------------------------
  C      0.033941    1.129119   -0.576019
  O      1.294400    1.561171   -0.024670
  C      1.375831    0.400925    0.829612
  C      0.139245   -0.225346    0.169696
  O     -0.872154   -0.548728    1.088969
  C     -2.033147   -1.071880    0.496539
  C     -2.039039   -2.574837    0.118598
  O     -3.158245   -2.818248    0.994692
  C     -3.103073   -1.475581    1.520812
  H     -0.805717    1.747777   -0.231854
  H      0.052071    1.106626   -1.671498
  H      2.327227   -0.129791    0.717577
  H      1.208059    0.644208    1.886153
  H      0.359137   -1.076089   -0.488347
  H     -2.397285   -0.413771   -0.303107
  H     -2.268452   -2.834502   -0.921043
  H     -1.133333   -3.105290    0.441904
  H     -2.728749   -1.443030    2.551556
  H     -4.071426   -0.967510    1.461472

 Total Charge           Charge          ....    0
 Multiplicity           Mult            ....    1
 Number of Electrons    NEL             ....   70
 Basis Dimension        Dim             ....  339

ORBITAL ENERGIES
----------------

  NO   OCC          E(Eh)            E(eV)
   0   2.0000     -20.579062      -559.9847
   1   2.0000     -20.555855      -559.3532
   2   2.0000     -20.555854      -559.3532
   3   2.0000     -11.298539      -307.4489
   4   2.0000     -11.298520      -307.4484
   5   2.0000     -11.286076      -307.1097
   6   2.0000     -11.286076      -307.1097
   7   2.0000     -11.283830      -307.0486
   8   2.0000     -11.283830      -307.0486
   9   2.0000      -1.415984       -38.5309
  10   2.0000      -1.386350       -37.7245
  11   2.0000      -1.371362       -37.3167
  12   2.0000      -1.038326       -28.2543
  13   2.0000      -0.972866       -26.4730
  14   2.0000      -0.945151       -25.7189
  15   2.0000      -0.944894       -25.7119
  16   2.0000      -0.798646       -21.7323
  17   2.0000      -0.777318       -21.1519
  18   2.0000      -0.730915       -19.8892
  19   2.0000      -0.701473       -19.0881
  20   2.0000      -0.694573       -18.9003
  21   2.0000      -0.662718       -18.0335
  22   2.0000      -0.620918       -16.8960
  23   2.0000      -0.608818       -16.5668
  24   2.0000      -0.603782       -16.4297
  25   2.0000      -0.571661       -15.5557
  26   2.0000      -0.570646       -15.5281
  27   2.0000      -0.552611       -15.0373
  28   2.0000      -0.550158       -14.9706
  29   2.0000      -0.488489       -13.2925
  30   2.0000      -0.465187       -12.6584
  31   2.0000      -0.465033       -12.6542
  32   2.0000      -0.430451       -11.7132
  33   2.0000      -0.426022       -11.5926
  34   2.0000      -0.416002       -11.3200
  35   0.0000       0.130254         3.5444
  36   0.0000       0.148282         4.0350
  37   0.0000       0.162369         4.4183
  38   0.0000       0.163549         4.4504
  39   0.0000       0.176947         4.8150

MULLIKEN ATOMIC CHARGES
-----------------------
   0 C :   -0.028201
   1 O :   -0.326074
   2 C :    0.005659
   3 C :   -0.007547
   4 O :   -0.294854
   5 C :   -0.007547
   6 C :   -0.028201
   7 O :   -0.326074
   8 C :    0.005659
   9 H :    0.096657
  10 H :    0.104071
  11 H :    0.103982
  12 H :    0.104488
  13 H :    0.094394
  14 H :    0.094394
  15 H :    0.104071
  16 H :    0.096657
  17 H :    0.104488
  18 H :    0.103982
Sum of atomic charges:   -0.0000000

LOEWDIN ATOMIC CHARGES
----------------------
   0 C :   -0.262605
   1 O :    0.110588
   2 C :   -0.249097
   3 C :   -0.316561
   4 O :    0.208360
   5 C :   -0.316561
   6 C :   -0.262605
   7 O :    0.110588
   8 C :   -0.249097
   9 H :    0.121180
  10 H :    0.116505
  11 H :    0.118601
  12 H :    0.125058
  13 H :    0.132152
  14 H :    0.132152
  15 H :    0.116505
  16 H :    0.121180
  17 H :    0.125058
  18 H :    0.118601

  Mayer bond orders larger than 0.1
B(  0-C ,  1-O ) :   0.9586 B(  0-C ,  3-C ) :   0.9625 B(  0-C ,  9-H ) :   0.8983
B(  0-C , 10-H ) :   0.9109 B(  1-O ,  2-C ) :   0.9511 B(  2-C ,  3-C ) :   0.9748
B(  2-C , 11-H ) :   0.9165 B(  2-C , 12-H ) :   0.9044 B(  3-C ,  4-O ) :   0.9587
B(  3-C , 13-H ) :   0.9270 B(  4-O ,  5-C ) :   0.9587 B(  5-C ,  6-C ) :   0.9625
B(  5-C ,  8-C ) :   0.9748 B(  5-C , 14-H ) :   0.9270 B(  6-C ,  7-O ) :   0.9586
B(  6-C , 15-H ) :   0.9109 B(  6-C , 16-H ) :   0.8983 B(  7-O ,  8-C ) :   0.9511
B(  8-C , 17-H ) :   0.9044 B(  8-C , 18-H ) :   0.9165

MP2 TOTAL ENERGY:     -459.354889093 Eh
FINAL SINGLE POINT ENERGY      -459.354889093423

DIPOLE MOMENT
-------------
                                X             Y             Z
Electronic contribution:      0.11308       0.15101       1.14274
Nuclear contribution   :     -0.15865      -0.21188      -1.60328
                        -----------------------------------------
Total Dipole Moment    :     -0.04557      -0.06086      -0.46054
                        -----------------------------------------
Magnitude (a.u.)       :      0.46677
Magnitude (Debye)      :      1.18644

                             ****ORCA TERMINATED NORMALLY****
TOTAL RUN TIME: 0 days 0 hours 13 minutes 47 seconds 840 msec
