                         Program Version 3.0.3 - RELEASE   -
|  1> ! RI-MP2 RIJK def2-TZVP def2-TZVP/C def2-TZVP/JK TIGHTSCF
|  2> % maxcore 2000
|  3> % mp2 density relaxed end
|  4> *xyz 0 1
|  5>  C        0.3184109119     1.5711951756    -0.1354213336
|  6>  C        0.0619876994     0.0798807910     0.0370830089
|  7>  C        0.7476340372    -0.9240871906    -0.9399755398
|  8>  C        1.3219075086    -1.7286012428     0.2551364694
|  9>  C        2.7534768489    -1.3020789935     0.6742552800
| 10>  C        2.1256054712    -0.2198945739     1.5725450857
| 11>  O        2.5763631764     0.6287533054     2.2889464884
| 12>  C        0.6906197004    -0.6778627387     1.2612417164
| 13>  C       -0.1983882986    -0.9807595758     2.4493057735
| 14>  H        1.3886606071     1.7981349172    -0.1722586035
| 15>  H       -0.1328119323     1.9335917392    -1.0657275671
| 16>  H       -0.1103032096     2.1476764535     0.6911317710
| 17>  H       -1.0189226285    -0.0985072974     0.0559782641
| 18>  H        0.0492442743    -1.4788466915    -1.5704456808
| 19>  H        1.5102910187    -0.4824645662    -1.5898144790
| 20>  H        1.0926676642    -2.7926289610     0.3052465190
| 21>  H        3.2735937336    -2.0508651591     1.2827736538
| 22>  H        3.4387764598    -0.9601357401    -0.1073533871
| 23>  H       -0.4327407275    -0.0593472260     2.9939648379
| 24>  H       -1.1420830945    -1.4360871053     2.1300242152
| 25>  H        0.2858387793    -1.6646102999     3.1548892775
| 26> *
| 27>
| 28>                          ****END OF INPUT****

CARTESIAN COORDINATES (ANGSTROEM)
---------------------------------
  C      0.318411    1.571195   -0.135421
  C      0.061988    0.079881    0.037083
  C      0.747634   -0.924087   -0.939976
  C      1.321908   -1.728601    0.255136
  C      2.753477   -1.302079    0.674255
  C      2.125605   -0.219895    1.572545
  O      2.576363    0.628753    2.288946
  C      0.690620   -0.677863    1.261242
  C     -0.198388   -0.980760    2.449306
  H      1.388661    1.798135   -0.172259
  H     -0.132812    1.933592   -1.065728
  H     -0.110303    2.147676    0.691132
  H     -1.018923   -0.098507    0.055978
  H      0.049244   -1.478847   -1.570446
  H      1.510291   -0.482465   -1.589814
  H      1.092668   -2.792629    0.305247
  H      3.273594   -2.050865    1.282774
  H      3.438776   -0.960136   -0.107353
  H     -0.432741   -0.059347    2.993965
  H     -1.142083   -1.436087    2.130024
  H      0.285839   -1.664610    3.154889

 Total Charge           Charge          ....    0
 Multiplicity           Mult            ....    1
 Number of Electrons    NEL             ....   68
 Basis Dimension        Dim             ....  351

ORBITAL ENERGIES
----------------

  NO   OCC          E(Eh)            E(eV)
   0   2.0000     -20.547366      -559.1223
   1   2.0000     -11.324162      -308.1461
   2   2.0000     -11.241924      -305.9083
   3   2.0000     -11.240229      -305.8622
   4   2.0000     -11.239137      -305.8325
   5   2.0000     -11.236714      -305.7665
   6   2.0000     -11.228541      -305.5441
   7   2.0000     -11.224902      -305.4451
   8   2.0000     -11.216646      -305.2204
   9   2.0000      -1.389377       -37.8069
  10   2.0000      -1.178113       -32.0581
  11   2.0000      -1.038444       -28.2575
  12   2.0000      -0.999672       -27.2025
  13   2.0000      -0.955693       -26.0057
  14   2.0000      -0.869833       -23.6694
  15   2.0000      -0.821786       -22.3619
  16   2.0000      -0.785143       -21.3648
  17   2.0000      -0.683827       -18.6079
  18   2.0000      -0.659352       -17.9419
  19   2.0000      -0.646450       -17.5908
  20   2.0000      -0.630475       -17.1561
  21   2.0000      -0.598858       -16.2958
  22   2.0000      -0.579215       -15.7612
  23   2.0000      -0.575303       -15.6548
  24   2.0000      -0.559650       -15.2289
  25   2.0000      -0.554840       -15.0980
  26   2.0000      -0.553721       -15.0675
  27   2.0000      -0.507353       -13.8058
  28   2.0000      -0.502421       -13.6716
  29   2.0000      -0.468732       -12.7548
  30   2.0000      -0.457234       -12.4420
  31   2.0000      -0.436619       -11.8810
  32   2.0000      -0.409308       -11.1378
  33   2.0000      -0.381974       -10.3940
  34   0.0000       0.124858         3.3976
  35   0.0000       0.135387         3.6841
  36   0.0000       0.154211         4.1963
  37   0.0000       0.155312         4.2263
  38   0.0000       0.165707         4.5091

MULLIKEN ATOMIC CHARGES
-----------------------
   0 C :   -0.411954
   1 C :   -0.106607
   2 C :   -0.244393
   3 C :   -0.137158
   4 C :   -0.224671
   5 C :   -0.009145
   6 O :   -0.251941
   7 C :    0.249057
   8 C :   -0.391409
   9 H :    0.131867
  10 H :    0.132866
  11 H :    0.136571
  12 H :    0.095229
  13 H :    0.120341
  14 H :    0.111935
  15 H :    0.117350
  16 H :    0.137822
  17 H :    0.132164
  18 H :    0.145936
  19 H :    0.132781
  20 H :    0.133360
Sum of atomic charges:   -0.0000000

LOEWDIN ATOMIC CHARGES
----------------------
   0 C :   -0.293555
   1 C :   -0.206292
   2 C :   -0.194774
   3 C :   -0.155923
   4 C :   -0.191750
   5 C :   -0.277866
   6 O :    0.163840
   7 C :   -0.185777
   8 C :   -0.269557
   9 H :    0.125860
  10 H :    0.125391
  11 H :    0.128376
  12 H :    0.152423
  13 H :    0.131041
  14 H :    0.132796
  15 H :    0.134045
  16 H :    0.150426
  17 H :    0.138612
  18 H :    0.135834
  19 H :    0.127344
  20 H :    0.129504

  Mayer bond orders larger than 0.1
B(  0-C ,  1-C ) :   0.9010 B(  0-C ,  9-H ) :   0.9335 B(  0-C , 10-H ) :   0.9367
B(  0-C , 11-H ) :   0.9379 B(  1-C ,  2-C ) :   0.9636 B(  1-C ,  7-C ) :   0.8811
B(  1-C , 12-H ) :   0.9211 B(  2-C ,  3-C ) :   0.9370 B(  2-C , 13-H ) :   0.9212
B(  2-C , 14-H ) :   0.9116 B(  3-C ,  4-C ) :   0.9278 B(  3-C ,  7-C ) :   0.8976
B(  3-C , 15-H ) :   0.9019 B(  4-C ,  5-C ) :   0.9317 B(  4-C ,  7-C ) :  -0.1326
B(  4-C , 16-H ) :   0.8954 B(  4-C , 17-H ) :   0.8979 B(  5-C ,  6-O ) :   2.0439
B(  5-C ,  7-C ) :   0.7462 B(  7-C ,  8-C ) :   0.8706 B(  8-C , 18-H ) :   0.9330
B(  8-C , 19-H ) :   0.9404 B(  8-C , 20-H ) :   0.9349

MP2 TOTAL ENERGY:     -386.410806191 Eh
FINAL SINGLE POINT ENERGY      -386.410806190856

DIPOLE MOMENT
-------------
                                X             Y             Z
Electronic contribution:      4.72696       0.00792       3.14224
Nuclear contribution   :     -5.28669      -0.69929      -3.76012
                        -----------------------------------------
Total Dipole Moment    :     -0.55973      -0.69137      -0.61788
                        -----------------------------------------
Magnitude (a.u.)       :      1.08308
Magnitude (Debye)      :      2.75298

                             ****ORCA TERMINATED NORMALLY****
TOTAL RUN TIME: 0 days 0 hours 21 minutes 22 seconds 735 msec
