                         Program Version 3.0.3 - RELEASE   -
|  1> ! RI-MP2 RIJK def2-TZVP def2-TZVP/C def2-TZVP/JK TIGHTSCF
|  2> % maxcore 2000
|  3> % mp2 density relaxed end
|  4> *xyz 0 1
|  5>  C        0.0051077429     1.5788736429     0.0299697064
|  6>  C        0.1406088097     0.0517017192     0.0308302065
|  7>  C        0.7625739821    -0.4733145554    -1.2278028124
|  8>  N        0.5659563439    -0.0120302218    -2.4442333267
|  9>  C        1.3065162786    -0.8141256729    -3.2901671545
| 10>  C        1.3296769505    -0.5830209850    -4.7661101859
| 11>  C        1.9592179770    -1.7753149303    -2.5642473414
| 12>  N        1.6055466798    -1.5470430388    -1.2485785302
| 13>  H        0.9870167204     2.0595548333    -0.0095808790
| 14>  H       -0.5585747451     1.9061248356    -0.8461645659
| 15>  H       -0.5113206983     1.9218225162     0.9312975464
| 16>  H        0.7355120111    -0.2777860285     0.8920322156
| 17>  H       -0.8529727140    -0.3996240734     0.1595870317
| 18>  H        1.7002720164     0.4203844503    -5.0027856697
| 19>  H        1.9720571579    -1.3112813682    -5.2690492539
| 20>  H        0.3242668677    -0.6616892395    -5.1941345084
| 21>  H        2.6272372216    -2.5722381194    -2.8464393359
| 22>  H        1.9161316278    -2.0741524743    -0.4499767729
| 23> *
| 24>
| 25>                          ****END OF INPUT****

CARTESIAN COORDINATES (ANGSTROEM)
---------------------------------
  C      0.005108    1.578874    0.029970
  C      0.140609    0.051702    0.030830
  C      0.762574   -0.473315   -1.227803
  N      0.565956   -0.012030   -2.444233
  C      1.306516   -0.814126   -3.290167
  C      1.329677   -0.583021   -4.766110
  C      1.959218   -1.775315   -2.564247
  N      1.605547   -1.547043   -1.248579
  H      0.987017    2.059555   -0.009581
  H     -0.558575    1.906125   -0.846165
  H     -0.511321    1.921823    0.931298
  H      0.735512   -0.277786    0.892032
  H     -0.852973   -0.399624    0.159587
  H      1.700272    0.420384   -5.002786
  H      1.972057   -1.311281   -5.269049
  H      0.324267   -0.661689   -5.194135
  H      2.627237   -2.572238   -2.846439
  H      1.916132   -2.074152   -0.449977

 Total Charge           Charge          ....    0
 Multiplicity           Mult            ....    1
 Number of Electrons    NEL             ....   60
 Basis Dimension        Dim             ....  308

ORBITAL ENERGIES
----------------

  NO   OCC          E(Eh)            E(eV)
   0   2.0000     -15.605599      -424.6499
   1   2.0000     -15.526049      -422.4853
   2   2.0000     -11.291461      -307.2563
   3   2.0000     -11.242348      -305.9198
   4   2.0000     -11.239480      -305.8418
   5   2.0000     -11.239193      -305.8340
   6   2.0000     -11.213994      -305.1483
   7   2.0000     -11.211266      -305.0741
   8   2.0000      -1.329604       -36.1804
   9   2.0000      -1.156278       -31.4639
  10   2.0000      -1.068021       -29.0623
  11   2.0000      -1.002272       -27.2732
  12   2.0000      -0.931045       -25.3350
  13   2.0000      -0.863896       -23.5078
  14   2.0000      -0.791801       -21.5460
  15   2.0000      -0.766078       -20.8460
  16   2.0000      -0.699133       -19.0244
  17   2.0000      -0.628549       -17.1037
  18   2.0000      -0.606929       -16.5154
  19   2.0000      -0.603731       -16.4284
  20   2.0000      -0.584044       -15.8926
  21   2.0000      -0.544512       -14.8169
  22   2.0000      -0.538424       -14.6513
  23   2.0000      -0.527412       -14.3516
  24   2.0000      -0.515015       -14.0143
  25   2.0000      -0.499004       -13.5786
  26   2.0000      -0.493625       -13.4322
  27   2.0000      -0.422318       -11.4919
  28   2.0000      -0.384712       -10.4685
  29   2.0000      -0.299051        -8.1376
  30   0.0000       0.125775         3.4225
  31   0.0000       0.150640         4.0991
  32   0.0000       0.160455         4.3662
  33   0.0000       0.176366         4.7992
  34   0.0000       0.186118         5.0645

MULLIKEN ATOMIC CHARGES
-----------------------
   0 C :   -0.376891
   1 C :   -0.216808
   2 C :    0.209186
   3 N :   -0.317600
   4 C :    0.095874
   5 C :   -0.416789
   6 C :   -0.121108
   7 N :   -0.276731
   8 H :    0.121022
   9 H :    0.150578
  10 H :    0.126628
  11 H :    0.105269
  12 H :    0.125514
  13 H :    0.139610
  14 H :    0.125687
  15 H :    0.139715
  16 H :    0.143091
  17 H :    0.243752
Sum of atomic charges:    0.0000000

LOEWDIN ATOMIC CHARGES
----------------------
   0 C :   -0.306479
   1 C :   -0.262911
   2 C :   -0.322773
   3 N :    0.128377
   4 C :   -0.290976
   5 C :   -0.277617
   6 C :   -0.228057
   7 N :    0.189974
   8 H :    0.122693
   9 H :    0.129763
  10 H :    0.118531
  11 H :    0.138399
  12 H :    0.146672
  13 H :    0.131041
  14 H :    0.127395
  15 H :    0.131021
  16 H :    0.133541
  17 H :    0.191408

  Mayer bond orders larger than 0.1
B(  0-C ,  1-C ) :   0.9384 B(  0-C ,  8-H ) :   0.9354 B(  0-C ,  9-H ) :   0.9341
B(  0-C , 10-H ) :   0.9366 B(  1-C ,  2-C ) :   0.9144 B(  1-C , 11-H ) :   0.9402
B(  1-C , 12-H ) :   0.9232 B(  2-C ,  3-N ) :   1.5326 B(  2-C ,  7-N ) :   1.1644
B(  3-N ,  4-C ) :   1.2519 B(  4-C ,  5-C ) :   0.8808 B(  4-C ,  6-C ) :   1.5290
B(  5-C , 13-H ) :   0.9370 B(  5-C , 14-H ) :   0.9529 B(  5-C , 15-H ) :   0.9363
B(  6-C ,  7-N ) :   1.1175 B(  6-C , 16-H ) :   0.9036 B(  7-N , 17-H ) :   0.8671

MP2 TOTAL ENERGY:     -343.432176161 Eh
FINAL SINGLE POINT ENERGY      -343.432176160986

DIPOLE MOMENT
-------------
                                X             Y             Z
Electronic contribution:      1.65462      -3.90992      -0.63445
Nuclear contribution   :     -1.11064       3.07447       1.43256
                        -----------------------------------------
Total Dipole Moment    :      0.54398      -0.83545       0.79811
                        -----------------------------------------
Magnitude (a.u.)       :      1.27706
Magnitude (Debye)      :      3.24602

                             ****ORCA TERMINATED NORMALLY****
TOTAL RUN TIME: 0 days 0 hours 12 minutes 45 seconds 82 msec
