                         Program Version 3.0.3 - RELEASE   -
|  1> ! RI-MP2 RIJK def2-TZVP def2-TZVP/C def2-TZVP/JK TIGHTSCF
|  2> % maxcore 2000
|  3> % mp2 density relaxed end
|  4> *xyz 0 1
|  5>  C        0.0360229776     1.5069995052    -0.3249623414
|  6>  N       -0.0257642818     0.1153766538     0.1093480470
|  7>  C       -1.1676454997    -0.5187453965     0.8158737963
|  8>  C       -0.1721752966    -1.6922236335     1.0484218794
|  9>  C        0.8183124781    -0.4975912494     1.1662268051
| 10>  C        0.5455531576     0.2543011391     2.5497205782
| 11>  C       -0.5913579600    -0.4317312540     3.3484280907
| 12>  C       -1.4002861049     0.2335843168     2.2064425722
| 13>  O       -0.4158582966     1.3134384009     2.2483150074
| 14>  H        0.8310248145     2.0592564867     0.1835759780
| 15>  H        0.2262621015     1.5455090125    -1.4066690210
| 16>  H       -0.8960650616     2.0409982388    -0.1208017397
| 17>  H       -2.0846833106    -0.6662562576     0.2395686417
| 18>  H       -0.3118269045    -2.3758295433     1.8813134790
| 19>  H       -0.0037819241    -2.2486326840     0.1274838105
| 20>  H        1.8800215783    -0.6240225138     0.9389948251
| 21>  H        1.4417719868     0.6255231595     3.0506559869
| 22>  H       -0.6103359193    -1.5056251133     3.5208086755
| 23>  H       -0.7626730134     0.0982838415     4.2875277512
| 24>  H       -2.4212684812     0.5843977105     2.3691532080
| 25> *
| 26>
| 27>                          ****END OF INPUT****

CARTESIAN COORDINATES (ANGSTROEM)
---------------------------------
  C      0.036023    1.507000   -0.324962
  N     -0.025764    0.115377    0.109348
  C     -1.167645   -0.518745    0.815874
  C     -0.172175   -1.692224    1.048422
  C      0.818312   -0.497591    1.166227
  C      0.545553    0.254301    2.549721
  C     -0.591358   -0.431731    3.348428
  C     -1.400286    0.233584    2.206443
  O     -0.415858    1.313438    2.248315
  H      0.831025    2.059256    0.183576
  H      0.226262    1.545509   -1.406669
  H     -0.896065    2.040998   -0.120802
  H     -2.084683   -0.666256    0.239569
  H     -0.311827   -2.375830    1.881313
  H     -0.003782   -2.248633    0.127484
  H      1.880022   -0.624023    0.938995
  H      1.441772    0.625523    3.050656
  H     -0.610336   -1.505625    3.520809
  H     -0.762673    0.098284    4.287528
  H     -2.421268    0.584398    2.369153

 Total Charge           Charge          ....    0
 Multiplicity           Mult            ....    1
 Number of Electrons    NEL             ....   68
 Basis Dimension        Dim             ....  345

ORBITAL ENERGIES
----------------

  NO   OCC          E(Eh)            E(eV)
   0   2.0000     -20.542835      -558.9990
   1   2.0000     -15.536388      -422.7666
   2   2.0000     -11.288039      -307.1632
   3   2.0000     -11.288019      -307.1626
   4   2.0000     -11.264544      -306.5238
   5   2.0000     -11.264531      -306.5235
   6   2.0000     -11.230630      -305.6010
   7   2.0000     -11.226679      -305.4935
   8   2.0000     -11.224316      -305.4292
   9   2.0000      -1.387875       -37.7660
  10   2.0000      -1.240273       -33.7496
  11   2.0000      -1.048645       -28.5351
  12   2.0000      -0.981595       -26.7106
  13   2.0000      -0.972808       -26.4715
  14   2.0000      -0.870338       -23.6831
  15   2.0000      -0.825346       -22.4588
  16   2.0000      -0.823486       -22.4082
  17   2.0000      -0.717309       -19.5190
  18   2.0000      -0.699342       -19.0301
  19   2.0000      -0.670730       -18.2515
  20   2.0000      -0.637578       -17.3494
  21   2.0000      -0.604988       -16.4626
  22   2.0000      -0.580379       -15.7929
  23   2.0000      -0.546409       -14.8685
  24   2.0000      -0.546068       -14.8593
  25   2.0000      -0.527607       -14.3569
  26   2.0000      -0.523188       -14.2367
  27   2.0000      -0.495313       -13.4781
  28   2.0000      -0.492713       -13.4074
  29   2.0000      -0.466785       -12.7019
  30   2.0000      -0.443756       -12.0752
  31   2.0000      -0.425016       -11.5653
  32   2.0000      -0.422132       -11.4868
  33   2.0000      -0.334936        -9.1141
  34   0.0000       0.143593         3.9074
  35   0.0000       0.148576         4.0429
  36   0.0000       0.168014         4.5719
  37   0.0000       0.176108         4.7921
  38   0.0000       0.190173         5.1749

MULLIKEN ATOMIC CHARGES
-----------------------
   0 C :   -0.304270
   1 N :   -0.195251
   2 C :   -0.015491
   3 C :   -0.251539
   4 C :   -0.015492
   5 C :    0.002343
   6 C :   -0.238609
   7 C :    0.002338
   8 O :   -0.325650
   9 H :    0.123279
  10 H :    0.123679
  11 H :    0.123287
  12 H :    0.120478
  13 H :    0.112271
  14 H :    0.118473
  15 H :    0.120480
  16 H :    0.132382
  17 H :    0.116339
  18 H :    0.118571
  19 H :    0.132383
Sum of atomic charges:    0.0000000

LOEWDIN ATOMIC CHARGES
----------------------
   0 C :   -0.338270
   1 N :    0.115902
   2 C :   -0.211129
   3 C :   -0.207665
   4 C :   -0.211130
   5 C :   -0.231487
   6 C :   -0.218215
   7 C :   -0.231485
   8 O :    0.163860
   9 H :    0.115618
  10 H :    0.106104
  11 H :    0.115613
  12 H :    0.129778
  13 H :    0.120376
  14 H :    0.137938
  15 H :    0.129778
  16 H :    0.127777
  17 H :    0.120695
  18 H :    0.138164
  19 H :    0.127777

  Mayer bond orders larger than 0.1
B(  0-C ,  1-N ) :   0.8741 B(  0-C ,  9-H ) :   0.9376 B(  0-C , 10-H ) :   0.9361
B(  0-C , 11-H ) :   0.9376 B(  1-N ,  2-C ) :   0.9451 B(  1-N ,  4-C ) :   0.9451
B(  2-C ,  3-C ) :   0.9624 B(  2-C ,  7-C ) :   0.8764 B(  2-C , 12-H ) :   0.9132
B(  3-C ,  4-C ) :   0.9624 B(  3-C , 13-H ) :   0.9153 B(  3-C , 14-H ) :   0.9235
B(  4-C ,  5-C ) :   0.8764 B(  4-C , 15-H ) :   0.9132 B(  5-C ,  6-C ) :   0.9486
B(  5-C ,  8-O ) :   0.9025 B(  5-C , 16-H ) :   0.9076 B(  6-C ,  7-C ) :   0.9486
B(  6-C , 17-H ) :   0.9192 B(  6-C , 18-H ) :   0.9262 B(  7-C ,  8-O ) :   0.9025
B(  7-C , 19-H ) :   0.9076

MP2 TOTAL ENERGY:     -402.372777285 Eh
FINAL SINGLE POINT ENERGY      -402.372777285087

DIPOLE MOMENT
-------------
                                X             Y             Z
Electronic contribution:     -0.23382       0.63876       1.28688
Nuclear contribution   :      0.17156      -1.11160      -0.90536
                        -----------------------------------------
Total Dipole Moment    :     -0.06226      -0.47284       0.38153
                        -----------------------------------------
Magnitude (a.u.)       :      0.61075
Magnitude (Debye)      :      1.55240

                             ****ORCA TERMINATED NORMALLY****
TOTAL RUN TIME: 0 days 0 hours 21 minutes 51 seconds 122 msec
