                         Program Version 3.0.3 - RELEASE   -
|  1> ! RI-MP2 RIJK def2-TZVP def2-TZVP/C def2-TZVP/JK TIGHTSCF
|  2> % maxcore 2000
|  3> % mp2 density relaxed end
|  4> *xyz 0 1
|  5>  C        0.1018520265     1.5614368009    -0.0813395250
|  6>  C       -0.0071624106     0.0431198394    -0.0192595484
|  7>  C       -1.4069430862    -0.4989890617    -0.3722312691
|  8>  C       -1.7393689286    -1.5206245267     0.7469546415
|  9>  O       -0.7892437167    -1.3583613029     1.8026484684
| 10>  C        0.3137122524    -0.5955902255     1.3648191762
| 11>  C        1.5485158654    -1.2976158599     0.7716393668
| 12>  C        1.1964214596    -2.1571082136    -0.4098728384
| 13>  C        1.2398456116    -0.6705010980    -0.5963738431
| 14>  H        1.0904103308     1.9001968714     0.2469609977
| 15>  H       -0.0500652933     1.9267134349    -1.1037466336
| 16>  H       -0.6493584463     2.0359058165     0.5595311760
| 17>  H       -2.1374037943     0.3152842098    -0.3737283651
| 18>  H       -1.4355214463    -0.9659963105    -1.3603868252
| 19>  H       -2.7376554448    -1.3595855634     1.1699671111
| 20>  H       -1.7086798886    -2.5526069450     0.3723130211
| 21>  H        0.5783567265     0.1163767390     2.1531749531
| 22>  H        2.5023165119    -1.3948796249     1.2759834829
| 23>  H        2.0382379758    -2.6925652644    -0.8384592104
| 24>  H        0.2676780892    -2.7153785367    -0.4510303625
| 25>  H        1.9275715860    -0.2014330586    -1.2908349540
| 26> *
| 27>
| 28>                          ****END OF INPUT****

CARTESIAN COORDINATES (ANGSTROEM)
---------------------------------
  C      0.101852    1.561437   -0.081340
  C     -0.007162    0.043120   -0.019260
  C     -1.406943   -0.498989   -0.372231
  C     -1.739369   -1.520625    0.746955
  O     -0.789244   -1.358361    1.802648
  C      0.313712   -0.595590    1.364819
  C      1.548516   -1.297616    0.771639
  C      1.196421   -2.157108   -0.409873
  C      1.239846   -0.670501   -0.596374
  H      1.090410    1.900197    0.246961
  H     -0.050065    1.926713   -1.103747
  H     -0.649358    2.035906    0.559531
  H     -2.137404    0.315284   -0.373728
  H     -1.435521   -0.965996   -1.360387
  H     -2.737655   -1.359586    1.169967
  H     -1.708680   -2.552607    0.372313
  H      0.578357    0.116377    2.153175
  H      2.502317   -1.394880    1.275983
  H      2.038238   -2.692565   -0.838459
  H      0.267678   -2.715379   -0.451030
  H      1.927572   -0.201433   -1.290835

 Total Charge           Charge          ....    0
 Multiplicity           Mult            ....    1
 Number of Electrons    NEL             ....   68
 Basis Dimension        Dim             ....  351

ORBITAL ENERGIES
----------------

  NO   OCC          E(Eh)            E(eV)
   0   2.0000     -20.543520      -559.0176
   1   2.0000     -11.272624      -306.7437
   2   2.0000     -11.269908      -306.6698
   3   2.0000     -11.237084      -305.7766
   4   2.0000     -11.232801      -305.6601
   5   2.0000     -11.228574      -305.5450
   6   2.0000     -11.227765      -305.5230
   7   2.0000     -11.221561      -305.3542
   8   2.0000     -11.218556      -305.2724
   9   2.0000      -1.369596       -37.2686
  10   2.0000      -1.183930       -32.2164
  11   2.0000      -1.054344       -28.6902
  12   2.0000      -0.995962       -27.1015
  13   2.0000      -0.927658       -25.2429
  14   2.0000      -0.843834       -22.9619
  15   2.0000      -0.840164       -22.8620
  16   2.0000      -0.772201       -21.0126
  17   2.0000      -0.723146       -19.6778
  18   2.0000      -0.685535       -18.6544
  19   2.0000      -0.661993       -18.0137
  20   2.0000      -0.639625       -17.4051
  21   2.0000      -0.592194       -16.1144
  22   2.0000      -0.584650       -15.9091
  23   2.0000      -0.574288       -15.6272
  24   2.0000      -0.562943       -15.3185
  25   2.0000      -0.547812       -14.9067
  26   2.0000      -0.524663       -14.2768
  27   2.0000      -0.493020       -13.4158
  28   2.0000      -0.479421       -13.0457
  29   2.0000      -0.464827       -12.6486
  30   2.0000      -0.445044       -12.1103
  31   2.0000      -0.414413       -11.2768
  32   2.0000      -0.394873       -10.7450
  33   2.0000      -0.369164       -10.0454
  34   0.0000       0.136281         3.7084
  35   0.0000       0.157699         4.2912
  36   0.0000       0.163626         4.4525
  37   0.0000       0.175102         4.7648
  38   0.0000       0.187263         5.0957

MULLIKEN ATOMIC CHARGES
-----------------------
   0 C :   -0.462931
   1 C :    0.223383
   2 C :   -0.321640
   3 C :   -0.030161
   4 O :   -0.331082
   5 C :    0.062309
   6 C :   -0.159283
   7 C :   -0.253907
   8 C :   -0.213337
   9 H :    0.137051
  10 H :    0.136470
  11 H :    0.138147
  12 H :    0.122054
  13 H :    0.135513
  14 H :    0.104743
  15 H :    0.095184
  16 H :    0.101129
  17 H :    0.132159
  18 H :    0.129905
  19 H :    0.127469
  20 H :    0.126825
Sum of atomic charges:   -0.0000000

LOEWDIN ATOMIC CHARGES
----------------------
   0 C :   -0.269280
   1 C :   -0.235368
   2 C :   -0.215569
   3 C :   -0.295846
   4 O :    0.169581
   5 C :   -0.238124
   6 C :   -0.158539
   7 C :   -0.200321
   8 C :   -0.143998
   9 H :    0.128739
  10 H :    0.127361
  11 H :    0.127637
  12 H :    0.140087
  13 H :    0.142222
  14 H :    0.120844
  15 H :    0.113547
  16 H :    0.141963
  17 H :    0.133816
  18 H :    0.141545
  19 H :    0.132835
  20 H :    0.136866

  Mayer bond orders larger than 0.1
B(  0-C ,  1-C ) :   0.8661 B(  0-C ,  9-H ) :   0.9383 B(  0-C , 10-H ) :   0.9402
B(  0-C , 11-H ) :   0.9390 B(  1-C ,  2-C ) :   0.8842 B(  1-C ,  5-C ) :   0.9662
B(  1-C ,  8-C ) :   0.9143 B(  2-C ,  3-C ) :   0.9610 B(  2-C , 12-H ) :   0.9246
B(  2-C , 13-H ) :   0.9223 B(  3-C ,  4-O ) :   0.9282 B(  3-C , 14-H ) :   0.9241
B(  3-C , 15-H ) :   0.9327 B(  4-O ,  5-C ) :   0.9751 B(  5-C ,  6-C ) :   0.8893
B(  5-C , 16-H ) :   0.9459 B(  6-C ,  7-C ) :   0.8669 B(  6-C ,  8-C ) :   0.8494
B(  6-C , 17-H ) :   0.9289 B(  7-C ,  8-C ) :   0.8945 B(  7-C , 18-H ) :   0.9344
B(  7-C , 19-H ) :   0.9182 B(  8-C , 20-H ) :   0.9221

MP2 TOTAL ENERGY:     -386.389319284 Eh
FINAL SINGLE POINT ENERGY      -386.389319284051

DIPOLE MOMENT
-------------
                                X             Y             Z
Electronic contribution:      0.59492      -2.51471       3.21619
Nuclear contribution   :     -0.49086       2.82125      -3.81797
                        -----------------------------------------
Total Dipole Moment    :      0.10406       0.30654      -0.60178
                        -----------------------------------------
Magnitude (a.u.)       :      0.68333
Magnitude (Debye)      :      1.73688

                             ****ORCA TERMINATED NORMALLY****
TOTAL RUN TIME: 0 days 0 hours 20 minutes 3 seconds 794 msec
