                         Program Version 3.0.3 - RELEASE   -
|  1> ! RI-MP2 RIJK def2-TZVP def2-TZVP/C def2-TZVP/JK TIGHTSCF
|  2> % maxcore 2000
|  3> % mp2 density relaxed end
|  4> *xyz 0 1
|  5>  C       -0.0472297018     1.5138712692     0.0522401961
|  6>  C        0.0844616272     0.0150081398    -0.0216224184
|  7>  N       -0.5464739027    -0.8267083105     1.0263567445
|  8>  C        0.9451970434    -0.7875387763     0.8948666107
|  9>  C        1.4812319402    -1.9291551682     0.0985289376
| 10>  C        0.9938469933    -1.8896933459    -1.1453853347
| 11>  C        0.1216324782    -0.7013635332    -1.3644340239
| 12>  C       -1.0886525557    -0.7664719388    -2.2695729389
| 13>  C        0.1132826483     0.0276482590    -2.6954519089
| 14>  H        0.7324444501     2.0148734402    -0.5301801283
| 15>  H       -1.0192484026     1.8511087512    -0.3287168932
| 16>  H        0.0370979511     1.8576613771     1.0883965018
| 17>  H       -0.8109809124    -0.2132082175     1.7975483015
| 18>  H        1.5205746521    -0.3349509154     1.6965427161
| 19>  H        2.1339868295    -2.6920989316     0.5037185322
| 20>  H        1.1681576112    -2.6268773656    -1.9218666339
| 21>  H       -1.2971151612    -1.7061906877    -2.7694821544
| 22>  H       -1.9746775648    -0.2278553543    -1.9497204753
| 23>  H        0.0412491919     1.1096602767    -2.6860295739
| 24>  H        0.7440734547    -0.3670194782    -3.4851010370
| 25> *
| 26>
| 27>                          ****END OF INPUT****

CARTESIAN COORDINATES (ANGSTROEM)
---------------------------------
  C     -0.047230    1.513871    0.052240
  C      0.084462    0.015008   -0.021622
  N     -0.546474   -0.826708    1.026357
  C      0.945197   -0.787539    0.894867
  C      1.481232   -1.929155    0.098529
  C      0.993847   -1.889693   -1.145385
  C      0.121632   -0.701364   -1.364434
  C     -1.088653   -0.766472   -2.269573
  C      0.113283    0.027648   -2.695452
  H      0.732444    2.014873   -0.530180
  H     -1.019248    1.851109   -0.328717
  H      0.037098    1.857661    1.088397
  H     -0.810981   -0.213208    1.797548
  H      1.520575   -0.334951    1.696543
  H      2.133987   -2.692099    0.503719
  H      1.168158   -2.626877   -1.921867
  H     -1.297115   -1.706191   -2.769482
  H     -1.974678   -0.227855   -1.949720
  H      0.041249    1.109660   -2.686030
  H      0.744073   -0.367019   -3.485101

 Total Charge           Charge          ....    0
 Multiplicity           Mult            ....    1
 Number of Electrons    NEL             ....   66
 Basis Dimension        Dim             ....  345

ORBITAL ENERGIES
----------------

  NO   OCC          E(Eh)            E(eV)
   0   2.0000     -15.550000      -423.1370
   1   2.0000     -11.262407      -306.4657
   2   2.0000     -11.254333      -306.2460
   3   2.0000     -11.238712      -305.8209
   4   2.0000     -11.228016      -305.5298
   5   2.0000     -11.227129      -305.5057
   6   2.0000     -11.225547      -305.4627
   7   2.0000     -11.224827      -305.4431
   8   2.0000     -11.219301      -305.2927
   9   2.0000      -1.266780       -34.4708
  10   2.0000      -1.145657       -31.1749
  11   2.0000      -1.054191       -28.6860
  12   2.0000      -0.991624       -26.9835
  13   2.0000      -0.882513       -24.0144
  14   2.0000      -0.867301       -23.6005
  15   2.0000      -0.823453       -22.4073
  16   2.0000      -0.752002       -20.4630
  17   2.0000      -0.719150       -19.5691
  18   2.0000      -0.680294       -18.5117
  19   2.0000      -0.643874       -17.5207
  20   2.0000      -0.629505       -17.1297
  21   2.0000      -0.603002       -16.4085
  22   2.0000      -0.578379       -15.7385
  23   2.0000      -0.558980       -15.2106
  24   2.0000      -0.523830       -14.2541
  25   2.0000      -0.515455       -14.0262
  26   2.0000      -0.502777       -13.6813
  27   2.0000      -0.481136       -13.0924
  28   2.0000      -0.473290       -12.8789
  29   2.0000      -0.434206       -11.8153
  30   2.0000      -0.426310       -11.6005
  31   2.0000      -0.363584        -9.8936
  32   2.0000      -0.323172        -8.7940
  33   0.0000       0.131660         3.5827
  34   0.0000       0.148965         4.0535
  35   0.0000       0.158542         4.3141
  36   0.0000       0.167031         4.5452
  37   0.0000       0.179398         4.8817

MULLIKEN ATOMIC CHARGES
-----------------------
   0 C :   -0.416086
   1 C :    0.220588
   2 N :   -0.401229
   3 C :   -0.060374
   4 C :   -0.222011
   5 C :   -0.152288
   6 C :    0.114721
   7 C :   -0.308405
   8 C :   -0.310530
   9 H :    0.146643
  10 H :    0.144300
  11 H :    0.127129
  12 H :    0.207373
  13 H :    0.128787
  14 H :    0.131206
  15 H :    0.123052
  16 H :    0.133595
  17 H :    0.130859
  18 H :    0.132076
  19 H :    0.130596
Sum of atomic charges:   -0.0000000

LOEWDIN ATOMIC CHARGES
----------------------
   0 C :   -0.272568
   1 C :   -0.248927
   2 N :    0.027137
   3 C :   -0.209638
   4 C :   -0.137973
   5 C :   -0.099175
   6 C :   -0.181958
   7 C :   -0.190251
   8 C :   -0.197071
   9 H :    0.132508
  10 H :    0.129705
  11 H :    0.128778
  12 H :    0.164245
  13 H :    0.135754
  14 H :    0.137564
  15 H :    0.141506
  16 H :    0.135240
  17 H :    0.136891
  18 H :    0.134005
  19 H :    0.134228

  Mayer bond orders larger than 0.1
B(  0-C ,  1-C ) :   0.8870 B(  0-C ,  9-H ) :   0.9375 B(  0-C , 10-H ) :   0.9436
B(  0-C , 11-H ) :   0.9246 B(  1-C ,  2-N ) :   0.8785 B(  1-C ,  3-C ) :   0.8852
B(  1-C ,  6-C ) :   0.9241 B(  2-N ,  3-C ) :   0.9885 B(  2-N , 12-H ) :   0.8675
B(  3-C ,  4-C ) :   0.9450 B(  3-C , 13-H ) :   0.9188 B(  4-C ,  5-C ) :   1.8034
B(  4-C , 14-H ) :   0.9257 B(  5-C ,  6-C ) :   0.9430 B(  5-C , 15-H ) :   0.9173
B(  6-C ,  7-C ) :   0.8090 B(  6-C ,  8-C ) :   0.8423 B(  7-C ,  8-C ) :   0.9340
B(  7-C , 16-H ) :   0.9286 B(  7-C , 17-H ) :   0.9227 B(  8-C , 18-H ) :   0.9159
B(  8-C , 19-H ) :   0.9232

MP2 TOTAL ENERGY:     -365.317631829 Eh
FINAL SINGLE POINT ENERGY      -365.317631828666

DIPOLE MOMENT
-------------
                                X             Y             Z
Electronic contribution:      1.20216      -3.84082       1.92317
Nuclear contribution   :     -0.92836       4.46780      -1.93429
                        -----------------------------------------
Total Dipole Moment    :      0.27379       0.62698      -0.01112
                        -----------------------------------------
Magnitude (a.u.)       :      0.68424
Magnitude (Debye)      :      1.73921

                             ****ORCA TERMINATED NORMALLY****
TOTAL RUN TIME: 0 days 0 hours 20 minutes 22 seconds 481 msec
