                         Program Version 3.0.3 - RELEASE   -
|  1> ! RI-MP2 RIJK def2-TZVP def2-TZVP/C def2-TZVP/JK TIGHTSCF
|  2> % maxcore 2000
|  3> % mp2 density relaxed end
|  4> *xyz 0 1
|  5>  C        0.0013770551     1.6907715067     0.2445960571
|  6>  C        0.0401160044     0.1708476064     0.0697540828
|  7>  C       -1.3530995464    -0.4695219171    -0.0797027831
|  8>  C       -2.0791530533    -0.2235046111    -1.3791846965
|  9>  C       -2.4821334244    -1.3488653398    -1.9720511075
| 10>  C       -2.1156619758    -2.5892479572    -1.1969312969
| 11>  C       -1.3513775845    -3.6729648837    -1.9708407064
| 12>  C       -1.2888928485    -2.0089067331    -0.0334946591
| 13>  O       -0.6566635171    -2.6558554433     0.7617924313
| 14>  H        1.0107588036     2.0955000705     0.3669949461
| 15>  H       -0.4497570694     2.1890622816    -0.6200960218
| 16>  H       -0.5798223200     1.9716623120     1.1300373243
| 17>  H        0.6474979698    -0.0887180106    -0.8060756718
| 18>  H        0.5238154349    -0.2967830374     0.9341106641
| 19>  H       -1.9637761754    -0.1404915411     0.7769415715
| 20>  H       -2.2522978165     0.7738244651    -1.7677608313
| 21>  H       -3.0247017966    -1.3959969504    -2.9102185635
| 22>  H       -3.0134282578    -3.0532687158    -0.7590146842
| 23>  H       -0.4683135279    -3.2530274918    -2.4625325749
| 24>  H       -1.0197582029    -4.4552997672    -1.2832408483
| 25>  H       -1.9843175614    -4.1267123426    -2.7392748419
| 26> *
| 27>
| 28>                          ****END OF INPUT****

CARTESIAN COORDINATES (ANGSTROEM)
---------------------------------
  C      0.001377    1.690772    0.244596
  C      0.040116    0.170848    0.069754
  C     -1.353100   -0.469522   -0.079703
  C     -2.079153   -0.223505   -1.379185
  C     -2.482133   -1.348865   -1.972051
  C     -2.115662   -2.589248   -1.196931
  C     -1.351378   -3.672965   -1.970841
  C     -1.288893   -2.008907   -0.033495
  O     -0.656664   -2.655855    0.761792
  H      1.010759    2.095500    0.366995
  H     -0.449757    2.189062   -0.620096
  H     -0.579822    1.971662    1.130037
  H      0.647498   -0.088718   -0.806076
  H      0.523815   -0.296783    0.934111
  H     -1.963776   -0.140492    0.776942
  H     -2.252298    0.773824   -1.767761
  H     -3.024702   -1.395997   -2.910219
  H     -3.013428   -3.053269   -0.759015
  H     -0.468314   -3.253027   -2.462533
  H     -1.019758   -4.455300   -1.283241
  H     -1.984318   -4.126712   -2.739275

 Total Charge           Charge          ....    0
 Multiplicity           Mult            ....    1
 Number of Electrons    NEL             ....   68
 Basis Dimension        Dim             ....  351

ORBITAL ENERGIES
----------------

  NO   OCC          E(Eh)            E(eV)
   0   2.0000     -20.545388      -559.0684
   1   2.0000     -11.325679      -308.1874
   2   2.0000     -11.245706      -306.0112
   3   2.0000     -11.243586      -305.9535
   4   2.0000     -11.239023      -305.8294
   5   2.0000     -11.237299      -305.7825
   6   2.0000     -11.228366      -305.5394
   7   2.0000     -11.223579      -305.4091
   8   2.0000     -11.219876      -305.3083
   9   2.0000      -1.389588       -37.8126
  10   2.0000      -1.149556       -31.2810
  11   2.0000      -1.062755       -28.9190
  12   2.0000      -1.006116       -27.3778
  13   2.0000      -0.942585       -25.6490
  14   2.0000      -0.887124       -24.1399
  15   2.0000      -0.832075       -22.6419
  16   2.0000      -0.750172       -20.4132
  17   2.0000      -0.730726       -19.8841
  18   2.0000      -0.680270       -18.5111
  19   2.0000      -0.633775       -17.2459
  20   2.0000      -0.626636       -17.0516
  21   2.0000      -0.601316       -16.3626
  22   2.0000      -0.589812       -16.0496
  23   2.0000      -0.579533       -15.7699
  24   2.0000      -0.555766       -15.1232
  25   2.0000      -0.545895       -14.8545
  26   2.0000      -0.525443       -14.2980
  27   2.0000      -0.512625       -13.9492
  28   2.0000      -0.505527       -13.7561
  29   2.0000      -0.493420       -13.4266
  30   2.0000      -0.483518       -13.1572
  31   2.0000      -0.471343       -12.8259
  32   2.0000      -0.391438       -10.6516
  33   2.0000      -0.361479        -9.8363
  34   0.0000       0.122372         3.3299
  35   0.0000       0.132163         3.5963
  36   0.0000       0.153528         4.1777
  37   0.0000       0.161095         4.3836
  38   0.0000       0.165058         4.4914

MULLIKEN ATOMIC CHARGES
-----------------------
   0 C :   -0.403141
   1 C :   -0.212650
   2 C :    0.046547
   3 C :   -0.225179
   4 C :   -0.201434
   5 C :    0.061875
   6 C :   -0.413243
   7 C :    0.071439
   8 O :   -0.270331
   9 H :    0.138550
  10 H :    0.124330
  11 H :    0.126481
  12 H :    0.112031
  13 H :    0.135776
  14 H :    0.113127
  15 H :    0.133572
  16 H :    0.131819
  17 H :    0.114951
  18 H :    0.128505
  19 H :    0.152266
  20 H :    0.134709
Sum of atomic charges:    0.0000000

LOEWDIN ATOMIC CHARGES
----------------------
   0 C :   -0.317208
   1 C :   -0.260028
   2 C :   -0.208761
   3 C :   -0.132876
   4 C :   -0.133155
   5 C :   -0.231402
   6 C :   -0.281052
   7 C :   -0.248139
   8 O :    0.162449
   9 H :    0.123136
  10 H :    0.119192
  11 H :    0.121722
  12 H :    0.139647
  13 H :    0.145440
  14 H :    0.170517
  15 H :    0.139542
  16 H :    0.139883
  17 H :    0.169293
  18 H :    0.126125
  19 H :    0.131712
  20 H :    0.123963

  Mayer bond orders larger than 0.1
B(  0-C ,  1-C ) :   0.9133 B(  0-C ,  9-H ) :   0.9420 B(  0-C , 10-H ) :   0.9400
B(  0-C , 11-H ) :   0.9381 B(  1-C ,  2-C ) :   0.8889 B(  1-C , 12-H ) :   0.9257
B(  1-C , 13-H ) :   0.9316 B(  2-C ,  3-C ) :   0.9022 B(  2-C ,  5-C ) :  -0.1041
B(  2-C ,  7-C ) :   0.8853 B(  2-C , 14-H ) :   0.8851 B(  3-C ,  4-C ) :   1.7633
B(  3-C , 15-H ) :   0.9190 B(  4-C ,  5-C ) :   0.9066 B(  4-C , 16-H ) :   0.9196
B(  5-C ,  6-C ) :   0.8899 B(  5-C ,  7-C ) :   0.9104 B(  5-C , 17-H ) :   0.8852
B(  6-C , 18-H ) :   0.9316 B(  6-C , 19-H ) :   0.9320 B(  6-C , 20-H ) :   0.9386
B(  7-C ,  8-O ) :   2.0545

MP2 TOTAL ENERGY:     -386.443869676 Eh
FINAL SINGLE POINT ENERGY      -386.443869676349

DIPOLE MOMENT
-------------
                                X             Y             Z
Electronic contribution:     -2.33830      -4.24267       2.18215
Nuclear contribution   :      1.88662       4.75193      -2.79202
                        -----------------------------------------
Total Dipole Moment    :     -0.45169       0.50926      -0.60987
                        -----------------------------------------
Magnitude (a.u.)       :      0.91396
Magnitude (Debye)      :      2.32309

                             ****ORCA TERMINATED NORMALLY****
TOTAL RUN TIME: 0 days 0 hours 30 minutes 41 seconds 651 msec
