                         Program Version 3.0.3 - RELEASE   -
|  1> ! RI-MP2 RIJK def2-TZVP def2-TZVP/C def2-TZVP/JK TIGHTSCF
|  2> % maxcore 2000
|  3> % mp2 density relaxed end
|  4> *xyz 0 1
|  5>  C       -1.5384509394    -0.8662565325    -0.1012306527
|  6>  C       -0.1521361736    -0.2134735154    -0.0726967392
|  7>  C        0.6787157313    -0.4872343689     1.2074007840
|  8>  C       -0.0251329858    -0.0359220435     2.5081724975
|  9>  C       -0.4010256794     1.3716088312     2.5015648336
| 10>  C       -0.6992751340     2.5364642760     2.4832571716
| 11>  C        1.0048605311    -1.9795980410     1.3133600496
| 12>  N        2.1482962328    -2.3662461523     0.6764546057
| 13>  O        0.2909805108    -2.7727093565     1.9003962708
| 14>  H       -2.1955400321    -0.4370370185     0.6608449140
| 15>  H       -2.0134148128    -0.7006760891    -1.0729937441
| 16>  H       -1.4818632022    -1.9437897358     0.0746222317
| 17>  H        0.4320337985    -0.5541633338    -0.9364164358
| 18>  H       -0.2551668418     0.8718751564    -0.1745032088
| 19>  H        1.6164632792     0.0740116433     1.1136310538
| 20>  H       -0.9015480765    -0.6704090017     2.6706688022
| 21>  H        0.6404100807    -0.2317670247     3.3573875947
| 22>  H       -0.9728279451     3.5622948268     2.4834097315
| 23>  H        2.7232897274    -1.7233461131     0.1616709339
| 24>  H        2.3675408407    -3.3485292770     0.6432671462
| 25> *
| 26>
| 27>                          ****END OF INPUT****

CARTESIAN COORDINATES (ANGSTROEM)
---------------------------------
  C     -1.538451   -0.866257   -0.101231
  C     -0.152136   -0.213474   -0.072697
  C      0.678716   -0.487234    1.207401
  C     -0.025133   -0.035922    2.508172
  C     -0.401026    1.371609    2.501565
  C     -0.699275    2.536464    2.483257
  C      1.004861   -1.979598    1.313360
  N      2.148296   -2.366246    0.676455
  O      0.290981   -2.772709    1.900396
  H     -2.195540   -0.437037    0.660845
  H     -2.013415   -0.700676   -1.072994
  H     -1.481863   -1.943790    0.074622
  H      0.432034   -0.554163   -0.936416
  H     -0.255167    0.871875   -0.174503
  H      1.616463    0.074012    1.113631
  H     -0.901548   -0.670409    2.670669
  H      0.640410   -0.231767    3.357388
  H     -0.972828    3.562295    2.483410
  H      2.723290   -1.723346    0.161671
  H      2.367541   -3.348529    0.643267

 Total Charge           Charge          ....    0
 Multiplicity           Mult            ....    1
 Number of Electrons    NEL             ....   68
 Basis Dimension        Dim             ....  345

ORBITAL ENERGIES
----------------

  NO   OCC          E(Eh)            E(eV)
   0   2.0000     -20.519939      -558.3759
   1   2.0000     -15.587410      -424.1550
   2   2.0000     -11.352860      -308.9270
   3   2.0000     -11.254807      -306.2589
   4   2.0000     -11.251660      -306.1732
   5   2.0000     -11.234849      -305.7158
   6   2.0000     -11.233714      -305.6849
   7   2.0000     -11.220929      -305.3370
   8   2.0000     -11.211265      -305.0740
   9   2.0000      -1.384950       -37.6864
  10   2.0000      -1.214942       -33.0603
  11   2.0000      -1.110552       -30.2197
  12   2.0000      -1.038431       -28.2571
  13   2.0000      -0.985314       -26.8118
  14   2.0000      -0.916948       -24.9514
  15   2.0000      -0.840412       -22.8688
  16   2.0000      -0.778070       -21.1723
  17   2.0000      -0.724217       -19.7069
  18   2.0000      -0.714666       -19.4470
  19   2.0000      -0.684672       -18.6309
  20   2.0000      -0.642903       -17.4943
  21   2.0000      -0.628753       -17.1092
  22   2.0000      -0.623544       -16.9675
  23   2.0000      -0.568735       -15.4761
  24   2.0000      -0.558085       -15.1863
  25   2.0000      -0.556757       -15.1501
  26   2.0000      -0.545886       -14.8543
  27   2.0000      -0.502348       -13.6696
  28   2.0000      -0.483653       -13.1609
  29   2.0000      -0.477496       -12.9933
  30   2.0000      -0.423174       -11.5151
  31   2.0000      -0.418936       -11.3998
  32   2.0000      -0.386450       -10.5158
  33   2.0000      -0.384363       -10.4590
  34   0.0000       0.117190         3.1889
  35   0.0000       0.148247         4.0340
  36   0.0000       0.158745         4.3197
  37   0.0000       0.168527         4.5859
  38   0.0000       0.169731         4.6186

MULLIKEN ATOMIC CHARGES
-----------------------
   0 C :   -0.440452
   1 C :   -0.189505
   2 C :   -0.019050
   3 C :   -0.446703
   4 C :    0.002394
   5 C :   -0.139472
   6 C :    0.252030
   7 N :   -0.478809
   8 O :   -0.355985
   9 H :    0.137006
  10 H :    0.132489
  11 H :    0.151628
  12 H :    0.105538
  13 H :    0.138695
  14 H :    0.106217
  15 H :    0.185286
  16 H :    0.152207
  17 H :    0.188252
  18 H :    0.259811
  19 H :    0.258423
Sum of atomic charges:    0.0000000

LOEWDIN ATOMIC CHARGES
----------------------
   0 C :   -0.311228
   1 C :   -0.262164
   2 C :   -0.216805
   3 C :   -0.220261
   4 C :   -0.109570
   5 C :   -0.110294
   6 C :   -0.457487
   7 N :   -0.013040
   8 O :    0.086897
   9 H :    0.124924
  10 H :    0.122231
  11 H :    0.127612
  12 H :    0.136032
  13 H :    0.145054
  14 H :    0.157956
  15 H :    0.167371
  16 H :    0.163114
  17 H :    0.125801
  18 H :    0.170472
  19 H :    0.173383

  Mayer bond orders larger than 0.1
B(  0-C ,  1-C ) :   0.9240 B(  0-C ,  9-H ) :   0.9357 B(  0-C , 10-H ) :   0.9356
B(  0-C , 11-H ) :   0.9337 B(  1-C ,  2-C ) :   0.8892 B(  1-C , 12-H ) :   0.9249
B(  1-C , 13-H ) :   0.9263 B(  2-C ,  3-C ) :   0.8908 B(  2-C ,  6-C ) :   0.8605
B(  2-C , 14-H ) :   0.9173 B(  3-C ,  4-C ) :   1.0675 B(  3-C ,  5-C ) :  -0.1131
B(  3-C , 15-H ) :   0.9357 B(  3-C , 16-H ) :   0.9245 B(  4-C ,  5-C ) :   2.6138
B(  5-C , 17-H ) :   0.8986 B(  6-C ,  7-N ) :   1.1722 B(  6-C ,  8-O ) :   1.9395
B(  7-N , 18-H ) :   0.8687 B(  7-N , 19-H ) :   0.8573

MP2 TOTAL ENERGY:     -402.461925318 Eh
FINAL SINGLE POINT ENERGY      -402.461925317812

DIPOLE MOMENT
-------------
                                X             Y             Z
Electronic contribution:      2.75492      -1.27819       4.46732
Nuclear contribution   :     -1.76534       1.66414      -5.34738
                        -----------------------------------------
Total Dipole Moment    :      0.98958       0.38595      -0.88006
                        -----------------------------------------
Magnitude (a.u.)       :      1.37939
Magnitude (Debye)      :      3.50614

                             ****ORCA TERMINATED NORMALLY****
TOTAL RUN TIME: 0 days 0 hours 18 minutes 9 seconds 988 msec
