                         Program Version 3.0.3 - RELEASE   -
|  1> ! RI-MP2 RIJK def2-TZVP def2-TZVP/C def2-TZVP/JK TIGHTSCF
|  2> % maxcore 2000
|  3> % mp2 density relaxed end
|  4> *xyz 0 1
|  5>  O       -0.0793046473     1.4023121339    -0.2733488288
|  6>  C        0.0478649509    -0.0040830208    -0.1278299473
|  7>  C       -1.3506946764    -0.5534820602     0.0785360837
|  8>  C       -2.3294198292    -0.5675337504    -1.1259632404
|  9>  N       -2.6305728422    -2.0283703273    -0.9311298597
| 10>  C       -1.8396830000    -2.9063983681    -1.8467465474
| 11>  C       -0.6941785468    -2.9521530716    -0.8151859530
| 12>  O        0.3891141493    -3.4532991858    -0.7608104640
| 13>  C       -1.5483382476    -2.0909122872     0.1351384102
| 14>  H        0.7948404902     1.7701496693    -0.4326694718
| 15>  H        0.5074567050    -0.4578126656    -1.0196888092
| 16>  H        0.6820095802    -0.2690891448     0.7333640167
| 17>  H       -1.7894439638    -0.0682418816     0.9538432449
| 18>  H       -3.2190764376     0.0572268729    -1.0214465247
| 19>  H       -1.8584072955    -0.3397861817    -2.0898824827
| 20>  H       -2.3154917472    -3.8817789973    -2.0020123357
| 21>  H       -1.5958672848    -2.4785846758    -2.8256747746
| 22>  H       -1.7845266972    -2.5443331678     1.1020989638
| 23> *
| 24>
| 25>                          ****END OF INPUT****

CARTESIAN COORDINATES (ANGSTROEM)
---------------------------------
  O     -0.079305    1.402312   -0.273349
  C      0.047865   -0.004083   -0.127830
  C     -1.350695   -0.553482    0.078536
  C     -2.329420   -0.567534   -1.125963
  N     -2.630573   -2.028370   -0.931130
  C     -1.839683   -2.906398   -1.846747
  C     -0.694179   -2.952153   -0.815186
  O      0.389114   -3.453299   -0.760810
  C     -1.548338   -2.090912    0.135138
  H      0.794840    1.770150   -0.432669
  H      0.507457   -0.457813   -1.019689
  H      0.682010   -0.269089    0.733364
  H     -1.789444   -0.068242    0.953843
  H     -3.219076    0.057227   -1.021447
  H     -1.858407   -0.339786   -2.089882
  H     -2.315492   -3.881779   -2.002012
  H     -1.595867   -2.478585   -2.825675
  H     -1.784527   -2.544333    1.102099

 Total Charge           Charge          ....    0
 Multiplicity           Mult            ....    1
 Number of Electrons    NEL             ....   68
 Basis Dimension        Dim             ....  333

ORBITAL ENERGIES
----------------

  NO   OCC          E(Eh)            E(eV)
   0   2.0000     -20.567516      -559.6706
   1   2.0000     -20.566479      -559.6424
   2   2.0000     -15.562452      -423.4758
   3   2.0000     -11.342460      -308.6440
   4   2.0000     -11.288621      -307.1790
   5   2.0000     -11.275992      -306.8353
   6   2.0000     -11.271537      -306.7141
   7   2.0000     -11.261994      -306.4544
   8   2.0000     -11.249031      -306.1017
   9   2.0000      -1.409515       -38.3549
  10   2.0000      -1.372024       -37.3347
  11   2.0000      -1.277800       -34.7707
  12   2.0000      -1.061431       -28.8830
  13   2.0000      -0.984364       -26.7859
  14   2.0000      -0.936125       -25.4732
  15   2.0000      -0.864213       -23.5164
  16   2.0000      -0.800835       -21.7918
  17   2.0000      -0.724002       -19.7011
  18   2.0000      -0.714398       -19.4398
  19   2.0000      -0.687700       -18.7133
  20   2.0000      -0.659683       -17.9509
  21   2.0000      -0.655692       -17.8423
  22   2.0000      -0.640447       -17.4275
  23   2.0000      -0.602138       -16.3850
  24   2.0000      -0.587461       -15.9856
  25   2.0000      -0.572054       -15.5664
  26   2.0000      -0.535143       -14.5620
  27   2.0000      -0.516733       -14.0610
  28   2.0000      -0.501537       -13.6475
  29   2.0000      -0.478781       -13.0283
  30   2.0000      -0.471308       -12.8249
  31   2.0000      -0.447861       -12.1869
  32   2.0000      -0.405634       -11.0379
  33   2.0000      -0.385504       -10.4901
  34   0.0000       0.113320         3.0836
  35   0.0000       0.129943         3.5359
  36   0.0000       0.146585         3.9888
  37   0.0000       0.163833         4.4581
  38   0.0000       0.170334         4.6350

MULLIKEN ATOMIC CHARGES
-----------------------
   0 O :   -0.466764
   1 C :   -0.107444
   2 C :   -0.030843
   3 C :   -0.197637
   4 N :   -0.170300
   5 C :   -0.161905
   6 C :    0.079418
   7 O :   -0.238584
   8 C :   -0.015164
   9 H :    0.320122
  10 H :    0.105263
  11 H :    0.110672
  12 H :    0.119702
  13 H :    0.124432
  14 H :    0.117476
  15 H :    0.143858
  16 H :    0.130160
  17 H :    0.137537
Sum of atomic charges:    0.0000000

LOEWDIN ATOMIC CHARGES
----------------------
   0 O :   -0.043093
   1 C :   -0.332389
   2 C :   -0.218701
   3 C :   -0.216419
   4 N :    0.093177
   5 C :   -0.230737
   6 C :   -0.304729
   7 O :    0.170713
   8 C :   -0.161555
   9 H :    0.174618
  10 H :    0.119985
  11 H :    0.122777
  12 H :    0.157210
  13 H :    0.126719
  14 H :    0.126449
  15 H :    0.141381
  16 H :    0.132386
  17 H :    0.142209

  Mayer bond orders larger than 0.1
B(  0-O ,  1-C ) :   1.0267 B(  0-O ,  9-H ) :   0.8463 B(  1-C ,  2-C ) :   0.9134
B(  1-C , 10-H ) :   0.9157 B(  1-C , 11-H ) :   0.9321 B(  2-C ,  3-C ) :   0.9361
B(  2-C ,  8-C ) :   0.9079 B(  2-C , 12-H ) :   0.9125 B(  3-C ,  4-N ) :   0.8986
B(  3-C , 13-H ) :   0.9206 B(  3-C , 14-H ) :   0.9212 B(  4-N ,  5-C ) :   0.9424
B(  4-N ,  8-C ) :   0.9676 B(  5-C ,  6-C ) :   0.9424 B(  5-C ,  8-C ) :  -0.1011
B(  5-C , 15-H ) :   0.8921 B(  5-C , 16-H ) :   0.9117 B(  6-C ,  7-O ) :   2.0420
B(  6-C ,  8-C ) :   0.8672 B(  8-C , 17-H ) :   0.8821

MP2 TOTAL ENERGY:     -438.320451934 Eh
FINAL SINGLE POINT ENERGY      -438.320451934078

DIPOLE MOMENT
-------------
                                X             Y             Z
Electronic contribution:      1.15381      -3.69316       0.71409
Nuclear contribution   :     -0.91770       4.15727      -0.83222
                        -----------------------------------------
Total Dipole Moment    :      0.23611       0.46411      -0.11813
                        -----------------------------------------
Magnitude (a.u.)       :      0.53395
Magnitude (Debye)      :      1.35720

                             ****ORCA TERMINATED NORMALLY****
TOTAL RUN TIME: 0 days 0 hours 27 minutes 28 seconds 15 msec
