                         Program Version 3.0.3 - RELEASE   -
|  1> ! RI-MP2 RIJK def2-TZVP def2-TZVP/C def2-TZVP/JK TIGHTSCF
|  2> % maxcore 2000
|  3> % mp2 density relaxed end
|  4> *xyz 0 1
|  5>  C        0.0195639955     1.5965597891    -0.0501072926
|  6>  C        0.0223198636     0.0661211102    -0.0026114311
|  7>  O        0.7662515651    -0.2965776600     1.1569427013
|  8>  C       -1.4133845617    -0.5124313938     0.0373281049
|  9>  C       -2.1932192451    -0.0349939359     1.1744306810
| 10>  N       -2.8102482976     0.3390360126     2.0768742548
| 11>  C        0.6867277722    -0.4586290890    -1.3021796610
| 12>  N        1.9809848057    -0.8301793670    -1.1483887795
| 13>  O        0.0764371408    -0.5030812746    -2.3542777928
| 14>  H        1.0475165983     1.9675330829    -0.0343853119
| 15>  H       -0.4654857204     1.9438238561    -0.9648901204
| 16>  H       -0.5079365182     1.9975895020     0.8185542215
| 17>  H        0.6188563368    -1.2309289489     1.3429706641
| 18>  H       -1.9133491547    -0.2602892459    -0.9013335449
| 19>  H       -1.3697094279    -1.6084075910     0.0740559065
| 20>  H        2.4349581787    -0.6992321510    -0.2601669234
| 21>  H        2.5127368791    -1.0894573958    -1.9627509064
| 22> *
| 23>
| 24>                          ****END OF INPUT****

CARTESIAN COORDINATES (ANGSTROEM)
---------------------------------
  C      0.019564    1.596560   -0.050107
  C      0.022320    0.066121   -0.002611
  O      0.766252   -0.296578    1.156943
  C     -1.413385   -0.512431    0.037328
  C     -2.193219   -0.034994    1.174431
  N     -2.810248    0.339036    2.076874
  C      0.686728   -0.458629   -1.302180
  N      1.980985   -0.830179   -1.148389
  O      0.076437   -0.503081   -2.354278
  H      1.047517    1.967533   -0.034385
  H     -0.465486    1.943824   -0.964890
  H     -0.507937    1.997590    0.818554
  H      0.618856   -1.230929    1.342971
  H     -1.913349   -0.260289   -0.901334
  H     -1.369709   -1.608408    0.074056
  H      2.434958   -0.699232   -0.260167
  H      2.512737   -1.089457   -1.962751

 Total Charge           Charge          ....    0
 Multiplicity           Mult            ....    1
 Number of Electrons    NEL             ....   68
 Basis Dimension        Dim             ....  327

ORBITAL ENERGIES
----------------

  NO   OCC          E(Eh)            E(eV)
   0   2.0000     -20.598211      -560.5058
   1   2.0000     -20.538901      -558.8919
   2   2.0000     -15.601569      -424.5403
   3   2.0000     -15.574757      -423.8107
   4   2.0000     -11.370290      -309.4013
   5   2.0000     -11.338389      -308.5333
   6   2.0000     -11.292633      -307.2882
   7   2.0000     -11.279097      -306.9198
   8   2.0000     -11.240528      -305.8703
   9   2.0000      -1.417940       -38.5841
  10   2.0000      -1.394704       -37.9518
  11   2.0000      -1.231419       -33.5086
  12   2.0000      -1.224152       -33.3109
  13   2.0000      -1.103024       -30.0148
  14   2.0000      -1.005443       -27.3595
  15   2.0000      -0.903667       -24.5900
  16   2.0000      -0.801180       -21.8012
  17   2.0000      -0.768842       -20.9213
  18   2.0000      -0.744397       -20.2561
  19   2.0000      -0.686191       -18.6722
  20   2.0000      -0.681080       -18.5331
  21   2.0000      -0.655806       -17.8454
  22   2.0000      -0.635881       -17.3032
  23   2.0000      -0.603622       -16.4254
  24   2.0000      -0.576244       -15.6804
  25   2.0000      -0.564907       -15.3719
  26   2.0000      -0.558508       -15.1978
  27   2.0000      -0.551205       -14.9990
  28   2.0000      -0.536405       -14.5963
  29   2.0000      -0.522819       -14.2266
  30   2.0000      -0.466346       -12.6899
  31   2.0000      -0.462060       -12.5733
  32   2.0000      -0.436514       -11.8781
  33   2.0000      -0.428169       -11.6511
  34   0.0000       0.102649         2.7932
  35   0.0000       0.139419         3.7938
  36   0.0000       0.153009         4.1636
  37   0.0000       0.160982         4.3805
  38   0.0000       0.171087         4.6555

MULLIKEN ATOMIC CHARGES
-----------------------
   0 C :   -0.411969
   1 C :    0.228605
   2 O :   -0.476339
   3 C :   -0.248875
   4 C :   -0.145914
   5 N :   -0.047760
   6 C :    0.230834
   7 N :   -0.472612
   8 O :   -0.353080
   9 H :    0.139194
  10 H :    0.156350
  11 H :    0.166639
  12 H :    0.325147
  13 H :    0.196680
  14 H :    0.167361
  15 H :    0.282901
  16 H :    0.262838
Sum of atomic charges:   -0.0000000

LOEWDIN ATOMIC CHARGES
----------------------
   0 C :   -0.247571
   1 C :   -0.360645
   2 O :    0.020475
   3 C :   -0.211611
   4 C :   -0.193050
   5 N :    0.062710
   6 C :   -0.456907
   7 N :    0.001322
   8 O :    0.087867
   9 H :    0.133615
  10 H :    0.139420
  11 H :    0.138962
  12 H :    0.181623
  13 H :    0.180938
  14 H :    0.168218
  15 H :    0.177797
  16 H :    0.176838

  Mayer bond orders larger than 0.1
B(  0-C ,  1-C ) :   0.8936 B(  0-C ,  9-H ) :   0.9220 B(  0-C , 10-H ) :   0.9317
B(  0-C , 11-H ) :   0.9296 B(  1-C ,  2-O ) :   0.9086 B(  1-C ,  3-C ) :   0.9187
B(  1-C ,  6-C ) :   0.8530 B(  2-O , 12-H ) :   0.8345 B(  3-C ,  4-C ) :   0.9154
B(  3-C , 13-H ) :   0.8980 B(  3-C , 14-H ) :   0.9069 B(  4-C ,  5-N ) :   2.8728
B(  6-C ,  7-N ) :   1.2020 B(  6-C ,  8-O ) :   1.9485 B(  7-N , 15-H ) :   0.8488
B(  7-N , 16-H ) :   0.8580

MP2 TOTAL ENERGY:     -454.472931664 Eh
FINAL SINGLE POINT ENERGY      -454.472931663858

DIPOLE MOMENT
-------------
                                X             Y             Z
Electronic contribution:     -2.41963      -2.29225       0.77947
Nuclear contribution   :      4.00562       1.57655      -1.20825
                        -----------------------------------------
Total Dipole Moment    :      1.58599      -0.71570      -0.42878
                        -----------------------------------------
Magnitude (a.u.)       :      1.79205
Magnitude (Debye)      :      4.55502

                             ****ORCA TERMINATED NORMALLY****
TOTAL RUN TIME: 0 days 0 hours 17 minutes 22 seconds 773 msec
