                         Program Version 3.0.3 - RELEASE   -
|  1> ! RI-MP2 RIJK def2-TZVP def2-TZVP/C def2-TZVP/JK TIGHTSCF
|  2> % maxcore 2000
|  3> % mp2 density relaxed end
|  4> *xyz 0 1
|  5>  O       -0.0336564348     0.1055022402    -0.7999593245
|  6>  C       -0.0335886090     1.1924661676    -0.3132051706
|  7>  C       -1.1271629557     2.2002399861     0.1271934591
|  8>  N       -0.0352106952     3.0474831973     0.6629012440
|  9>  C        1.0617299602     2.1773454303     0.1739901569
| 10>  C        1.9509872645     1.8675064716     1.4026414570
| 11>  C        1.5621623551     2.9947785458     2.3848588082
| 12>  C        0.0972929490     3.2919230823     2.0266285653
| 13>  O       -0.7983674643     3.6182145846     2.7659256409
| 14>  H       -1.6783237726     2.6485620953    -0.7051021501
| 15>  H       -1.8349820062     1.8618950743     0.8911087571
| 16>  H        1.6267206956     2.6154762227    -0.6570144589
| 17>  H        1.6948356274     0.8889874899     1.8212058562
| 18>  H        3.0128988366     1.8519911545     1.1540263098
| 19>  H        1.6382243840     2.7232518043     3.4380326325
| 20>  H        2.1680282253     3.8930380031     2.2216066670
| 21> *
| 22>
| 23>                          ****END OF INPUT****

CARTESIAN COORDINATES (ANGSTROEM)
---------------------------------
  O     -0.033656    0.105502   -0.799959
  C     -0.033589    1.192466   -0.313205
  C     -1.127163    2.200240    0.127193
  N     -0.035211    3.047483    0.662901
  C      1.061730    2.177345    0.173990
  C      1.950987    1.867506    1.402641
  C      1.562162    2.994779    2.384859
  C      0.097293    3.291923    2.026629
  O     -0.798367    3.618215    2.765926
  H     -1.678324    2.648562   -0.705102
  H     -1.834982    1.861895    0.891109
  H      1.626721    2.615476   -0.657014
  H      1.694836    0.888987    1.821206
  H      3.012899    1.851991    1.154026
  H      1.638224    2.723252    3.438033
  H      2.168028    3.893038    2.221607

 Total Charge           Charge          ....    0
 Multiplicity           Mult            ....    1
 Number of Electrons    NEL             ....   66
 Basis Dimension        Dim             ....  321

ORBITAL ENERGIES
----------------

  NO   OCC          E(Eh)            E(eV)
   0   2.0000     -20.580638      -560.0276
   1   2.0000     -20.542087      -558.9786
   2   2.0000     -15.593797      -424.3288
   3   2.0000     -11.361103      -309.1513
   4   2.0000     -11.358513      -309.0808
   5   2.0000     -11.298576      -307.4499
   6   2.0000     -11.294160      -307.3297
   7   2.0000     -11.264392      -306.5197
   8   2.0000     -11.258538      -306.3604
   9   2.0000      -1.425721       -38.7958
  10   2.0000      -1.403334       -38.1867
  11   2.0000      -1.296928       -35.2912
  12   2.0000      -1.094397       -29.7801
  13   2.0000      -1.021773       -27.8038
  14   2.0000      -0.956381       -26.0245
  15   2.0000      -0.874199       -23.7882
  16   2.0000      -0.771997       -21.0071
  17   2.0000      -0.746956       -20.3257
  18   2.0000      -0.705800       -19.2058
  19   2.0000      -0.689260       -18.7557
  20   2.0000      -0.666871       -18.1465
  21   2.0000      -0.648769       -17.6539
  22   2.0000      -0.620868       -16.8947
  23   2.0000      -0.607745       -16.5376
  24   2.0000      -0.586165       -15.9504
  25   2.0000      -0.577713       -15.7204
  26   2.0000      -0.543799       -14.7975
  27   2.0000      -0.534845       -14.5539
  28   2.0000      -0.525106       -14.2889
  29   2.0000      -0.506201       -13.7744
  30   2.0000      -0.433778       -11.8037
  31   2.0000      -0.421200       -11.4614
  32   2.0000      -0.406845       -11.0708
  33   0.0000       0.103057         2.8043
  34   0.0000       0.130749         3.5579
  35   0.0000       0.142324         3.8728
  36   0.0000       0.156004         4.2451
  37   0.0000       0.162626         4.4253

MULLIKEN ATOMIC CHARGES
-----------------------
   0 O :   -0.225226
   1 C :    0.095210
   2 C :   -0.163062
   3 N :   -0.101077
   4 C :    0.001323
   5 C :   -0.279355
   6 C :   -0.208128
   7 C :    0.176199
   8 O :   -0.308873
   9 H :    0.148642
  10 H :    0.160042
  11 H :    0.137387
  12 H :    0.144357
  13 H :    0.139043
  14 H :    0.141164
  15 H :    0.142355
Sum of atomic charges:    0.0000000

LOEWDIN ATOMIC CHARGES
----------------------
   0 O :    0.184718
   1 C :   -0.288240
   2 C :   -0.191908
   3 N :    0.191729
   4 C :   -0.188317
   5 C :   -0.220298
   6 C :   -0.213851
   7 C :   -0.418069
   8 O :    0.121234
   9 H :    0.141366
  10 H :    0.144305
  11 H :    0.151661
  12 H :    0.146532
  13 H :    0.139207
  14 H :    0.147541
  15 H :    0.152390

  Mayer bond orders larger than 0.1
B(  0-O ,  1-C ) :   2.0670 B(  1-C ,  2-C ) :   0.9149 B(  1-C ,  4-C ) :   0.8699
B(  2-C ,  3-N ) :   0.9013 B(  2-C ,  9-H ) :   0.8992 B(  2-C , 10-H ) :   0.9074
B(  3-N ,  4-C ) :   0.9178 B(  3-N ,  7-C ) :   1.0676 B(  4-C ,  5-C ) :   0.9215
B(  4-C , 11-H ) :   0.8826 B(  5-C ,  6-C ) :   0.9160 B(  5-C , 12-H ) :   0.9240
B(  5-C , 13-H ) :   0.9337 B(  6-C ,  7-C ) :   0.9088 B(  6-C , 14-H ) :   0.9205
B(  6-C , 15-H ) :   0.9087 B(  7-C ,  8-O ) :   2.0198

MP2 TOTAL ENERGY:     -437.193815384 Eh
FINAL SINGLE POINT ENERGY      -437.193815383892

DIPOLE MOMENT
-------------
                                X             Y             Z
Electronic contribution:     -3.43672      -0.53319      -1.76332
Nuclear contribution   :      4.35569       0.56558       1.43094
                        -----------------------------------------
Total Dipole Moment    :      0.91897       0.03239      -0.33238
                        -----------------------------------------
Magnitude (a.u.)       :      0.97777
Magnitude (Debye)      :      2.48529

                             ****ORCA TERMINATED NORMALLY****
TOTAL RUN TIME: 0 days 0 hours 16 minutes 48 seconds 689 msec
