                         Program Version 3.0.3 - RELEASE   -
|  1> ! RI-MP2 RIJK def2-TZVP def2-TZVP/C def2-TZVP/JK TIGHTSCF
|  2> % maxcore 2000
|  3> % mp2 density relaxed end
|  4> *xyz 0 1
|  5>  C       -0.0436639376     1.5145020545     0.0129409749
|  6>  C       -0.0073461185     0.0249640545    -0.0325489506
|  7>  C       -0.0504759167    -0.8222606664    -1.0698011271
|  8>  C        0.0249444672    -2.2020552795    -0.4506698050
|  9>  C       -0.7856288894    -2.1599458293     0.8921817589
| 10>  O        0.1741564066    -3.0436467203     1.5632472821
| 11>  C        0.9944043862    -2.1130548675     0.7798899549
| 12>  C        0.0932339875    -0.8926542352     1.1786350602
| 13>  H        0.8566645886     1.9227482749     0.4898734386
| 14>  H       -0.1187636890     1.9414006294    -0.9910873336
| 15>  H       -0.8964817834     1.8765995482     0.6014109298
| 16>  H       -0.1230669919    -0.5933955373    -2.1245091721
| 17>  H        0.0109389163    -3.1095759920    -1.0516264684
| 18>  H       -1.8507155958    -2.3261282779     1.0733315206
| 19>  H        2.0810448222    -2.2225598544     0.8253073190
| 20>  H        0.1467970275    -0.4978507018     2.1925790077
| 21> *
| 22>
| 23>                          ****END OF INPUT****

CARTESIAN COORDINATES (ANGSTROEM)
---------------------------------
  C     -0.043664    1.514502    0.012941
  C     -0.007346    0.024964   -0.032549
  C     -0.050476   -0.822261   -1.069801
  C      0.024944   -2.202055   -0.450670
  C     -0.785629   -2.159946    0.892182
  O      0.174156   -3.043647    1.563247
  C      0.994404   -2.113055    0.779890
  C      0.093234   -0.892654    1.178635
  H      0.856665    1.922748    0.489873
  H     -0.118764    1.941401   -0.991087
  H     -0.896482    1.876600    0.601411
  H     -0.123067   -0.593396   -2.124509
  H      0.010939   -3.109576   -1.051626
  H     -1.850716   -2.326128    1.073332
  H      2.081045   -2.222560    0.825307
  H      0.146797   -0.497851    2.192579

 Total Charge           Charge          ....    0
 Multiplicity           Mult            ....    1
 Number of Electrons    NEL             ....   58
 Basis Dimension        Dim             ....  296

ORBITAL ENERGIES
----------------

  NO   OCC          E(Eh)            E(eV)
   0   2.0000     -20.546113      -559.0882
   1   2.0000     -11.300111      -307.4917
   2   2.0000     -11.300025      -307.4893
   3   2.0000     -11.245288      -305.9998
   4   2.0000     -11.244994      -305.9918
   5   2.0000     -11.241066      -305.8850
   6   2.0000     -11.231680      -305.6296
   7   2.0000     -11.224276      -305.4281
   8   2.0000      -1.396288       -37.9949
   9   2.0000      -1.159953       -31.5639
  10   2.0000      -1.021556       -27.7979
  11   2.0000      -0.948987       -25.8233
  12   2.0000      -0.904422       -24.6106
  13   2.0000      -0.883424       -24.0392
  14   2.0000      -0.734764       -19.9939
  15   2.0000      -0.726607       -19.7720
  16   2.0000      -0.704051       -19.1582
  17   2.0000      -0.650780       -17.7086
  18   2.0000      -0.589769       -16.0484
  19   2.0000      -0.584886       -15.9155
  20   2.0000      -0.562031       -15.2936
  21   2.0000      -0.560636       -15.2557
  22   2.0000      -0.530993       -14.4491
  23   2.0000      -0.498841       -13.5741
  24   2.0000      -0.478680       -13.0255
  25   2.0000      -0.474565       -12.9136
  26   2.0000      -0.456609       -12.4250
  27   2.0000      -0.393441       -10.7061
  28   2.0000      -0.328293        -8.9333
  29   0.0000       0.136427         3.7124
  30   0.0000       0.137029         3.7288
  31   0.0000       0.171118         4.6564
  32   0.0000       0.175885         4.7861
  33   0.0000       0.180689         4.9168

MULLIKEN ATOMIC CHARGES
-----------------------
   0 C :   -0.457639
   1 C :   -0.002834
   2 C :   -0.255095
   3 C :   -0.022918
   4 C :    0.016528
   5 O :   -0.328629
   6 C :    0.016519
   7 C :   -0.057724
   8 H :    0.143608
   9 H :    0.142241
  10 H :    0.143602
  11 H :    0.134414
  12 H :    0.136507
  13 H :    0.126353
  14 H :    0.126353
  15 H :    0.138715
Sum of atomic charges:   -0.0000000

LOEWDIN ATOMIC CHARGES
----------------------
   0 C :   -0.276022
   1 C :   -0.163542
   2 C :   -0.121560
   3 C :   -0.153244
   4 C :   -0.173814
   5 O :    0.123657
   6 C :   -0.173812
   7 C :   -0.126838
   8 H :    0.132835
   9 H :    0.132247
  10 H :    0.132830
  11 H :    0.135865
  12 H :    0.140390
  13 H :    0.124503
  14 H :    0.124503
  15 H :    0.142002

  Mayer bond orders larger than 0.1
B(  0-C ,  1-C ) :   0.8641 B(  0-C ,  8-H ) :   0.9343 B(  0-C ,  9-H ) :   0.9577
B(  0-C , 10-H ) :   0.9344 B(  1-C ,  2-C ) :   1.7028 B(  1-C ,  7-C ) :   0.8636
B(  2-C ,  3-C ) :   0.8891 B(  2-C , 11-H ) :   0.9198 B(  3-C ,  4-C ) :   0.9056
B(  3-C ,  6-C ) :   0.9056 B(  3-C ,  7-C ) :  -0.1177 B(  3-C , 12-H ) :   0.9150
B(  4-C ,  5-O ) :   0.9278 B(  4-C ,  7-C ) :   0.9074 B(  4-C , 13-H ) :   0.8836
B(  5-O ,  6-C ) :   0.9278 B(  6-C ,  7-C ) :   0.9074 B(  6-C , 14-H ) :   0.8836
B(  7-C , 15-H ) :   0.9105

MP2 TOTAL ENERGY:     -345.919172026 Eh
FINAL SINGLE POINT ENERGY      -345.919172026420

DIPOLE MOMENT
-------------
                                X             Y             Z
Electronic contribution:      0.23996      -5.53686       1.49338
Nuclear contribution   :     -0.28714       6.28439      -1.92951
                        -----------------------------------------
Total Dipole Moment    :     -0.04718       0.74753      -0.43614
                        -----------------------------------------
Magnitude (a.u.)       :      0.86674
Magnitude (Debye)      :      2.20307

                             ****ORCA TERMINATED NORMALLY****
TOTAL RUN TIME: 0 days 0 hours 12 minutes 48 seconds 843 msec
