                         Program Version 3.0.3 - RELEASE   -
|  1> ! RI-MP2 RIJK def2-TZVP def2-TZVP/C def2-TZVP/JK TIGHTSCF
|  2> % maxcore 2000
|  3> % mp2 density relaxed end
|  4> *xyz 0 1
|  5>  C        2.1165136754     2.3465204817    -0.5859463623
|  6>  C        1.0072339087     1.2963900241    -0.4420441545
|  7>  C        1.1917636275     0.1262817100    -1.3898686917
|  8>  C        2.0220188535    -1.1028174957    -1.0529481040
|  9>  C        2.7382468219    -1.2880894509     0.2691268405
| 10>  C        0.5167281317    -1.2238926256    -1.2209893167
| 11>  C       -0.3759474033    -1.4950861778    -0.0225078779
| 12>  C        0.0200231281    -1.9039085411    -2.4855428947
| 13>  H        3.0972763703     1.9193148390    -0.3525929448
| 14>  H        2.1615662965     2.7335790036    -1.6100182466
| 15>  H        1.9501647107     3.1959747004     0.0843029792
| 16>  H        0.9673148836     0.9566491270     0.5973371849
| 17>  H        0.0350931375     1.7681449578    -0.6389461229
| 18>  H        1.2763012695     0.4526661605    -2.4261364757
| 19>  H        2.5934028934    -1.5009211556    -1.8895945260
| 20>  H        2.2002281306    -0.8487300826     1.1121758260
| 21>  H        2.8795351647    -2.3519326127     0.4920513290
| 22>  H        3.7313749250    -0.8253889877     0.2411562864
| 23>  H       -0.0189198390    -1.0300719616     0.8979995577
| 24>  H       -1.3911538107    -1.1231029797    -0.2058989213
| 25>  H       -0.4535441119    -2.5731403886     0.1634786789
| 26>  H       -0.0223713358    -2.9930125965    -2.3598408395
| 27>  H       -0.9891972859    -1.5636607770    -2.7490884987
| 28>  H        0.6744721780    -1.6928434108    -3.3372289452
| 29> *
| 30>
| 31>                          ****END OF INPUT****

CARTESIAN COORDINATES (ANGSTROEM)
---------------------------------
  C      2.116514    2.346520   -0.585946
  C      1.007234    1.296390   -0.442044
  C      1.191764    0.126282   -1.389869
  C      2.022019   -1.102817   -1.052948
  C      2.738247   -1.288089    0.269127
  C      0.516728   -1.223893   -1.220989
  C     -0.375947   -1.495086   -0.022508
  C      0.020023   -1.903909   -2.485543
  H      3.097276    1.919315   -0.352593
  H      2.161566    2.733579   -1.610018
  H      1.950165    3.195975    0.084303
  H      0.967315    0.956649    0.597337
  H      0.035093    1.768145   -0.638946
  H      1.276301    0.452666   -2.426136
  H      2.593403   -1.500921   -1.889595
  H      2.200228   -0.848730    1.112176
  H      2.879535   -2.351933    0.492051
  H      3.731375   -0.825389    0.241156
  H     -0.018920   -1.030072    0.898000
  H     -1.391154   -1.123103   -0.205899
  H     -0.453544   -2.573140    0.163479
  H     -0.022371   -2.993013   -2.359841
  H     -0.989197   -1.563661   -2.749088
  H      0.674472   -1.692843   -3.337229

 Total Charge           Charge          ....    0
 Multiplicity           Mult            ....    1
 Number of Electrons    NEL             ....   64
 Basis Dimension        Dim             ....  344

ORBITAL ENERGIES
----------------

  NO   OCC          E(Eh)            E(eV)
   0   2.0000     -11.227240      -305.5087
   1   2.0000     -11.219452      -305.2968
   2   2.0000     -11.217570      -305.2456
   3   2.0000     -11.216637      -305.2202
   4   2.0000     -11.212590      -305.1101
   5   2.0000     -11.211040      -305.0679
   6   2.0000     -11.209838      -305.0352
   7   2.0000     -11.209047      -305.0137
   8   2.0000      -1.154617       -31.4187
   9   2.0000      -1.028387       -27.9838
  10   2.0000      -0.990419       -26.9507
  11   2.0000      -0.940573       -25.5943
  12   2.0000      -0.924390       -25.1539
  13   2.0000      -0.851264       -23.1641
  14   2.0000      -0.742441       -20.2029
  15   2.0000      -0.723662       -19.6918
  16   2.0000      -0.650986       -17.7142
  17   2.0000      -0.613378       -16.6909
  18   2.0000      -0.597287       -16.2530
  19   2.0000      -0.586034       -15.9468
  20   2.0000      -0.558992       -15.2109
  21   2.0000      -0.546995       -14.8845
  22   2.0000      -0.539212       -14.6727
  23   2.0000      -0.531298       -14.4574
  24   2.0000      -0.525705       -14.3052
  25   2.0000      -0.515044       -14.0151
  26   2.0000      -0.506690       -13.7877
  27   2.0000      -0.486530       -13.2392
  28   2.0000      -0.468110       -12.7379
  29   2.0000      -0.458381       -12.4732
  30   2.0000      -0.378033       -10.2868
  31   2.0000      -0.371548       -10.1103
  32   0.0000       0.130569         3.5530
  33   0.0000       0.154927         4.2158
  34   0.0000       0.165699         4.5089
  35   0.0000       0.170117         4.6291
  36   0.0000       0.193585         5.2677

MULLIKEN ATOMIC CHARGES
-----------------------
   0 C :   -0.392373
   1 C :   -0.197896
   2 C :   -0.158527
   3 C :   -0.129239
   4 C :   -0.412401
   5 C :    0.129693
   6 C :   -0.394880
   7 C :   -0.397760
   8 H :    0.127319
   9 H :    0.121248
  10 H :    0.130852
  11 H :    0.096220
  12 H :    0.114672
  13 H :    0.106362
  14 H :    0.110559
  15 H :    0.119158
  16 H :    0.135439
  17 H :    0.133215
  18 H :    0.121662
  19 H :    0.130562
  20 H :    0.130934
  21 H :    0.125696
  22 H :    0.125338
  23 H :    0.124147
Sum of atomic charges:   -0.0000000

LOEWDIN ATOMIC CHARGES
----------------------
   0 C :   -0.314395
   1 C :   -0.273088
   2 C :   -0.179721
   3 C :   -0.199227
   4 C :   -0.294722
   5 C :   -0.261646
   6 C :   -0.265905
   7 C :   -0.269320
   8 H :    0.120857
   9 H :    0.120201
  10 H :    0.119137
  11 H :    0.134464
  12 H :    0.138819
  13 H :    0.150445
  14 H :    0.148236
  15 H :    0.121440
  16 H :    0.126176
  17 H :    0.125039
  18 H :    0.122617
  19 H :    0.127916
  20 H :    0.127819
  21 H :    0.124392
  22 H :    0.124642
  23 H :    0.125824

  Mayer bond orders larger than 0.1
B(  0-C ,  1-C ) :   0.9144 B(  0-C ,  8-H ) :   0.9406 B(  0-C ,  9-H ) :   0.9393
B(  0-C , 10-H ) :   0.9411 B(  1-C ,  2-C ) :   0.9147 B(  1-C , 11-H ) :   0.9366
B(  1-C , 12-H ) :   0.9357 B(  2-C ,  3-C ) :   0.8993 B(  2-C ,  5-C ) :   0.8445
B(  2-C , 13-H ) :   0.9286 B(  3-C ,  4-C ) :   0.8983 B(  3-C ,  5-C ) :   0.8695
B(  3-C , 14-H ) :   0.9297 B(  4-C , 15-H ) :   0.9407 B(  4-C , 16-H ) :   0.9389
B(  4-C , 17-H ) :   0.9385 B(  5-C ,  6-C ) :   0.9194 B(  5-C ,  7-C ) :   0.8951
B(  6-C , 18-H ) :   0.9346 B(  6-C , 19-H ) :   0.9374 B(  6-C , 20-H ) :   0.9370
B(  7-C , 21-H ) :   0.9408 B(  7-C , 22-H ) :   0.9405 B(  7-C , 23-H ) :   0.9311

MP2 TOTAL ENERGY:     -313.693616125 Eh
FINAL SINGLE POINT ENERGY      -313.693616125450

DIPOLE MOMENT
-------------
                                X             Y             Z
Electronic contribution:     -0.18915      -0.82051      -1.47687
Nuclear contribution   :      0.17543       0.81356       1.51076
                        -----------------------------------------
Total Dipole Moment    :     -0.01372      -0.00694       0.03389
                        -----------------------------------------
Magnitude (a.u.)       :      0.03721
Magnitude (Debye)      :      0.09459

                             ****ORCA TERMINATED NORMALLY****
TOTAL RUN TIME: 0 days 0 hours 16 minutes 13 seconds 899 msec
