                         Program Version 3.0.3 - RELEASE   -
|  1> ! RI-MP2 RIJK def2-TZVP def2-TZVP/C def2-TZVP/JK TIGHTSCF
|  2> % maxcore 2000
|  3> % mp2 density relaxed end
|  4> *xyz 0 1
|  5>  C       -0.3124714819     1.3687806451     0.1379163896
|  6>  C       -0.1215738134    -0.1227250988    -0.1485593807
|  7>  C        0.9168639901    -0.4339881427    -1.2506398000
|  8>  O        2.1739427666     0.1255071515    -0.9289976715
|  9>  C        1.0122019605    -1.9439281586    -1.5340028964
| 10>  C       -0.0482754343    -2.1929670291    -2.6319690306
| 11>  N       -0.1320924336    -0.8967105019    -3.2936152173
| 12>  C        0.4542960154     0.1192677207    -2.6118758705
| 13>  O        0.6249501314     1.2656992867    -2.9831892061
| 14>  H        0.6325076122     1.8185749373     0.4548184534
| 15>  H       -0.6619836972     1.9097662773    -0.7453533194
| 16>  H       -1.0405163969     1.5147046670     0.9413686164
| 17>  H        0.2251220655    -0.6302976417     0.7599486999
| 18>  H       -1.0811384195    -0.5836244705    -0.4186140470
| 19>  H        2.2000712239     0.9802222437    -1.3842124489
| 20>  H        2.0126415044    -2.1530880968    -1.9215892867
| 21>  H        0.8464407986    -2.5628651247    -0.6496389698
| 22>  H        0.2568081385    -2.9739212156    -3.3350217210
| 23>  H       -1.0163042051    -2.4876517317    -2.2056243046
| 24>  H       -0.5446086950    -0.7528479972    -4.2016053288
| 25> *
| 26>
| 27>                          ****END OF INPUT****

CARTESIAN COORDINATES (ANGSTROEM)
---------------------------------
  C     -0.312471    1.368781    0.137916
  C     -0.121574   -0.122725   -0.148559
  C      0.916864   -0.433988   -1.250640
  O      2.173943    0.125507   -0.928998
  C      1.012202   -1.943928   -1.534003
  C     -0.048275   -2.192967   -2.631969
  N     -0.132092   -0.896711   -3.293615
  C      0.454296    0.119268   -2.611876
  O      0.624950    1.265699   -2.983189
  H      0.632508    1.818575    0.454818
  H     -0.661984    1.909766   -0.745353
  H     -1.040516    1.514705    0.941369
  H      0.225122   -0.630298    0.759949
  H     -1.081138   -0.583624   -0.418614
  H      2.200071    0.980222   -1.384212
  H      2.012642   -2.153088   -1.921589
  H      0.846441   -2.562865   -0.649639
  H      0.256808   -2.973921   -3.335022
  H     -1.016304   -2.487652   -2.205624
  H     -0.544609   -0.752848   -4.201605

 Total Charge           Charge          ....    0
 Multiplicity           Mult            ....    1
 Number of Electrons    NEL             ....   70
 Basis Dimension        Dim             ....  345

ORBITAL ENERGIES
----------------

  NO   OCC          E(Eh)            E(eV)
   0   2.0000     -20.555781      -559.3512
   1   2.0000     -20.526622      -558.5578
   2   2.0000     -15.593233      -424.3134
   3   2.0000     -11.348904      -308.8194
   4   2.0000     -11.297962      -307.4332
   5   2.0000     -11.284462      -307.0658
   6   2.0000     -11.240089      -305.8584
   7   2.0000     -11.231109      -305.6140
   8   2.0000     -11.209657      -305.0303
   9   2.0000      -1.398704       -38.0607
  10   2.0000      -1.358409       -36.9642
  11   2.0000      -1.259615       -34.2759
  12   2.0000      -1.074230       -29.2313
  13   2.0000      -1.019872       -27.7521
  14   2.0000      -0.956657       -26.0320
  15   2.0000      -0.856105       -23.2958
  16   2.0000      -0.838268       -22.8104
  17   2.0000      -0.771069       -20.9819
  18   2.0000      -0.700869       -19.0716
  19   2.0000      -0.695443       -18.9240
  20   2.0000      -0.673260       -18.3203
  21   2.0000      -0.631163       -17.1748
  22   2.0000      -0.612433       -16.6651
  23   2.0000      -0.602217       -16.3872
  24   2.0000      -0.582058       -15.8386
  25   2.0000      -0.559804       -15.2330
  26   2.0000      -0.544064       -14.8047
  27   2.0000      -0.534424       -14.5424
  28   2.0000      -0.528718       -14.3872
  29   2.0000      -0.505475       -13.7547
  30   2.0000      -0.496475       -13.5098
  31   2.0000      -0.491649       -13.3785
  32   2.0000      -0.438211       -11.9243
  33   2.0000      -0.412006       -11.2113
  34   2.0000      -0.401595       -10.9280
  35   0.0000       0.126311         3.4371
  36   0.0000       0.148293         4.0353
  37   0.0000       0.155609         4.2343
  38   0.0000       0.171106         4.6560
  39   0.0000       0.176604         4.8056

MULLIKEN ATOMIC CHARGES
-----------------------
   0 C :   -0.445103
   1 C :   -0.206967
   2 C :    0.271899
   3 O :   -0.483485
   4 C :   -0.226252
   5 C :   -0.136990
   6 N :   -0.295558
   7 C :    0.142610
   8 O :   -0.361927
   9 H :    0.135992
  10 H :    0.149559
  11 H :    0.131590
  12 H :    0.115294
  13 H :    0.108077
  14 H :    0.336066
  15 H :    0.132658
  16 H :    0.134512
  17 H :    0.134068
  18 H :    0.123742
  19 H :    0.240214
Sum of atomic charges:   -0.0000000

LOEWDIN ATOMIC CHARGES
----------------------
   0 C :   -0.316430
   1 C :   -0.247746
   2 C :   -0.352483
   3 O :    0.019970
   4 C :   -0.199903
   5 C :   -0.259278
   6 N :    0.132843
   7 C :   -0.429197
   8 O :    0.075820
   9 H :    0.124551
  10 H :    0.126522
  11 H :    0.121240
  12 H :    0.144060
  13 H :    0.141766
  14 H :    0.187678
  15 H :    0.148777
  16 H :    0.140355
  17 H :    0.130613
  18 H :    0.126315
  19 H :    0.184529

  Mayer bond orders larger than 0.1
B(  0-C ,  1-C ) :   0.9176 B(  0-C ,  9-H ) :   0.9402 B(  0-C , 10-H ) :   0.9337
B(  0-C , 11-H ) :   0.9356 B(  1-C ,  2-C ) :   0.9000 B(  1-C , 12-H ) :   0.9239
B(  1-C , 13-H ) :   0.9106 B(  2-C ,  3-O ) :   1.0347 B(  2-C ,  4-C ) :   0.8583
B(  2-C ,  7-C ) :   0.8609 B(  3-O , 14-H ) :   0.8158 B(  4-C ,  5-C ) :   0.9374
B(  4-C , 15-H ) :   0.9260 B(  4-C , 16-H ) :   0.9357 B(  5-C ,  6-N ) :   0.8723
B(  5-C , 17-H ) :   0.9312 B(  5-C , 18-H ) :   0.9263 B(  6-N ,  7-C ) :   1.2290
B(  6-N , 19-H ) :   0.8608 B(  7-C ,  8-O ) :   1.9379

MP2 TOTAL ENERGY:     -439.626172399 Eh
FINAL SINGLE POINT ENERGY      -439.626172398748

DIPOLE MOMENT
-------------
                                X             Y             Z
Electronic contribution:      2.88350       1.50013      -5.71838
Nuclear contribution   :     -3.66356      -2.75151       5.48884
                        -----------------------------------------
Total Dipole Moment    :     -0.78006      -1.25139      -0.22954
                        -----------------------------------------
Magnitude (a.u.)       :      1.49236
Magnitude (Debye)      :      3.79329

                             ****ORCA TERMINATED NORMALLY****
TOTAL RUN TIME: 0 days 0 hours 19 minutes 30 seconds 70 msec
