                         Program Version 3.0.3 - RELEASE   -
|  1> ! RI-MP2 RIJK def2-TZVP def2-TZVP/C def2-TZVP/JK TIGHTSCF
|  2> % maxcore 2000
|  3> % mp2 density relaxed end
|  4> *xyz 0 1
|  5>  C       -1.0686658441     1.2001346573    -0.3126024445
|  6>  C       -0.1177720800     0.0136077714    -0.3759936108
|  7>  C        0.9086368317    -0.1294282997    -1.5468966085
|  8>  C        2.0355016827    -0.5141624160    -0.5334154320
|  9>  C        3.4242480361     0.0989080263    -0.6410737838
| 10>  C        1.0970251625     0.0080389583     0.5690718252
| 11>  O        1.2797007537     0.4223796570     1.6786706589
| 12>  H       -0.5286730546     2.1429329079    -0.4480210725
| 13>  H       -1.8377767548     1.1355746825    -1.0888118180
| 14>  H       -1.5680360969     1.2408724370     0.6600680370
| 15>  H       -0.6690444712    -0.9267574872    -0.2450250078
| 16>  H        0.6725321967    -0.8621819695    -2.3198097065
| 17>  H        1.1104717803     0.8356546450    -2.0216426302
| 18>  H        2.1043780571    -1.6065290082    -0.4477836262
| 19>  H        3.3657750917     1.1883927020    -0.7327419987
| 20>  H        4.0145245502    -0.1274293330     0.2519341066
| 21>  H        3.9626746390    -0.2861373513    -1.5128750480
| 22> *
| 23>
| 24>                          ****END OF INPUT****

CARTESIAN COORDINATES (ANGSTROEM)
---------------------------------
  C     -1.068666    1.200135   -0.312602
  C     -0.117772    0.013608   -0.375994
  C      0.908637   -0.129428   -1.546897
  C      2.035502   -0.514162   -0.533415
  C      3.424248    0.098908   -0.641074
  C      1.097025    0.008039    0.569072
  O      1.279701    0.422380    1.678671
  H     -0.528673    2.142933   -0.448021
  H     -1.837777    1.135575   -1.088812
  H     -1.568036    1.240872    0.660068
  H     -0.669044   -0.926757   -0.245025
  H      0.672532   -0.862182   -2.319810
  H      1.110472    0.835655   -2.021643
  H      2.104378   -1.606529   -0.447784
  H      3.365775    1.188393   -0.732742
  H      4.014525   -0.127429    0.251934
  H      3.962675   -0.286137   -1.512875

 Total Charge           Charge          ....    0
 Multiplicity           Mult            ....    1
 Number of Electrons    NEL             ....   54
 Basis Dimension        Dim             ....  277

ORBITAL ENERGIES
----------------

  NO   OCC          E(Eh)            E(eV)
   0   2.0000     -20.548068      -559.1414
   1   2.0000     -11.323102      -308.1173
   2   2.0000     -11.243582      -305.9534
   3   2.0000     -11.243581      -305.9534
   4   2.0000     -11.237242      -305.7809
   5   2.0000     -11.224600      -305.4369
   6   2.0000     -11.224599      -305.4369
   7   2.0000      -1.389999       -37.8238
   8   2.0000      -1.144285       -31.1376
   9   2.0000      -1.024453       -27.8768
  10   2.0000      -0.950961       -25.8770
  11   2.0000      -0.859880       -23.3985
  12   2.0000      -0.826051       -22.4780
  13   2.0000      -0.719587       -19.5810
  14   2.0000      -0.664679       -18.0868
  15   2.0000      -0.638195       -17.3662
  16   2.0000      -0.612836       -16.6761
  17   2.0000      -0.597304       -16.2535
  18   2.0000      -0.570881       -15.5345
  19   2.0000      -0.546186       -14.8625
  20   2.0000      -0.542674       -14.7669
  21   2.0000      -0.533410       -14.5148
  22   2.0000      -0.511091       -13.9075
  23   2.0000      -0.485975       -13.2241
  24   2.0000      -0.471651       -12.8343
  25   2.0000      -0.452805       -12.3215
  26   2.0000      -0.385417       -10.4877
  27   0.0000       0.112754         3.0682
  28   0.0000       0.152290         4.1440
  29   0.0000       0.152403         4.1471
  30   0.0000       0.167908         4.5690
  31   0.0000       0.180974         4.9246

MULLIKEN ATOMIC CHARGES
-----------------------
   0 C :   -0.413288
   1 C :    0.034724
   2 C :   -0.319740
   3 C :    0.034724
   4 C :   -0.413287
   5 C :    0.030941
   6 O :   -0.259861
   7 H :    0.126507
   8 H :    0.135937
   9 H :    0.144334
  10 H :    0.120708
  11 H :    0.127134
  12 H :    0.123680
  13 H :    0.120708
  14 H :    0.126507
  15 H :    0.144334
  16 H :    0.135937
Sum of atomic charges:    0.0000000

LOEWDIN ATOMIC CHARGES
----------------------
   0 C :   -0.292822
   1 C :   -0.227202
   2 C :   -0.192812
   3 C :   -0.227202
   4 C :   -0.292822
   5 C :   -0.283677
   6 O :    0.161334
   7 H :    0.126185
   8 H :    0.125386
   9 H :    0.131475
  10 H :    0.162131
  11 H :    0.126906
  12 H :    0.137942
  13 H :    0.162131
  14 H :    0.126185
  15 H :    0.131475
  16 H :    0.125386

  Mayer bond orders larger than 0.1
B(  0-C ,  1-C ) :   0.8890 B(  0-C ,  7-H ) :   0.9352 B(  0-C ,  8-H ) :   0.9393
B(  0-C ,  9-H ) :   0.9354 B(  1-C ,  2-C ) :   0.9274 B(  1-C ,  3-C ) :  -0.1317
B(  1-C ,  5-C ) :   0.8513 B(  1-C , 10-H ) :   0.8963 B(  2-C ,  3-C ) :   0.9274
B(  2-C , 11-H ) :   0.9289 B(  2-C , 12-H ) :   0.9178 B(  3-C ,  4-C ) :   0.8890
B(  3-C ,  5-C ) :   0.8513 B(  3-C , 13-H ) :   0.8963 B(  4-C , 14-H ) :   0.9352
B(  4-C , 15-H ) :   0.9354 B(  4-C , 16-H ) :   0.9393 B(  5-C ,  6-O ) :   2.0514

MP2 TOTAL ENERGY:     -309.195381888 Eh
FINAL SINGLE POINT ENERGY      -309.195381887550

DIPOLE MOMENT
-------------
                                X             Y             Z
Electronic contribution:      0.06183      -1.22183       4.94210
Nuclear contribution   :     -0.21753       0.88208      -5.93275
                        -----------------------------------------
Total Dipole Moment    :     -0.15570      -0.33974      -0.99065
                        -----------------------------------------
Magnitude (a.u.)       :      1.05880
Magnitude (Debye)      :      2.69125

                             ****ORCA TERMINATED NORMALLY****
TOTAL RUN TIME: 0 days 0 hours 8 minutes 59 seconds 672 msec
