                         Program Version 3.0.3 - RELEASE   -
|  1> ! RI-MP2 RIJK def2-TZVP def2-TZVP/C def2-TZVP/JK TIGHTSCF
|  2> % maxcore 2000
|  3> % mp2 density relaxed end
|  4> *xyz 0 1
|  5>  C        0.2122649131     0.9419640734    -0.4638746903
|  6>  O       -0.4368395565     0.2210402801     0.5849230185
|  7>  C        0.3911942005    -0.5298680449     1.3563541558
|  8>  C        0.7651148390    -1.8514042066     1.2334948173
|  9>  C        0.3713749786    -2.8071282201     0.1510198842
| 10>  C        1.5988589240    -2.1191364054     2.3650336771
| 11>  O        2.2081914747    -3.3058033789     2.6645558520
| 12>  C        1.7053494877    -0.9811984685     3.1245765812
| 13>  N        0.9668398646    -0.0010146418     2.4794243361
| 14>  H        0.7218283499     0.2603000029    -1.1551239593
| 15>  H       -0.5683845731     1.4882150071    -0.9977341659
| 16>  H        0.9455338813     1.6532193505    -0.0633163456
| 17>  H        1.2194733670    -3.1108964286    -0.4773311997
| 18>  H       -0.0767680651    -3.7247335651     0.5554050802
| 19>  H       -0.3756507767    -2.3500453963    -0.5036354537
| 20>  H        1.9653317928    -3.9473851545     1.9908142958
| 21>  H        2.2337470836    -0.7898290192     4.0420157907
| 22>  H        0.7526219246     0.9093404261     2.8456706755
| 23> *
| 24>
| 25>                          ****END OF INPUT****

CARTESIAN COORDINATES (ANGSTROEM)
---------------------------------
  C      0.212265    0.941964   -0.463875
  O     -0.436840    0.221040    0.584923
  C      0.391194   -0.529868    1.356354
  C      0.765115   -1.851404    1.233495
  C      0.371375   -2.807128    0.151020
  C      1.598859   -2.119136    2.365034
  O      2.208191   -3.305803    2.664556
  C      1.705349   -0.981198    3.124577
  N      0.966840   -0.001015    2.479424
  H      0.721828    0.260300   -1.155124
  H     -0.568385    1.488215   -0.997734
  H      0.945534    1.653219   -0.063316
  H      1.219473   -3.110896   -0.477331
  H     -0.076768   -3.724734    0.555405
  H     -0.375651   -2.350045   -0.503635
  H      1.965332   -3.947385    1.990814
  H      2.233747   -0.789829    4.042016
  H      0.752622    0.909340    2.845671

 Total Charge           Charge          ....    0
 Multiplicity           Mult            ....    1
 Number of Electrons    NEL             ....   68
 Basis Dimension        Dim             ....  333

ORBITAL ENERGIES
----------------

  NO   OCC          E(Eh)            E(eV)
   0   2.0000     -20.584287      -560.1269
   1   2.0000     -20.572142      -559.7964
   2   2.0000     -15.594174      -424.3390
   3   2.0000     -11.307969      -307.7055
   4   2.0000     -11.287343      -307.1442
   5   2.0000     -11.269117      -306.6483
   6   2.0000     -11.231566      -305.6265
   7   2.0000     -11.226587      -305.4910
   8   2.0000     -11.211200      -305.0723
   9   2.0000      -1.413331       -38.4587
  10   2.0000      -1.385262       -37.6949
  11   2.0000      -1.273459       -34.6526
  12   2.0000      -1.061988       -28.8982
  13   2.0000      -0.990495       -26.9527
  14   2.0000      -0.955994       -26.0139
  15   2.0000      -0.907823       -24.7031
  16   2.0000      -0.788243       -21.4492
  17   2.0000      -0.769161       -20.9299
  18   2.0000      -0.735439       -20.0123
  19   2.0000      -0.685498       -18.6534
  20   2.0000      -0.650825       -17.7099
  21   2.0000      -0.640277       -17.4228
  22   2.0000      -0.615705       -16.7542
  23   2.0000      -0.601595       -16.3702
  24   2.0000      -0.591587       -16.0979
  25   2.0000      -0.566300       -15.4098
  26   2.0000      -0.555917       -15.1273
  27   2.0000      -0.543856       -14.7991
  28   2.0000      -0.535788       -14.5795
  29   2.0000      -0.514044       -13.9878
  30   2.0000      -0.497129       -13.5276
  31   2.0000      -0.456920       -12.4334
  32   2.0000      -0.323623        -8.8062
  33   2.0000      -0.278774        -7.5858
  34   0.0000       0.126629         3.4458
  35   0.0000       0.137535         3.7425
  36   0.0000       0.162109         4.4112
  37   0.0000       0.185100         5.0368
  38   0.0000       0.197904         5.3852

MULLIKEN ATOMIC CHARGES
-----------------------
   0 C :   -0.204813
   1 O :   -0.318234
   2 C :    0.177853
   3 C :    0.012644
   4 C :   -0.499216
   5 C :    0.108503
   6 O :   -0.443991
   7 C :   -0.134839
   8 N :   -0.256350
   9 H :    0.126697
  10 H :    0.140643
  11 H :    0.120503
  12 H :    0.149503
  13 H :    0.144553
  14 H :    0.156708
  15 H :    0.331584
  16 H :    0.142610
  17 H :    0.245644
Sum of atomic charges:   -0.0000000

LOEWDIN ATOMIC CHARGES
----------------------
   0 C :   -0.323465
   1 O :    0.197748
   2 C :   -0.339712
   3 C :   -0.193566
   4 C :   -0.286319
   5 C :   -0.297157
   6 O :    0.052425
   7 C :   -0.228293
   8 N :    0.186323
   9 H :    0.107071
  10 H :    0.113249
  11 H :    0.103850
  12 H :    0.127155
  13 H :    0.128156
  14 H :    0.137725
  15 H :    0.189741
  16 H :    0.133261
  17 H :    0.191809

  Mayer bond orders larger than 0.1
B(  0-C ,  1-O ) :   0.8606 B(  0-C ,  9-H ) :   0.9334 B(  0-C , 10-H ) :   0.9378
B(  0-C , 11-H ) :   0.9371 B(  1-O ,  2-C ) :   1.0598 B(  2-C ,  3-C ) :   1.4202
B(  2-C ,  8-N ) :   1.1627 B(  3-C ,  4-C ) :   0.8229 B(  3-C ,  5-C ) :   1.1632
B(  4-C , 12-H ) :   0.9385 B(  4-C , 13-H ) :   0.9400 B(  4-C , 14-H ) :   0.9458
B(  5-C ,  6-O ) :   1.0843 B(  5-C ,  7-C ) :   1.5398 B(  6-O , 15-H ) :   0.8372
B(  7-C ,  8-N ) :   1.0569 B(  7-C , 16-H ) :   0.9136 B(  8-N , 17-H ) :   0.8666

MP2 TOTAL ENERGY:     -438.377598919 Eh
FINAL SINGLE POINT ENERGY      -438.377598918732

DIPOLE MOMENT
-------------
                                X             Y             Z
Electronic contribution:      0.82571      -0.15243       5.90041
Nuclear contribution   :     -0.86370       0.75953      -6.51000
                        -----------------------------------------
Total Dipole Moment    :     -0.03799       0.60711      -0.60958
                        -----------------------------------------
Magnitude (a.u.)       :      0.86117
Magnitude (Debye)      :      2.18892

                             ****ORCA TERMINATED NORMALLY****
TOTAL RUN TIME: 0 days 0 hours 16 minutes 22 seconds 16 msec
