                         Program Version 3.0.3 - RELEASE   -
|  1> ! RI-MP2 RIJK def2-TZVP def2-TZVP/C def2-TZVP/JK TIGHTSCF
|  2> % maxcore 2000
|  3> % mp2 density relaxed end
|  4> *xyz 0 1
|  5>  O        0.3532534962     0.3517134807    -0.8811531267
|  6>  C        0.3604939164     1.5075857787    -0.5888331317
|  7>  O        0.8262285696     1.9457714197     0.6054234047
|  8>  C        0.8860332729     3.3594298302     0.8063565846
|  9>  C        2.2628457942     3.8643357159     0.4523446837
| 10>  N        2.4992545547     4.1044125724    -0.9694311026
| 11>  C        2.4922224096     5.2569267053    -0.0478524183
| 12>  C        1.4092052730     6.2013737555    -0.1965842919
| 13>  N        0.5456602208     6.9644287776    -0.2867301556
| 14>  H       -0.0099025896     2.3270225008    -1.2315122402
| 15>  H        0.1287603637     3.8724098648     0.2035082541
| 16>  H        0.6667675290     3.5310908476     1.8631419560
| 17>  H        3.0711680141     3.4383100254     1.0428586071
| 18>  H        3.4537910206     3.8791832773    -1.2362286430
| 19>  H        3.4399713548     5.7193359982     0.2138763597
| 20> *
| 21>
| 22>                          ****END OF INPUT****

CARTESIAN COORDINATES (ANGSTROEM)
---------------------------------
  O      0.353253    0.351713   -0.881153
  C      0.360494    1.507586   -0.588833
  O      0.826229    1.945771    0.605423
  C      0.886033    3.359430    0.806357
  C      2.262846    3.864336    0.452345
  N      2.499255    4.104413   -0.969431
  C      2.492222    5.256927   -0.047852
  C      1.409205    6.201374   -0.196584
  N      0.545660    6.964429   -0.286730
  H     -0.009903    2.327023   -1.231512
  H      0.128760    3.872410    0.203508
  H      0.666768    3.531091    1.863142
  H      3.071168    3.438310    1.042859
  H      3.453791    3.879183   -1.236229
  H      3.439971    5.719336    0.213876

 Total Charge           Charge          ....    0
 Multiplicity           Mult            ....    1
 Number of Electrons    NEL             ....   66
 Basis Dimension        Dim             ....  315

ORBITAL ENERGIES
----------------

  NO   OCC          E(Eh)            E(eV)
   0   2.0000     -20.619754      -561.0920
   1   2.0000     -20.556638      -559.3746
   2   2.0000     -15.618216      -424.9933
   3   2.0000     -15.593026      -424.3078
   4   2.0000     -11.388461      -309.8958
   5   2.0000     -11.341701      -308.6234
   6   2.0000     -11.326895      -308.2205
   7   2.0000     -11.320300      -308.0410
   8   2.0000     -11.294802      -307.3472
   9   2.0000      -1.471174       -40.0327
  10   2.0000      -1.382226       -37.6123
  11   2.0000      -1.328578       -36.1524
  12   2.0000      -1.235626       -33.6231
  13   2.0000      -1.038174       -28.2502
  14   2.0000      -0.986800       -26.8522
  15   2.0000      -0.885006       -24.0822
  16   2.0000      -0.853173       -23.2160
  17   2.0000      -0.776029       -21.1168
  18   2.0000      -0.741540       -20.1783
  19   2.0000      -0.731165       -19.8960
  20   2.0000      -0.689007       -18.7488
  21   2.0000      -0.659497       -17.9458
  22   2.0000      -0.616119       -16.7654
  23   2.0000      -0.587985       -15.9999
  24   2.0000      -0.579868       -15.7790
  25   2.0000      -0.572996       -15.5920
  26   2.0000      -0.546039       -14.8585
  27   2.0000      -0.544414       -14.8143
  28   2.0000      -0.491024       -13.3614
  29   2.0000      -0.481859       -13.1121
  30   2.0000      -0.476958       -12.9787
  31   2.0000      -0.463069       -12.6007
  32   2.0000      -0.438797       -11.9403
  33   0.0000       0.099113         2.6970
  34   0.0000       0.125987         3.4283
  35   0.0000       0.141321         3.8455
  36   0.0000       0.150582         4.0976
  37   0.0000       0.160452         4.3661

MULLIKEN ATOMIC CHARGES
-----------------------
   0 O :   -0.265292
   1 C :    0.205649
   2 O :   -0.222096
   3 C :   -0.121080
   4 C :   -0.005276
   5 N :   -0.376739
   6 C :    0.041607
   7 C :   -0.177604
   8 N :   -0.049048
   9 H :    0.094206
  10 H :    0.163459
  11 H :    0.147142
  12 H :    0.154208
  13 H :    0.239356
  14 H :    0.171508
Sum of atomic charges:   -0.0000000

LOEWDIN ATOMIC CHARGES
----------------------
   0 O :    0.126568
   1 C :   -0.441767
   2 O :    0.240258
   3 C :   -0.273847
   4 C :   -0.242907
   5 N :    0.040787
   6 C :   -0.238252
   7 C :   -0.173203
   8 N :    0.079215
   9 H :    0.108350
  10 H :    0.141519
  11 H :    0.142418
  12 H :    0.148980
  13 H :    0.178402
  14 H :    0.163479

  Mayer bond orders larger than 0.1
B(  0-O ,  1-C ) :   2.0222 B(  1-C ,  2-O ) :   1.0455 B(  1-C ,  9-H ) :   0.9135
B(  2-O ,  3-C ) :   0.8528 B(  3-C ,  4-C ) :   0.9262 B(  3-C , 10-H ) :   0.9516
B(  3-C , 11-H ) :   0.9269 B(  4-C ,  5-N ) :   0.8669 B(  4-C ,  6-C ) :   0.8565
B(  4-C , 12-H ) :   0.9124 B(  5-N ,  6-C ) :   0.9264 B(  5-N , 13-H ) :   0.8608
B(  6-C ,  7-C ) :   0.9390 B(  6-C , 14-H ) :   0.9017 B(  7-C ,  8-N ) :   2.8298

MP2 TOTAL ENERGY:     -453.205769851 Eh
FINAL SINGLE POINT ENERGY      -453.205769850654

DIPOLE MOMENT
-------------
                                X             Y             Z
Electronic contribution:     -1.37115      -0.30100      -0.87498
Nuclear contribution   :      2.86562       0.89868       1.51258
                        -----------------------------------------
Total Dipole Moment    :      1.49448       0.59768       0.63760
                        -----------------------------------------
Magnitude (a.u.)       :      1.73124
Magnitude (Debye)      :      4.40047

                             ****ORCA TERMINATED NORMALLY****
TOTAL RUN TIME: 0 days 0 hours 13 minutes 22 seconds 783 msec
