                         Program Version 3.0.3 - RELEASE   -
|  1> ! RI-MP2 RIJK def2-TZVP def2-TZVP/C def2-TZVP/JK TIGHTSCF
|  2> % maxcore 2000
|  3> % mp2 density relaxed end
|  4> *xyz 0 1
|  5>  C       -0.0822213796     1.5444089169     0.1513688420
|  6>  C        0.0429171701     0.0226171635     0.0488122497
|  7>  C        0.7217242091    -0.5121179342    -1.2454436856
|  8>  C        0.7817774635    -2.0562662494    -1.1699935310
|  9>  C       -0.0191496573    -0.0538132577    -2.5385138861
| 10>  C       -1.4945568731    -0.4541398863    -2.6428429416
| 11>  C        2.0967948276    -0.0020313356    -1.3162702449
| 12>  C        3.2248326556     0.4107814214    -1.3823494288
| 13>  H        0.8941624491     2.0255185927     0.0414822859
| 14>  H       -0.7473612341     1.9552144766    -0.6147784306
| 15>  H       -0.4912883133     1.8288161184     1.1257552167
| 16>  H        0.6216509456    -0.3493348636     0.9020946685
| 17>  H       -0.9482130246    -0.4390014815     0.1280839353
| 18>  H       -0.2213443723    -2.4803439090    -1.0671271343
| 19>  H        1.2443225836    -2.4738901087    -2.0689345897
| 20>  H        1.3734333895    -2.3743826675    -0.3071598089
| 21>  H        0.0684380586     1.0343287779    -2.6202736293
| 22>  H        0.5298024867    -0.4623995569    -3.3946545888
| 23>  H       -1.6315453665    -1.5392449493    -2.6128246289
| 24>  H       -2.0980376021    -0.0186019962    -1.8404098165
| 25>  H       -1.9101575332    -0.1002155074    -3.5915359702
| 26>  H        4.2210358972     0.7738495358    -1.4393719429
| 27> *
| 28>
| 29>                          ****END OF INPUT****

CARTESIAN COORDINATES (ANGSTROEM)
---------------------------------
  C     -0.082221    1.544409    0.151369
  C      0.042917    0.022617    0.048812
  C      0.721724   -0.512118   -1.245444
  C      0.781777   -2.056266   -1.169994
  C     -0.019150   -0.053813   -2.538514
  C     -1.494557   -0.454140   -2.642843
  C      2.096795   -0.002031   -1.316270
  C      3.224833    0.410781   -1.382349
  H      0.894162    2.025519    0.041482
  H     -0.747361    1.955214   -0.614778
  H     -0.491288    1.828816    1.125755
  H      0.621651   -0.349335    0.902095
  H     -0.948213   -0.439001    0.128084
  H     -0.221344   -2.480344   -1.067127
  H      1.244323   -2.473890   -2.068935
  H      1.373433   -2.374383   -0.307160
  H      0.068438    1.034329   -2.620274
  H      0.529802   -0.462400   -3.394655
  H     -1.631545   -1.539245   -2.612825
  H     -2.098038   -0.018602   -1.840410
  H     -1.910158   -0.100216   -3.591536
  H      4.221036    0.773850   -1.439372

 Total Charge           Charge          ....    0
 Multiplicity           Mult            ....    1
 Number of Electrons    NEL             ....   62
 Basis Dimension        Dim             ....  332

ORBITAL ENERGIES
----------------

  NO   OCC          E(Eh)            E(eV)
   0   2.0000     -11.258619      -306.3626
   1   2.0000     -11.224857      -305.4439
   2   2.0000     -11.224803      -305.4424
   3   2.0000     -11.224592      -305.4367
   4   2.0000     -11.218088      -305.2597
   5   2.0000     -11.216225      -305.2090
   6   2.0000     -11.213597      -305.1375
   7   2.0000     -11.210490      -305.0529
   8   2.0000      -1.125526       -30.6271
   9   2.0000      -1.015228       -27.6258
  10   2.0000      -1.010666       -27.5016
  11   2.0000      -0.974861       -26.5273
  12   2.0000      -0.887218       -24.1424
  13   2.0000      -0.849220       -23.1085
  14   2.0000      -0.782964       -21.3055
  15   2.0000      -0.701565       -19.0906
  16   2.0000      -0.654741       -17.8164
  17   2.0000      -0.632227       -17.2038
  18   2.0000      -0.600604       -16.3433
  19   2.0000      -0.584453       -15.9038
  20   2.0000      -0.564425       -15.3588
  21   2.0000      -0.546461       -14.8700
  22   2.0000      -0.539847       -14.6900
  23   2.0000      -0.515885       -14.0379
  24   2.0000      -0.502300       -13.6683
  25   2.0000      -0.491262       -13.3679
  26   2.0000      -0.481166       -13.0932
  27   2.0000      -0.462498       -12.5852
  28   2.0000      -0.456940       -12.4340
  29   2.0000      -0.378666       -10.3040
  30   2.0000      -0.377658       -10.2766
  31   0.0000       0.131248         3.5714
  32   0.0000       0.154806         4.2125
  33   0.0000       0.161045         4.3823
  34   0.0000       0.173321         4.7163
  35   0.0000       0.175768         4.7829

MULLIKEN ATOMIC CHARGES
-----------------------
   0 C :   -0.425563
   1 C :   -0.246665
   2 C :    0.056072
   3 C :   -0.416497
   4 C :   -0.232955
   5 C :   -0.426379
   6 C :   -0.068057
   7 C :   -0.154951
   8 H :    0.146520
   9 H :    0.127624
  10 H :    0.135763
  11 H :    0.120527
  12 H :    0.124475
  13 H :    0.134902
  14 H :    0.137545
  15 H :    0.139862
  16 H :    0.132783
  17 H :    0.122365
  18 H :    0.131799
  19 H :    0.132906
  20 H :    0.141369
  21 H :    0.186554
Sum of atomic charges:    0.0000000

LOEWDIN ATOMIC CHARGES
----------------------
   0 C :   -0.312126
   1 C :   -0.238178
   2 C :   -0.290077
   3 C :   -0.251065
   4 C :   -0.236281
   5 C :   -0.315235
   6 C :   -0.069846
   7 C :   -0.104445
   8 H :    0.128528
   9 H :    0.119900
  10 H :    0.122533
  11 H :    0.144464
  12 H :    0.138929
  13 H :    0.124035
  14 H :    0.129298
  15 H :    0.129800
  16 H :    0.143516
  17 H :    0.144319
  18 H :    0.120794
  19 H :    0.120857
  20 H :    0.124744
  21 H :    0.125536

  Mayer bond orders larger than 0.1
B(  0-C ,  1-C ) :   0.9265 B(  0-C ,  8-H ) :   0.9347 B(  0-C ,  9-H ) :   0.9378
B(  0-C , 10-H ) :   0.9394 B(  1-C ,  2-C ) :   0.8470 B(  1-C , 11-H ) :   0.9267
B(  1-C , 12-H ) :   0.9321 B(  2-C ,  3-C ) :   0.8986 B(  2-C ,  4-C ) :   0.9155
B(  2-C ,  6-C ) :   1.1751 B(  2-C ,  7-C ) :  -0.1063 B(  3-C , 13-H ) :   0.9348
B(  3-C , 14-H ) :   0.9349 B(  3-C , 15-H ) :   0.9339 B(  4-C ,  5-C ) :   0.8965
B(  4-C , 16-H ) :   0.9364 B(  4-C , 17-H ) :   0.9298 B(  5-C , 18-H ) :   0.9400
B(  5-C , 19-H ) :   0.9387 B(  5-C , 20-H ) :   0.9398 B(  6-C ,  7-C ) :   2.5817
B(  7-C , 21-H ) :   0.8840

MP2 TOTAL ENERGY:     -312.467899545 Eh
FINAL SINGLE POINT ENERGY      -312.467899545365

DIPOLE MOMENT
-------------
                                X             Y             Z
Electronic contribution:      6.57363       0.51146      -0.25227
Nuclear contribution   :     -6.80712      -0.56748       0.25114
                        -----------------------------------------
Total Dipole Moment    :     -0.23350      -0.05602      -0.00113
                        -----------------------------------------
Magnitude (a.u.)       :      0.24013
Magnitude (Debye)      :      0.61035

                             ****ORCA TERMINATED NORMALLY****
TOTAL RUN TIME: 0 days 0 hours 14 minutes 54 seconds 285 msec
