                         Program Version 3.0.3 - RELEASE   -
|  1> ! RI-MP2 RIJK def2-TZVP def2-TZVP/C def2-TZVP/JK TIGHTSCF
|  2> % maxcore 2000
|  3> % mp2 density relaxed end
|  4> *xyz 0 1
|  5>  C        0.1307659870     1.5660350439    -0.0863917098
|  6>  C       -0.0386938347     0.0575383466     0.0909930455
|  7>  O        0.5255734996    -0.6309101858    -1.0450552792
|  8>  C        1.4790747234    -1.6211437159    -0.6410355379
|  9>  C        1.5448768531    -1.4723854118     0.8443889231
| 10>  C        0.6946189745    -0.5416124388     1.2521143371
| 11>  C        0.7397813956    -0.4133893262     2.7405127497
| 12>  O        1.7277167923    -1.3727332415     3.1436668711
| 13>  C        2.2618427615    -2.0718095945     2.0104119889
| 14>  H        1.1912960475     1.8327555905    -0.1103119727
| 15>  H       -0.3301188218     1.8853256338    -1.0249940112
| 16>  H       -0.3506206362     2.1074975895     0.7350712963
| 17>  H       -1.1163478086    -0.1735856280     0.1360448473
| 18>  H        1.1386418757    -2.6206794486    -0.9556494027
| 19>  H        2.4393830941    -1.4331993790    -1.1444178012
| 20>  H        1.0401480360     0.5886377280     3.0834503359
| 21>  H       -0.2219489330    -0.6473189805     3.2236279709
| 22>  H        2.0794127977    -3.1521505701     2.1218646418
| 23>  H        3.3528143061    -1.9290909318     1.9702707370
| 24> *
| 25>
| 26>                          ****END OF INPUT****

CARTESIAN COORDINATES (ANGSTROEM)
---------------------------------
  C      0.130766    1.566035   -0.086392
  C     -0.038694    0.057538    0.090993
  O      0.525573   -0.630910   -1.045055
  C      1.479075   -1.621144   -0.641036
  C      1.544877   -1.472385    0.844389
  C      0.694619   -0.541612    1.252114
  C      0.739781   -0.413389    2.740513
  O      1.727717   -1.372733    3.143667
  C      2.261843   -2.071810    2.010412
  H      1.191296    1.832756   -0.110312
  H     -0.330119    1.885326   -1.024994
  H     -0.350621    2.107498    0.735071
  H     -1.116348   -0.173586    0.136045
  H      1.138642   -2.620679   -0.955649
  H      2.439383   -1.433199   -1.144418
  H      1.040148    0.588638    3.083450
  H     -0.221949   -0.647319    3.223628
  H      2.079413   -3.152151    2.121865
  H      3.352814   -1.929091    1.970271

 Total Charge           Charge          ....    0
 Multiplicity           Mult            ....    1
 Number of Electrons    NEL             ....   68
 Basis Dimension        Dim             ....  339

ORBITAL ENERGIES
----------------

  NO   OCC          E(Eh)            E(eV)
   0   2.0000     -20.556117      -559.3604
   1   2.0000     -20.553726      -559.2953
   2   2.0000     -11.293469      -307.3109
   3   2.0000     -11.288965      -307.1884
   4   2.0000     -11.288642      -307.1796
   5   2.0000     -11.288367      -307.1721
   6   2.0000     -11.230873      -305.6076
   7   2.0000     -11.228093      -305.5319
   8   2.0000     -11.219936      -305.3100
   9   2.0000      -1.380679       -37.5702
  10   2.0000      -1.370725       -37.2993
  11   2.0000      -1.098965       -29.9044
  12   2.0000      -1.043989       -28.4084
  13   2.0000      -0.989070       -26.9140
  14   2.0000      -0.923116       -25.1193
  15   2.0000      -0.869769       -23.6676
  16   2.0000      -0.800003       -21.7692
  17   2.0000      -0.733951       -19.9718
  18   2.0000      -0.698668       -19.0117
  19   2.0000      -0.676825       -18.4173
  20   2.0000      -0.649827       -17.6827
  21   2.0000      -0.610365       -16.6089
  22   2.0000      -0.596543       -16.2328
  23   2.0000      -0.576253       -15.6806
  24   2.0000      -0.570676       -15.5289
  25   2.0000      -0.561296       -15.2736
  26   2.0000      -0.542998       -14.7757
  27   2.0000      -0.530504       -14.4357
  28   2.0000      -0.512962       -13.9584
  29   2.0000      -0.495758       -13.4903
  30   2.0000      -0.467038       -12.7087
  31   2.0000      -0.448859       -12.2141
  32   2.0000      -0.420246       -11.4355
  33   2.0000      -0.339862        -9.2481
  34   0.0000       0.131323         3.5735
  35   0.0000       0.148837         4.0501
  36   0.0000       0.161681         4.3996
  37   0.0000       0.174091         4.7373
  38   0.0000       0.178121         4.8469

MULLIKEN ATOMIC CHARGES
-----------------------
   0 C :   -0.390950
   1 C :    0.126327
   2 O :   -0.324425
   3 C :    0.012682
   4 C :   -0.133582
   5 C :   -0.098158
   6 C :   -0.007633
   7 O :   -0.326887
   8 C :    0.012413
   9 H :    0.127753
  10 H :    0.144199
  11 H :    0.119723
  12 H :    0.092196
  13 H :    0.106665
  14 H :    0.107202
  15 H :    0.111366
  16 H :    0.106833
  17 H :    0.106445
  18 H :    0.107832
Sum of atomic charges:    0.0000000

LOEWDIN ATOMIC CHARGES
----------------------
   0 C :   -0.286609
   1 C :   -0.284518
   2 O :    0.164209
   3 C :   -0.255493
   4 C :   -0.140854
   5 C :   -0.124717
   6 C :   -0.252489
   7 O :    0.140993
   8 C :   -0.254638
   9 H :    0.126106
  10 H :    0.128110
  11 H :    0.125131
  12 H :    0.143934
  13 H :    0.128354
  14 H :    0.128693
  15 H :    0.128695
  16 H :    0.128459
  17 H :    0.128205
  18 H :    0.128427

  Mayer bond orders larger than 0.1
B(  0-C ,  1-C ) :   0.9002 B(  0-C ,  9-H ) :   0.9369 B(  0-C , 10-H ) :   0.9363
B(  0-C , 11-H ) :   0.9281 B(  1-C ,  2-O ) :   0.9390 B(  1-C ,  5-C ) :   0.9425
B(  1-C , 12-H ) :   0.8963 B(  2-O ,  3-C ) :   0.9510 B(  3-C ,  4-C ) :   0.9753
B(  3-C , 13-H ) :   0.9162 B(  3-C , 14-H ) :   0.8999 B(  4-C ,  5-C ) :   1.6916
B(  4-C ,  8-C ) :   0.9696 B(  5-C ,  6-C ) :   0.9638 B(  6-C ,  7-O ) :   0.9473
B(  6-C , 15-H ) :   0.9158 B(  6-C , 16-H ) :   0.9048 B(  7-O ,  8-C ) :   0.9475
B(  8-C , 17-H ) :   0.9064 B(  8-C , 18-H ) :   0.9107

MP2 TOTAL ENERGY:     -422.312502141 Eh
FINAL SINGLE POINT ENERGY      -422.312502140959

DIPOLE MOMENT
-------------
                                X             Y             Z
Electronic contribution:      0.77019      -3.30132       1.06132
Nuclear contribution   :     -0.80118       3.33458      -1.10505
                        -----------------------------------------
Total Dipole Moment    :     -0.03099       0.03326      -0.04373
                        -----------------------------------------
Magnitude (a.u.)       :      0.06308
Magnitude (Debye)      :      0.16033

                             ****ORCA TERMINATED NORMALLY****
TOTAL RUN TIME: 0 days 0 hours 15 minutes 32 seconds 906 msec
