                         Program Version 3.0.3 - RELEASE   -
|  1> ! RI-MP2 RIJK def2-TZVP def2-TZVP/C def2-TZVP/JK TIGHTSCF
|  2> % maxcore 2000
|  3> % mp2 density relaxed end
|  4> *xyz 0 1
|  5>  O        0.2674650719     1.2292767680     0.2899528854
|  6>  C        0.0923994363    -0.0986210062    -0.1704995611
|  7>  C       -1.3611267971    -0.5341991590    -0.1395191594
|  8>  C       -2.2712196594     0.1906585664    -1.1103298765
|  9>  O       -2.3728777759     1.5744698947    -0.7659383045
| 10>  C       -1.7112356988    -1.8945251392     0.3359975445
| 11>  N       -2.0020950600    -0.7212265559     1.1794915112
| 12>  H       -0.4159979879     1.7593734382    -0.1447565329
| 13>  H        0.4861577235    -0.2259367147    -1.1935376514
| 14>  H        0.6901832990    -0.7410583058     0.4873376739
| 15>  H       -1.8658448809     0.1615578629    -2.1269614039
| 16>  H       -3.2627950558    -0.2804350408    -1.1214492876
| 17>  H       -2.7405930361     1.5924352534     0.1271804415
| 18>  H       -2.5864731152    -2.4025575936    -0.0603823419
| 19>  H       -0.8997162937    -2.5572289707     0.6255318853
| 20>  H       -1.3008892601    -0.6307562277     1.9112656173
| 21> *
| 22>
| 23>                          ****END OF INPUT****

CARTESIAN COORDINATES (ANGSTROEM)
---------------------------------
  O      0.267465    1.229277    0.289953
  C      0.092399   -0.098621   -0.170500
  C     -1.361127   -0.534199   -0.139519
  C     -2.271220    0.190659   -1.110330
  O     -2.372878    1.574470   -0.765938
  C     -1.711236   -1.894525    0.335998
  N     -2.002095   -0.721227    1.179492
  H     -0.415998    1.759373   -0.144757
  H      0.486158   -0.225937   -1.193538
  H      0.690183   -0.741058    0.487338
  H     -1.865845    0.161558   -2.126961
  H     -3.262795   -0.280435   -1.121449
  H     -2.740593    1.592435    0.127180
  H     -2.586473   -2.402558   -0.060382
  H     -0.899716   -2.557229    0.625532
  H     -1.300889   -0.630756    1.911266

 Total Charge           Charge          ....    0
 Multiplicity           Mult            ....    1
 Number of Electrons    NEL             ....   56
 Basis Dimension        Dim             ....  271

ORBITAL ENERGIES
----------------

  NO   OCC          E(Eh)            E(eV)
   0   2.0000     -20.569937      -559.7365
   1   2.0000     -20.548448      -559.1517
   2   2.0000     -15.569021      -423.6546
   3   2.0000     -11.288167      -307.1666
   4   2.0000     -11.284887      -307.0774
   5   2.0000     -11.273021      -306.7545
   6   2.0000     -11.271062      -306.7012
   7   2.0000      -1.378442       -37.5093
   8   2.0000      -1.353779       -36.8382
   9   2.0000      -1.272837       -34.6357
  10   2.0000      -1.003019       -27.2935
  11   2.0000      -0.929825       -25.3018
  12   2.0000      -0.892497       -24.2861
  13   2.0000      -0.794126       -21.6093
  14   2.0000      -0.728097       -19.8125
  15   2.0000      -0.686237       -18.6734
  16   2.0000      -0.668323       -18.1860
  17   2.0000      -0.649227       -17.6664
  18   2.0000      -0.612202       -16.6589
  19   2.0000      -0.587606       -15.9896
  20   2.0000      -0.586928       -15.9711
  21   2.0000      -0.549304       -14.9473
  22   2.0000      -0.525912       -14.3108
  23   2.0000      -0.489655       -13.3242
  24   2.0000      -0.479380       -13.0446
  25   2.0000      -0.451505       -12.2861
  26   2.0000      -0.439490       -11.9591
  27   2.0000      -0.403914       -10.9911
  28   0.0000       0.134869         3.6700
  29   0.0000       0.151458         4.1214
  30   0.0000       0.163309         4.4439
  31   0.0000       0.172701         4.6994
  32   0.0000       0.198941         5.4135

MULLIKEN ATOMIC CHARGES
-----------------------
   0 O :   -0.478824
   1 C :    0.011256
   2 C :   -0.042731
   3 C :    0.013626
   4 O :   -0.499447
   5 C :   -0.201186
   6 N :   -0.384996
   7 H :    0.329508
   8 H :    0.101064
   9 H :    0.097790
  10 H :    0.114209
  11 H :    0.114602
  12 H :    0.338644
  13 H :    0.123557
  14 H :    0.133452
  15 H :    0.229476
Sum of atomic charges:   -0.0000000

LOEWDIN ATOMIC CHARGES
----------------------
   0 O :   -0.050160
   1 C :   -0.316827
   2 C :   -0.342508
   3 C :   -0.296380
   4 O :   -0.050929
   5 C :   -0.239018
   6 N :   -0.001033
   7 H :    0.171002
   8 H :    0.124928
   9 H :    0.130818
  10 H :    0.134342
  11 H :    0.128409
  12 H :    0.182705
  13 H :    0.127444
  14 H :    0.125704
  15 H :    0.171504

  Mayer bond orders larger than 0.1
B(  0-O ,  1-C ) :   0.9562 B(  0-O ,  7-H ) :   0.8138 B(  1-C ,  2-C ) :   0.9873
B(  1-C ,  8-H ) :   0.9283 B(  1-C ,  9-H ) :   0.9100 B(  2-C ,  3-C ) :   0.9377
B(  2-C ,  5-C ) :   0.9392 B(  2-C ,  6-N ) :   0.8229 B(  3-C ,  4-O ) :   0.8703
B(  3-C , 10-H ) :   0.9311 B(  3-C , 11-H ) :   0.9157 B(  4-O , 12-H ) :   0.8265
B(  5-C ,  6-N ) :   0.9573 B(  5-C , 13-H ) :   0.9035 B(  5-C , 14-H ) :   0.9169
B(  6-N , 15-H ) :   0.8684

MP2 TOTAL ENERGY:     -362.311726312 Eh
FINAL SINGLE POINT ENERGY      -362.311726311691

DIPOLE MOMENT
-------------
                                X             Y             Z
Electronic contribution:     -0.18231       2.42854       0.77025
Nuclear contribution   :      0.04436      -3.35601      -0.94127
                        -----------------------------------------
Total Dipole Moment    :     -0.13795      -0.92747      -0.17102
                        -----------------------------------------
Magnitude (a.u.)       :      0.95314
Magnitude (Debye)      :      2.42270

                             ****ORCA TERMINATED NORMALLY****
TOTAL RUN TIME: 0 days 0 hours 7 minutes 32 seconds 546 msec
