                         Program Version 3.0.3 - RELEASE   -
|  1> ! RI-MP2 RIJK def2-TZVP def2-TZVP/C def2-TZVP/JK TIGHTSCF
|  2> % maxcore 2000
|  3> % mp2 density relaxed end
|  4> *xyz 0 1
|  5>  C       -0.0136025575     1.5241167041     0.0774487182
|  6>  C        0.0252377038     0.0298922025     0.0254093160
|  7>  C        0.0481349344    -0.7805953629    -1.0709680310
|  8>  N        0.1224572878    -0.5390960523    -2.4319484625
|  9>  O        0.0818387005    -2.0945656355    -0.7153772863
| 10>  C        0.0800446378    -2.1490819084     0.6416956059
| 11>  C        0.0539078770    -0.8850198335     1.1498511079
| 12>  C        0.0364838043    -0.5327017318     2.5213918691
| 13>  N        0.0178106836    -0.2176043487     3.6360067253
| 14>  H        0.9835926940     1.9627266935     0.2031118521
| 15>  H       -0.4426450140     1.9455040135    -0.8383129176
| 16>  H       -0.6264494083     1.8707771611     0.9149573452
| 17>  H       -0.1140331474     0.4131896656    -2.6740716846
| 18>  H       -0.4139326333    -1.1969517019    -2.9841892171
| 19>  H        0.0904043871    -3.1282462654     1.0870557591
| 20> *
| 21>
| 22>                          ****END OF INPUT****

CARTESIAN COORDINATES (ANGSTROEM)
---------------------------------
  C     -0.013603    1.524117    0.077449
  C      0.025238    0.029892    0.025409
  C      0.048135   -0.780595   -1.070968
  N      0.122457   -0.539096   -2.431948
  O      0.081839   -2.094566   -0.715377
  C      0.080045   -2.149082    0.641696
  C      0.053908   -0.885020    1.149851
  C      0.036484   -0.532702    2.521392
  N      0.017811   -0.217604    3.636007
  H      0.983593    1.962727    0.203112
  H     -0.442645    1.945504   -0.838313
  H     -0.626449    1.870777    0.914957
  H     -0.114033    0.413190   -2.674072
  H     -0.413933   -1.196952   -2.984189
  H      0.090404   -3.128246    1.087056

 Total Charge           Charge          ....    0
 Multiplicity           Mult            ....    1
 Number of Electrons    NEL             ....   64
 Basis Dimension        Dim             ....  315

ORBITAL ENERGIES
----------------

  NO   OCC          E(Eh)            E(eV)
   0   2.0000     -20.647632      -561.8506
   1   2.0000     -15.594235      -424.3407
   2   2.0000     -15.571812      -423.7305
   3   2.0000     -11.346088      -308.7427
   4   2.0000     -11.319293      -308.0136
   5   2.0000     -11.278345      -306.8994
   6   2.0000     -11.277366      -306.8727
   7   2.0000     -11.246133      -306.0228
   8   2.0000     -11.242449      -305.9226
   9   2.0000      -1.491444       -40.5843
  10   2.0000      -1.238058       -33.6893
  11   2.0000      -1.219716       -33.1901
  12   2.0000      -1.128087       -30.6968
  13   2.0000      -1.030549       -28.0427
  14   2.0000      -0.959074       -26.0977
  15   2.0000      -0.885401       -24.0930
  16   2.0000      -0.792408       -21.5625
  17   2.0000      -0.764510       -20.8034
  18   2.0000      -0.707332       -19.2475
  19   2.0000      -0.678777       -18.4704
  20   2.0000      -0.651275       -17.7221
  21   2.0000      -0.643834       -17.5196
  22   2.0000      -0.606194       -16.4954
  23   2.0000      -0.583027       -15.8650
  24   2.0000      -0.564813       -15.3693
  25   2.0000      -0.557759       -15.1774
  26   2.0000      -0.539459       -14.6794
  27   2.0000      -0.515910       -14.0386
  28   2.0000      -0.498669       -13.5695
  29   2.0000      -0.462836       -12.5944
  30   2.0000      -0.395328       -10.7574
  31   2.0000      -0.306182        -8.3316
  32   0.0000       0.105295         2.8652
  33   0.0000       0.114254         3.1090
  34   0.0000       0.149869         4.0782
  35   0.0000       0.161001         4.3811
  36   0.0000       0.176691         4.8080

MULLIKEN ATOMIC CHARGES
-----------------------
   0 C :   -0.421821
   1 C :   -0.196550
   2 C :    0.321460
   3 N :   -0.502100
   4 O :   -0.218886
   5 C :   -0.086401
   6 C :    0.211086
   7 C :   -0.185377
   8 N :   -0.050779
   9 H :    0.162063
  10 H :    0.117653
  11 H :    0.163531
  12 H :    0.254938
  13 H :    0.265234
  14 H :    0.165948
Sum of atomic charges:    0.0000000

LOEWDIN ATOMIC CHARGES
----------------------
   0 C :   -0.264988
   1 C :   -0.165455
   2 C :   -0.320086
   3 N :   -0.066496
   4 O :    0.358791
   5 C :   -0.188214
   6 C :   -0.170925
   7 C :   -0.150800
   8 N :    0.069908
   9 H :    0.135770
  10 H :    0.127304
  11 H :    0.140111
  12 H :    0.176112
  13 H :    0.177595
  14 H :    0.141372

  Mayer bond orders larger than 0.1
B(  0-C ,  1-C ) :   0.8533 B(  0-C ,  9-H ) :   0.9434 B(  0-C , 10-H ) :   0.9374
B(  0-C , 11-H ) :   0.9455 B(  1-C ,  2-C ) :   1.5160 B(  1-C ,  6-C ) :   1.1612
B(  2-C ,  3-N ) :   1.0759 B(  2-C ,  4-O ) :   1.0429 B(  3-N , 12-H ) :   0.8755
B(  3-N , 13-H ) :   0.8626 B(  4-O ,  5-C ) :   1.0566 B(  5-C ,  6-C ) :   1.4955
B(  5-C , 14-H ) :   0.9244 B(  6-C ,  7-C ) :   0.8848 B(  7-C ,  8-N ) :   2.8558

MP2 TOTAL ENERGY:     -416.142480577 Eh
FINAL SINGLE POINT ENERGY      -416.142480577317

DIPOLE MOMENT
-------------
                                X             Y             Z
Electronic contribution:      0.31280      -5.18197       3.99534
Nuclear contribution   :     -0.74396       5.22526      -5.94096
                        -----------------------------------------
Total Dipole Moment    :     -0.43116       0.04329      -1.94562
                        -----------------------------------------
Magnitude (a.u.)       :      1.99329
Magnitude (Debye)      :      5.06655

                             ****ORCA TERMINATED NORMALLY****
TOTAL RUN TIME: 0 days 0 hours 15 minutes 30 seconds 895 msec
