                         Program Version 3.0.3 - RELEASE   -
|  1> ! RI-MP2 RIJK def2-TZVP def2-TZVP/C def2-TZVP/JK TIGHTSCF
|  2> % maxcore 2000
|  3> % mp2 density relaxed end
|  4> *xyz 0 1
|  5>  C        0.2049834447     1.5933917773     0.0736825007
|  6>  N        0.2792367042     0.1591007724     0.2754846857
|  7>  C        0.4879324719    -0.5692413332    -0.7575109792
|  8>  N        0.6880784961    -0.1998723041    -2.0579714202
|  9>  C        0.5519023816    -2.0474423469    -0.5232905881
| 10>  O        0.6875660354    -2.8510454902    -1.4150336269
| 11>  H        1.1221427422     1.9926690216    -0.3869702959
| 12>  H       -0.6372122869     1.8764184457    -0.5791016827
| 13>  H        0.0605818408     2.0939321292     1.0336065398
| 14>  H        0.3984538173     0.7086607966    -2.3758131095
| 15>  H        0.6748419098    -0.9536743768    -2.7292669771
| 16>  H        0.4518211130    -2.3237618417     0.5424948732
| 17> *
| 18>
| 19>                          ****END OF INPUT****

CARTESIAN COORDINATES (ANGSTROEM)
---------------------------------
  C      0.204983    1.593392    0.073683
  N      0.279237    0.159101    0.275485
  C      0.487932   -0.569241   -0.757511
  N      0.688078   -0.199872   -2.057971
  C      0.551902   -2.047442   -0.523291
  O      0.687566   -2.851045   -1.415034
  H      1.122143    1.992669   -0.386970
  H     -0.637212    1.876418   -0.579102
  H      0.060582    2.093932    1.033607
  H      0.398454    0.708661   -2.375813
  H      0.674842   -0.953674   -2.729267
  H      0.451821   -2.323762    0.542495

 Total Charge           Charge          ....    0
 Multiplicity           Mult            ....    1
 Number of Electrons    NEL             ....   46
 Basis Dimension        Dim             ....  222

ORBITAL ENERGIES
----------------

  NO   OCC          E(Eh)            E(eV)
   0   2.0000     -20.576613      -559.9181
   1   2.0000     -15.587521      -424.1580
   2   2.0000     -15.556955      -423.3263
   3   2.0000     -11.344376      -308.6962
   4   2.0000     -11.324675      -308.1601
   5   2.0000     -11.255856      -306.2874
   6   2.0000      -1.414778       -38.4981
   7   2.0000      -1.282135       -34.8887
   8   2.0000      -1.177545       -32.0426
   9   2.0000      -0.986234       -26.8368
  10   2.0000      -0.875900       -23.8345
  11   2.0000      -0.786237       -21.3946
  12   2.0000      -0.737735       -20.0748
  13   2.0000      -0.683975       -18.6119
  14   2.0000      -0.657597       -17.8941
  15   2.0000      -0.619927       -16.8691
  16   2.0000      -0.613811       -16.7026
  17   2.0000      -0.568925       -15.4812
  18   2.0000      -0.561009       -15.2658
  19   2.0000      -0.499858       -13.6018
  20   2.0000      -0.456186       -12.4135
  21   2.0000      -0.421483       -11.4691
  22   2.0000      -0.372860       -10.1460
  23   0.0000       0.082777         2.2525
  24   0.0000       0.123825         3.3695
  25   0.0000       0.176153         4.7934
  26   0.0000       0.188327         5.1246
  27   0.0000       0.200645         5.4598

MULLIKEN ATOMIC CHARGES
-----------------------
   0 C :   -0.339953
   1 N :   -0.238622
   2 C :    0.162609
   3 N :   -0.516292
   4 C :    0.159990
   5 O :   -0.294642
   6 H :    0.140506
   7 H :    0.129086
   8 H :    0.152560
   9 H :    0.261045
  10 H :    0.274498
  11 H :    0.109215
Sum of atomic charges:   -0.0000000

LOEWDIN ATOMIC CHARGES
----------------------
   0 C :   -0.344701
   1 N :    0.069962
   2 C :   -0.402166
   3 N :   -0.023422
   4 C :   -0.250665
   5 O :    0.128156
   6 H :    0.114901
   7 H :    0.111874
   8 H :    0.118245
   9 H :    0.170640
  10 H :    0.180956
  11 H :    0.126220

  Mayer bond orders larger than 0.1
B(  0-C ,  1-N ) :   0.8903 B(  0-C ,  6-H ) :   0.9247 B(  0-C ,  7-H ) :   0.9221
B(  0-C ,  8-H ) :   0.9472 B(  1-N ,  2-C ) :   1.8448 B(  2-C ,  3-N ) :   1.1195
B(  2-C ,  4-C ) :   0.8944 B(  3-N ,  9-H ) :   0.8691 B(  3-N , 10-H ) :   0.8477
B(  4-C ,  5-O ) :   1.9177 B(  4-C , 11-H ) :   0.9301

MP2 TOTAL ENERGY:     -302.067039479 Eh
FINAL SINGLE POINT ENERGY      -302.067039478646

DIPOLE MOMENT
-------------
                                X             Y             Z
Electronic contribution:      0.57876      -5.80990      -0.68168
Nuclear contribution   :     -0.77351       6.75811       0.12893
                        -----------------------------------------
Total Dipole Moment    :     -0.19474       0.94821      -0.55276
                        -----------------------------------------
Magnitude (a.u.)       :      1.11471
Magnitude (Debye)      :      2.83336

                             ****ORCA TERMINATED NORMALLY****
TOTAL RUN TIME: 0 days 0 hours 4 minutes 3 seconds 11 msec
