                         Program Version 3.0.3 - RELEASE   -
|  1> ! RI-MP2 RIJK def2-TZVP def2-TZVP/C def2-TZVP/JK TIGHTSCF
|  2> % maxcore 2000
|  3> % mp2 density relaxed end
|  4> *xyz 0 1
|  5>  N        0.0854262507     1.3384546223     0.3701228524
|  6>  C       -0.0371395540    -0.0529819271    -0.0429241851
|  7>  C       -1.4830115383    -0.4844753277    -0.0337607077
|  8>  N       -2.2053588075    -0.2433071490    -1.3021747146
|  9>  C       -1.8633793519    -1.6151698164    -0.8983115612
| 10>  C       -0.7783053665    -2.3008480385    -1.6932517035
| 11>  O        0.2805785752    -1.4343690095    -2.1054920359
| 12>  C        0.6411373313    -0.3363455735    -1.4008861759
| 13>  O        1.5125719473     0.3701752477    -1.8299749420
| 14>  H        1.0487382922     1.6270467378     0.2158551651
| 15>  H       -0.4603977182     1.9036165609    -0.2778161264
| 16>  H        0.5007424752    -0.6735456695     0.6911573570
| 17>  H       -2.0088330341    -0.3191727468     0.9022151919
| 18>  H       -3.1884159095    -0.0594201209    -1.1232118535
| 19>  H       -2.6604452545    -2.2794046461    -0.5720006355
| 20>  H       -0.3594437581    -3.1240909940    -1.0983295419
| 21>  H       -1.1767422893    -2.7250922699    -2.6199115132
| 22> *
| 23>
| 24>                          ****END OF INPUT****

CARTESIAN COORDINATES (ANGSTROEM)
---------------------------------
  N      0.085426    1.338455    0.370123
  C     -0.037140   -0.052982   -0.042924
  C     -1.483012   -0.484475   -0.033761
  N     -2.205359   -0.243307   -1.302175
  C     -1.863379   -1.615170   -0.898312
  C     -0.778305   -2.300848   -1.693252
  O      0.280579   -1.434369   -2.105492
  C      0.641137   -0.336346   -1.400886
  O      1.512572    0.370175   -1.829975
  H      1.048738    1.627047    0.215855
  H     -0.460398    1.903617   -0.277816
  H      0.500742   -0.673546    0.691157
  H     -2.008833   -0.319173    0.902215
  H     -3.188416   -0.059420   -1.123212
  H     -2.660445   -2.279405   -0.572001
  H     -0.359444   -3.124091   -1.098330
  H     -1.176742   -2.725092   -2.619912

 Total Charge           Charge          ....    0
 Multiplicity           Mult            ....    1
 Number of Electrons    NEL             ....   68
 Basis Dimension        Dim             ....  327

ORBITAL ENERGIES
----------------

  NO   OCC          E(Eh)            E(eV)
   0   2.0000     -20.600881      -560.5785
   1   2.0000     -20.535061      -558.7874
   2   2.0000     -15.582181      -424.0127
   3   2.0000     -15.549576      -423.1255
   4   2.0000     -11.376798      -309.5784
   5   2.0000     -11.309613      -307.7502
   6   2.0000     -11.288220      -307.1681
   7   2.0000     -11.287616      -307.1516
   8   2.0000     -11.284049      -307.0546
   9   2.0000      -1.456070       -39.6217
  10   2.0000      -1.361722       -37.0544
  11   2.0000      -1.292891       -35.1813
  12   2.0000      -1.194907       -32.5151
  13   2.0000      -1.019247       -27.7351
  14   2.0000      -0.994862       -27.0716
  15   2.0000      -0.869908       -23.6714
  16   2.0000      -0.858483       -23.3605
  17   2.0000      -0.756070       -20.5737
  18   2.0000      -0.735708       -20.0196
  19   2.0000      -0.705175       -19.1888
  20   2.0000      -0.683288       -18.5932
  21   2.0000      -0.667048       -18.1513
  22   2.0000      -0.645828       -17.5739
  23   2.0000      -0.610142       -16.6028
  24   2.0000      -0.596460       -16.2305
  25   2.0000      -0.576453       -15.6861
  26   2.0000      -0.552987       -15.0475
  27   2.0000      -0.519132       -14.1263
  28   2.0000      -0.500984       -13.6325
  29   2.0000      -0.491931       -13.3861
  30   2.0000      -0.453469       -12.3395
  31   2.0000      -0.447473       -12.1763
  32   2.0000      -0.412186       -11.2162
  33   2.0000      -0.408527       -11.1166
  34   0.0000       0.116482         3.1696
  35   0.0000       0.141817         3.8590
  36   0.0000       0.149122         4.0578
  37   0.0000       0.165928         4.5151
  38   0.0000       0.183991         5.0067

MULLIKEN ATOMIC CHARGES
-----------------------
   0 N :   -0.536203
   1 C :    0.027457
   2 C :   -0.081951
   3 N :   -0.397369
   4 C :   -0.058642
   5 C :   -0.036458
   6 O :   -0.203172
   7 C :    0.235530
   8 O :   -0.296746
   9 H :    0.244828
  10 H :    0.233361
  11 H :    0.114523
  12 H :    0.141975
  13 H :    0.225080
  14 H :    0.139570
  15 H :    0.116161
  16 H :    0.132056
Sum of atomic charges:    0.0000000

LOEWDIN ATOMIC CHARGES
----------------------
   0 N :   -0.133709
   1 C :   -0.296039
   2 C :   -0.236295
   3 N :    0.015964
   4 C :   -0.266001
   5 C :   -0.262493
   6 O :    0.271714
   7 C :   -0.454433
   8 O :    0.132152
   9 H :    0.162846
  10 H :    0.163440
  11 H :    0.166758
  12 H :    0.146032
  13 H :    0.171114
  14 H :    0.145544
  15 H :    0.134367
  16 H :    0.139039

  Mayer bond orders larger than 0.1
B(  0-N ,  1-C ) :   0.9780 B(  0-N ,  9-H ) :   0.8819 B(  0-N , 10-H ) :   0.8904
B(  1-C ,  2-C ) :   0.8933 B(  1-C ,  7-C ) :   0.9277 B(  1-C , 11-H ) :   0.8936
B(  2-C ,  3-N ) :   0.8952 B(  2-C ,  4-C ) :   0.8824 B(  2-C , 12-H ) :   0.9288
B(  3-N ,  4-C ) :   0.9237 B(  3-N , 13-H ) :   0.8648 B(  4-C ,  5-C ) :   0.9299
B(  4-C , 14-H ) :   0.9097 B(  5-C ,  6-O ) :   0.9001 B(  5-C , 15-H ) :   0.9364
B(  5-C , 16-H ) :   0.9231 B(  6-O ,  7-C ) :   1.1244 B(  7-C ,  8-O ) :   2.0182

MP2 TOTAL ENERGY:     -454.419271595 Eh
FINAL SINGLE POINT ENERGY      -454.419271595258

DIPOLE MOMENT
-------------
                                X             Y             Z
Electronic contribution:      3.30055       0.45056      -3.06938
Nuclear contribution   :     -4.73390      -1.48760       3.88040
                        -----------------------------------------
Total Dipole Moment    :     -1.43334      -1.03704       0.81101
                        -----------------------------------------
Magnitude (a.u.)       :      1.94619
Magnitude (Debye)      :      4.94683

                             ****ORCA TERMINATED NORMALLY****
TOTAL RUN TIME: 0 days 0 hours 16 minutes 11 seconds 684 msec
