                         Program Version 3.0.3 - RELEASE   -
|  1> ! RI-MP2 RIJK def2-TZVP def2-TZVP/C def2-TZVP/JK TIGHTSCF
|  2> % maxcore 2000
|  3> % mp2 density relaxed end
|  4> *xyz 0 1
|  5>  C       -0.0009336208     1.5040167708     0.0137983961
|  6>  C        0.0158848499    -0.0317737094     0.0264573261
|  7>  C        0.8252305036    -0.6381921508    -1.1733986555
|  8>  O        1.7283428780    -1.5658280319    -0.5512831114
|  9>  C        1.5916221376    -1.3684268315     0.7866959992
| 10>  N        2.4855383087    -2.0610339671     1.5411599607
| 11>  N        0.7048108524    -0.5518738300     1.2158132765
| 12>  C       -1.3761113870    -0.5345049136     0.0090490648
| 13>  N       -2.4621581567    -0.9279686570    -0.0275831039
| 14>  H        1.0282303588     1.8718917282     0.0383938904
| 15>  H       -0.4990659309     1.8852714769    -0.8828018572
| 16>  H       -0.5259740474     1.8793426746     0.8943429955
| 17>  H        0.2100346570    -1.1770876535    -1.8950038065
| 18>  H        1.4097331368     0.1308048833    -1.6879070327
| 19>  H        2.9060059872    -2.8667677973     1.1073157608
| 20>  H        2.2432788230    -2.1565929817     2.5140560873
| 21> *
| 22>
| 23>                          ****END OF INPUT****

CARTESIAN COORDINATES (ANGSTROEM)
---------------------------------
  C     -0.000934    1.504017    0.013798
  C      0.015885   -0.031774    0.026457
  C      0.825231   -0.638192   -1.173399
  O      1.728343   -1.565828   -0.551283
  C      1.591622   -1.368427    0.786696
  N      2.485538   -2.061034    1.541160
  N      0.704811   -0.551874    1.215813
  C     -1.376111   -0.534505    0.009049
  N     -2.462158   -0.927969   -0.027583
  H      1.028230    1.871892    0.038394
  H     -0.499066    1.885271   -0.882802
  H     -0.525974    1.879343    0.894343
  H      0.210035   -1.177088   -1.895004
  H      1.409733    0.130805   -1.687907
  H      2.906006   -2.866768    1.107316
  H      2.243279   -2.156593    2.514056

 Total Charge           Charge          ....    0
 Multiplicity           Mult            ....    1
 Number of Electrons    NEL             ....   66
 Basis Dimension        Dim             ....  321

ORBITAL ENERGIES
----------------

  NO   OCC          E(Eh)            E(eV)
   0   2.0000     -20.620139      -561.1025
   1   2.0000     -15.599712      -424.4897
   2   2.0000     -15.566682      -423.5910
   3   2.0000     -15.546136      -423.0319
   4   2.0000     -11.388703      -309.9024
   5   2.0000     -11.324441      -308.1537
   6   2.0000     -11.317499      -307.9648
   7   2.0000     -11.266431      -306.5752
   8   2.0000     -11.240985      -305.8828
   9   2.0000      -1.471279       -40.0356
  10   2.0000      -1.264062       -34.3969
  11   2.0000      -1.230740       -33.4901
  12   2.0000      -1.201579       -32.6966
  13   2.0000      -1.069960       -29.1151
  14   2.0000      -0.966647       -26.3038
  15   2.0000      -0.883862       -24.0511
  16   2.0000      -0.822757       -22.3884
  17   2.0000      -0.761881       -20.7318
  18   2.0000      -0.722883       -19.6706
  19   2.0000      -0.708432       -19.2774
  20   2.0000      -0.658301       -17.9133
  21   2.0000      -0.634335       -17.2611
  22   2.0000      -0.613282       -16.6882
  23   2.0000      -0.584021       -15.8920
  24   2.0000      -0.581614       -15.8265
  25   2.0000      -0.564247       -15.3540
  26   2.0000      -0.546265       -14.8646
  27   2.0000      -0.524760       -14.2795
  28   2.0000      -0.480368       -13.0715
  29   2.0000      -0.467725       -12.7275
  30   2.0000      -0.457000       -12.4356
  31   2.0000      -0.442069       -12.0293
  32   2.0000      -0.384339       -10.4584
  33   0.0000       0.122275         3.3273
  34   0.0000       0.131466         3.5774
  35   0.0000       0.166699         4.5361
  36   0.0000       0.174824         4.7572
  37   0.0000       0.178083         4.8459

MULLIKEN ATOMIC CHARGES
-----------------------
   0 C :   -0.406204
   1 C :    0.342880
   2 C :   -0.085949
   3 O :   -0.283036
   4 C :    0.317328
   5 N :   -0.502160
   6 N :   -0.351981
   7 C :   -0.237251
   8 N :   -0.053806
   9 H :    0.141414
  10 H :    0.139613
  11 H :    0.155248
  12 H :    0.148443
  13 H :    0.123294
  14 H :    0.273489
  15 H :    0.278678
Sum of atomic charges:    0.0000000

LOEWDIN ATOMIC CHARGES
----------------------
   0 C :   -0.246505
   1 C :   -0.329619
   2 C :   -0.198937
   3 O :    0.234417
   4 C :   -0.487031
   5 N :   -0.022612
   6 N :    0.097009
   7 C :   -0.147708
   8 N :    0.065988
   9 H :    0.130977
  10 H :    0.131792
  11 H :    0.137504
  12 H :    0.137220
  13 H :    0.132547
  14 H :    0.180331
  15 H :    0.184625

  Mayer bond orders larger than 0.1
B(  0-C ,  1-C ) :   0.8873 B(  0-C ,  9-H ) :   0.9311 B(  0-C , 10-H ) :   0.9244
B(  0-C , 11-H ) :   0.9323 B(  1-C ,  2-C ) :   0.8655 B(  1-C ,  6-N ) :   0.9207
B(  1-C ,  7-C ) :   0.8887 B(  2-C ,  3-O ) :   0.8835 B(  2-C , 12-H ) :   0.9210
B(  2-C , 13-H ) :   0.9218 B(  3-O ,  4-C ) :   1.0827 B(  4-C ,  5-N ) :   1.1461
B(  4-C ,  6-N ) :   1.7639 B(  5-N , 14-H ) :   0.8621 B(  5-N , 15-H ) :   0.8637
B(  7-C ,  8-N ) :   2.8817

MP2 TOTAL ENERGY:     -433.389584695 Eh
FINAL SINGLE POINT ENERGY      -433.389584695466

DIPOLE MOMENT
-------------
                                X             Y             Z
Electronic contribution:     -1.76656      -4.23257       0.95834
Nuclear contribution   :      3.35847       4.18747      -1.25210
                        -----------------------------------------
Total Dipole Moment    :      1.59191      -0.04510      -0.29377
                        -----------------------------------------
Magnitude (a.u.)       :      1.61941
Magnitude (Debye)      :      4.11622

                             ****ORCA TERMINATED NORMALLY****
TOTAL RUN TIME: 0 days 0 hours 15 minutes 28 seconds 864 msec
