                         Program Version 3.0.3 - RELEASE   -
|  1> ! RI-MP2 RIJK def2-TZVP def2-TZVP/C def2-TZVP/JK TIGHTSCF
|  2> % maxcore 2000
|  3> % mp2 density relaxed end
|  4> *xyz 0 1
|  5>  C       -0.0003626577     1.5325992394     0.0449636115
|  6>  C       -0.0000887074     0.0315797147    -0.0262602526
|  7>  C        0.0086758109    -0.6476643545    -1.1735980049
|  8>  C       -0.0347710904    -2.1491318190    -1.2338670228
|  9>  O       -0.3404540874    -2.7546469939     0.0097922738
| 10>  C        0.4044948438    -2.1827442720     1.0792040814
| 11>  C       -0.0097201315    -0.7146801307     1.2883501777
| 12>  C        0.1986354196    -2.9916825628     2.2765111033
| 13>  C        0.0395439942    -3.6223429056     3.2861870011
| 14>  H        0.8845135777     1.9050896421     0.5770562390
| 15>  H       -0.0170026055     1.9844296938    -0.9504524653
| 16>  H       -0.8730902378     1.9000526818     0.6003605547
| 17>  H        0.0467357244    -0.1273018668    -2.1278829716
| 18>  H       -0.8174206303    -2.4834458740    -1.9251551833
| 19>  H        0.9225134476    -2.5408720788    -1.6264288427
| 20>  H        1.4783085022    -2.2024597106     0.8224746761
| 21>  H        0.6777139225    -0.2435920056     2.0020821985
| 22>  H       -1.0056175880    -0.6798558471     1.7480426005
| 23>  H       -0.1009419167    -4.1925541805     4.1710262755
| 24> *
| 25>
| 26>                          ****END OF INPUT****

CARTESIAN COORDINATES (ANGSTROEM)
---------------------------------
  C     -0.000363    1.532599    0.044964
  C     -0.000089    0.031580   -0.026260
  C      0.008676   -0.647664   -1.173598
  C     -0.034771   -2.149132   -1.233867
  O     -0.340454   -2.754647    0.009792
  C      0.404495   -2.182744    1.079204
  C     -0.009720   -0.714680    1.288350
  C      0.198635   -2.991683    2.276511
  C      0.039544   -3.622343    3.286187
  H      0.884514    1.905090    0.577056
  H     -0.017003    1.984430   -0.950452
  H     -0.873090    1.900053    0.600361
  H      0.046736   -0.127302   -2.127883
  H     -0.817421   -2.483446   -1.925155
  H      0.922513   -2.540872   -1.626429
  H      1.478309   -2.202460    0.822475
  H      0.677714   -0.243592    2.002082
  H     -1.005618   -0.679856    1.748043
  H     -0.100942   -4.192554    4.171026

 Total Charge           Charge          ....    0
 Multiplicity           Mult            ....    1
 Number of Electrons    NEL             ....   66
 Basis Dimension        Dim             ....  339

ORBITAL ENERGIES
----------------

  NO   OCC          E(Eh)            E(eV)
   0   2.0000     -20.561163      -559.4977
   1   2.0000     -11.309697      -307.7525
   2   2.0000     -11.281766      -306.9925
   3   2.0000     -11.241578      -305.8989
   4   2.0000     -11.235876      -305.7437
   5   2.0000     -11.232202      -305.6437
   6   2.0000     -11.227203      -305.5077
   7   2.0000     -11.225047      -305.4490
   8   2.0000     -11.225039      -305.4488
   9   2.0000      -1.385596       -37.7040
  10   2.0000      -1.109087       -30.1798
  11   2.0000      -1.071583       -29.1593
  12   2.0000      -1.001274       -27.2460
  13   2.0000      -0.968221       -26.3466
  14   2.0000      -0.886725       -24.1290
  15   2.0000      -0.865068       -23.5397
  16   2.0000      -0.732367       -19.9287
  17   2.0000      -0.718911       -19.5626
  18   2.0000      -0.680805       -18.5256
  19   2.0000      -0.658538       -17.9197
  20   2.0000      -0.654652       -17.8140
  21   2.0000      -0.607507       -16.5311
  22   2.0000      -0.584651       -15.9092
  23   2.0000      -0.582615       -15.8537
  24   2.0000      -0.554144       -15.0790
  25   2.0000      -0.536852       -14.6085
  26   2.0000      -0.535976       -14.5846
  27   2.0000      -0.501750       -13.6533
  28   2.0000      -0.473627       -12.8880
  29   2.0000      -0.431603       -11.7445
  30   2.0000      -0.396908       -10.8004
  31   2.0000      -0.384040       -10.4503
  32   2.0000      -0.346809        -9.4371
  33   0.0000       0.133578         3.6348
  34   0.0000       0.150863         4.1052
  35   0.0000       0.157839         4.2950
  36   0.0000       0.164582         4.4785
  37   0.0000       0.170134         4.6296

MULLIKEN ATOMIC CHARGES
-----------------------
   0 C :   -0.423195
   1 C :   -0.010409
   2 C :   -0.202853
   3 C :   -0.031661
   4 O :   -0.283584
   5 C :   -0.160954
   6 C :   -0.147172
   7 C :    0.040296
   8 C :   -0.089165
   9 H :    0.136890
  10 H :    0.133552
  11 H :    0.139396
  12 H :    0.119803
  13 H :    0.131577
  14 H :    0.106276
  15 H :    0.094768
  16 H :    0.128604
  17 H :    0.125254
  18 H :    0.192577
Sum of atomic charges:    0.0000000

LOEWDIN ATOMIC CHARGES
----------------------
   0 C :   -0.270487
   1 C :   -0.198145
   2 C :   -0.160891
   3 C :   -0.304920
   4 O :    0.191589
   5 C :   -0.298921
   6 C :   -0.189205
   7 C :   -0.076882
   8 C :   -0.083941
   9 H :    0.129445
  10 H :    0.128775
  11 H :    0.131692
  12 H :    0.145423
  13 H :    0.138216
  14 H :    0.126930
  15 H :    0.158260
  16 H :    0.151432
  17 H :    0.153884
  18 H :    0.127745

  Mayer bond orders larger than 0.1
B(  0-C ,  1-C ) :   0.8989 B(  0-C ,  9-H ) :   0.9337 B(  0-C , 10-H ) :   0.9455
B(  0-C , 11-H ) :   0.9282 B(  1-C ,  2-C ) :   1.7807 B(  1-C ,  6-C ) :   0.9041
B(  2-C ,  3-C ) :   0.9421 B(  2-C , 12-H ) :   0.9131 B(  3-C ,  4-O ) :   0.9430
B(  3-C , 13-H ) :   0.9183 B(  3-C , 14-H ) :   0.9435 B(  4-O ,  5-C ) :   1.0277
B(  5-C ,  6-C ) :   0.9413 B(  5-C ,  7-C ) :   1.1130 B(  5-C ,  8-C ) :  -0.1340
B(  5-C , 15-H ) :   0.9457 B(  6-C , 16-H ) :   0.9138 B(  6-C , 17-H ) :   0.8929
B(  7-C ,  8-C ) :   2.5997 B(  8-C , 18-H ) :   0.8884

MP2 TOTAL ENERGY:     -385.172260864 Eh
FINAL SINGLE POINT ENERGY      -385.172260863641

DIPOLE MOMENT
-------------
                                X             Y             Z
Electronic contribution:     -0.58541      -6.91786       2.19469
Nuclear contribution   :      0.88278       7.52524      -2.29883
                        -----------------------------------------
Total Dipole Moment    :      0.29737       0.60738      -0.10414
                        -----------------------------------------
Magnitude (a.u.)       :      0.68424
Magnitude (Debye)      :      1.73920

                             ****ORCA TERMINATED NORMALLY****
TOTAL RUN TIME: 0 days 0 hours 19 minutes 3 seconds 767 msec
