                         Program Version 3.0.3 - RELEASE   -
|  1> ! RI-MP2 RIJK def2-TZVP def2-TZVP/C def2-TZVP/JK TIGHTSCF
|  2> % maxcore 2000
|  3> % mp2 density relaxed end
|  4> *xyz 0 1
|  5>  C        0.2332239120     1.3688493012    -0.2678065767
|  6>  C       -0.0719558230    -0.0898308693     0.0212234032
|  7>  C       -1.5529452493    -0.4138763377    -0.0332927633
|  8>  O        0.6810794061    -0.9638410310    -0.9161486457
|  9>  C        1.4929290087    -1.4341313738     0.0876882703
| 10>  N        2.5234236915    -2.1511186102     0.0467033678
| 11>  C        0.7332694171    -0.7258149298     1.2018418175
| 12>  N        1.4028019921     0.1424121952     2.1440404297
| 13>  H        1.3106064723     1.5487717379    -0.3164085459
| 14>  H       -0.2024896465     1.6656115833    -1.2264928770
| 15>  H       -0.1825342548     2.0034329528     0.5196555960
| 16>  H       -1.9730754324    -0.1503878450    -1.0089677401
| 17>  H       -1.7255111604    -1.4802586967     0.1379444939
| 18>  H       -2.0904037095     0.1526541921     0.7342135962
| 19>  H        2.7576281270    -2.4107850013    -0.9135792114
| 20>  H        0.1065139212    -1.4283633635     1.7585710137
| 21>  H        1.7219338924    -0.3965010572     2.9418260706
| 22>  H        2.2358062855     0.5462008231     1.7271752412
| 23> *
| 24>
| 25>                          ****END OF INPUT****

CARTESIAN COORDINATES (ANGSTROEM)
---------------------------------
  C      0.233224    1.368849   -0.267807
  C     -0.071956   -0.089831    0.021223
  C     -1.552945   -0.413876   -0.033293
  O      0.681079   -0.963841   -0.916149
  C      1.492929   -1.434131    0.087688
  N      2.523424   -2.151119    0.046703
  C      0.733269   -0.725815    1.201842
  N      1.402802    0.142412    2.144040
  H      1.310606    1.548772   -0.316409
  H     -0.202490    1.665612   -1.226493
  H     -0.182534    2.003433    0.519656
  H     -1.973075   -0.150388   -1.008968
  H     -1.725511   -1.480259    0.137944
  H     -2.090404    0.152654    0.734214
  H      2.757628   -2.410785   -0.913579
  H      0.106514   -1.428363    1.758571
  H      1.721934   -0.396501    2.941826
  H      2.235806    0.546201    1.727175

 Total Charge           Charge          ....    0
 Multiplicity           Mult            ....    1
 Number of Electrons    NEL             ....   62
 Basis Dimension        Dim             ....  308

ORBITAL ENERGIES
----------------

  NO   OCC          E(Eh)            E(eV)
   0   2.0000     -20.583634      -560.1092
   1   2.0000     -15.560526      -423.4234
   2   2.0000     -15.535367      -422.7388
   3   2.0000     -11.331943      -308.3578
   4   2.0000     -11.306850      -307.6750
   5   2.0000     -11.279901      -306.9417
   6   2.0000     -11.229790      -305.5781
   7   2.0000     -11.227520      -305.5164
   8   2.0000      -1.427725       -38.8504
   9   2.0000      -1.204378       -32.7728
  10   2.0000      -1.190017       -32.3820
  11   2.0000      -1.064063       -28.9546
  12   2.0000      -0.963584       -26.2204
  13   2.0000      -0.954018       -25.9601
  14   2.0000      -0.800913       -21.7940
  15   2.0000      -0.747372       -20.3370
  16   2.0000      -0.705241       -19.1906
  17   2.0000      -0.677796       -18.4438
  18   2.0000      -0.662355       -18.0236
  19   2.0000      -0.640056       -17.4168
  20   2.0000      -0.604689       -16.4544
  21   2.0000      -0.577981       -15.7277
  22   2.0000      -0.564724       -15.3669
  23   2.0000      -0.549482       -14.9522
  24   2.0000      -0.535881       -14.5821
  25   2.0000      -0.515637       -14.0312
  26   2.0000      -0.500244       -13.6123
  27   2.0000      -0.477217       -12.9857
  28   2.0000      -0.445896       -12.1335
  29   2.0000      -0.405830       -11.0432
  30   2.0000      -0.394265       -10.7285
  31   0.0000       0.120880         3.2893
  32   0.0000       0.150479         4.0947
  33   0.0000       0.160177         4.3586
  34   0.0000       0.176918         4.8142
  35   0.0000       0.190072         5.1721

MULLIKEN ATOMIC CHARGES
-----------------------
   0 C :   -0.406223
   1 C :    0.268276
   2 C :   -0.401719
   3 O :   -0.277725
   4 C :    0.041792
   5 N :   -0.361072
   6 C :   -0.001092
   7 N :   -0.525555
   8 H :    0.127820
   9 H :    0.140780
  10 H :    0.147903
  11 H :    0.139586
  12 H :    0.136252
  13 H :    0.140727
  14 H :    0.227286
  15 H :    0.121068
  16 H :    0.242950
  17 H :    0.238944
Sum of atomic charges:   -0.0000000

LOEWDIN ATOMIC CHARGES
----------------------
   0 C :   -0.266585
   1 C :   -0.307906
   2 C :   -0.268767
   3 O :    0.242828
   4 C :   -0.403277
   5 N :   -0.063651
   6 C :   -0.249586
   7 N :   -0.131663
   8 H :    0.128779
   9 H :    0.131981
  10 H :    0.137048
  11 H :    0.131715
  12 H :    0.130403
  13 H :    0.134962
  14 H :    0.171471
  15 H :    0.157435
  16 H :    0.163271
  17 H :    0.161542

  Mayer bond orders larger than 0.1
B(  0-C ,  1-C ) :   0.9223 B(  0-C ,  8-H ) :   0.9295 B(  0-C ,  9-H ) :   0.9318
B(  0-C , 10-H ) :   0.9241 B(  1-C ,  2-C ) :   0.9233 B(  1-C ,  3-O ) :   0.8607
B(  1-C ,  6-C ) :   0.8497 B(  2-C , 11-H ) :   0.9353 B(  2-C , 12-H ) :   0.9292
B(  2-C , 13-H ) :   0.9283 B(  3-O ,  4-C ) :   1.0910 B(  4-C ,  5-N ) :   2.1318
B(  4-C ,  6-C ) :   0.9427 B(  5-N , 14-H ) :   0.8499 B(  6-C ,  7-N ) :   1.0515
B(  6-C , 15-H ) :   0.9137 B(  7-N , 16-H ) :   0.8890 B(  7-N , 17-H ) :   0.8854

MP2 TOTAL ENERGY:     -380.494888895 Eh
FINAL SINGLE POINT ENERGY      -380.494888895148

DIPOLE MOMENT
-------------
                                X             Y             Z
Electronic contribution:      4.05390      -4.42521      -1.26718
Nuclear contribution   :     -4.55016       4.88920       1.40114
                        -----------------------------------------
Total Dipole Moment    :     -0.49626       0.46400       0.13396
                        -----------------------------------------
Magnitude (a.u.)       :      0.69247
Magnitude (Debye)      :      1.76013

                             ****ORCA TERMINATED NORMALLY****
TOTAL RUN TIME: 0 days 0 hours 13 minutes 26 seconds 822 msec
