                         Program Version 3.0.3 - RELEASE   -
|  1> ! RI-MP2 RIJK def2-TZVP def2-TZVP/C def2-TZVP/JK TIGHTSCF
|  2> % maxcore 2000
|  3> % mp2 density relaxed end
|  4> *xyz 0 1
|  5>  O       -0.0679862681     1.3302126664     0.0397568287
|  6>  C        0.0357850934    -0.0582667924    -0.0197567985
|  7>  C        1.0173734271    -0.6810346689    -0.9983766514
|  8>  C        0.3826120616    -2.0462817530    -1.3294274910
|  9>  O        0.7457771580    -2.8120687639    -2.1824871887
| 10>  C       -0.7735936473    -2.2364284425    -0.3559750456
| 11>  C       -0.1507326267    -2.3160004300     1.0926570126
| 12>  C       -0.3844258994    -0.8145389257     1.2370342704
| 13>  C       -1.2666478779    -0.8066606590    -0.0095572787
| 14>  H        0.6813793015     1.6671349047     0.5429426477
| 15>  H        1.0791416089    -0.0739320117    -1.9077347277
| 16>  H        2.0369433983    -0.8158341367    -0.6202294338
| 17>  H       -1.4727607686    -3.0195219988    -0.6378429362
| 18>  H       -0.8111499812    -2.8874977569     1.7484648742
| 19>  H        0.8689412527    -2.7060677092     1.1873552933
| 20>  H       -0.5255660456    -0.2659903066     2.1610938315
| 21>  H       -2.2326486267    -0.3595950859    -0.1980320168
| 22> *
| 23>
| 24>                          ****END OF INPUT****

CARTESIAN COORDINATES (ANGSTROEM)
---------------------------------
  O     -0.067986    1.330213    0.039757
  C      0.035785   -0.058267   -0.019757
  C      1.017373   -0.681035   -0.998377
  C      0.382612   -2.046282   -1.329427
  O      0.745777   -2.812069   -2.182487
  C     -0.773594   -2.236428   -0.355975
  C     -0.150733   -2.316000    1.092657
  C     -0.384426   -0.814539    1.237034
  C     -1.266648   -0.806661   -0.009557
  H      0.681379    1.667135    0.542943
  H      1.079142   -0.073932   -1.907735
  H      2.036943   -0.815834   -0.620229
  H     -1.472761   -3.019522   -0.637843
  H     -0.811150   -2.887498    1.748465
  H      0.868941   -2.706068    1.187355
  H     -0.525566   -0.265990    2.161094
  H     -2.232649   -0.359595   -0.198032

 Total Charge           Charge          ....    0
 Multiplicity           Mult            ....    1
 Number of Electrons    NEL             ....   66
 Basis Dimension        Dim             ....  327

ORBITAL ENERGIES
----------------

  NO   OCC          E(Eh)            E(eV)
   0   2.0000     -20.579605      -559.9995
   1   2.0000     -20.546019      -559.0856
   2   2.0000     -11.330880      -308.3289
   3   2.0000     -11.304593      -307.6136
   4   2.0000     -11.251260      -306.1623
   5   2.0000     -11.250497      -306.1416
   6   2.0000     -11.249170      -306.1055
   7   2.0000     -11.245755      -306.0125
   8   2.0000     -11.241000      -305.8832
   9   2.0000      -1.393919       -37.9305
  10   2.0000      -1.388954       -37.7954
  11   2.0000      -1.219637       -33.1880
  12   2.0000      -1.026382       -27.9293
  13   2.0000      -0.998778       -27.1781
  14   2.0000      -0.920720       -25.0541
  15   2.0000      -0.793506       -21.5924
  16   2.0000      -0.785868       -21.3846
  17   2.0000      -0.732242       -19.9253
  18   2.0000      -0.724077       -19.7031
  19   2.0000      -0.660839       -17.9823
  20   2.0000      -0.644679       -17.5426
  21   2.0000      -0.636647       -17.3240
  22   2.0000      -0.611384       -16.6366
  23   2.0000      -0.600317       -16.3355
  24   2.0000      -0.569934       -15.5087
  25   2.0000      -0.561835       -15.2883
  26   2.0000      -0.534387       -14.5414
  27   2.0000      -0.500296       -13.6138
  28   2.0000      -0.491602       -13.3772
  29   2.0000      -0.473570       -12.8865
  30   2.0000      -0.416914       -11.3448
  31   2.0000      -0.399881       -10.8813
  32   2.0000      -0.380841       -10.3632
  33   0.0000       0.125040         3.4025
  34   0.0000       0.130649         3.5551
  35   0.0000       0.152199         4.1415
  36   0.0000       0.164709         4.4819
  37   0.0000       0.173610         4.7242

MULLIKEN ATOMIC CHARGES
-----------------------
   0 O :   -0.452755
   1 C :    0.161869
   2 C :   -0.188543
   3 C :    0.038719
   4 O :   -0.259185
   5 C :    0.063455
   6 C :   -0.248422
   7 C :   -0.191091
   8 C :   -0.217143
   9 H :    0.327619
  10 H :    0.143731
  11 H :    0.133133
  12 H :    0.143054
  13 H :    0.130754
  14 H :    0.121798
  15 H :    0.136116
  16 H :    0.156890
Sum of atomic charges:   -0.0000000

LOEWDIN ATOMIC CHARGES
----------------------
   0 O :    0.037193
   1 C :   -0.328329
   2 C :   -0.184276
   3 C :   -0.291277
   4 O :    0.155913
   5 C :   -0.145454
   6 C :   -0.176558
   7 C :   -0.156327
   8 C :   -0.109131
   9 H :    0.185628
  10 H :    0.159453
  11 H :    0.149618
  12 H :    0.148604
  13 H :    0.143819
  14 H :    0.129754
  15 H :    0.138653
  16 H :    0.142715

  Mayer bond orders larger than 0.1
B(  0-O ,  1-C ) :   1.0040 B(  0-O ,  9-H ) :   0.8381 B(  1-C ,  2-C ) :   0.9327
B(  1-C ,  7-C ) :   0.8462 B(  1-C ,  8-C ) :   0.8914 B(  2-C ,  3-C ) :   0.9181
B(  2-C ,  5-C ) :  -0.1302 B(  2-C , 10-H ) :   0.8922 B(  2-C , 11-H ) :   0.8960
B(  3-C ,  4-O ) :   2.0597 B(  3-C ,  5-C ) :   0.8435 B(  5-C ,  6-C ) :   0.8826
B(  5-C ,  8-C ) :   0.8388 B(  5-C , 12-H ) :   0.9136 B(  6-C ,  7-C ) :   0.9177
B(  6-C , 13-H ) :   0.9117 B(  6-C , 14-H ) :   0.9165 B(  7-C ,  8-C ) :   0.8375
B(  7-C , 15-H ) :   0.9291 B(  8-C , 16-H ) :   0.9042

MP2 TOTAL ENERGY:     -421.111149920 Eh
FINAL SINGLE POINT ENERGY      -421.111149919603

DIPOLE MOMENT
-------------
                                X             Y             Z
Electronic contribution:      0.19581      -0.08723      -3.19056
Nuclear contribution   :     -0.14685       0.52828       4.32470
                        -----------------------------------------
Total Dipole Moment    :      0.04896       0.44105       1.13414
                        -----------------------------------------
Magnitude (a.u.)       :      1.21786
Magnitude (Debye)      :      3.09557

                             ****ORCA TERMINATED NORMALLY****
TOTAL RUN TIME: 0 days 0 hours 17 minutes 8 seconds 508 msec
