                         Program Version 3.0.3 - RELEASE   -
|  1> ! RI-MP2 RIJK def2-TZVP def2-TZVP/C def2-TZVP/JK TIGHTSCF
|  2> % maxcore 2000
|  3> % mp2 density relaxed end
|  4> *xyz 0 1
|  5>  C        0.8628784985     0.5386736277    -0.5009351494
|  6>  C       -0.1349309749     0.0288350616     0.5101950443
|  7>  O        0.0346124273     0.1447495652     1.7090092504
|  8>  C       -1.3557786465    -0.7194460714    -0.0353341264
|  9>  N       -1.0542013593    -2.1444370462    -0.1390549353
| 10>  C       -1.0254766419    -2.8550299006     0.9308654153
| 11>  N       -1.2149983942    -2.4274616905     2.2124940507
| 12>  C       -0.8031160897    -4.3484723119     0.7359853212
| 13>  O       -0.7630197883    -4.6930579196    -0.6153947293
| 14>  H        1.1393167316    -0.2745342743    -1.1810065668
| 15>  H        0.4008830403     1.3208993552    -1.1149838577
| 16>  H        1.7476745093     0.9357737695    -0.0025773282
| 17>  H       -2.2002429156    -0.5250280389     0.6415094998
| 18>  H       -1.6148086432    -0.3520918683    -1.0328443072
| 19>  H       -0.9831647307    -1.4635012386     2.4259947526
| 20>  H       -1.0529381626    -3.0902405238     2.9540698442
| 21>  H        0.1373118515    -4.6243216780     1.2440142264
| 22>  H       -1.6110799749    -4.8885275624     1.2573928763
| 23>  H       -0.8445086566    -3.8378150247    -1.0769956310
| 24> *
| 25>
| 26>                          ****END OF INPUT****

CARTESIAN COORDINATES (ANGSTROEM)
---------------------------------
  C      0.862878    0.538674   -0.500935
  C     -0.134931    0.028835    0.510195
  O      0.034612    0.144750    1.709009
  C     -1.355779   -0.719446   -0.035334
  N     -1.054201   -2.144437   -0.139055
  C     -1.025477   -2.855030    0.930865
  N     -1.214998   -2.427462    2.212494
  C     -0.803116   -4.348472    0.735985
  O     -0.763020   -4.693058   -0.615395
  H      1.139317   -0.274534   -1.181007
  H      0.400883    1.320899   -1.114984
  H      1.747675    0.935774   -0.002577
  H     -2.200243   -0.525028    0.641509
  H     -1.614809   -0.352092   -1.032844
  H     -0.983165   -1.463501    2.425995
  H     -1.052938   -3.090241    2.954070
  H      0.137312   -4.624322    1.244014
  H     -1.611080   -4.888528    1.257393
  H     -0.844509   -3.837815   -1.076996

 Total Charge           Charge          ....    0
 Multiplicity           Mult            ....    1
 Number of Electrons    NEL             ....   70
 Basis Dimension        Dim             ....  339

ORBITAL ENERGIES
----------------

  NO   OCC          E(Eh)            E(eV)
   0   2.0000     -20.558706      -559.4308
   1   2.0000     -20.541614      -558.9657
   2   2.0000     -15.582916      -424.0327
   3   2.0000     -15.545191      -423.0062
   4   2.0000     -11.343394      -308.6695
   5   2.0000     -11.328905      -308.2752
   6   2.0000     -11.288217      -307.1680
   7   2.0000     -11.269077      -306.6472
   8   2.0000     -11.240963      -305.8822
   9   2.0000      -1.402528       -38.1647
  10   2.0000      -1.362169       -37.0665
  11   2.0000      -1.277396       -34.7597
  12   2.0000      -1.176032       -32.0015
  13   2.0000      -1.037574       -28.2338
  14   2.0000      -0.986206       -26.8360
  15   2.0000      -0.931457       -25.3462
  16   2.0000      -0.789965       -21.4960
  17   2.0000      -0.747932       -20.3523
  18   2.0000      -0.738896       -20.1064
  19   2.0000      -0.705382       -19.1944
  20   2.0000      -0.663739       -18.0612
  21   2.0000      -0.649603       -17.6766
  22   2.0000      -0.642628       -17.4868
  23   2.0000      -0.637265       -17.3409
  24   2.0000      -0.602707       -16.4005
  25   2.0000      -0.593281       -16.1440
  26   2.0000      -0.568463       -15.4687
  27   2.0000      -0.557011       -15.1570
  28   2.0000      -0.523967       -14.2579
  29   2.0000      -0.506039       -13.7700
  30   2.0000      -0.498698       -13.5703
  31   2.0000      -0.448962       -12.2169
  32   2.0000      -0.438309       -11.9270
  33   2.0000      -0.420307       -11.4371
  34   2.0000      -0.368393       -10.0245
  35   0.0000       0.123228         3.3532
  36   0.0000       0.131476         3.5777
  37   0.0000       0.138444         3.7673
  38   0.0000       0.165618         4.5067
  39   0.0000       0.181062         4.9270

MULLIKEN ATOMIC CHARGES
-----------------------
   0 C :   -0.424906
   1 C :    0.240548
   2 O :   -0.334131
   3 C :   -0.150907
   4 N :   -0.402673
   5 C :    0.286259
   6 N :   -0.514734
   7 C :   -0.030636
   8 O :   -0.487433
   9 H :    0.163868
  10 H :    0.150166
  11 H :    0.150310
  12 H :    0.137832
  13 H :    0.133100
  14 H :    0.281551
  15 H :    0.251125
  16 H :    0.105542
  17 H :    0.111382
  18 H :    0.333736
Sum of atomic charges:   -0.0000000

LOEWDIN ATOMIC CHARGES
----------------------
   0 C :   -0.276438
   1 C :   -0.339835
   2 O :    0.127766
   3 C :   -0.272091
   4 N :    0.049018
   5 C :   -0.375613
   6 N :   -0.020205
   7 C :   -0.328905
   8 O :   -0.041047
   9 H :    0.144730
  10 H :    0.140821
  11 H :    0.133234
  12 H :    0.138839
  13 H :    0.137703
  14 H :    0.174384
  15 H :    0.175464
  16 H :    0.127447
  17 H :    0.129109
  18 H :    0.175618

  Mayer bond orders larger than 0.1
B(  0-C ,  1-C ) :   0.9367 B(  0-C ,  9-H ) :   0.9132 B(  0-C , 10-H ) :   0.9097
B(  0-C , 11-H ) :   0.9339 B(  1-C ,  2-O ) :   1.8711 B(  1-C ,  3-C ) :   0.8776
B(  3-C ,  4-N ) :   0.8874 B(  3-C , 12-H ) :   0.9169 B(  3-C , 13-H ) :   0.9240
B(  4-N ,  5-C ) :   1.6590 B(  5-C ,  6-N ) :   1.1295 B(  5-C ,  7-C ) :   0.9187
B(  6-N , 14-H ) :   0.8313 B(  6-N , 15-H ) :   0.8750 B(  7-C ,  8-O ) :   1.0387
B(  7-C , 16-H ) :   0.9107 B(  7-C , 17-H ) :   0.9295 B(  8-O , 18-H ) :   0.7882

MP2 TOTAL ENERGY:     -455.632779633 Eh
FINAL SINGLE POINT ENERGY      -455.632779633326

DIPOLE MOMENT
-------------
                                X             Y             Z
Electronic contribution:     -1.01319      -0.89311       1.64550
Nuclear contribution   :      1.03409       1.67333      -1.20860
                        -----------------------------------------
Total Dipole Moment    :      0.02090       0.78022       0.43689
                        -----------------------------------------
Magnitude (a.u.)       :      0.89446
Magnitude (Debye)      :      2.27352

                             ****ORCA TERMINATED NORMALLY****
TOTAL RUN TIME: 0 days 0 hours 16 minutes 41 seconds 300 msec
