                         Program Version 3.0.3 - RELEASE   -
|  1> ! RI-MP2 RIJK def2-TZVP def2-TZVP/C def2-TZVP/JK TIGHTSCF
|  2> % maxcore 2000
|  3> % mp2 density relaxed end
|  4> *xyz 0 1
|  5>  O       -0.3695405403     1.2326046411     0.2430101987
|  6>  C        0.0315547678    -0.0927811157     0.0532179603
|  7>  C       -0.3876205068    -1.0382003375     1.1350707394
|  8>  C        1.0898235956    -0.7615170528     0.9211407097
|  9>  C        1.8895111422    -1.7456251346     0.0773612046
| 10>  C        1.2115366846    -1.7696911297    -1.3146990692
| 11>  C        0.0698711052    -2.7888354403    -1.6178013676
| 12>  C       -0.9001078601    -1.6076317054    -1.9144787132
| 13>  C        0.1679294476    -0.6096644593    -1.3761789919
| 14>  H        0.2842461308     1.8024633527    -0.1775890681
| 15>  H       -0.8386440584    -0.5669063493     2.0014381401
| 16>  H       -0.8006613731    -2.0103535266     0.8893492346
| 17>  H        1.5981130633    -0.1927746445     1.6926092238
| 18>  H        2.9242701479    -1.3946923591    -0.0092018753
| 19>  H        1.9342062132    -2.7482378948     0.5206503214
| 20>  H        1.9526464619    -1.7474432261    -2.1169689343
| 21>  H        0.2578657764    -3.4679901020    -2.4530312242
| 22>  H       -0.2152999033    -3.3966951941    -0.7545808165
| 23>  H       -1.0979554051    -1.4812788898    -2.9818192526
| 24>  H       -1.8573652263    -1.6107774499    -1.3876681304
| 25>  H        0.3981147068     0.2325767278    -2.0368500094
| 26> *
| 27>
| 28>                          ****END OF INPUT****

CARTESIAN COORDINATES (ANGSTROEM)
---------------------------------
  O     -0.369541    1.232605    0.243010
  C      0.031555   -0.092781    0.053218
  C     -0.387621   -1.038200    1.135071
  C      1.089824   -0.761517    0.921141
  C      1.889511   -1.745625    0.077361
  C      1.211537   -1.769691   -1.314699
  C      0.069871   -2.788835   -1.617801
  C     -0.900108   -1.607632   -1.914479
  C      0.167929   -0.609664   -1.376179
  H      0.284246    1.802463   -0.177589
  H     -0.838644   -0.566906    2.001438
  H     -0.800661   -2.010354    0.889349
  H      1.598113   -0.192775    1.692609
  H      2.924270   -1.394692   -0.009202
  H      1.934206   -2.748238    0.520650
  H      1.952646   -1.747443   -2.116969
  H      0.257866   -3.467990   -2.453031
  H     -0.215300   -3.396695   -0.754581
  H     -1.097955   -1.481279   -2.981819
  H     -1.857365   -1.610777   -1.387668
  H      0.398115    0.232577   -2.036850

 Total Charge           Charge          ....    0
 Multiplicity           Mult            ....    1
 Number of Electrons    NEL             ....   68
 Basis Dimension        Dim             ....  351

ORBITAL ENERGIES
----------------

  NO   OCC          E(Eh)            E(eV)
   0   2.0000     -20.558546      -559.4265
   1   2.0000     -11.278815      -306.9122
   2   2.0000     -11.224473      -305.4334
   3   2.0000     -11.223897      -305.4178
   4   2.0000     -11.223035      -305.3943
   5   2.0000     -11.220973      -305.3382
   6   2.0000     -11.218032      -305.2582
   7   2.0000     -11.217270      -305.2374
   8   2.0000     -11.217015      -305.2305
   9   2.0000      -1.368804       -37.2471
  10   2.0000      -1.169806       -31.8320
  11   2.0000      -1.091129       -29.6911
  12   2.0000      -0.985100       -26.8059
  13   2.0000      -0.918855       -25.0033
  14   2.0000      -0.860072       -23.4037
  15   2.0000      -0.800850       -21.7922
  16   2.0000      -0.769384       -20.9360
  17   2.0000      -0.737377       -20.0650
  18   2.0000      -0.695588       -18.9279
  19   2.0000      -0.655061       -17.8251
  20   2.0000      -0.614039       -16.7089
  21   2.0000      -0.595769       -16.2117
  22   2.0000      -0.582945       -15.8627
  23   2.0000      -0.581044       -15.8110
  24   2.0000      -0.566943       -15.4273
  25   2.0000      -0.540329       -14.7031
  26   2.0000      -0.505600       -13.7581
  27   2.0000      -0.495465       -13.4823
  28   2.0000      -0.472729       -12.8636
  29   2.0000      -0.446698       -12.1553
  30   2.0000      -0.433901       -11.8070
  31   2.0000      -0.416992       -11.3469
  32   2.0000      -0.402931       -10.9643
  33   2.0000      -0.367984       -10.0134
  34   0.0000       0.135047         3.6748
  35   0.0000       0.152500         4.1497
  36   0.0000       0.160091         4.3563
  37   0.0000       0.163408         4.4466
  38   0.0000       0.181239         4.9318

MULLIKEN ATOMIC CHARGES
-----------------------
   0 O :   -0.456540
   1 C :    0.133307
   2 C :   -0.289170
   3 C :   -0.133008
   4 C :   -0.251654
   5 C :   -0.061351
   6 C :   -0.282818
   7 C :   -0.255450
   8 C :    0.003889
   9 H :    0.317215
  10 H :    0.131152
  11 H :    0.133270
  12 H :    0.125813
  13 H :    0.116748
  14 H :    0.111773
  15 H :    0.102372
  16 H :    0.115995
  17 H :    0.114220
  18 H :    0.116961
  19 H :    0.118756
  20 H :    0.088521
Sum of atomic charges:    0.0000000

LOEWDIN ATOMIC CHARGES
----------------------
   0 O :    0.023679
   1 C :   -0.324036
   2 C :   -0.180746
   3 C :   -0.184178
   4 C :   -0.220238
   5 C :   -0.182020
   6 C :   -0.224138
   7 C :   -0.216482
   8 C :   -0.165351
   9 H :    0.179082
  10 H :    0.142653
  11 H :    0.134068
  12 H :    0.143524
  13 H :    0.139370
  14 H :    0.138163
  15 H :    0.143229
  16 H :    0.124742
  17 H :    0.127049
  18 H :    0.130787
  19 H :    0.129485
  20 H :    0.141359

  Mayer bond orders larger than 0.1
B(  0-O ,  1-C ) :   0.9896 B(  0-O ,  9-H ) :   0.8410 B(  1-C ,  2-C ) :   0.8933
B(  1-C ,  3-C ) :   0.8569 B(  1-C ,  8-C ) :   0.9318 B(  2-C ,  3-C ) :   0.8895
B(  2-C , 10-H ) :   0.9214 B(  2-C , 11-H ) :   0.9207 B(  3-C ,  4-C ) :   0.9147
B(  3-C , 12-H ) :   0.9311 B(  4-C ,  5-C ) :   0.9276 B(  4-C , 13-H ) :   0.9295
B(  4-C , 14-H ) :   0.9084 B(  5-C ,  6-C ) :   0.9448 B(  5-C ,  8-C ) :   0.9116
B(  5-C , 15-H ) :   0.9133 B(  6-C ,  7-C ) :   0.9580 B(  6-C , 16-H ) :   0.9261
B(  6-C , 17-H ) :   0.9218 B(  7-C ,  8-C ) :   0.8891 B(  7-C , 18-H ) :   0.9187
B(  7-C , 19-H ) :   0.9226 B(  8-C , 20-H ) :   0.9148

MP2 TOTAL ENERGY:     -386.399885658 Eh
FINAL SINGLE POINT ENERGY      -386.399885658151

DIPOLE MOMENT
-------------
                                X             Y             Z
Electronic contribution:     -0.35511       4.36196       1.36557
Nuclear contribution   :      0.91571      -4.45705      -1.71736
                        -----------------------------------------
Total Dipole Moment    :      0.56060      -0.09509      -0.35179
                        -----------------------------------------
Magnitude (a.u.)       :      0.66863
Magnitude (Debye)      :      1.69953

                             ****ORCA TERMINATED NORMALLY****
TOTAL RUN TIME: 0 days 0 hours 20 minutes 24 seconds 96 msec
