                         Program Version 3.0.3 - RELEASE   -
|  1> ! RI-MP2 RIJK def2-TZVP def2-TZVP/C def2-TZVP/JK TIGHTSCF
|  2> % maxcore 2000
|  3> % mp2 density relaxed end
|  4> *xyz 0 1
|  5>  C        0.2453595649     1.4781515268     0.0666635373
|  6>  C       -0.0704808090    -0.0172319238    -0.0391399360
|  7>  C        0.6068549106    -0.6727242551    -1.2908951462
|  8>  C        1.8529658051    -1.2593477852    -0.6955061443
|  9>  C        3.0636523353    -1.7992745034    -0.9714392226
| 10>  O        3.6884121284    -2.1536441438     0.1859458924
| 11>  C        2.8468349820    -1.8352082119     1.2341101440
| 12>  C        1.7151579711    -1.2852383710     0.7258349769
| 13>  N        0.4671403812    -0.7891544516     1.1180816318
| 14>  H        1.3276996718     1.6461988335     0.0684622653
| 15>  H       -0.1868920342     2.0284980970    -0.7758326259
| 16>  H       -0.1694000935     1.9032298172     0.9875162405
| 17>  H       -1.1563174277    -0.1525883869    -0.0772317781
| 18>  H       -0.0395043107    -1.4522978563    -1.7108441195
| 19>  H        0.7804486932     0.0659710588    -2.0786172717
| 20>  H        3.6166011478    -1.9940303862    -1.8756105737
| 21>  H        3.2215818937    -2.0556039072     2.2178734762
| 22>  H        0.4437019600    -0.2802069308     1.9921125436
| 23> *
| 24>
| 25>                          ****END OF INPUT****

CARTESIAN COORDINATES (ANGSTROEM)
---------------------------------
  C      0.245360    1.478152    0.066664
  C     -0.070481   -0.017232   -0.039140
  C      0.606855   -0.672724   -1.290895
  C      1.852966   -1.259348   -0.695506
  C      3.063652   -1.799275   -0.971439
  O      3.688412   -2.153644    0.185946
  C      2.846835   -1.835208    1.234110
  C      1.715158   -1.285238    0.725835
  N      0.467140   -0.789154    1.118082
  H      1.327700    1.646199    0.068462
  H     -0.186892    2.028498   -0.775833
  H     -0.169400    1.903230    0.987516
  H     -1.156317   -0.152588   -0.077232
  H     -0.039504   -1.452298   -1.710844
  H      0.780449    0.065971   -2.078617
  H      3.616601   -1.994030   -1.875611
  H      3.221582   -2.055604    2.217873
  H      0.443702   -0.280207    1.992113

 Total Charge           Charge          ....    0
 Multiplicity           Mult            ....    1
 Number of Electrons    NEL             ....   66
 Basis Dimension        Dim             ....  333

ORBITAL ENERGIES
----------------

  NO   OCC          E(Eh)            E(eV)
   0   2.0000     -20.600945      -560.5802
   1   2.0000     -15.562227      -423.4697
   2   2.0000     -11.280741      -306.9646
   3   2.0000     -11.271522      -306.7137
   4   2.0000     -11.261663      -306.4454
   5   2.0000     -11.251647      -306.1729
   6   2.0000     -11.239965      -305.8550
   7   2.0000     -11.223013      -305.3937
   8   2.0000     -11.219965      -305.3108
   9   2.0000      -1.433176       -38.9987
  10   2.0000      -1.246558       -33.9206
  11   2.0000      -1.066487       -29.0206
  12   2.0000      -1.044367       -28.4187
  13   2.0000      -0.976882       -26.5823
  14   2.0000      -0.941810       -25.6279
  15   2.0000      -0.811221       -22.0744
  16   2.0000      -0.789656       -21.4876
  17   2.0000      -0.761415       -20.7192
  18   2.0000      -0.714535       -19.4435
  19   2.0000      -0.648329       -17.6419
  20   2.0000      -0.616830       -16.7848
  21   2.0000      -0.613529       -16.6950
  22   2.0000      -0.605439       -16.4748
  23   2.0000      -0.589578       -16.0432
  24   2.0000      -0.563442       -15.3320
  25   2.0000      -0.547392       -14.8953
  26   2.0000      -0.536290       -14.5932
  27   2.0000      -0.508805       -13.8453
  28   2.0000      -0.501259       -13.6399
  29   2.0000      -0.479575       -13.0499
  30   2.0000      -0.456592       -12.4245
  31   2.0000      -0.339370        -9.2347
  32   2.0000      -0.294027        -8.0009
  33   0.0000       0.129877         3.5341
  34   0.0000       0.143951         3.9171
  35   0.0000       0.167370         4.5544
  36   0.0000       0.174653         4.7525
  37   0.0000       0.182464         4.9651

MULLIKEN ATOMIC CHARGES
-----------------------
   0 C :   -0.462253
   1 C :    0.100895
   2 C :   -0.206086
   3 C :   -0.081967
   4 C :   -0.035817
   5 O :   -0.205958
   6 C :   -0.092347
   7 C :    0.026750
   8 N :   -0.320789
   9 H :    0.151003
  10 H :    0.127641
  11 H :    0.128305
  12 H :    0.105849
  13 H :    0.126697
  14 H :    0.130784
  15 H :    0.144936
  16 H :    0.142553
  17 H :    0.219805
Sum of atomic charges:    0.0000000

LOEWDIN ATOMIC CHARGES
----------------------
   0 C :   -0.302903
   1 C :   -0.270123
   2 C :   -0.184223
   3 C :   -0.165703
   4 C :   -0.231764
   5 O :    0.318275
   6 C :   -0.242024
   7 C :   -0.241620
   8 N :    0.078343
   9 H :    0.130163
  10 H :    0.124907
  11 H :    0.120865
  12 H :    0.140374
  13 H :    0.146245
  14 H :    0.144331
  15 H :    0.131429
  16 H :    0.128484
  17 H :    0.174943

  Mayer bond orders larger than 0.1
B(  0-C ,  1-C ) :   0.9134 B(  0-C ,  9-H ) :   0.9330 B(  0-C , 10-H ) :   0.9335
B(  0-C , 11-H ) :   0.9358 B(  1-C ,  2-C ) :   0.9246 B(  1-C ,  8-N ) :   0.9026
B(  1-C , 12-H ) :   0.9317 B(  2-C ,  3-C ) :   0.9377 B(  2-C , 13-H ) :   0.8997
B(  2-C , 14-H ) :   0.9248 B(  3-C ,  4-C ) :   1.5133 B(  3-C ,  7-C ) :   1.1471
B(  4-C ,  5-O ) :   1.0754 B(  4-C , 15-H ) :   0.9323 B(  5-O ,  6-C ) :   1.0003
B(  6-C ,  7-C ) :   1.5191 B(  6-C , 16-H ) :   0.9417 B(  7-C ,  8-N ) :   1.0783
B(  8-N , 17-H ) :   0.8784

MP2 TOTAL ENERGY:     -401.272810644 Eh
FINAL SINGLE POINT ENERGY      -401.272810644038

DIPOLE MOMENT
-------------
                                X             Y             Z
Electronic contribution:      5.62462      -6.59461       1.47437
Nuclear contribution   :     -6.10726       7.28874      -1.55886
                        -----------------------------------------
Total Dipole Moment    :     -0.48264       0.69414      -0.08450
                        -----------------------------------------
Magnitude (a.u.)       :      0.84965
Magnitude (Debye)      :      2.15964

                             ****ORCA TERMINATED NORMALLY****
TOTAL RUN TIME: 0 days 0 hours 18 minutes 17 seconds 737 msec
