                         Program Version 3.0.3 - RELEASE   -
|  1> ! RI-MP2 RIJK def2-TZVP def2-TZVP/C def2-TZVP/JK TIGHTSCF
|  2> % maxcore 2000
|  3> % mp2 density relaxed end
|  4> *xyz 0 1
|  5>  O       -0.0605110910     1.4458594244     0.2365515367
|  6>  C        0.0410222186     0.0526194536    -0.0110529882
|  7>  C       -1.3586860392    -0.5406368156     0.0834569818
|  8>  C       -1.3859599835    -2.0524766341    -0.1595516137
|  9>  C       -2.7880504454    -2.6447664782    -0.0813534597
| 10>  C       -2.9088666632    -4.1982095222    -0.0509635568
| 11>  C       -3.5862042462    -4.0110089510     1.3292306965
| 12>  O       -4.0937186770    -4.7236625541     2.1519590417
| 13>  N       -3.4015567274    -2.6499065920     1.2582048503
| 14>  H        0.8210206453     1.8266812117     0.1873591799
| 15>  H        0.4617239881    -0.1467629316    -1.0106405078
| 16>  H        0.7019724336    -0.4375279241     0.7226462137
| 17>  H       -1.7605595611    -0.3112964992     1.0780736309
| 18>  H       -2.0023311816    -0.0278355563    -0.6422379223
| 19>  H       -0.9746128454    -2.2776465128    -1.1528230237
| 20>  H       -0.7470775999    -2.5625419756     0.5731223728
| 21>  H       -3.4371304833    -2.1805596428    -0.8349112455
| 22>  H       -3.5578553136    -4.6402366159    -0.8086250451
| 23>  H       -1.9592034058    -4.7362551781    -0.0192077019
| 24>  H       -3.7562844920    -1.9057137061     1.8407256704
| 25> *
| 26>
| 27>                          ****END OF INPUT****

CARTESIAN COORDINATES (ANGSTROEM)
---------------------------------
  O     -0.060511    1.445859    0.236552
  C      0.041022    0.052619   -0.011053
  C     -1.358686   -0.540637    0.083457
  C     -1.385960   -2.052477   -0.159552
  C     -2.788050   -2.644766   -0.081353
  C     -2.908867   -4.198210   -0.050964
  C     -3.586204   -4.011009    1.329231
  O     -4.093719   -4.723663    2.151959
  N     -3.401557   -2.649907    1.258205
  H      0.821021    1.826681    0.187359
  H      0.461724   -0.146763   -1.010641
  H      0.701972   -0.437528    0.722646
  H     -1.760560   -0.311296    1.078074
  H     -2.002331   -0.027836   -0.642238
  H     -0.974613   -2.277647   -1.152823
  H     -0.747078   -2.562542    0.573122
  H     -3.437130   -2.180560   -0.834911
  H     -3.557855   -4.640237   -0.808625
  H     -1.959203   -4.736255   -0.019208
  H     -3.756284   -1.905714    1.840726

 Total Charge           Charge          ....    0
 Multiplicity           Mult            ....    1
 Number of Electrons    NEL             ....   70
 Basis Dimension        Dim             ....  345

ORBITAL ENERGIES
----------------

  NO   OCC          E(Eh)            E(eV)
   0   2.0000     -20.562984      -559.5472
   1   2.0000     -20.522501      -558.4456
   2   2.0000     -15.581494      -423.9940
   3   2.0000     -11.349342      -308.8313
   4   2.0000     -11.286768      -307.1286
   5   2.0000     -11.284807      -307.0752
   6   2.0000     -11.246994      -306.0463
   7   2.0000     -11.238417      -305.8129
   8   2.0000     -11.231839      -305.6339
   9   2.0000      -1.384870       -37.6842
  10   2.0000      -1.367349       -37.2075
  11   2.0000      -1.267786       -34.4982
  12   2.0000      -1.079309       -29.3695
  13   2.0000      -1.010463       -27.4961
  14   2.0000      -0.956253       -26.0210
  15   2.0000      -0.848621       -23.0922
  16   2.0000      -0.812274       -22.1031
  17   2.0000      -0.784367       -21.3437
  18   2.0000      -0.704336       -19.1660
  19   2.0000      -0.694755       -18.9052
  20   2.0000      -0.662478       -18.0269
  21   2.0000      -0.651197       -17.7200
  22   2.0000      -0.640215       -17.4211
  23   2.0000      -0.592196       -16.1145
  24   2.0000      -0.590033       -16.0556
  25   2.0000      -0.554757       -15.0957
  26   2.0000      -0.543664       -14.7938
  27   2.0000      -0.531803       -14.4711
  28   2.0000      -0.528812       -14.3897
  29   2.0000      -0.495753       -13.4901
  30   2.0000      -0.491882       -13.3848
  31   2.0000      -0.479512       -13.0482
  32   2.0000      -0.452262       -12.3067
  33   2.0000      -0.414907       -11.2902
  34   2.0000      -0.396328       -10.7846
  35   0.0000       0.126060         3.4303
  36   0.0000       0.133602         3.6355
  37   0.0000       0.148363         4.0372
  38   0.0000       0.156729         4.2648
  39   0.0000       0.161404         4.3920

MULLIKEN ATOMIC CHARGES
-----------------------
   0 O :   -0.464504
   1 C :   -0.067389
   2 C :   -0.184160
   3 C :   -0.270119
   4 C :    0.086713
   5 C :   -0.236326
   6 C :    0.218153
   7 O :   -0.314214
   8 N :   -0.349522
   9 H :    0.316944
  10 H :    0.093031
  11 H :    0.096604
  12 H :    0.107497
  13 H :    0.115262
  14 H :    0.114464
  15 H :    0.118417
  16 H :    0.113903
  17 H :    0.135601
  18 H :    0.131709
  19 H :    0.237938
Sum of atomic charges:    0.0000000

LOEWDIN ATOMIC CHARGES
----------------------
   0 O :   -0.050667
   1 C :   -0.353410
   2 C :   -0.270765
   3 C :   -0.253575
   4 C :   -0.248768
   5 C :   -0.182236
   6 C :   -0.442031
   7 O :    0.100011
   8 N :    0.136796
   9 H :    0.172825
  10 H :    0.114551
  11 H :    0.115404
  12 H :    0.138672
  13 H :    0.141018
  14 H :    0.144048
  15 H :    0.143325
  16 H :    0.141444
  17 H :    0.140781
  18 H :    0.141987
  19 H :    0.170592

  Mayer bond orders larger than 0.1
B(  0-O ,  1-C ) :   1.0245 B(  0-O ,  9-H ) :   0.8484 B(  1-C ,  2-C ) :   0.9416
B(  1-C , 10-H ) :   0.9324 B(  1-C , 11-H ) :   0.9325 B(  2-C ,  3-C ) :   0.9123
B(  2-C , 12-H ) :   0.9246 B(  2-C , 13-H ) :   0.9240 B(  3-C ,  4-C ) :   0.9090
B(  3-C , 14-H ) :   0.9206 B(  3-C , 15-H ) :   0.9217 B(  4-C ,  5-C ) :   0.8985
B(  4-C ,  8-N ) :   0.8774 B(  4-C , 16-H ) :   0.9357 B(  5-C ,  6-C ) :   0.8960
B(  5-C , 17-H ) :   0.9086 B(  5-C , 18-H ) :   0.9035 B(  6-C ,  7-O ) :   2.0289
B(  6-C ,  8-N ) :   1.1463 B(  8-N , 19-H ) :   0.8590

MP2 TOTAL ENERGY:     -439.586185213 Eh
FINAL SINGLE POINT ENERGY      -439.586185213422

DIPOLE MOMENT
-------------
                                X             Y             Z
Electronic contribution:     -5.60237      -4.22889       4.48501
Nuclear contribution   :      6.71282       5.09753      -5.56007
                        -----------------------------------------
Total Dipole Moment    :      1.11045       0.86864      -1.07506
                        -----------------------------------------
Magnitude (a.u.)       :      1.77296
Magnitude (Debye)      :      4.50650

                             ****ORCA TERMINATED NORMALLY****
TOTAL RUN TIME: 0 days 0 hours 15 minutes 17 seconds 49 msec
