                         Program Version 3.0.3 - RELEASE   -
|  1> ! RI-MP2 RIJK def2-TZVP def2-TZVP/C def2-TZVP/JK TIGHTSCF
|  2> % maxcore 2000
|  3> % mp2 density relaxed end
|  4> *xyz 0 1
|  5>  O       -0.7812502068     1.0097309739     0.8703076419
|  6>  C        0.1018588258     0.8391672410     0.0790780660
|  7>  C        1.3381844369     1.7346005924    -0.0518738059
|  8>  N        2.4224991139     1.0976382778    -0.8527559950
|  9>  C        2.4972494449     2.1990516395    -1.8462648716
| 10>  C        1.2198851288     2.7858981186    -1.2463681399
| 11>  O        0.4454007582     3.6380780859    -1.5235019234
| 12>  C        1.7343483760     2.3734524479     1.1846535787
| 13>  C        2.1095791775     2.9022130408     2.1970343464
| 14>  H        0.1033626209     0.0219492999    -0.6732461915
| 15>  H        3.2734305927     0.9501698200    -0.3231782893
| 16>  H        3.3475784183     2.8860856500    -1.7395573698
| 17>  H        2.4297394494     1.8790450713    -2.8914947040
| 18>  H        2.4192130936     3.3666302209     3.1009688974
| 19> *
| 20>
| 21>                          ****END OF INPUT****

CARTESIAN COORDINATES (ANGSTROEM)
---------------------------------
  O     -0.781250    1.009731    0.870308
  C      0.101859    0.839167    0.079078
  C      1.338184    1.734601   -0.051874
  N      2.422499    1.097638   -0.852756
  C      2.497249    2.199052   -1.846265
  C      1.219885    2.785898   -1.246368
  O      0.445401    3.638078   -1.523502
  C      1.734348    2.373452    1.184654
  C      2.109579    2.902213    2.197034
  H      0.103363    0.021949   -0.673246
  H      3.273431    0.950170   -0.323178
  H      3.347578    2.886086   -1.739557
  H      2.429739    1.879045   -2.891495
  H      2.419213    3.366630    3.100969

 Total Charge           Charge          ....    0
 Multiplicity           Mult            ....    1
 Number of Electrons    NEL             ....   64
 Basis Dimension        Dim             ....  309

ORBITAL ENERGIES
----------------

  NO   OCC          E(Eh)            E(eV)
   0   2.0000     -20.592421      -560.3483
   1   2.0000     -20.576060      -559.9031
   2   2.0000     -15.592911      -424.3047
   3   2.0000     -11.372395      -309.4586
   4   2.0000     -11.350047      -308.8505
   5   2.0000     -11.327498      -308.2369
   6   2.0000     -11.298398      -307.4450
   7   2.0000     -11.258415      -306.3570
   8   2.0000     -11.252288      -306.1903
   9   2.0000      -1.439477       -39.1702
  10   2.0000      -1.416014       -38.5317
  11   2.0000      -1.283391       -34.9228
  12   2.0000      -1.074754       -29.2455
  13   2.0000      -0.997124       -27.1331
  14   2.0000      -0.976294       -26.5663
  15   2.0000      -0.852312       -23.1926
  16   2.0000      -0.804913       -21.9028
  17   2.0000      -0.730438       -19.8762
  18   2.0000      -0.721747       -19.6397
  19   2.0000      -0.696824       -18.9616
  20   2.0000      -0.677418       -18.4335
  21   2.0000      -0.664692       -18.0872
  22   2.0000      -0.640686       -17.4340
  23   2.0000      -0.593318       -16.1450
  24   2.0000      -0.585256       -15.9256
  25   2.0000      -0.552422       -15.0322
  26   2.0000      -0.541216       -14.7272
  27   2.0000      -0.470078       -12.7915
  28   2.0000      -0.454958       -12.3800
  29   2.0000      -0.438325       -11.9274
  30   2.0000      -0.410556       -11.1718
  31   2.0000      -0.386854       -10.5268
  32   0.0000       0.088135         2.3983
  33   0.0000       0.107472         2.9245
  34   0.0000       0.131359         3.5744
  35   0.0000       0.150018         4.0822
  36   0.0000       0.155183         4.2227

MULLIKEN ATOMIC CHARGES
-----------------------
   0 O :   -0.229331
   1 C :    0.074308
   2 C :    0.116236
   3 N :   -0.341217
   4 C :   -0.152262
   5 C :    0.146552
   6 O :   -0.198563
   7 C :   -0.113799
   8 C :   -0.126044
   9 H :    0.105224
  10 H :    0.229696
  11 H :    0.145663
  12 H :    0.142084
  13 H :    0.201453
Sum of atomic charges:   -0.0000000

LOEWDIN ATOMIC CHARGES
----------------------
   0 O :    0.172315
   1 C :   -0.244316
   2 C :   -0.269053
   3 N :    0.040283
   4 C :   -0.233310
   5 C :   -0.251924
   6 O :    0.216966
   7 C :   -0.071589
   8 C :   -0.058947
   9 H :    0.121726
  10 H :    0.168726
  11 H :    0.140474
  12 H :    0.137016
  13 H :    0.131633

  Mayer bond orders larger than 0.1
B(  0-O ,  1-C ) :   2.0361 B(  1-C ,  2-C ) :   0.7863 B(  1-C ,  9-H ) :   0.9327
B(  2-C ,  3-N ) :   0.9844 B(  2-C ,  5-C ) :   0.7229 B(  2-C ,  7-C ) :   1.2631
B(  3-N ,  4-C ) :   0.9662 B(  3-N , 10-H ) :   0.8785 B(  4-C ,  5-C ) :   0.9125
B(  4-C , 11-H ) :   0.8991 B(  4-C , 12-H ) :   0.9007 B(  5-C ,  6-O ) :   2.0909
B(  7-C ,  8-C ) :   2.5486 B(  8-C , 13-H ) :   0.8839

MP2 TOTAL ENERGY:     -435.901943817 Eh
FINAL SINGLE POINT ENERGY      -435.901943817096

DIPOLE MOMENT
-------------
                                X             Y             Z
Electronic contribution:     -3.59028       0.94679       1.27525
Nuclear contribution   :      5.17186      -1.09881      -1.57303
                        -----------------------------------------
Total Dipole Moment    :      1.58158      -0.15202      -0.29777
                        -----------------------------------------
Magnitude (a.u.)       :      1.61653
Magnitude (Debye)      :      4.10889

                             ****ORCA TERMINATED NORMALLY****
TOTAL RUN TIME: 0 days 0 hours 14 minutes 2 seconds 597 msec
