                         Program Version 3.0.3 - RELEASE   -
|  1> ! RI-MP2 RIJK def2-TZVP def2-TZVP/C def2-TZVP/JK TIGHTSCF
|  2> % maxcore 2000
|  3> % mp2 density relaxed end
|  4> *xyz 0 1
|  5>  C        0.1038420932     1.5454524610     0.0681063432
|  6>  C       -0.0346791627     0.0689901345     0.0714580867
|  7>  C       -1.0746990375    -0.7815227312    -0.1558811105
|  8>  O       -2.3501664639    -0.4862647775    -0.4676116991
|  9>  N       -0.6154292153    -2.0595448603    -0.0146874725
| 10>  N        0.6191900848    -2.0458127197     0.2795918784
| 11>  O        1.0318020849    -0.7048699782     0.3451994266
| 12>  H        0.8402860866     1.8730858917    -0.6729908600
| 13>  H       -0.8590710731     1.9996587625    -0.1738647042
| 14>  H        0.4281551152     1.9158365690     1.0461800105
| 15>  H       -2.8279063422    -1.3192013319    -0.5613832493
| 16> *
| 17>
| 18>                          ****END OF INPUT****

CARTESIAN COORDINATES (ANGSTROEM)
---------------------------------
  C      0.103842    1.545452    0.068106
  C     -0.034679    0.068990    0.071458
  C     -1.074699   -0.781523   -0.155881
  O     -2.350166   -0.486265   -0.467612
  N     -0.615429   -2.059545   -0.014687
  N      0.619190   -2.045813    0.279592
  O      1.031802   -0.704870    0.345199
  H      0.840286    1.873086   -0.672991
  H     -0.859071    1.999659   -0.173865
  H      0.428155    1.915837    1.046180
  H     -2.827906   -1.319201   -0.561383

 Total Charge           Charge          ....    0
 Multiplicity           Mult            ....    1
 Number of Electrons    NEL             ....   52
 Basis Dimension        Dim             ....  241

ORBITAL ENERGIES
----------------

  NO   OCC          E(Eh)            E(eV)
   0   2.0000     -20.663698      -562.2878
   1   2.0000     -20.612548      -560.8960
   2   2.0000     -15.693196      -427.0336
   3   2.0000     -15.638768      -425.5525
   4   2.0000     -11.331847      -308.3552
   5   2.0000     -11.321717      -308.0796
   6   2.0000     -11.256583      -306.3072
   7   2.0000      -1.536561       -41.8119
   8   2.0000      -1.435004       -39.0485
   9   2.0000      -1.308699       -35.6115
  10   2.0000      -1.108293       -30.1582
  11   2.0000      -1.000591       -27.2275
  12   2.0000      -0.888551       -24.1787
  13   2.0000      -0.838543       -22.8179
  14   2.0000      -0.769430       -20.9373
  15   2.0000      -0.700858       -19.0713
  16   2.0000      -0.672518       -18.3001
  17   2.0000      -0.637936       -17.3591
  18   2.0000      -0.602567       -16.3967
  19   2.0000      -0.591347       -16.0914
  20   2.0000      -0.587067       -15.9749
  21   2.0000      -0.573093       -15.5946
  22   2.0000      -0.545661       -14.8482
  23   2.0000      -0.483753       -13.1636
  24   2.0000      -0.476643       -12.9701
  25   2.0000      -0.346943        -9.4408
  26   0.0000       0.097137         2.6432
  27   0.0000       0.130236         3.5439
  28   0.0000       0.146793         3.9945
  29   0.0000       0.208523         5.6742
  30   0.0000       0.211291         5.7495

MULLIKEN ATOMIC CHARGES
-----------------------
   0 C :   -0.399659
   1 C :    0.109091
   2 C :    0.162459
   3 O :   -0.436321
   4 N :   -0.136759
   5 N :   -0.042016
   6 O :   -0.095802
   7 H :    0.159417
   8 H :    0.166860
   9 H :    0.159413
  10 H :    0.353317
Sum of atomic charges:   -0.0000000

LOEWDIN ATOMIC CHARGES
----------------------
   0 C :   -0.265897
   1 C :   -0.301188
   2 C :   -0.405337
   3 O :    0.079061
   4 N :    0.015706
   5 N :   -0.036637
   6 O :    0.280159
   7 H :    0.140831
   8 H :    0.145862
   9 H :    0.140831
  10 H :    0.206610

  Mayer bond orders larger than 0.1
B(  0-C ,  1-C ) :   0.8798 B(  0-C ,  7-H ) :   0.9259 B(  0-C ,  8-H ) :   0.9392
B(  0-C ,  9-H ) :   0.9259 B(  1-C ,  2-C ) :   1.4771 B(  1-C ,  5-N ) :   0.1151
B(  1-C ,  6-O ) :   1.1055 B(  2-C ,  3-O ) :   1.1220 B(  2-C ,  4-N ) :   1.2850
B(  3-O , 10-H ) :   0.8133 B(  4-N ,  5-N ) :   1.3708 B(  5-N ,  6-O ) :   0.8986

MP2 TOTAL ENERGY:     -375.959645261 Eh
FINAL SINGLE POINT ENERGY      -375.959645261043

DIPOLE MOMENT
-------------
                                X             Y             Z
Electronic contribution:      0.34714      -5.51955       0.21901
Nuclear contribution   :     -0.94081       6.50483      -0.38517
                        -----------------------------------------
Total Dipole Moment    :     -0.59367       0.98528      -0.16617
                        -----------------------------------------
Magnitude (a.u.)       :      1.16225
Magnitude (Debye)      :      2.95421

                             ****ORCA TERMINATED NORMALLY****
TOTAL RUN TIME: 0 days 0 hours 6 minutes 45 seconds 820 msec
