                         Program Version 3.0.3 - RELEASE   -
|  1> ! RI-MP2 RIJK def2-TZVP def2-TZVP/C def2-TZVP/JK TIGHTSCF
|  2> % maxcore 2000
|  3> % mp2 density relaxed end
|  4> *xyz 0 1
|  5>  C       -2.0900547217     0.1341805751    -2.4932134636
|  6>  C       -2.6220317480    -0.8475342620    -1.4790849782
|  7>  O       -3.5188298438    -1.6236013485    -1.7447709628
|  8>  C       -1.9595872549    -0.8684935174    -0.1006102202
|  9>  C       -1.2116275325    -2.1795973279     0.0899257206
| 10>  O       -0.1314721954    -2.3528985792    -0.7929628424
| 11>  C       -1.1310917011    -2.8271782239     1.4563948141
| 12>  C       -2.0091512634    -3.4201941139     0.3765106293
| 13>  O       -3.3848609277    -3.3241991742     0.5464309261
| 14>  H       -2.6447576576     0.0614884726    -3.4290211835
| 15>  H       -2.1384972663     1.1565898354    -2.1019285360
| 16>  H       -1.0308326931    -0.0925485816    -2.6650681118
| 17>  H       -1.2782808371    -0.0200916389     0.0270279649
| 18>  H       -2.7518664479    -0.7929783663     0.6489973113
| 19>  H        0.6317328444    -1.8941991906    -0.4236846556
| 20>  H       -0.2146656519    -3.3520397276     1.7040960435
| 21>  H       -1.6324492893    -2.3408712498     2.2857709545
| 22>  H       -1.6428367599    -4.3283098654    -0.1022228819
| 23>  H       -3.7370233429    -2.9410712761    -0.2749505184
| 24> *
| 25>
| 26>                          ****END OF INPUT****

CARTESIAN COORDINATES (ANGSTROEM)
---------------------------------
  C     -2.090055    0.134181   -2.493213
  C     -2.622032   -0.847534   -1.479085
  O     -3.518830   -1.623601   -1.744771
  C     -1.959587   -0.868494   -0.100610
  C     -1.211628   -2.179597    0.089926
  O     -0.131472   -2.352899   -0.792963
  C     -1.131092   -2.827178    1.456395
  C     -2.009151   -3.420194    0.376511
  O     -3.384861   -3.324199    0.546431
  H     -2.644758    0.061488   -3.429021
  H     -2.138497    1.156590   -2.101929
  H     -1.030833   -0.092549   -2.665068
  H     -1.278281   -0.020092    0.027028
  H     -2.751866   -0.792978    0.648997
  H      0.631733   -1.894199   -0.423685
  H     -0.214666   -3.352040    1.704096
  H     -1.632449   -2.340871    2.285771
  H     -1.642837   -4.328310   -0.102223
  H     -3.737023   -2.941071   -0.274951

 Total Charge           Charge          ....    0
 Multiplicity           Mult            ....    1
 Number of Electrons    NEL             ....   70
 Basis Dimension        Dim             ....  339

ORBITAL ENERGIES
----------------

  NO   OCC          E(Eh)            E(eV)
   0   2.0000     -20.576683      -559.9200
   1   2.0000     -20.556677      -559.3756
   2   2.0000     -20.545054      -559.0593
   3   2.0000     -11.344899      -308.7104
   4   2.0000     -11.299518      -307.4755
   5   2.0000     -11.279229      -306.9234
   6   2.0000     -11.249243      -306.1075
   7   2.0000     -11.241429      -305.8948
   8   2.0000     -11.230518      -305.5979
   9   2.0000      -1.402924       -38.1755
  10   2.0000      -1.387308       -37.7506
  11   2.0000      -1.357191       -36.9310
  12   2.0000      -1.127846       -30.6903
  13   2.0000      -1.048332       -28.5266
  14   2.0000      -0.984090       -26.7785
  15   2.0000      -0.832154       -22.6441
  16   2.0000      -0.805094       -21.9077
  17   2.0000      -0.751473       -20.4486
  18   2.0000      -0.706534       -19.2258
  19   2.0000      -0.699815       -19.0429
  20   2.0000      -0.665741       -18.1157
  21   2.0000      -0.646733       -17.5985
  22   2.0000      -0.639130       -17.3916
  23   2.0000      -0.624539       -16.9946
  24   2.0000      -0.596624       -16.2350
  25   2.0000      -0.572621       -15.5818
  26   2.0000      -0.563073       -15.3220
  27   2.0000      -0.549937       -14.9645
  28   2.0000      -0.541327       -14.7302
  29   2.0000      -0.524742       -14.2790
  30   2.0000      -0.503267       -13.6946
  31   2.0000      -0.476684       -12.9712
  32   2.0000      -0.437793       -11.9130
  33   2.0000      -0.405700       -11.0396
  34   2.0000      -0.387937       -10.5563
  35   0.0000       0.117855         3.2070
  36   0.0000       0.131634         3.5820
  37   0.0000       0.151720         4.1285
  38   0.0000       0.174026         4.7355
  39   0.0000       0.181400         4.9361

MULLIKEN ATOMIC CHARGES
-----------------------
   0 C :   -0.428573
   1 C :    0.298911
   2 O :   -0.344455
   3 C :   -0.282355
   4 C :    0.162951
   5 O :   -0.474226
   6 C :   -0.317998
   7 C :    0.064858
   8 O :   -0.475573
   9 H :    0.152559
  10 H :    0.148168
  11 H :    0.156661
  12 H :    0.120792
  13 H :    0.163250
  14 H :    0.324410
  15 H :    0.143438
  16 H :    0.132709
  17 H :    0.112221
  18 H :    0.342252
Sum of atomic charges:    0.0000000

LOEWDIN ATOMIC CHARGES
----------------------
   0 C :   -0.275952
   1 C :   -0.324539
   2 O :    0.138252
   3 C :   -0.201839
   4 C :   -0.360234
   5 O :    0.023699
   6 C :   -0.194953
   7 C :   -0.305321
   8 O :   -0.000396
   9 H :    0.133533
  10 H :    0.137414
  11 H :    0.143819
  12 H :    0.145090
  13 H :    0.165510
  14 H :    0.181201
  15 H :    0.137008
  16 H :    0.140511
  17 H :    0.138335
  18 H :    0.178861

  Mayer bond orders larger than 0.1
B(  0-C ,  1-C ) :   0.9290 B(  0-C ,  9-H ) :   0.9362 B(  0-C , 10-H ) :   0.9150
B(  0-C , 11-H ) :   0.9129 B(  1-C ,  2-O ) :   1.8655 B(  1-C ,  3-C ) :   0.8780
B(  3-C ,  4-C ) :   0.9083 B(  3-C , 12-H ) :   0.9092 B(  3-C , 13-H ) :   0.9052
B(  4-C ,  5-O ) :   0.9497 B(  4-C ,  6-C ) :   0.9041 B(  4-C ,  7-C ) :   0.8620
B(  5-O , 14-H ) :   0.8380 B(  6-C ,  7-C ) :   0.8727 B(  6-C , 15-H ) :   0.9179
B(  6-C , 16-H ) :   0.9039 B(  7-C ,  8-O ) :   1.0324 B(  7-C , 17-H ) :   0.9577
B(  8-O , 18-H ) :   0.7990

MP2 TOTAL ENERGY:     -459.430441796 Eh
FINAL SINGLE POINT ENERGY      -459.430441795552

DIPOLE MOMENT
-------------
                                X             Y             Z
Electronic contribution:     -2.28255      -3.21193      -0.28317
Nuclear contribution   :      3.41522       4.47611       0.40148
                        -----------------------------------------
Total Dipole Moment    :      1.13266       1.26419       0.11831
                        -----------------------------------------
Magnitude (a.u.)       :      1.70150
Magnitude (Debye)      :      4.32486

                             ****ORCA TERMINATED NORMALLY****
TOTAL RUN TIME: 0 days 0 hours 19 minutes 59 seconds 367 msec
