                         Program Version 3.0.3 - RELEASE   -
|  1> ! RI-MP2 RIJK def2-TZVP def2-TZVP/C def2-TZVP/JK TIGHTSCF
|  2> % maxcore 2000
|  3> % mp2 density relaxed end
|  4> *xyz 0 1
|  5>  C       -0.0904891866     1.4897331226     0.0040649612
|  6>  C       -0.0061639897     0.0376006691    -0.0076928129
|  7>  C        0.0821528615    -1.1667272400    -0.0180025954
|  8>  C        0.1135654004    -2.5882248713    -0.0211792485
|  9>  C        1.2518802287    -3.2872967728    -0.1492644706
| 10>  C        1.2896374224    -4.7878206625    -0.1113202846
| 11>  O        0.0746852207    -5.3789783108     0.3013850314
| 12>  C       -1.0517901688    -4.7790342265    -0.3154770531
| 13>  C       -1.2084362519    -3.3228370212     0.1227918221
| 14>  H        0.5191046128     1.9182935590     0.8078190532
| 15>  H        0.2635507201     1.9171163750    -0.9411727907
| 16>  H       -1.1218048550     1.8276194158     0.1541172347
| 17>  H        2.1998413578    -2.7761601352    -0.2876711190
| 18>  H        1.5925901841    -5.1752120632    -1.1034115742
| 19>  H        2.0518970117    -5.1288680078     0.6004565264
| 20>  H       -0.9596298535    -4.8309352895    -1.4131644420
| 21>  H       -1.9179912819    -5.3780328774    -0.0210746714
| 22>  H       -1.5502261951    -3.2727499545     1.1641738866
| 23>  H       -1.9757527179    -2.8283852586    -0.4836555331
| 24> *
| 25>
| 26>                          ****END OF INPUT****

CARTESIAN COORDINATES (ANGSTROEM)
---------------------------------
  C     -0.090489    1.489733    0.004065
  C     -0.006164    0.037601   -0.007693
  C      0.082153   -1.166727   -0.018003
  C      0.113565   -2.588225   -0.021179
  C      1.251880   -3.287297   -0.149264
  C      1.289637   -4.787821   -0.111320
  O      0.074685   -5.378978    0.301385
  C     -1.051790   -4.779034   -0.315477
  C     -1.208436   -3.322837    0.122792
  H      0.519105    1.918294    0.807819
  H      0.263551    1.917116   -0.941173
  H     -1.121805    1.827619    0.154117
  H      2.199841   -2.776160   -0.287671
  H      1.592590   -5.175212   -1.103412
  H      2.051897   -5.128868    0.600457
  H     -0.959630   -4.830935   -1.413164
  H     -1.917991   -5.378033   -0.021075
  H     -1.550226   -3.272750    1.164174
  H     -1.975753   -2.828385   -0.483656

 Total Charge           Charge          ....    0
 Multiplicity           Mult            ....    1
 Number of Electrons    NEL             ....   66
 Basis Dimension        Dim             ....  339

ORBITAL ENERGIES
----------------

  NO   OCC          E(Eh)            E(eV)
   0   2.0000     -20.554976      -559.3293
   1   2.0000     -11.281774      -306.9927
   2   2.0000     -11.275537      -306.8230
   3   2.0000     -11.253550      -306.2247
   4   2.0000     -11.247874      -306.0702
   5   2.0000     -11.236446      -305.7592
   6   2.0000     -11.230692      -305.6027
   7   2.0000     -11.227693      -305.5210
   8   2.0000     -11.219147      -305.2885
   9   2.0000      -1.378552       -37.5123
  10   2.0000      -1.113280       -30.2939
  11   2.0000      -1.047956       -28.5163
  12   2.0000      -1.030470       -28.0405
  13   2.0000      -0.961772       -26.1712
  14   2.0000      -0.891031       -24.2462
  15   2.0000      -0.867781       -23.6135
  16   2.0000      -0.753903       -20.5148
  17   2.0000      -0.702802       -19.1242
  18   2.0000      -0.649338       -17.6694
  19   2.0000      -0.645518       -17.5654
  20   2.0000      -0.633208       -17.2305
  21   2.0000      -0.602182       -16.3862
  22   2.0000      -0.589324       -16.0363
  23   2.0000      -0.587540       -15.9878
  24   2.0000      -0.580547       -15.7975
  25   2.0000      -0.551363       -15.0033
  26   2.0000      -0.546890       -14.8816
  27   2.0000      -0.507031       -13.7970
  28   2.0000      -0.464214       -12.6319
  29   2.0000      -0.429044       -11.6749
  30   2.0000      -0.420375       -11.4390
  31   2.0000      -0.372316       -10.1312
  32   2.0000      -0.317694        -8.6449
  33   0.0000       0.121835         3.3153
  34   0.0000       0.136176         3.7055
  35   0.0000       0.149529         4.0689
  36   0.0000       0.167026         4.5450
  37   0.0000       0.183725         4.9994

MULLIKEN ATOMIC CHARGES
-----------------------
   0 C :   -0.472693
   1 C :    0.065975
   2 C :    0.068164
   3 C :   -0.173123
   4 C :   -0.203109
   5 C :   -0.021496
   6 O :   -0.316355
   7 C :   -0.061686
   8 C :   -0.211539
   9 H :    0.163188
  10 H :    0.162736
  11 H :    0.161914
  12 H :    0.129748
  13 H :    0.106010
  14 H :    0.131144
  15 H :    0.095423
  16 H :    0.128602
  17 H :    0.120322
  18 H :    0.126772
Sum of atomic charges:    0.0000000

LOEWDIN ATOMIC CHARGES
----------------------
   0 C :   -0.295160
   1 C :   -0.084660
   2 C :   -0.048430
   3 C :   -0.168910
   4 C :   -0.122343
   5 C :   -0.310999
   6 O :    0.157271
   7 C :   -0.306321
   8 C :   -0.213900
   9 H :    0.141709
  10 H :    0.141634
  11 H :    0.141132
  12 H :    0.150124
  13 H :    0.128149
  14 H :    0.138587
  15 H :    0.123951
  16 H :    0.129759
  17 H :    0.148523
  18 H :    0.149886

  Mayer bond orders larger than 0.1
B(  0-C ,  1-C ) :   0.8506 B(  0-C ,  9-H ) :   0.9451 B(  0-C , 10-H ) :   0.9453
B(  0-C , 11-H ) :   0.9451 B(  1-C ,  2-C ) :   2.6067 B(  1-C ,  3-C ) :  -0.1518
B(  2-C ,  3-C ) :   1.0572 B(  3-C ,  4-C ) :   1.7107 B(  3-C ,  8-C ) :   0.9718
B(  4-C ,  5-C ) :   0.9465 B(  4-C , 12-H ) :   0.9173 B(  5-C ,  6-O ) :   0.9540
B(  5-C , 13-H ) :   0.9343 B(  5-C , 14-H ) :   0.9178 B(  6-O ,  7-C ) :   0.9136
B(  7-C ,  8-C ) :   0.9521 B(  7-C , 15-H ) :   0.9326 B(  7-C , 16-H ) :   0.9305
B(  8-C , 17-H ) :   0.8997 B(  8-C , 18-H ) :   0.9206

MP2 TOTAL ENERGY:     -385.182989406 Eh
FINAL SINGLE POINT ENERGY      -385.182989406138

DIPOLE MOMENT
-------------
                                X             Y             Z
Electronic contribution:      1.16457      -2.55452       0.92430
Nuclear contribution   :     -1.21541       3.12167      -1.21939
                        -----------------------------------------
Total Dipole Moment    :     -0.05084       0.56715      -0.29509
                        -----------------------------------------
Magnitude (a.u.)       :      0.64135
Magnitude (Debye)      :      1.63017

                             ****ORCA TERMINATED NORMALLY****
TOTAL RUN TIME: 0 days 0 hours 18 minutes 27 seconds 857 msec
