                         Program Version 3.0.3 - RELEASE   -
|  1> ! RI-MP2 RIJK def2-TZVP def2-TZVP/C def2-TZVP/JK TIGHTSCF
|  2> % maxcore 2000
|  3> % mp2 density relaxed end
|  4> *xyz 0 1
|  5>  C       -0.0699764756     1.5134757036     0.0448810101
|  6>  C        0.0241028841     0.0075824340     0.0150915902
|  7>  N        0.1463769172    -0.6857230010     1.0829689343
|  8>  O        0.1719816339     0.1246047240     2.2312813130
|  9>  C       -0.0141580023    -0.7536665988    -1.3058808015
| 10>  C        0.0278270325    -2.2746441113    -1.0810596192
| 11>  C       -1.2957247194    -0.3948897095    -2.0894221160
| 12>  C        1.2346360896    -0.3282648177    -2.1309264968
| 13>  O        1.2909515329    -0.9158662071    -3.4199397214
| 14>  H        0.7798518363     1.9306877364     0.5936175014
| 15>  H       -0.0997728502     1.9519504042    -0.9521817362
| 16>  H       -0.9681130531     1.8230413464     0.5896699775
| 17>  H        0.2658334973    -0.5273504130     2.9335995003
| 18>  H       -0.8122378473    -2.6036957388    -0.4658229899
| 19>  H       -0.0378759502    -2.7953570201    -2.0422352269
| 20>  H        0.9440574470    -2.5823584961    -0.5699718513
| 21>  H       -1.4049773811     0.6837282084    -2.2340983887
| 22>  H       -1.2563324618    -0.8564737914    -3.0791311537
| 23>  H       -2.1853070108    -0.7586852425    -1.5663388366
| 24>  H        1.2205755638     0.7514740591    -2.3071078363
| 25>  H        2.1404185382    -0.5563353401    -1.5489348656
| 26>  H        1.5035855488    -1.8476961991    -3.3129735670
| 27> *
| 28>
| 29>                          ****END OF INPUT****

CARTESIAN COORDINATES (ANGSTROEM)
---------------------------------
  C     -0.069976    1.513476    0.044881
  C      0.024103    0.007582    0.015092
  N      0.146377   -0.685723    1.082969
  O      0.171982    0.124605    2.231281
  C     -0.014158   -0.753667   -1.305881
  C      0.027827   -2.274644   -1.081060
  C     -1.295725   -0.394890   -2.089422
  C      1.234636   -0.328265   -2.130926
  O      1.290952   -0.915866   -3.419940
  H      0.779852    1.930688    0.593618
  H     -0.099773    1.951950   -0.952182
  H     -0.968113    1.823041    0.589670
  H      0.265833   -0.527350    2.933600
  H     -0.812238   -2.603696   -0.465823
  H     -0.037876   -2.795357   -2.042235
  H      0.944057   -2.582358   -0.569972
  H     -1.404977    0.683728   -2.234098
  H     -1.256332   -0.856474   -3.079131
  H     -2.185307   -0.758685   -1.566339
  H      1.220576    0.751474   -2.307108
  H      2.140419   -0.556335   -1.548935
  H      1.503586   -1.847696   -3.312974

 Total Charge           Charge          ....    0
 Multiplicity           Mult            ....    1
 Number of Electrons    NEL             ....   72
 Basis Dimension        Dim             ....  357

ORBITAL ENERGIES
----------------

  NO   OCC          E(Eh)            E(eV)
   0   2.0000     -20.588652      -560.2457
   1   2.0000     -20.560090      -559.4685
   2   2.0000     -15.609194      -424.7478
   3   2.0000     -11.280030      -306.9452
   4   2.0000     -11.277539      -306.8774
   5   2.0000     -11.249553      -306.1159
   6   2.0000     -11.229185      -305.5617
   7   2.0000     -11.216665      -305.2210
   8   2.0000     -11.214653      -305.1662
   9   2.0000      -1.415869       -38.5278
  10   2.0000      -1.365471       -37.1564
  11   2.0000      -1.175564       -31.9887
  12   2.0000      -1.071281       -29.1511
  13   2.0000      -0.984643       -26.7935
  14   2.0000      -0.931277       -25.3413
  15   2.0000      -0.925612       -25.1872
  16   2.0000      -0.821176       -22.3453
  17   2.0000      -0.717930       -19.5359
  18   2.0000      -0.696474       -18.9520
  19   2.0000      -0.691158       -18.8074
  20   2.0000      -0.654856       -17.8195
  21   2.0000      -0.631590       -17.1864
  22   2.0000      -0.612746       -16.6737
  23   2.0000      -0.599666       -16.3177
  24   2.0000      -0.591013       -16.0823
  25   2.0000      -0.564013       -15.3476
  26   2.0000      -0.549605       -14.9555
  27   2.0000      -0.544896       -14.8274
  28   2.0000      -0.532784       -14.4978
  29   2.0000      -0.529316       -14.4034
  30   2.0000      -0.502077       -13.6622
  31   2.0000      -0.488940       -13.3047
  32   2.0000      -0.466229       -12.6867
  33   2.0000      -0.441896       -12.0246
  34   2.0000      -0.427351       -11.6288
  35   2.0000      -0.378022       -10.2865
  36   0.0000       0.127332         3.4649
  37   0.0000       0.142708         3.8833
  38   0.0000       0.160267         4.3611
  39   0.0000       0.162772         4.4292
  40   0.0000       0.183142         4.9836

MULLIKEN ATOMIC CHARGES
-----------------------
   0 C :   -0.434336
   1 C :    0.014674
   2 N :   -0.100859
   3 O :   -0.373547
   4 C :    0.128694
   5 C :   -0.463916
   6 C :   -0.402062
   7 C :   -0.059046
   8 O :   -0.469118
   9 H :    0.159243
  10 H :    0.133748
  11 H :    0.157336
  12 H :    0.333904
  13 H :    0.141889
  14 H :    0.125246
  15 H :    0.141796
  16 H :    0.123679
  17 H :    0.149140
  18 H :    0.137401
  19 H :    0.112609
  20 H :    0.123270
  21 H :    0.320257
Sum of atomic charges:    0.0000000

LOEWDIN ATOMIC CHARGES
----------------------
   0 C :   -0.283981
   1 C :   -0.261912
   2 N :    0.029900
   3 O :   -0.070990
   4 C :   -0.306041
   5 C :   -0.277897
   6 C :   -0.260535
   7 C :   -0.299805
   8 O :   -0.036474
   9 H :    0.139645
  10 H :    0.126279
  11 H :    0.140769
  12 H :    0.168762
  13 H :    0.131213
  14 H :    0.120538
  15 H :    0.127723
  16 H :    0.124147
  17 H :    0.131476
  18 H :    0.127967
  19 H :    0.131582
  20 H :    0.124841
  21 H :    0.172794

  Mayer bond orders larger than 0.1
B(  0-C ,  1-C ) :   0.9356 B(  0-C ,  9-H ) :   0.9197 B(  0-C , 10-H ) :   0.9361
B(  0-C , 11-H ) :   0.9198 B(  1-C ,  2-N ) :   1.8446 B(  1-C ,  4-C ) :   0.9072
B(  2-N ,  3-O ) :   0.8054 B(  3-O , 12-H ) :   0.8466 B(  4-C ,  5-C ) :   0.8886
B(  4-C ,  6-C ) :   0.9093 B(  4-C ,  7-C ) :   0.8771 B(  5-C , 13-H ) :   0.9312
B(  5-C , 14-H ) :   0.9375 B(  5-C , 15-H ) :   0.9314 B(  6-C , 16-H ) :   0.9268
B(  6-C , 17-H ) :   0.9258 B(  6-C , 18-H ) :   0.9375 B(  7-C ,  8-O ) :   0.9401
B(  7-C , 19-H ) :   0.9242 B(  7-C , 20-H ) :   0.9358 B(  8-O , 21-H ) :   0.8455

MP2 TOTAL ENERGY:     -440.733060348 Eh
FINAL SINGLE POINT ENERGY      -440.733060348400

DIPOLE MOMENT
-------------
                                X             Y             Z
Electronic contribution:      2.20420      -0.22047       4.47317
Nuclear contribution   :     -2.17096       0.01084      -4.10649
                        -----------------------------------------
Total Dipole Moment    :      0.03323      -0.20963       0.36668
                        -----------------------------------------
Magnitude (a.u.)       :      0.42368
Magnitude (Debye)      :      1.07690

                             ****ORCA TERMINATED NORMALLY****
TOTAL RUN TIME: 0 days 0 hours 19 minutes 50 seconds 614 msec
