                         Program Version 3.0.3 - RELEASE   -
|  1> ! RI-MP2 RIJK def2-TZVP def2-TZVP/C def2-TZVP/JK TIGHTSCF
|  2> % maxcore 2000
|  3> % mp2 density relaxed end
|  4> *xyz 0 1
|  5>  C       -0.0176515659     1.4457476919     0.0002937505
|  6>  N       -0.0051862898    -0.0126825711     0.0055189088
|  7>  N       -0.0346971954    -0.6253655165    -1.1914675661
|  8>  C       -0.0228965339    -1.9258405691    -1.1689099909
|  9>  N        0.0158560135    -2.7262023974    -0.0609926008
| 10>  C        0.0445842637    -2.1359703989     1.0977025330
| 11>  C        0.0881783899    -2.9277397753     2.3634062059
| 12>  C        0.0362976065    -0.6672568043     1.2311126340
| 13>  O        0.0622743872    -0.0544701013     2.2874989262
| 14>  H        0.8797113129     1.8270460062     0.4940769079
| 15>  H       -0.0548715879     1.7680564589    -1.0382739816
| 16>  H       -0.8864937784     1.8117293852     0.5530223386
| 17>  H       -0.0470843967    -2.4186041528    -2.1335173973
| 18>  H        0.0870778811    -3.9946393904     2.1404147881
| 19>  H        0.9792508178    -2.6631832317     2.9431755791
| 20>  H       -0.7674954647    -2.6721639134     2.9978248946
| 21> *
| 22>
| 23>                          ****END OF INPUT****

CARTESIAN COORDINATES (ANGSTROEM)
---------------------------------
  C     -0.017652    1.445748    0.000294
  N     -0.005186   -0.012683    0.005519
  N     -0.034697   -0.625366   -1.191468
  C     -0.022897   -1.925841   -1.168910
  N      0.015856   -2.726202   -0.060993
  C      0.044584   -2.135970    1.097703
  C      0.088178   -2.927740    2.363406
  C      0.036298   -0.667257    1.231113
  O      0.062274   -0.054470    2.287499
  H      0.879711    1.827046    0.494077
  H     -0.054872    1.768056   -1.038274
  H     -0.886494    1.811729    0.553022
  H     -0.047084   -2.418604   -2.133517
  H      0.087078   -3.994639    2.140415
  H      0.979251   -2.663183    2.943176
  H     -0.767495   -2.672164    2.997825

 Total Charge           Charge          ....    0
 Multiplicity           Mult            ....    1
 Number of Electrons    NEL             ....   66
 Basis Dimension        Dim             ....  321

ORBITAL ENERGIES
----------------

  NO   OCC          E(Eh)            E(eV)
   0   2.0000     -20.534192      -558.7638
   1   2.0000     -15.658651      -426.0935
   2   2.0000     -15.631531      -425.3556
   3   2.0000     -15.601272      -424.5322
   4   2.0000     -11.368842      -309.3619
   5   2.0000     -11.323926      -308.1397
   6   2.0000     -11.313838      -307.8652
   7   2.0000     -11.271831      -306.7221
   8   2.0000     -11.239492      -305.8421
   9   2.0000      -1.421901       -38.6919
  10   2.0000      -1.363219       -37.0951
  11   2.0000      -1.270891       -34.5827
  12   2.0000      -1.146419       -31.1956
  13   2.0000      -1.036790       -28.2125
  14   2.0000      -0.983248       -26.7555
  15   2.0000      -0.901810       -24.5395
  16   2.0000      -0.867261       -23.5994
  17   2.0000      -0.776805       -21.1379
  18   2.0000      -0.716425       -19.4949
  19   2.0000      -0.677116       -18.4253
  20   2.0000      -0.652335       -17.7509
  21   2.0000      -0.623480       -16.9658
  22   2.0000      -0.601121       -16.3573
  23   2.0000      -0.597130       -16.2487
  24   2.0000      -0.568605       -15.4725
  25   2.0000      -0.559223       -15.2172
  26   2.0000      -0.558050       -15.1853
  27   2.0000      -0.530084       -14.4243
  28   2.0000      -0.520531       -14.1644
  29   2.0000      -0.502202       -13.6656
  30   2.0000      -0.463106       -12.6018
  31   2.0000      -0.412074       -11.2131
  32   2.0000      -0.344980        -9.3874
  33   0.0000       0.059377         1.6157
  34   0.0000       0.132370         3.6020
  35   0.0000       0.139513         3.7963
  36   0.0000       0.160436         4.3657
  37   0.0000       0.179218         4.8768

MULLIKEN ATOMIC CHARGES
-----------------------
   0 C :   -0.312608
   1 N :    0.091216
   2 N :   -0.205341
   3 C :    0.033418
   4 N :   -0.232451
   5 C :    0.089085
   6 C :   -0.372806
   7 C :    0.186512
   8 O :   -0.377678
   9 H :    0.159361
  10 H :    0.170046
  11 H :    0.159570
  12 H :    0.151312
  13 H :    0.154739
  14 H :    0.152722
  15 H :    0.152902
Sum of atomic charges:    0.0000000

LOEWDIN ATOMIC CHARGES
----------------------
   0 C :   -0.264220
   1 N :    0.185431
   2 N :    0.082542
   3 C :   -0.318431
   4 N :    0.155142
   5 C :   -0.205118
   6 C :   -0.256210
   7 C :   -0.416280
   8 O :    0.082839
   9 H :    0.130311
  10 H :    0.129259
  11 H :    0.130380
  12 H :    0.140299
  13 H :    0.134819
  14 H :    0.144636
  15 H :    0.144602

  Mayer bond orders larger than 0.1
B(  0-C ,  1-N ) :   0.8558 B(  0-C ,  9-H ) :   0.9267 B(  0-C , 10-H ) :   0.9227
B(  0-C , 11-H ) :   0.9266 B(  1-N ,  2-N ) :   0.9642 B(  1-N ,  7-C ) :   1.1150
B(  2-N ,  3-C ) :   1.5732 B(  3-C ,  4-N ) :   1.1997 B(  3-C , 12-H ) :   0.9317
B(  4-N ,  5-C ) :   1.5868 B(  5-C ,  6-C ) :   0.9302 B(  5-C ,  7-C ) :   1.0092
B(  6-C , 13-H ) :   0.9447 B(  6-C , 14-H ) :   0.9124 B(  6-C , 15-H ) :   0.9126
B(  7-C ,  8-O ) :   1.8811

MP2 TOTAL ENERGY:     -433.376681995 Eh
FINAL SINGLE POINT ENERGY      -433.376681995115

DIPOLE MOMENT
-------------
                                X             Y             Z
Electronic contribution:     -0.06765      -0.67814      -2.51512
Nuclear contribution   :      0.05284       0.83292       2.05814
                        -----------------------------------------
Total Dipole Moment    :     -0.01481       0.15477      -0.45698
                        -----------------------------------------
Magnitude (a.u.)       :      0.48271
Magnitude (Debye)      :      1.22695

                             ****ORCA TERMINATED NORMALLY****
TOTAL RUN TIME: 0 days 0 hours 18 minutes 58 seconds 774 msec
