                         Program Version 3.0.3 - RELEASE   -
|  1> ! RI-MP2 RIJK def2-TZVP def2-TZVP/C def2-TZVP/JK TIGHTSCF
|  2> % maxcore 2000
|  3> % mp2 density relaxed end
|  4> *xyz 0 1
|  5>  C       -0.2304414568     1.5529634195     0.7725278039
|  6>  C       -0.0941201011     0.0677143203     0.4903289638
|  7>  C        1.0861440192    -0.4485375305    -0.3874761909
|  8>  N        1.9984873069    -0.0702526140     0.7607373676
|  9>  C        0.8332426543    -0.8086899230     1.3858665659
| 10>  C        0.8819787345    -1.8886619208     0.2322091799
| 11>  C       -0.3038787392    -2.7939816528    -0.1207607926
| 12>  C        2.1012636706    -2.7002871652     0.2412757007
| 13>  N        3.0447937877    -3.3699377287     0.2398508316
| 14>  H        0.7351849315     2.0038181929     1.0018159973
| 15>  H       -0.6626237038     2.0658055995    -0.0937149534
| 16>  H       -0.9068103267     1.7180979790     1.6183531807
| 17>  H       -1.0639108156    -0.3729475058     0.2625364109
| 18>  H        1.3291398180    -0.2113119010    -1.4247804146
| 19>  H        2.8346687646    -0.6606782111     0.7600753544
| 20>  H        0.7752831142    -1.0000553397     2.4588733186
| 21>  H       -1.2510367005    -2.2556509155    -0.1468591524
| 22>  H       -0.1469659471    -3.2541589749    -1.1008718618
| 23>  H       -0.3916114609    -3.6015771783     0.6121091404
| 24> *
| 25>
| 26>                          ****END OF INPUT****

CARTESIAN COORDINATES (ANGSTROEM)
---------------------------------
  C     -0.230441    1.552963    0.772528
  C     -0.094120    0.067714    0.490329
  C      1.086144   -0.448538   -0.387476
  N      1.998487   -0.070253    0.760737
  C      0.833243   -0.808690    1.385867
  C      0.881979   -1.888662    0.232209
  C     -0.303879   -2.793982   -0.120761
  C      2.101264   -2.700287    0.241276
  N      3.044794   -3.369938    0.239851
  H      0.735185    2.003818    1.001816
  H     -0.662624    2.065806   -0.093715
  H     -0.906810    1.718098    1.618353
  H     -1.063911   -0.372948    0.262536
  H      1.329140   -0.211312   -1.424780
  H      2.834669   -0.660678    0.760075
  H      0.775283   -1.000055    2.458873
  H     -1.251037   -2.255651   -0.146859
  H     -0.146966   -3.254159   -1.100872
  H     -0.391611   -3.601577    0.612109

 Total Charge           Charge          ....    0
 Multiplicity           Mult            ....    1
 Number of Electrons    NEL             ....   66
 Basis Dimension        Dim             ....  339

ORBITAL ENERGIES
----------------

  NO   OCC          E(Eh)            E(eV)
   0   2.0000     -15.571650      -423.7262
   1   2.0000     -15.566759      -423.5930
   2   2.0000     -11.300251      -307.4955
   3   2.0000     -11.300110      -307.4916
   4   2.0000     -11.298584      -307.4501
   5   2.0000     -11.273259      -306.7610
   6   2.0000     -11.257515      -306.3326
   7   2.0000     -11.246587      -306.0352
   8   2.0000     -11.220095      -305.3143
   9   2.0000      -1.310011       -35.6472
  10   2.0000      -1.218211       -33.1492
  11   2.0000      -1.072463       -29.1832
  12   2.0000      -1.036557       -28.2062
  13   2.0000      -0.944445       -25.6997
  14   2.0000      -0.894598       -24.3432
  15   2.0000      -0.893373       -24.3099
  16   2.0000      -0.753043       -20.4913
  17   2.0000      -0.711777       -19.3684
  18   2.0000      -0.704806       -19.1787
  19   2.0000      -0.622035       -16.9264
  20   2.0000      -0.609425       -16.5833
  21   2.0000      -0.578824       -15.7506
  22   2.0000      -0.578774       -15.7492
  23   2.0000      -0.559064       -15.2129
  24   2.0000      -0.557848       -15.1798
  25   2.0000      -0.515610       -14.0305
  26   2.0000      -0.514991       -14.0136
  27   2.0000      -0.507982       -13.8229
  28   2.0000      -0.483298       -13.1512
  29   2.0000      -0.461142       -12.5483
  30   2.0000      -0.454878       -12.3779
  31   2.0000      -0.429079       -11.6758
  32   2.0000      -0.405849       -11.0437
  33   0.0000       0.127289         3.4637
  34   0.0000       0.143987         3.9181
  35   0.0000       0.155655         4.2356
  36   0.0000       0.157516         4.2862
  37   0.0000       0.181400         4.9361

MULLIKEN ATOMIC CHARGES
-----------------------
   0 C :   -0.455579
   1 C :   -0.047247
   2 C :   -0.049453
   3 N :   -0.360752
   4 C :   -0.049438
   5 C :    0.183753
   6 C :   -0.405496
   7 C :   -0.281846
   8 N :   -0.028726
   9 H :    0.171192
  10 H :    0.131461
  11 H :    0.131462
  12 H :    0.100667
  13 H :    0.149314
  14 H :    0.217895
  15 H :    0.149315
  16 H :    0.141410
  17 H :    0.151039
  18 H :    0.151030
Sum of atomic charges:    0.0000000

LOEWDIN ATOMIC CHARGES
----------------------
   0 C :   -0.294804
   1 C :   -0.206971
   2 C :   -0.149478
   3 N :    0.025254
   4 C :   -0.149479
   5 C :   -0.219206
   6 C :   -0.250209
   7 C :   -0.174611
   8 N :    0.063730
   9 H :    0.134343
  10 H :    0.126491
  11 H :    0.126491
  12 H :    0.143487
  13 H :    0.129839
  14 H :    0.165210
  15 H :    0.129839
  16 H :    0.126270
  17 H :    0.136903
  18 H :    0.136902

  Mayer bond orders larger than 0.1
B(  0-C ,  1-C ) :   0.8945 B(  0-C ,  9-H ) :   0.9368 B(  0-C , 10-H ) :   0.9361
B(  0-C , 11-H ) :   0.9361 B(  1-C ,  2-C ) :   0.8682 B(  1-C ,  4-C ) :   0.8682
B(  1-C , 12-H ) :   0.9298 B(  2-C ,  3-N ) :   0.8913 B(  2-C ,  5-C ) :   0.8759
B(  2-C , 13-H ) :   0.8783 B(  3-N ,  4-C ) :   0.8913 B(  3-N , 14-H ) :   0.8729
B(  4-C ,  5-C ) :   0.8759 B(  4-C , 15-H ) :   0.8783 B(  5-C ,  6-C ) :   0.9206
B(  5-C ,  7-C ) :   0.9047 B(  6-C , 16-H ) :   0.9298 B(  6-C , 17-H ) :   0.9269
B(  6-C , 18-H ) :   0.9269 B(  7-C ,  8-N ) :   2.8870

MP2 TOTAL ENERGY:     -381.343869783 Eh
FINAL SINGLE POINT ENERGY      -381.343869782583

DIPOLE MOMENT
-------------
                                X             Y             Z
Electronic contribution:      6.82217      -4.94197      -0.03075
Nuclear contribution   :     -8.27322       5.37495      -0.08828
                        -----------------------------------------
Total Dipole Moment    :     -1.45105       0.43297      -0.11902
                        -----------------------------------------
Magnitude (a.u.)       :      1.51894
Magnitude (Debye)      :      3.86084

                             ****ORCA TERMINATED NORMALLY****
TOTAL RUN TIME: 0 days 0 hours 18 minutes 37 seconds 168 msec
