                         Program Version 3.0.3 - RELEASE   -
|  1> ! RI-MP2 RIJK def2-TZVP def2-TZVP/C def2-TZVP/JK TIGHTSCF
|  2> % maxcore 2000
|  3> % mp2 density relaxed end
|  4> *xyz 0 1
|  5>  O        0.1328778234     1.1310190153     0.8019687272
|  6>  C       -0.0266419843     0.1234252053    -0.1803685694
|  7>  C       -1.4222651276    -0.4372412365    -0.0867760839
|  8>  C       -2.1871572123    -0.3552435299     1.0759699309
|  9>  N       -3.4120845927    -0.8793713477     1.1704733045
| 10>  C       -3.8715680901    -1.4936403701     0.0805662357
| 11>  N       -3.2448525620    -1.6277823635    -1.0899831193
| 12>  C       -2.0260669791    -1.0914460252    -1.1580653226
| 13>  H        1.0608610921     1.3800495412     0.8315766102
| 14>  H        0.1402745113     0.5167040389    -1.1960832360
| 15>  H        0.7017077239    -0.6911127983    -0.0322177690
| 16>  H       -1.7981015324     0.1577229708     1.9497581173
| 17>  H       -4.8657986495    -1.9285229517     0.1501464034
| 18>  H       -1.5087631906    -1.1852868385    -2.1127054589
| 19> *
| 20>
| 21>                          ****END OF INPUT****

CARTESIAN COORDINATES (ANGSTROEM)
---------------------------------
  O      0.132878    1.131019    0.801969
  C     -0.026642    0.123425   -0.180369
  C     -1.422265   -0.437241   -0.086776
  C     -2.187157   -0.355244    1.075970
  N     -3.412085   -0.879371    1.170473
  C     -3.871568   -1.493640    0.080566
  N     -3.244853   -1.627782   -1.089983
  C     -2.026067   -1.091446   -1.158065
  H      1.060861    1.380050    0.831577
  H      0.140275    0.516704   -1.196083
  H      0.701708   -0.691113   -0.032218
  H     -1.798102    0.157723    1.949758
  H     -4.865799   -1.928523    0.150146
  H     -1.508763   -1.185287   -2.112705

 Total Charge           Charge          ....    0
 Multiplicity           Mult            ....    1
 Number of Electrons    NEL             ....   58
 Basis Dimension        Dim             ....  284

ORBITAL ENERGIES
----------------

  NO   OCC          E(Eh)            E(eV)
   0   2.0000     -20.578361      -559.9657
   1   2.0000     -15.570257      -423.6882
   2   2.0000     -15.568278      -423.6344
   3   2.0000     -11.306511      -307.6658
   4   2.0000     -11.305418      -307.6361
   5   2.0000     -11.294243      -307.3320
   6   2.0000     -11.288731      -307.1820
   7   2.0000     -11.250977      -306.1547
   8   2.0000      -1.384851       -37.6837
   9   2.0000      -1.308422       -35.6040
  10   2.0000      -1.190793       -32.4031
  11   2.0000      -1.092668       -29.7330
  12   2.0000      -0.953656       -25.9503
  13   2.0000      -0.893938       -24.3253
  14   2.0000      -0.852784       -23.2054
  15   2.0000      -0.737665       -20.0729
  16   2.0000      -0.726316       -19.7641
  17   2.0000      -0.688174       -18.7262
  18   2.0000      -0.647216       -17.6117
  19   2.0000      -0.626739       -17.0544
  20   2.0000      -0.588345       -16.0097
  21   2.0000      -0.581554       -15.8249
  22   2.0000      -0.570432       -15.5223
  23   2.0000      -0.543236       -14.7822
  24   2.0000      -0.479001       -13.0343
  25   2.0000      -0.465388       -12.6639
  26   2.0000      -0.418236       -11.3808
  27   2.0000      -0.410215       -11.1625
  28   2.0000      -0.361741        -9.8435
  29   0.0000       0.094155         2.5621
  30   0.0000       0.108364         2.9487
  31   0.0000       0.125387         3.4120
  32   0.0000       0.155336         4.2269
  33   0.0000       0.185088         5.0365

MULLIKEN ATOMIC CHARGES
-----------------------
   0 O :   -0.464318
   1 C :   -0.072670
   2 C :    0.093178
   3 C :   -0.062535
   4 N :   -0.238520
   5 C :    0.084920
   6 N :   -0.243647
   7 C :   -0.090439
   8 H :    0.323277
   9 H :    0.117428
  10 H :    0.123716
  11 H :    0.159845
  12 H :    0.136733
  13 H :    0.133034
Sum of atomic charges:    0.0000000

LOEWDIN ATOMIC CHARGES
----------------------
   0 O :   -0.033414
   1 C :   -0.300311
   2 C :   -0.158645
   3 C :   -0.161504
   4 N :    0.129123
   5 C :   -0.287594
   6 N :    0.126923
   7 C :   -0.176201
   8 H :    0.177833
   9 H :    0.128272
  10 H :    0.129635
  11 H :    0.148712
  12 H :    0.134165
  13 H :    0.143006

  Mayer bond orders larger than 0.1
B(  0-O ,  1-C ) :   1.0261 B(  0-O ,  8-H ) :   0.8427 B(  1-C ,  2-C ) :   0.8920
B(  1-C ,  9-H ) :   0.9349 B(  1-C , 10-H ) :   0.9208 B(  2-C ,  3-C ) :   1.3177
B(  2-C ,  7-C ) :   1.2760 B(  3-C ,  4-N ) :   1.3881 B(  3-C , 11-H ) :   0.9345
B(  4-N ,  5-C ) :   1.3756 B(  5-C ,  6-N ) :   1.3636 B(  5-C , 12-H ) :   0.9372
B(  6-N ,  7-C ) :   1.4131 B(  7-C , 13-H ) :   0.9570

MP2 TOTAL ENERGY:     -378.120812502 Eh
FINAL SINGLE POINT ENERGY      -378.120812501935

DIPOLE MOMENT
-------------
                                X             Y             Z
Electronic contribution:     -3.42785      -1.07647       0.57980
Nuclear contribution   :      4.96737       1.33266      -0.90178
                        -----------------------------------------
Total Dipole Moment    :      1.53952       0.25619      -0.32198
                        -----------------------------------------
Magnitude (a.u.)       :      1.59356
Magnitude (Debye)      :      4.05051

                             ****ORCA TERMINATED NORMALLY****
TOTAL RUN TIME: 0 days 0 hours 10 minutes 7 seconds 795 msec
