                         Program Version 3.0.3 - RELEASE   -
|  1> ! RI-MP2 RIJK def2-TZVP def2-TZVP/C def2-TZVP/JK TIGHTSCF
|  2> % maxcore 2000
|  3> % mp2 density relaxed end
|  4> *xyz 0 1
|  5>  O        0.1313114109    -0.1611694276    -0.4269492570
|  6>  C        0.0401589735     1.0136817207    -0.1821470337
|  7>  C        1.2141339901     1.9477150830     0.0169544644
|  8>  C        1.3092281721     2.9514526693    -1.1396662015
|  9>  C        2.5805457695     3.8515923241    -1.1858061116
| 10>  C        2.8955570148     3.1441706829    -2.5288127619
| 11>  O        3.7608497234     3.2030809388    -3.3570963094
| 12>  N        1.7514707148     2.3867414273    -2.4196886375
| 13>  H       -0.9572780679     1.5091536375    -0.1152107166
| 14>  H        1.0602826444     2.5070372349     0.9493318206
| 15>  H        2.1336955733     1.3607747649     0.0906833137
| 16>  H        0.3732593154     3.5170433953    -1.2262952104
| 17>  H        2.3991039741     4.9241060332    -1.2698159824
| 18>  H        3.3118979747     3.6599381985    -0.3984278798
| 19>  H        1.3720928570     1.6546561872    -3.0026915969
| 20> *
| 21>
| 22>                          ****END OF INPUT****

CARTESIAN COORDINATES (ANGSTROEM)
---------------------------------
  O      0.131311   -0.161169   -0.426949
  C      0.040159    1.013682   -0.182147
  C      1.214134    1.947715    0.016954
  C      1.309228    2.951453   -1.139666
  C      2.580546    3.851592   -1.185806
  C      2.895557    3.144171   -2.528813
  O      3.760850    3.203081   -3.357096
  N      1.751471    2.386741   -2.419689
  H     -0.957278    1.509154   -0.115211
  H      1.060283    2.507037    0.949332
  H      2.133696    1.360775    0.090683
  H      0.373259    3.517043   -1.226295
  H      2.399104    4.924106   -1.269816
  H      3.311898    3.659938   -0.398428
  H      1.372093    1.654656   -3.002692

 Total Charge           Charge          ....    0
 Multiplicity           Mult            ....    1
 Number of Electrons    NEL             ....   60
 Basis Dimension        Dim             ....  290

ORBITAL ENERGIES
----------------

  NO   OCC          E(Eh)            E(eV)
   0   2.0000     -20.574846      -559.8700
   1   2.0000     -20.532823      -558.7265
   2   2.0000     -15.594000      -424.3343
   3   2.0000     -11.360949      -309.1471
   4   2.0000     -11.349137      -308.8257
   5   2.0000     -11.309562      -307.7488
   6   2.0000     -11.261799      -306.4491
   7   2.0000     -11.261775      -306.4485
   8   2.0000      -1.413235       -38.4561
   9   2.0000      -1.396091       -37.9896
  10   2.0000      -1.282448       -34.8972
  11   2.0000      -1.071113       -29.1465
  12   2.0000      -1.009686       -27.4750
  13   2.0000      -0.880872       -23.9697
  14   2.0000      -0.813280       -22.1305
  15   2.0000      -0.797817       -21.7097
  16   2.0000      -0.708457       -19.2781
  17   2.0000      -0.689122       -18.7520
  18   2.0000      -0.668757       -18.1978
  19   2.0000      -0.659027       -17.9330
  20   2.0000      -0.632496       -17.2111
  21   2.0000      -0.595515       -16.2048
  22   2.0000      -0.572764       -15.5857
  23   2.0000      -0.544229       -14.8092
  24   2.0000      -0.541453       -14.7337
  25   2.0000      -0.534231       -14.5372
  26   2.0000      -0.518595       -14.1117
  27   2.0000      -0.440535       -11.9876
  28   2.0000      -0.423425       -11.5220
  29   2.0000      -0.408382       -11.1126
  30   0.0000       0.109916         2.9910
  31   0.0000       0.127889         3.4800
  32   0.0000       0.143401         3.9022
  33   0.0000       0.154379         4.2009
  34   0.0000       0.154824         4.2130

MULLIKEN ATOMIC CHARGES
-----------------------
   0 O :   -0.254243
   1 C :    0.076971
   2 C :   -0.175246
   3 C :    0.024630
   4 C :   -0.229845
   5 C :    0.216746
   6 O :   -0.305370
   7 N :   -0.336214
   8 H :    0.078476
   9 H :    0.132120
  10 H :    0.130191
  11 H :    0.117379
  12 H :    0.140277
  13 H :    0.137669
  14 H :    0.246459
Sum of atomic charges:    0.0000000

LOEWDIN ATOMIC CHARGES
----------------------
   0 O :    0.138816
   1 C :   -0.298605
   2 C :   -0.246311
   3 C :   -0.247686
   4 C :   -0.177798
   5 C :   -0.439413
   6 O :    0.108967
   7 N :    0.141286
   8 H :    0.110506
   9 H :    0.154856
  10 H :    0.151634
  11 H :    0.142188
  12 H :    0.142077
  13 H :    0.144080
  14 H :    0.175404

  Mayer bond orders larger than 0.1
B(  0-O ,  1-C ) :   2.0024 B(  1-C ,  2-C ) :   0.8721 B(  1-C ,  8-H ) :   0.9321
B(  2-C ,  3-C ) :   0.9034 B(  2-C ,  9-H ) :   0.9098 B(  2-C , 10-H ) :   0.9031
B(  3-C ,  4-C ) :   0.8989 B(  3-C ,  7-N ) :   0.8912 B(  3-C , 11-H ) :   0.9215
B(  4-C ,  5-C ) :   0.8931 B(  4-C , 12-H ) :   0.9081 B(  4-C , 13-H ) :   0.9048
B(  5-C ,  6-O ) :   2.0326 B(  5-C ,  7-N ) :   1.1393 B(  7-N , 14-H ) :   0.8548

MP2 TOTAL ENERGY:     -399.172353931 Eh
FINAL SINGLE POINT ENERGY      -399.172353930516

DIPOLE MOMENT
-------------
                                X             Y             Z
Electronic contribution:      1.08911      -2.30541      -3.51550
Nuclear contribution   :     -2.11202       3.04077       4.58904
                        -----------------------------------------
Total Dipole Moment    :     -1.02291       0.73536       1.07354
                        -----------------------------------------
Magnitude (a.u.)       :      1.65517
Magnitude (Debye)      :      4.20712

                             ****ORCA TERMINATED NORMALLY****
TOTAL RUN TIME: 0 days 0 hours 10 minutes 41 seconds 697 msec
