                         Program Version 3.0.3 - RELEASE   -
|  1> ! RI-MP2 RIJK def2-TZVP def2-TZVP/C def2-TZVP/JK TIGHTSCF
|  2> % maxcore 2000
|  3> % mp2 density relaxed end
|  4> *xyz 0 1
|  5>  C       -0.0678730012     1.5549880729    -0.0287040890
|  6>  C       -0.0679777392     0.0532155763     0.1030668649
|  7>  O        1.1566953713    -0.6285587292    -0.1872331373
|  8>  C        0.6518387394    -0.6726911657     1.1662370187
|  9>  C        1.4822175475    -0.0116968653     2.2755943655
| 10>  C        1.4612328902    -1.0185158354     3.4552364712
| 11>  C        0.6557176373    -2.1964757325     2.9453260280
| 12>  C        0.4206692833    -3.4003485258     3.8001551449
| 13>  C        0.2215646687    -1.9881290156     1.6995456028
| 14>  H        0.8282820943     1.9930241319     0.4169156637
| 15>  H       -0.0983752491     1.8445921078    -1.0845448903
| 16>  H       -0.9491820344     1.9838918412     0.4612414987
| 17>  H       -0.9494737126    -0.4364864729    -0.3200077852
| 18>  H        2.4955564072     0.1658026904     1.9071454987
| 19>  H        1.0697915735     0.9578734080     2.5675079334
| 20>  H        2.4682913321    -1.3313386881     3.7599478557
| 21>  H        0.9981834881    -0.5879955312     4.3525708518
| 22>  H       -0.1067595112    -3.1324730428     4.7248304036
| 23>  H       -0.1684344375    -4.1601456237     3.2800325865
| 24>  H        1.3713138049    -3.8547917156     4.1075418234
| 25>  H       -0.3695782024    -2.6803701547     1.1103986104
| 26> *
| 27>
| 28>                          ****END OF INPUT****

CARTESIAN COORDINATES (ANGSTROEM)
---------------------------------
  C     -0.067873    1.554988   -0.028704
  C     -0.067978    0.053216    0.103067
  O      1.156695   -0.628559   -0.187233
  C      0.651839   -0.672691    1.166237
  C      1.482218   -0.011697    2.275594
  C      1.461233   -1.018516    3.455236
  C      0.655718   -2.196476    2.945326
  C      0.420669   -3.400349    3.800155
  C      0.221565   -1.988129    1.699546
  H      0.828282    1.993024    0.416916
  H     -0.098375    1.844592   -1.084545
  H     -0.949182    1.983892    0.461241
  H     -0.949474   -0.436486   -0.320008
  H      2.495556    0.165803    1.907145
  H      1.069792    0.957873    2.567508
  H      2.468291   -1.331339    3.759948
  H      0.998183   -0.587996    4.352571
  H     -0.106760   -3.132473    4.724830
  H     -0.168434   -4.160146    3.280033
  H      1.371314   -3.854792    4.107542
  H     -0.369578   -2.680370    1.110399

 Total Charge           Charge          ....    0
 Multiplicity           Mult            ....    1
 Number of Electrons    NEL             ....   68
 Basis Dimension        Dim             ....  351

ORBITAL ENERGIES
----------------

  NO   OCC          E(Eh)            E(eV)
   0   2.0000     -20.549829      -559.1893
   1   2.0000     -11.282644      -307.0164
   2   2.0000     -11.276666      -306.8537
   3   2.0000     -11.239771      -305.8497
   4   2.0000     -11.229837      -305.5794
   5   2.0000     -11.227280      -305.5098
   6   2.0000     -11.225144      -305.4517
   7   2.0000     -11.220539      -305.3264
   8   2.0000     -11.216736      -305.2229
   9   2.0000      -1.394587       -37.9487
  10   2.0000      -1.135126       -30.8884
  11   2.0000      -1.012196       -27.5433
  12   2.0000      -1.001276       -27.2461
  13   2.0000      -0.960411       -26.1341
  14   2.0000      -0.899643       -24.4805
  15   2.0000      -0.838603       -22.8195
  16   2.0000      -0.755159       -20.5489
  17   2.0000      -0.726844       -19.7784
  18   2.0000      -0.676454       -18.4073
  19   2.0000      -0.632816       -17.2198
  20   2.0000      -0.623110       -16.9557
  21   2.0000      -0.592609       -16.1257
  22   2.0000      -0.584313       -15.9000
  23   2.0000      -0.572034       -15.5658
  24   2.0000      -0.558976       -15.2105
  25   2.0000      -0.540776       -14.7153
  26   2.0000      -0.520934       -14.1753
  27   2.0000      -0.511298       -13.9131
  28   2.0000      -0.491368       -13.3708
  29   2.0000      -0.485821       -13.2199
  30   2.0000      -0.477640       -12.9972
  31   2.0000      -0.440052       -11.9744
  32   2.0000      -0.422221       -11.4892
  33   2.0000      -0.334243        -9.0952
  34   0.0000       0.132595         3.6081
  35   0.0000       0.147007         4.0003
  36   0.0000       0.153129         4.1669
  37   0.0000       0.167071         4.5462
  38   0.0000       0.179617         4.8876

MULLIKEN ATOMIC CHARGES
-----------------------
   0 C :   -0.405821
   1 C :    0.041671
   2 O :   -0.344404
   3 C :    0.228296
   4 C :   -0.241461
   5 C :   -0.184273
   6 C :    0.044854
   7 C :   -0.421369
   8 C :   -0.271707
   9 H :    0.143289
  10 H :    0.140351
  11 H :    0.127574
  12 H :    0.104353
  13 H :    0.131707
  14 H :    0.123378
  15 H :    0.119873
  16 H :    0.117586
  17 H :    0.138703
  18 H :    0.139981
  19 H :    0.140439
  20 H :    0.126981
Sum of atomic charges:   -0.0000000

LOEWDIN ATOMIC CHARGES
----------------------
   0 C :   -0.295855
   1 C :   -0.276507
   2 O :    0.169651
   3 C :   -0.276960
   4 C :   -0.192050
   5 C :   -0.206627
   6 C :   -0.176206
   7 C :   -0.272366
   8 C :   -0.104596
   9 H :    0.129180
  10 H :    0.129426
  11 H :    0.129393
  12 H :    0.135896
  13 H :    0.146088
  14 H :    0.139830
  15 H :    0.140477
  16 H :    0.140613
  17 H :    0.131925
  18 H :    0.130968
  19 H :    0.132897
  20 H :    0.144823

  Mayer bond orders larger than 0.1
B(  0-C ,  1-C ) :   0.8809 B(  0-C ,  9-H ) :   0.9438 B(  0-C , 10-H ) :   0.9350
B(  0-C , 11-H ) :   0.9248 B(  1-C ,  2-O ) :   0.8743 B(  1-C ,  3-C ) :   0.9543
B(  1-C , 12-H ) :   0.9103 B(  2-O ,  3-C ) :   0.8822 B(  3-C ,  4-C ) :   0.8950
B(  3-C ,  8-C ) :   0.9563 B(  4-C ,  5-C ) :   0.9794 B(  4-C , 13-H ) :   0.9251
B(  4-C , 14-H ) :   0.9262 B(  5-C ,  6-C ) :   0.9389 B(  5-C , 15-H ) :   0.9138
B(  5-C , 16-H ) :   0.9125 B(  6-C ,  7-C ) :   0.8823 B(  6-C ,  8-C ) :   1.7453
B(  7-C , 17-H ) :   0.9298 B(  7-C , 18-H ) :   0.9490 B(  7-C , 19-H ) :   0.9305
B(  8-C , 20-H ) :   0.9201

MP2 TOTAL ENERGY:     -386.415472841 Eh
FINAL SINGLE POINT ENERGY      -386.415472841313

DIPOLE MOMENT
-------------
                                X             Y             Z
Electronic contribution:      0.83170      -1.30722      -4.14184
Nuclear contribution   :     -1.27061       1.45492       4.86727
                        -----------------------------------------
Total Dipole Moment    :     -0.43891       0.14769       0.72543
                        -----------------------------------------
Magnitude (a.u.)       :      0.86064
Magnitude (Debye)      :      2.18757

                             ****ORCA TERMINATED NORMALLY****
TOTAL RUN TIME: 0 days 0 hours 18 minutes 33 seconds 443 msec
