                         Program Version 3.0.3 - RELEASE   -
|  1> ! RI-MP2 RIJK def2-TZVP def2-TZVP/C def2-TZVP/JK TIGHTSCF
|  2> % maxcore 2000
|  3> % mp2 density relaxed end
|  4> *xyz 0 1
|  5>  C       -0.2418791315     1.5588415290    -0.0213195203
|  6>  C        0.0273496311     0.0531215671     0.0053709322
|  7>  C        0.9469450169    -0.4315707522    -1.1708144830
|  8>  N        1.7002274931    -1.5879911105    -0.6339169262
|  9>  C        1.7646674285    -1.4104974894     0.7347594533
| 10>  N        2.4956140195    -1.9342827772     1.6819610547
| 11>  O        1.9827586027    -1.3163155715     2.8561488241
| 12>  C        0.9864620578    -0.4656135286     2.5212317838
| 13>  C        0.7969366510    -0.4722634500     1.1849968505
| 14>  H        0.6899849718     2.1243545759     0.0775406631
| 15>  H       -0.7243838578     1.8537263962    -0.9590762599
| 16>  H       -0.9037121636     1.8523574238     0.7990317841
| 17>  H       -0.9320126693    -0.4767915586    -0.0674880507
| 18>  H        0.3705414631    -0.7233271398    -2.0527458820
| 19>  H        1.6242838893     0.3863894859    -1.4596715317
| 20>  H        2.5466803479    -1.8521509181    -1.1169976234
| 21>  H        0.5355376495     0.0589300080     3.3497771014
| 22> *
| 23>
| 24>                          ****END OF INPUT****

CARTESIAN COORDINATES (ANGSTROEM)
---------------------------------
  C     -0.241879    1.558842   -0.021320
  C      0.027350    0.053122    0.005371
  C      0.946945   -0.431571   -1.170814
  N      1.700227   -1.587991   -0.633917
  C      1.764667   -1.410497    0.734759
  N      2.495614   -1.934283    1.681961
  O      1.982759   -1.316316    2.856149
  C      0.986462   -0.465614    2.521232
  C      0.796937   -0.472263    1.184997
  H      0.689985    2.124355    0.077541
  H     -0.724384    1.853726   -0.959076
  H     -0.903712    1.852357    0.799032
  H     -0.932013   -0.476792   -0.067488
  H      0.370541   -0.723327   -2.052746
  H      1.624284    0.386389   -1.459672
  H      2.546680   -1.852151   -1.116998
  H      0.535538    0.058930    3.349777

 Total Charge           Charge          ....    0
 Multiplicity           Mult            ....    1
 Number of Electrons    NEL             ....   66
 Basis Dimension        Dim             ....  327

ORBITAL ENERGIES
----------------

  NO   OCC          E(Eh)            E(eV)
   0   2.0000     -20.620756      -561.1193
   1   2.0000     -15.593587      -424.3231
   2   2.0000     -15.583343      -424.0443
   3   2.0000     -11.309938      -307.7590
   4   2.0000     -11.299466      -307.4741
   5   2.0000     -11.279748      -306.9375
   6   2.0000     -11.262860      -306.4780
   7   2.0000     -11.234236      -305.6991
   8   2.0000     -11.229967      -305.5829
   9   2.0000      -1.462282       -39.7907
  10   2.0000      -1.274173       -34.6720
  11   2.0000      -1.127199       -30.6726
  12   2.0000      -1.095929       -29.8218
  13   2.0000      -1.031122       -28.0583
  14   2.0000      -0.934876       -25.4393
  15   2.0000      -0.867322       -23.6010
  16   2.0000      -0.798091       -21.7172
  17   2.0000      -0.783156       -21.3108
  18   2.0000      -0.711209       -19.3530
  19   2.0000      -0.678867       -18.4729
  20   2.0000      -0.634814       -17.2742
  21   2.0000      -0.627181       -17.0665
  22   2.0000      -0.608926       -16.5697
  23   2.0000      -0.587229       -15.9793
  24   2.0000      -0.584582       -15.9073
  25   2.0000      -0.545529       -14.8446
  26   2.0000      -0.529982       -14.4215
  27   2.0000      -0.512883       -13.9563
  28   2.0000      -0.495842       -13.4926
  29   2.0000      -0.482300       -13.1240
  30   2.0000      -0.456864       -12.4319
  31   2.0000      -0.357936        -9.7399
  32   2.0000      -0.350926        -9.5492
  33   0.0000       0.117921         3.2088
  34   0.0000       0.134585         3.6623
  35   0.0000       0.144255         3.9254
  36   0.0000       0.168140         4.5753
  37   0.0000       0.170090         4.6284

MULLIKEN ATOMIC CHARGES
-----------------------
   0 C :   -0.420140
   1 C :    0.018277
   2 C :   -0.134742
   3 N :   -0.329921
   4 C :    0.121995
   5 N :   -0.142907
   6 O :   -0.112368
   7 C :   -0.004960
   8 C :   -0.152433
   9 H :    0.135728
  10 H :    0.138715
  11 H :    0.137470
  12 H :    0.111093
  13 H :    0.127697
  14 H :    0.114080
  15 H :    0.237267
  16 H :    0.155151
Sum of atomic charges:   -0.0000000

LOEWDIN ATOMIC CHARGES
----------------------
   0 C :   -0.286457
   1 C :   -0.221490
   2 C :   -0.219214
   3 N :    0.077687
   4 C :   -0.352653
   5 N :    0.030611
   6 O :    0.251263
   7 C :   -0.239519
   8 C :   -0.155989
   9 H :    0.126595
  10 H :    0.126248
  11 H :    0.126898
  12 H :    0.161780
  13 H :    0.128335
  14 H :    0.127302
  15 H :    0.181008
  16 H :    0.137594

  Mayer bond orders larger than 0.1
B(  0-C ,  1-C ) :   0.9000 B(  0-C ,  9-H ) :   0.9301 B(  0-C , 10-H ) :   0.9377
B(  0-C , 11-H ) :   0.9381 B(  1-C ,  2-C ) :   0.9478 B(  1-C ,  8-C ) :   0.9188
B(  1-C , 12-H ) :   0.9023 B(  2-C ,  3-N ) :   0.9096 B(  2-C , 13-H ) :   0.9225
B(  2-C , 14-H ) :   0.9292 B(  3-N ,  4-C ) :   1.1185 B(  3-N , 15-H ) :   0.8706
B(  4-C ,  5-N ) :   1.6706 B(  4-C ,  8-C ) :   1.1346 B(  5-N ,  6-O ) :   0.8480
B(  5-N ,  7-C ) :   0.1016 B(  6-O ,  7-C ) :   1.1311 B(  7-C ,  8-C ) :   1.5496
B(  7-C , 16-H ) :   0.9163

MP2 TOTAL ENERGY:     -417.286411168 Eh
FINAL SINGLE POINT ENERGY      -417.286411167726

DIPOLE MOMENT
-------------
                                X             Y             Z
Electronic contribution:      4.95510      -6.83776       6.23864
Nuclear contribution   :     -5.74385       7.90991      -7.23973
                        -----------------------------------------
Total Dipole Moment    :     -0.78875       1.07215      -1.00109
                        -----------------------------------------
Magnitude (a.u.)       :      1.66547
Magnitude (Debye)      :      4.23330

                             ****ORCA TERMINATED NORMALLY****
TOTAL RUN TIME: 0 days 0 hours 18 minutes 7 seconds 134 msec
