                         Program Version 3.0.3 - RELEASE   -
|  1> ! RI-MP2 RIJK def2-TZVP def2-TZVP/C def2-TZVP/JK TIGHTSCF
|  2> % maxcore 2000
|  3> % mp2 density relaxed end
|  4> *xyz 0 1
|  5>  N       -0.0721303206     1.3145087007     0.0472397993
|  6>  C        0.0134567237     0.0442499117     0.0003973971
|  7>  N        1.0924762583    -0.7955463004    -0.1592683599
|  8>  C        0.8147658548    -2.2114018990     0.0778656964
|  9>  C       -0.7133610238    -2.3023248232    -0.0691477490
| 10>  C       -1.2071690658    -0.8656041865     0.1016195824
| 11>  O       -2.3377287679    -0.5096764349     0.2821156648
| 12>  H        0.8469692110     1.7576027000    -0.0258141986
| 13>  H        2.0321431536    -0.4409911256    -0.0786133996
| 14>  H        1.3464481835    -2.8358412038    -0.6464380734
| 15>  H        1.1318691993    -2.5232650087     1.0825900911
| 16>  H       -0.9976522804    -2.6358938049    -1.0733672748
| 17>  H       -1.1899850657    -2.9723884155     0.6478708944
| 18> *
| 19>
| 20>                          ****END OF INPUT****

CARTESIAN COORDINATES (ANGSTROEM)
---------------------------------
  N     -0.072130    1.314509    0.047240
  C      0.013457    0.044250    0.000397
  N      1.092476   -0.795546   -0.159268
  C      0.814766   -2.211402    0.077866
  C     -0.713361   -2.302325   -0.069148
  C     -1.207169   -0.865604    0.101620
  O     -2.337729   -0.509676    0.282116
  H      0.846969    1.757603   -0.025814
  H      2.032143   -0.440991   -0.078613
  H      1.346448   -2.835841   -0.646438
  H      1.131869   -2.523265    1.082590
  H     -0.997652   -2.635894   -1.073367
  H     -1.189985   -2.972388    0.647871

 Total Charge           Charge          ....    0
 Multiplicity           Mult            ....    1
 Number of Electrons    NEL             ....   52
 Basis Dimension        Dim             ....  253

ORBITAL ENERGIES
----------------

  NO   OCC          E(Eh)            E(eV)
   0   2.0000     -20.562140      -559.5243
   1   2.0000     -15.596984      -424.4155
   2   2.0000     -15.538926      -422.8357
   3   2.0000     -11.342792      -308.6531
   4   2.0000     -11.324174      -308.1464
   5   2.0000     -11.293960      -307.3243
   6   2.0000     -11.257294      -306.3266
   7   2.0000      -1.405319       -38.2407
   8   2.0000      -1.295122       -35.2421
   9   2.0000      -1.176682       -32.0192
  10   2.0000      -1.051743       -28.6194
  11   2.0000      -0.950166       -25.8553
  12   2.0000      -0.853196       -23.2167
  13   2.0000      -0.744417       -20.2566
  14   2.0000      -0.719777       -19.5861
  15   2.0000      -0.685497       -18.6533
  16   2.0000      -0.654824       -17.8187
  17   2.0000      -0.621525       -16.9126
  18   2.0000      -0.608554       -16.5596
  19   2.0000      -0.575464       -15.6592
  20   2.0000      -0.554985       -15.1019
  21   2.0000      -0.548340       -14.9211
  22   2.0000      -0.480162       -13.0659
  23   2.0000      -0.455420       -12.3926
  24   2.0000      -0.408083       -11.1045
  25   2.0000      -0.368820       -10.0361
  26   0.0000       0.087457         2.3798
  27   0.0000       0.116998         3.1837
  28   0.0000       0.139437         3.7943
  29   0.0000       0.162143         4.4121
  30   0.0000       0.175159         4.7663

MULLIKEN ATOMIC CHARGES
-----------------------
   0 N :   -0.333986
   1 C :    0.013849
   2 N :   -0.316729
   3 C :   -0.103918
   4 C :   -0.231115
   5 C :    0.232693
   6 O :   -0.240048
   7 H :    0.198915
   8 H :    0.233439
   9 H :    0.129555
  10 H :    0.121528
  11 H :    0.145050
  12 H :    0.150768
Sum of atomic charges:    0.0000000

LOEWDIN ATOMIC CHARGES
----------------------
   0 N :   -0.055500
   1 C :   -0.374039
   2 N :    0.095677
   3 C :   -0.264077
   4 C :   -0.216369
   5 C :   -0.280260
   6 O :    0.193062
   7 H :    0.157614
   8 H :    0.178048
   9 H :    0.129319
  10 H :    0.127570
  11 H :    0.158430
  12 H :    0.150526

  Mayer bond orders larger than 0.1
B(  0-N ,  1-C ) :   2.0606 B(  0-N ,  7-H ) :   0.8583 B(  1-C ,  2-N ) :   1.1293
B(  1-C ,  5-C ) :   0.8560 B(  2-N ,  3-C ) :   0.8641 B(  2-N ,  8-H ) :   0.8713
B(  3-C ,  4-C ) :   0.9479 B(  3-C ,  9-H ) :   0.9299 B(  3-C , 10-H ) :   0.9252
B(  4-C ,  5-C ) :   0.9239 B(  4-C , 11-H ) :   0.9045 B(  4-C , 12-H ) :   0.9222
B(  5-C ,  6-O ) :   2.0382

MP2 TOTAL ENERGY:     -340.092119738 Eh
FINAL SINGLE POINT ENERGY      -340.092119738033

DIPOLE MOMENT
-------------
                                X             Y             Z
Electronic contribution:     -3.01356       3.36302       0.22737
Nuclear contribution   :      4.84897      -4.75345      -0.32535
                        -----------------------------------------
Total Dipole Moment    :      1.83541      -1.39043      -0.09798
                        -----------------------------------------
Magnitude (a.u.)       :      2.30469
Magnitude (Debye)      :      5.85807

                             ****ORCA TERMINATED NORMALLY****
TOTAL RUN TIME: 0 days 0 hours 7 minutes 10 seconds 761 msec
