                         Program Version 3.0.3 - RELEASE   -
|  1> ! RI-MP2 RIJK def2-TZVP def2-TZVP/C def2-TZVP/JK TIGHTSCF
|  2> % maxcore 2000
|  3> % mp2 density relaxed end
|  4> *xyz 0 1
|  5>  C       -0.0404370459     1.5071177545     0.3371914022
|  6>  C        0.0986826382     0.0372866545     0.0043928283
|  7>  O        1.1628746330    -0.4858019299    -0.2162612454
|  8>  C       -1.2240926964    -0.7797198784    -0.0499675244
|  9>  C       -1.0223229395    -2.1672684218    -0.6907978532
| 10>  C       -0.7971204304    -2.0971602318    -2.2039364492
| 11>  O       -0.6452727272    -3.3833680322    -2.7803277864
| 12>  C       -1.7623144257    -0.8726091548     1.3048963353
| 13>  C       -2.1732094298    -0.9593938546     2.4316001971
| 14>  H        0.9446677189     1.9488091572     0.4896775433
| 15>  H       -0.5421297516     2.0208447403    -0.4919461041
| 16>  H       -0.6636885519     1.6442683951     1.2251399878
| 17>  H       -1.9337938197    -0.1958960579    -0.6561957895
| 18>  H       -0.1591354369    -2.6416468135    -0.2127039759
| 19>  H       -1.8988607049    -2.7895671388    -0.4909829626
| 20>  H       -1.6757816825    -1.6574341707    -2.6912653865
| 21>  H        0.0638601624    -1.4528432425    -2.4294931204
| 22>  H        0.1864488122    -3.7487710790    -2.4620041698
| 23>  H       -2.5501115121    -1.0404418357     3.4211883533
| 24> *
| 25>
| 26>                          ****END OF INPUT****

CARTESIAN COORDINATES (ANGSTROEM)
---------------------------------
  C     -0.040437    1.507118    0.337191
  C      0.098683    0.037287    0.004393
  O      1.162875   -0.485802   -0.216261
  C     -1.224093   -0.779720   -0.049968
  C     -1.022323   -2.167268   -0.690798
  C     -0.797120   -2.097160   -2.203936
  O     -0.645273   -3.383368   -2.780328
  C     -1.762314   -0.872609    1.304896
  C     -2.173209   -0.959394    2.431600
  H      0.944668    1.948809    0.489678
  H     -0.542130    2.020845   -0.491946
  H     -0.663689    1.644268    1.225140
  H     -1.933794   -0.195896   -0.656196
  H     -0.159135   -2.641647   -0.212704
  H     -1.898861   -2.789567   -0.490983
  H     -1.675782   -1.657434   -2.691265
  H      0.063860   -1.452843   -2.429493
  H      0.186449   -3.748771   -2.462004
  H     -2.550112   -1.040442    3.421188

 Total Charge           Charge          ....    0
 Multiplicity           Mult            ....    1
 Number of Electrons    NEL             ....   68
 Basis Dimension        Dim             ....  339

ORBITAL ENERGIES
----------------

  NO   OCC          E(Eh)            E(eV)
   0   2.0000     -20.559330      -559.4478
   1   2.0000     -20.555679      -559.3485
   2   2.0000     -11.347172      -308.7722
   3   2.0000     -11.280653      -306.9622
   4   2.0000     -11.277075      -306.8648
   5   2.0000     -11.250114      -306.1312
   6   2.0000     -11.241986      -305.9100
   7   2.0000     -11.237924      -305.7995
   8   2.0000     -11.234376      -305.7029
   9   2.0000      -1.405636       -38.2493
  10   2.0000      -1.360108       -37.0104
  11   2.0000      -1.119063       -30.4513
  12   2.0000      -1.026475       -27.9318
  13   2.0000      -1.020527       -27.7700
  14   2.0000      -0.944992       -25.7145
  15   2.0000      -0.842470       -22.9248
  16   2.0000      -0.770652       -20.9705
  17   2.0000      -0.727499       -19.7963
  18   2.0000      -0.701303       -19.0834
  19   2.0000      -0.677411       -18.4333
  20   2.0000      -0.661571       -18.0023
  21   2.0000      -0.645448       -17.5635
  22   2.0000      -0.610005       -16.5991
  23   2.0000      -0.602894       -16.4056
  24   2.0000      -0.585106       -15.9215
  25   2.0000      -0.569837       -15.5061
  26   2.0000      -0.535033       -14.5590
  27   2.0000      -0.525941       -14.3116
  28   2.0000      -0.511099       -13.9077
  29   2.0000      -0.482970       -13.1423
  30   2.0000      -0.453724       -12.3465
  31   2.0000      -0.439338       -11.9550
  32   2.0000      -0.399720       -10.8769
  33   2.0000      -0.390512       -10.6264
  34   0.0000       0.118688         3.2297
  35   0.0000       0.130019         3.5380
  36   0.0000       0.144801         3.9402
  37   0.0000       0.156725         4.2647
  38   0.0000       0.166293         4.5251

MULLIKEN ATOMIC CHARGES
-----------------------
   0 C :   -0.434461
   1 C :    0.217455
   2 O :   -0.282776
   3 C :   -0.193670
   4 C :   -0.185590
   5 C :   -0.065103
   6 O :   -0.471040
   7 C :   -0.069181
   8 C :   -0.122010
   9 H :    0.155540
  10 H :    0.146481
  11 H :    0.168360
  12 H :    0.128130
  13 H :    0.121774
  14 H :    0.138169
  15 H :    0.107539
  16 H :    0.126995
  17 H :    0.317976
  18 H :    0.195411
Sum of atomic charges:    0.0000000

LOEWDIN ATOMIC CHARGES
----------------------
   0 C :   -0.271881
   1 C :   -0.309206
   2 O :    0.165503
   3 C :   -0.215942
   4 C :   -0.237685
   5 C :   -0.347950
   6 O :   -0.047406
   7 C :   -0.089036
   8 C :   -0.089915
   9 H :    0.135011
  10 H :    0.140484
  11 H :    0.143017
  12 H :    0.180099
  13 H :    0.146267
  14 H :    0.147289
  15 H :    0.126863
  16 H :    0.119985
  17 H :    0.175724
  18 H :    0.128779

  Mayer bond orders larger than 0.1
B(  0-C ,  1-C ) :   0.9291 B(  0-C ,  9-H ) :   0.9371 B(  0-C , 10-H ) :   0.9109
B(  0-C , 11-H ) :   0.9139 B(  1-C ,  2-O ) :   1.9746 B(  1-C ,  3-C ) :   0.8316
B(  3-C ,  4-C ) :   0.9002 B(  3-C ,  7-C ) :   1.0998 B(  3-C , 12-H ) :   0.9207
B(  4-C ,  5-C ) :   0.8997 B(  4-C , 13-H ) :   0.9033 B(  4-C , 14-H ) :   0.9312
B(  5-C ,  6-O ) :   0.9359 B(  5-C , 15-H ) :   0.9222 B(  5-C , 16-H ) :   0.9453
B(  6-O , 17-H ) :   0.8466 B(  7-C ,  8-C ) :   2.6136 B(  8-C , 18-H ) :   0.8887

MP2 TOTAL ENERGY:     -422.293392271 Eh
FINAL SINGLE POINT ENERGY      -422.293392271389

DIPOLE MOMENT
-------------
                                X             Y             Z
Electronic contribution:      1.16546      -1.77236       1.67567
Nuclear contribution   :     -1.50985       2.50980      -1.19288
                        -----------------------------------------
Total Dipole Moment    :     -0.34439       0.73744       0.48279
                        -----------------------------------------
Magnitude (a.u.)       :      0.94631
Magnitude (Debye)      :      2.40534

                             ****ORCA TERMINATED NORMALLY****
TOTAL RUN TIME: 0 days 0 hours 16 minutes 51 seconds 511 msec
