                         Program Version 3.0.3 - RELEASE   -
|  1> ! RI-MP2 RIJK def2-TZVP def2-TZVP/C def2-TZVP/JK TIGHTSCF
|  2> % maxcore 2000
|  3> % mp2 density relaxed end
|  4> *xyz 0 1
|  5>  C        0.2519845092     1.4275249964     0.1418450926
|  6>  N        0.2414455452    -0.0264271573     0.1161202582
|  7>  C        0.3976232821    -0.6111530907    -0.9980743664
|  8>  O        0.5763680598     0.0740552700    -2.1760500014
|  9>  N        0.7442991793    -0.6105681090    -3.3960778173
| 10>  C        0.7233836101    -1.8960778298    -3.3476996763
| 11>  C        0.9004828112    -2.6324288353    -4.6391809603
| 12>  N        0.5508079540    -2.6972661503    -2.2067532676
| 13>  C        0.3982482794    -2.0630491256    -1.1036281877
| 14>  H        1.2048045790     1.8313275543    -0.2254684447
| 15>  H       -0.5370974624     1.8499340331    -0.4942774432
| 16>  H        0.0978722942     1.7680068771     1.1674755452
| 17>  H        1.0269436429    -1.9353767962    -5.4674942317
| 18>  H        1.7732697837    -3.2899876504    -4.5726869542
| 19>  H        0.0302407977    -3.2708393999    -4.8227162707
| 20>  H        0.2586124646    -2.6128102162    -0.1748280043
| 21> *
| 22>
| 23>                          ****END OF INPUT****

CARTESIAN COORDINATES (ANGSTROEM)
---------------------------------
  C      0.251985    1.427525    0.141845
  N      0.241446   -0.026427    0.116120
  C      0.397623   -0.611153   -0.998074
  O      0.576368    0.074055   -2.176050
  N      0.744299   -0.610568   -3.396078
  C      0.723384   -1.896078   -3.347700
  C      0.900483   -2.632429   -4.639181
  N      0.550808   -2.697266   -2.206753
  C      0.398248   -2.063049   -1.103628
  H      1.204805    1.831328   -0.225468
  H     -0.537097    1.849934   -0.494277
  H      0.097872    1.768007    1.167476
  H      1.026944   -1.935377   -5.467494
  H      1.773270   -3.289988   -4.572687
  H      0.030241   -3.270839   -4.822716
  H      0.258612   -2.612810   -0.174828

 Total Charge           Charge          ....    0
 Multiplicity           Mult            ....    1
 Number of Electrons    NEL             ....   66
 Basis Dimension        Dim             ....  321

ORBITAL ENERGIES
----------------

  NO   OCC          E(Eh)            E(eV)
   0   2.0000     -20.637747      -561.5817
   1   2.0000     -15.640881      -425.6100
   2   2.0000     -15.605777      -424.6548
   3   2.0000     -15.568607      -423.6433
   4   2.0000     -11.355642      -309.0027
   5   2.0000     -11.333303      -308.3949
   6   2.0000     -11.330836      -308.3277
   7   2.0000     -11.251873      -306.1790
   8   2.0000     -11.243225      -305.9437
   9   2.0000      -1.477891       -40.2155
  10   2.0000      -1.293428       -35.1960
  11   2.0000      -1.255980       -34.1770
  12   2.0000      -1.164094       -31.6766
  13   2.0000      -1.009562       -27.4716
  14   2.0000      -0.990718       -26.9588
  15   2.0000      -0.904038       -24.6001
  16   2.0000      -0.857040       -23.3213
  17   2.0000      -0.769740       -20.9457
  18   2.0000      -0.717203       -19.5161
  19   2.0000      -0.673285       -18.3210
  20   2.0000      -0.666278       -18.1304
  21   2.0000      -0.611085       -16.6285
  22   2.0000      -0.603398       -16.4193
  23   2.0000      -0.578316       -15.7368
  24   2.0000      -0.577105       -15.7038
  25   2.0000      -0.571013       -15.5380
  26   2.0000      -0.560265       -15.2456
  27   2.0000      -0.522578       -14.2201
  28   2.0000      -0.513912       -13.9842
  29   2.0000      -0.464070       -12.6280
  30   2.0000      -0.463971       -12.6253
  31   2.0000      -0.416949       -11.3458
  32   2.0000      -0.360422        -9.8076
  33   0.0000       0.047764         1.2997
  34   0.0000       0.139054         3.7839
  35   0.0000       0.147933         4.0255
  36   0.0000       0.153605         4.1798
  37   0.0000       0.171973         4.6796

MULLIKEN ATOMIC CHARGES
-----------------------
   0 C :   -0.287697
   1 N :   -0.244788
   2 C :    0.186214
   3 O :   -0.150487
   4 N :   -0.100206
   5 C :    0.176930
   6 C :   -0.378817
   7 N :   -0.214022
   8 C :   -0.012757
   9 H :    0.138501
  10 H :    0.138342
  11 H :    0.145420
  12 H :    0.156428
  13 H :    0.146459
  14 H :    0.146442
  15 H :    0.154038
Sum of atomic charges:   -0.0000000

LOEWDIN ATOMIC CHARGES
----------------------
   0 C :   -0.329758
   1 N :    0.086388
   2 C :   -0.389400
   3 O :    0.230743
   4 N :    0.083051
   5 C :   -0.355538
   6 C :   -0.261714
   7 N :    0.159847
   8 C :   -0.146990
   9 H :    0.119250
  10 H :    0.119041
  11 H :    0.115819
  12 H :    0.136850
  13 H :    0.138729
  14 H :    0.138731
  15 H :    0.154950

  Mayer bond orders larger than 0.1
B(  0-C ,  1-N ) :   0.8767 B(  0-C ,  9-H ) :   0.9262 B(  0-C , 10-H ) :   0.9262
B(  0-C , 11-H ) :   0.9417 B(  1-N ,  2-C ) :   1.8507 B(  2-C ,  3-O ) :   1.0341
B(  2-C ,  8-C ) :   1.0209 B(  3-O ,  4-N ) :   0.7927 B(  4-N ,  5-C ) :   1.7732
B(  5-C ,  6-C ) :   0.9106 B(  5-C ,  7-N ) :   1.0397 B(  6-C , 12-H ) :   0.9445
B(  6-C , 13-H ) :   0.9193 B(  6-C , 14-H ) :   0.9192 B(  7-N ,  8-C ) :   1.7307
B(  8-C , 15-H ) :   0.9167

MP2 TOTAL ENERGY:     -433.300588963 Eh
FINAL SINGLE POINT ENERGY      -433.300588963498

DIPOLE MOMENT
-------------
                                X             Y             Z
Electronic contribution:     -0.08557      -1.29280       0.56116
Nuclear contribution   :      0.11501       1.03192      -0.78627
                        -----------------------------------------
Total Dipole Moment    :      0.02943      -0.26088      -0.22512
                        -----------------------------------------
Magnitude (a.u.)       :      0.34583
Magnitude (Debye)      :      0.87904

                             ****ORCA TERMINATED NORMALLY****
TOTAL RUN TIME: 0 days 0 hours 16 minutes 3 seconds 792 msec
