                         Program Version 3.0.3 - RELEASE   -
|  1> ! RI-MP2 RIJK def2-TZVP def2-TZVP/C def2-TZVP/JK TIGHTSCF
|  2> % maxcore 2000
|  3> % mp2 density relaxed end
|  4> *xyz 0 1
|  5>  C        0.0311887084     1.6521260084     0.0212855544
|  6>  C        0.0135751963     0.1295733296    -0.0049554912
|  7>  C        0.7205490320    -0.5117698493     1.1909014608
|  8>  O        0.1439426241    -0.1264094943     2.4200896200
|  9>  O       -1.3587889526    -0.3297304323     0.0643840693
| 10>  C       -1.9507757379    -0.7792786905    -1.0568338225
| 11>  O       -3.0805406775    -1.1642974838    -1.0827170299
| 12>  H        1.0595412690     2.0167564724    -0.0640114272
| 13>  H       -0.5504536739     2.0632930536    -0.8081828621
| 14>  H       -0.3865749468     2.0142328229     0.9629720478
| 15>  H        0.4668007802    -0.2478003255    -0.9320202319
| 16>  H        0.7127381762    -1.6051060010     1.0633459708
| 17>  H        1.7649447949    -0.1835127849     1.2131040878
| 18>  H       -0.7818028713    -0.3951490549     2.3898247589
| 19>  H       -1.2770428109    -0.7551769902    -1.9359053451
| 20> *
| 21>
| 22>                          ****END OF INPUT****

CARTESIAN COORDINATES (ANGSTROEM)
---------------------------------
  C      0.031189    1.652126    0.021286
  C      0.013575    0.129573   -0.004955
  C      0.720549   -0.511770    1.190901
  O      0.143943   -0.126409    2.420090
  O     -1.358789   -0.329730    0.064384
  C     -1.950776   -0.779279   -1.056834
  O     -3.080541   -1.164297   -1.082717
  H      1.059541    2.016756   -0.064011
  H     -0.550454    2.063293   -0.808183
  H     -0.386575    2.014233    0.962972
  H      0.466801   -0.247800   -0.932020
  H      0.712738   -1.605106    1.063346
  H      1.764945   -0.183513    1.213104
  H     -0.781803   -0.395149    2.389825
  H     -1.277043   -0.755177   -1.935905

 Total Charge           Charge          ....    0
 Multiplicity           Mult            ....    1
 Number of Electrons    NEL             ....   56
 Basis Dimension        Dim             ....  265

ORBITAL ENERGIES
----------------

  NO   OCC          E(Eh)            E(eV)
   0   2.0000     -20.614732      -560.9554
   1   2.0000     -20.566719      -559.6489
   2   2.0000     -20.556285      -559.3650
   3   2.0000     -11.390098      -309.9403
   4   2.0000     -11.317599      -307.9675
   5   2.0000     -11.294255      -307.3323
   6   2.0000     -11.236172      -305.7518
   7   2.0000      -1.469326       -39.9824
   8   2.0000      -1.385119       -37.6910
   9   2.0000      -1.368029       -37.2260
  10   2.0000      -1.073181       -29.2027
  11   2.0000      -0.950918       -25.8758
  12   2.0000      -0.877325       -23.8732
  13   2.0000      -0.835887       -22.7457
  14   2.0000      -0.731073       -19.8935
  15   2.0000      -0.708615       -19.2824
  16   2.0000      -0.687352       -18.7038
  17   2.0000      -0.653637       -17.7864
  18   2.0000      -0.638558       -17.3760
  19   2.0000      -0.611864       -16.6497
  20   2.0000      -0.581068       -15.8117
  21   2.0000      -0.560129       -15.2419
  22   2.0000      -0.552926       -15.0459
  23   2.0000      -0.534016       -14.5313
  24   2.0000      -0.502651       -13.6778
  25   2.0000      -0.478447       -13.0192
  26   2.0000      -0.464630       -12.6432
  27   2.0000      -0.448345       -12.2001
  28   0.0000       0.126132         3.4322
  29   0.0000       0.135154         3.6777
  30   0.0000       0.152584         4.1520
  31   0.0000       0.170103         4.6287
  32   0.0000       0.179474         4.8837

MULLIKEN ATOMIC CHARGES
-----------------------
   0 C :   -0.371273
   1 C :    0.004292
   2 C :    0.007925
   3 O :   -0.476297
   4 O :   -0.232605
   5 C :    0.191400
   6 O :   -0.269624
   7 H :    0.130740
   8 H :    0.136745
   9 H :    0.152045
  10 H :    0.094882
  11 H :    0.112358
  12 H :    0.112090
  13 H :    0.332600
  14 H :    0.074723
Sum of atomic charges:    0.0000000

LOEWDIN ATOMIC CHARGES
----------------------
   0 C :   -0.289290
   1 C :   -0.334261
   2 C :   -0.332142
   3 O :   -0.035034
   4 O :    0.250922
   5 C :   -0.453965
   6 O :    0.120764
   7 H :    0.131116
   8 H :    0.126433
   9 H :    0.134172
  10 H :    0.139855
  11 H :    0.122844
  12 H :    0.135246
  13 H :    0.180775
  14 H :    0.102566

  Mayer bond orders larger than 0.1
B(  0-C ,  1-C ) :   0.9416 B(  0-C ,  7-H ) :   0.9288 B(  0-C ,  8-H ) :   0.9292
B(  0-C ,  9-H ) :   0.9265 B(  1-C ,  2-C ) :   0.9401 B(  1-C ,  4-O ) :   0.8090
B(  1-C , 10-H ) :   0.9305 B(  2-C ,  3-O ) :   0.9394 B(  2-C , 11-H ) :   0.9221
B(  2-C , 12-H ) :   0.9224 B(  3-O , 13-H ) :   0.8308 B(  4-O ,  5-C ) :   1.0806
B(  5-C ,  6-O ) :   2.0255 B(  5-C , 14-H ) :   0.9199

MP2 TOTAL ENERGY:     -382.222295798 Eh
FINAL SINGLE POINT ENERGY      -382.222295798339

DIPOLE MOMENT
-------------
                                X             Y             Z
Electronic contribution:     -5.61675      -3.66998      -0.47419
Nuclear contribution   :      6.82496       3.94402      -0.10244
                        -----------------------------------------
Total Dipole Moment    :      1.20821       0.27404      -0.57663
                        -----------------------------------------
Magnitude (a.u.)       :      1.36652
Magnitude (Debye)      :      3.47342

                             ****ORCA TERMINATED NORMALLY****
TOTAL RUN TIME: 0 days 0 hours 6 minutes 50 seconds 986 msec
