                         Program Version 3.0.3 - RELEASE   -
|  1> ! RI-MP2 RIJK def2-TZVP def2-TZVP/C def2-TZVP/JK TIGHTSCF
|  2> % maxcore 2000
|  3> % mp2 density relaxed end
|  4> *xyz 0 1
|  5>  O        0.0188557098     1.3500128874    -0.2366288832
|  6>  C       -0.0029119836    -0.0457683196    -0.0320015163
|  7>  C        0.2764597508    -0.4809816562     1.4361644104
|  8>  C       -1.2583350673    -0.4972395013     1.6700484668
|  9>  O       -1.7459848638     0.7886577909     2.0496193442
| 10>  C       -1.4402899334    -0.6481806573     0.1346725378
| 11>  C       -2.6391538740     0.0105976817    -0.5506436635
| 12>  C       -2.4799778825     0.0077039045    -2.0550766927
| 13>  O       -3.1969918772    -0.5882646391    -2.8190327334
| 14>  H       -0.5049182102     1.7417600874     0.4751294634
| 15>  H        0.6282261891    -0.4795483565    -0.8105092201
| 16>  H        0.7137188582    -1.4814417931     1.4977579142
| 17>  H        0.8640774940     0.2112387089     2.0456733547
| 18>  H       -1.6819071602    -1.2786679488     2.3119611725
| 19>  H       -1.4675667319     0.9587191915     2.9557474334
| 20>  H       -1.4055839266    -1.7141520175    -0.1138297688
| 21>  H       -3.5681116817    -0.5063524262    -0.2927089113
| 22>  H       -2.7160689317     1.0511213176    -0.2166990054
| 23>  H       -1.6205648778     0.6107109857    -2.4222619126
| 24> *
| 25>
| 26>                          ****END OF INPUT****

CARTESIAN COORDINATES (ANGSTROEM)
---------------------------------
  O      0.018856    1.350013   -0.236629
  C     -0.002912   -0.045768   -0.032002
  C      0.276460   -0.480982    1.436164
  C     -1.258335   -0.497240    1.670048
  O     -1.745985    0.788658    2.049619
  C     -1.440290   -0.648181    0.134673
  C     -2.639154    0.010598   -0.550644
  C     -2.479978    0.007704   -2.055077
  O     -3.196992   -0.588265   -2.819033
  H     -0.504918    1.741760    0.475129
  H      0.628226   -0.479548   -0.810509
  H      0.713719   -1.481442    1.497758
  H      0.864077    0.211239    2.045673
  H     -1.681907   -1.278668    2.311961
  H     -1.467567    0.958719    2.955747
  H     -1.405584   -1.714152   -0.113830
  H     -3.568112   -0.506352   -0.292709
  H     -2.716069    1.051121   -0.216699
  H     -1.620565    0.610711   -2.422262

 Total Charge           Charge          ....    0
 Multiplicity           Mult            ....    1
 Number of Electrons    NEL             ....   70
 Basis Dimension        Dim             ....  339

ORBITAL ENERGIES
----------------

  NO   OCC          E(Eh)            E(eV)
   0   2.0000     -20.584723      -560.1388
   1   2.0000     -20.561141      -559.4971
   2   2.0000     -20.549032      -559.1676
   3   2.0000     -11.322814      -308.1094
   4   2.0000     -11.303233      -307.5766
   5   2.0000     -11.293955      -307.3241
   6   2.0000     -11.249067      -306.1027
   7   2.0000     -11.239274      -305.8362
   8   2.0000     -11.235650      -305.7376
   9   2.0000      -1.394770       -37.9536
  10   2.0000      -1.387057       -37.7437
  11   2.0000      -1.367809       -37.2200
  12   2.0000      -1.134230       -30.8640
  13   2.0000      -1.031219       -28.0609
  14   2.0000      -0.901095       -24.5200
  15   2.0000      -0.890226       -24.2243
  16   2.0000      -0.797905       -21.7121
  17   2.0000      -0.772866       -21.0307
  18   2.0000      -0.742568       -20.2063
  19   2.0000      -0.681508       -18.5448
  20   2.0000      -0.665756       -18.1161
  21   2.0000      -0.649080       -17.6624
  22   2.0000      -0.630727       -17.1630
  23   2.0000      -0.610058       -16.6005
  24   2.0000      -0.600172       -16.3315
  25   2.0000      -0.594138       -16.1673
  26   2.0000      -0.551138       -14.9972
  27   2.0000      -0.548391       -14.9225
  28   2.0000      -0.536288       -14.5932
  29   2.0000      -0.520427       -14.1615
  30   2.0000      -0.493484       -13.4284
  31   2.0000      -0.468518       -12.7490
  32   2.0000      -0.435725       -11.8567
  33   2.0000      -0.421123       -11.4593
  34   2.0000      -0.407274       -11.0825
  35   0.0000       0.117566         3.1991
  36   0.0000       0.134992         3.6733
  37   0.0000       0.145495         3.9591
  38   0.0000       0.163311         4.4439
  39   0.0000       0.166034         4.5180

MULLIKEN ATOMIC CHARGES
-----------------------
   0 O :   -0.473540
   1 C :    0.061984
   2 C :   -0.237322
   3 C :   -0.003526
   4 O :   -0.478623
   5 C :   -0.132389
   6 C :   -0.167473
   7 C :    0.091290
   8 O :   -0.270128
   9 H :    0.327068
  10 H :    0.126553
  11 H :    0.121553
  12 H :    0.125630
  13 H :    0.108636
  14 H :    0.325054
  15 H :    0.123524
  16 H :    0.123254
  17 H :    0.127557
  18 H :    0.100899
Sum of atomic charges:    0.0000000

LOEWDIN ATOMIC CHARGES
----------------------
   0 O :   -0.010029
   1 C :   -0.302265
   2 C :   -0.220622
   3 C :   -0.297529
   4 O :   -0.021746
   5 C :   -0.203674
   6 C :   -0.243001
   7 C :   -0.289721
   8 O :    0.125585
   9 H :    0.174930
  10 H :    0.132858
  11 H :    0.141364
  12 H :    0.129774
  13 H :    0.123082
  14 H :    0.178805
  15 H :    0.163019
  16 H :    0.148361
  17 H :    0.153981
  18 H :    0.116829

  Mayer bond orders larger than 0.1
B(  0-O ,  1-C ) :   0.9493 B(  0-O ,  9-H ) :   0.8201 B(  1-C ,  2-C ) :   0.9176
B(  1-C ,  5-C ) :   0.9092 B(  1-C , 10-H ) :   0.9310 B(  2-C ,  3-C ) :   0.9296
B(  2-C , 11-H ) :   0.9136 B(  2-C , 12-H ) :   0.9193 B(  3-C ,  4-O ) :   1.0169
B(  3-C ,  5-C ) :   0.8696 B(  3-C , 13-H ) :   0.9338 B(  4-O , 14-H ) :   0.8378
B(  5-C ,  6-C ) :   0.9079 B(  5-C , 15-H ) :   0.9082 B(  6-C ,  7-C ) :   0.8765
B(  6-C , 16-H ) :   0.9145 B(  6-C , 17-H ) :   0.9013 B(  7-C ,  8-O ) :   1.9898
B(  7-C , 18-H ) :   0.9334

MP2 TOTAL ENERGY:     -459.422303370 Eh
FINAL SINGLE POINT ENERGY      -459.422303369699

DIPOLE MOMENT
-------------
                                X             Y             Z
Electronic contribution:     -2.27009       0.90133      -3.53428
Nuclear contribution   :      2.88818      -1.10196       5.32428
                        -----------------------------------------
Total Dipole Moment    :      0.61808      -0.20063       1.79000
                        -----------------------------------------
Magnitude (a.u.)       :      1.90431
Magnitude (Debye)      :      4.84037

                             ****ORCA TERMINATED NORMALLY****
TOTAL RUN TIME: 0 days 0 hours 17 minutes 13 seconds 635 msec
