                         Program Version 3.0.3 - RELEASE   -
|  1> ! RI-MP2 RIJK def2-TZVP def2-TZVP/C def2-TZVP/JK TIGHTSCF
|  2> % maxcore 2000
|  3> % mp2 density relaxed end
|  4> *xyz 0 1
|  5>  N        0.0882356242     1.4041403784     0.0973335592
|  6>  C       -0.0002406826     0.0222344929     0.0191552897
|  7>  C       -1.1267578982    -0.7970455815    -0.0181388027
|  8>  N       -2.4510995597    -0.3079149585    -0.0703114398
|  9>  N       -0.7644817265    -2.1010384527    -0.0424914311
| 10>  C        0.5614882955    -2.1222261117    -0.0161855694
| 11>  N        1.0602599525    -0.8265402804     0.0407624267
| 12>  C        1.4592533358    -3.2605539711    -0.0478648656
| 13>  O        1.1380333333    -4.4265295642    -0.1062971206
| 14>  H        0.7966101435     1.8122367973    -0.5016278378
| 15>  H       -0.8163616543     1.8136924979    -0.1100584697
| 16>  H       -2.8384358312    -0.1773552665     0.8607993649
| 17>  H       -3.0431680826    -0.9855376193    -0.5402814010
| 18>  H        2.0312445068    -0.5679145007     0.1135966938
| 19>  H        2.5358903734    -2.9588240298    -0.0089251366
| 20> *
| 21>
| 22>                          ****END OF INPUT****

CARTESIAN COORDINATES (ANGSTROEM)
---------------------------------
  N      0.088236    1.404140    0.097334
  C     -0.000241    0.022234    0.019155
  C     -1.126758   -0.797046   -0.018139
  N     -2.451100   -0.307915   -0.070311
  N     -0.764482   -2.101038   -0.042491
  C      0.561488   -2.122226   -0.016186
  N      1.060260   -0.826540    0.040762
  C      1.459253   -3.260554   -0.047865
  O      1.138033   -4.426530   -0.106297
  H      0.796610    1.812237   -0.501628
  H     -0.816362    1.813692   -0.110058
  H     -2.838436   -0.177355    0.860799
  H     -3.043168   -0.985538   -0.540281
  H      2.031245   -0.567915    0.113597
  H      2.535890   -2.958824   -0.008925

 Total Charge           Charge          ....    0
 Multiplicity           Mult            ....    1
 Number of Electrons    NEL             ....   66
 Basis Dimension        Dim             ....  315

ORBITAL ENERGIES
----------------

  NO   OCC          E(Eh)            E(eV)
   0   2.0000     -20.547175      -559.1171
   1   2.0000     -15.639872      -425.5826
   2   2.0000     -15.591834      -424.2754
   3   2.0000     -15.569696      -423.6730
   4   2.0000     -15.562690      -423.4823
   5   2.0000     -11.335671      -308.4593
   6   2.0000     -11.320284      -308.0406
   7   2.0000     -11.296893      -307.4041
   8   2.0000     -11.279677      -306.9356
   9   2.0000      -1.387142       -37.7460
  10   2.0000      -1.364241       -37.1229
  11   2.0000      -1.236345       -33.6426
  12   2.0000      -1.219008       -33.1709
  13   2.0000      -1.153355       -31.3844
  14   2.0000      -1.012145       -27.5419
  15   2.0000      -0.898616       -24.4526
  16   2.0000      -0.821749       -22.3609
  17   2.0000      -0.798326       -21.7235
  18   2.0000      -0.748611       -20.3707
  19   2.0000      -0.697991       -18.9933
  20   2.0000      -0.675566       -18.3831
  21   2.0000      -0.666087       -18.1251
  22   2.0000      -0.644726       -17.5439
  23   2.0000      -0.625225       -17.0132
  24   2.0000      -0.617388       -16.8000
  25   2.0000      -0.607903       -16.5419
  26   2.0000      -0.534881       -14.5548
  27   2.0000      -0.490561       -13.3488
  28   2.0000      -0.462050       -12.5730
  29   2.0000      -0.455186       -12.3862
  30   2.0000      -0.428955       -11.6725
  31   2.0000      -0.405121       -11.0239
  32   2.0000      -0.289554        -7.8792
  33   0.0000       0.079965         2.1759
  34   0.0000       0.106423         2.8959
  35   0.0000       0.130055         3.5390
  36   0.0000       0.148980         4.0539
  37   0.0000       0.191821         5.2197

MULLIKEN ATOMIC CHARGES
-----------------------
   0 N :   -0.520760
   1 C :    0.166827
   2 C :    0.147058
   3 N :   -0.570601
   4 N :   -0.252132
   5 C :    0.258519
   6 N :   -0.292664
   7 C :   -0.016387
   8 O :   -0.267391
   9 H :    0.252342
  10 H :    0.274485
  11 H :    0.255542
  12 H :    0.262263
  13 H :    0.252597
  14 H :    0.050302
Sum of atomic charges:   -0.0000000

LOEWDIN ATOMIC CHARGES
----------------------
   0 N :   -0.079122
   1 C :   -0.308276
   2 C :   -0.351511
   3 N :   -0.118079
   4 N :    0.149987
   5 C :   -0.329080
   6 N :    0.224377
   7 C :   -0.316102
   8 O :    0.126929
   9 H :    0.170308
  10 H :    0.183920
  11 H :    0.168853
  12 H :    0.173120
  13 H :    0.197660
  14 H :    0.107018

  Mayer bond orders larger than 0.1
B(  0-N ,  1-C ) :   1.0647 B(  0-N ,  9-H ) :   0.8688 B(  0-N , 10-H ) :   0.8634
B(  1-C ,  2-C ) :   1.3726 B(  1-C ,  6-N ) :   1.2029 B(  2-C ,  3-N ) :   1.0792
B(  2-C ,  4-N ) :   1.3534 B(  3-N , 11-H ) :   0.8772 B(  3-N , 12-H ) :   0.8816
B(  4-N ,  5-C ) :   1.4555 B(  5-C ,  6-N ) :   1.0541 B(  5-C ,  7-C ) :   0.8199
B(  5-C ,  8-O ) :  -0.1200 B(  5-C , 14-H ) :  -0.1475 B(  6-N , 13-H ) :   0.8593
B(  7-C ,  8-O ) :   2.0374 B(  7-C , 14-H ) :   1.0171

MP2 TOTAL ENERGY:     -449.432778942 Eh
FINAL SINGLE POINT ENERGY      -449.432778942359

DIPOLE MOMENT
-------------
                                X             Y             Z
Electronic contribution:      1.73778      -4.30806       0.00093
Nuclear contribution   :     -1.18535       6.63125      -0.07346
                        -----------------------------------------
Total Dipole Moment    :      0.55243       2.32318      -0.07253
                        -----------------------------------------
Magnitude (a.u.)       :      2.38906
Magnitude (Debye)      :      6.07252

                             ****ORCA TERMINATED NORMALLY****
TOTAL RUN TIME: 0 days 0 hours 14 minutes 33 seconds 715 msec
