                         Program Version 3.0.3 - RELEASE   -
|  1> ! RI-MP2 RIJK def2-TZVP def2-TZVP/C def2-TZVP/JK TIGHTSCF
|  2> % maxcore 2000
|  3> % mp2 density relaxed end
|  4> *xyz 0 1
|  5>  C        0.0439319948    -1.2283887880    -0.0848078705
|  6>  C        0.0034880780    -0.0282484238    -0.0621021224
|  7>  C       -0.0443098795     1.4286591554    -0.0062449318
|  8>  N        1.2885614381     2.0050861601     0.0964293621
|  9>  C        2.0900393298     1.7782558356     1.3188204367
| 10>  C        2.6167320662     3.2279520489     1.1971282583
| 11>  C        1.3906566767     3.4662621258     0.2694988126
| 12>  C        1.5650745683     4.2405472375    -0.9586975023
| 13>  N        1.7051917538     4.8627214144    -1.9224708168
| 14>  H        0.0764179422    -2.2894510158    -0.1178361390
| 15>  H       -0.5127343627     1.8202082906    -0.9183590273
| 16>  H       -0.6906151420     1.7358926950     0.8403955621
| 17>  H        1.4724359773     1.6364396584     2.2196754608
| 18>  H        2.8075291832     0.9582646238     1.2450137905
| 19>  H        2.6596983161     3.8317457464     2.1021798700
| 20>  H        3.5591415710     3.2961299359     0.6543163618
| 21>  H        0.5461577888     3.8965439597     0.8343762552
| 22> *
| 23>
| 24>                          ****END OF INPUT****

CARTESIAN COORDINATES (ANGSTROEM)
---------------------------------
  C      0.043932   -1.228389   -0.084808
  C      0.003488   -0.028248   -0.062102
  C     -0.044310    1.428659   -0.006245
  N      1.288561    2.005086    0.096429
  C      2.090039    1.778256    1.318820
  C      2.616732    3.227952    1.197128
  C      1.390657    3.466262    0.269499
  C      1.565075    4.240547   -0.958698
  N      1.705192    4.862721   -1.922471
  H      0.076418   -2.289451   -0.117836
  H     -0.512734    1.820208   -0.918359
  H     -0.690615    1.735893    0.840396
  H      1.472436    1.636440    2.219675
  H      2.807529    0.958265    1.245014
  H      2.659698    3.831746    2.102180
  H      3.559142    3.296130    0.654316
  H      0.546158    3.896544    0.834376

 Total Charge           Charge          ....    0
 Multiplicity           Mult            ....    1
 Number of Electrons    NEL             ....   64
 Basis Dimension        Dim             ....  327

ORBITAL ENERGIES
----------------

  NO   OCC          E(Eh)            E(eV)
   0   2.0000     -15.583423      -424.0465
   1   2.0000     -15.573795      -423.7845
   2   2.0000     -11.319518      -308.0197
   3   2.0000     -11.297618      -307.4238
   4   2.0000     -11.277612      -306.8794
   5   2.0000     -11.273027      -306.7547
   6   2.0000     -11.260461      -306.4127
   7   2.0000     -11.244477      -305.9778
   8   2.0000     -11.234733      -305.7126
   9   2.0000      -1.292151       -35.1612
  10   2.0000      -1.217302       -33.1245
  11   2.0000      -1.094492       -29.7826
  12   2.0000      -1.019886       -27.7525
  13   2.0000      -0.985291       -26.8111
  14   2.0000      -0.922684       -25.1075
  15   2.0000      -0.818006       -22.2591
  16   2.0000      -0.743784       -20.2394
  17   2.0000      -0.733975       -19.9725
  18   2.0000      -0.699693       -19.0396
  19   2.0000      -0.665939       -18.1211
  20   2.0000      -0.633221       -17.2308
  21   2.0000      -0.611147       -16.6301
  22   2.0000      -0.569954       -15.5092
  23   2.0000      -0.563682       -15.3386
  24   2.0000      -0.545583       -14.8461
  25   2.0000      -0.522366       -14.2143
  26   2.0000      -0.508479       -13.8364
  27   2.0000      -0.464951       -12.6519
  28   2.0000      -0.453538       -12.3414
  29   2.0000      -0.409128       -11.1329
  30   2.0000      -0.403430       -10.9779
  31   2.0000      -0.390045       -10.6137
  32   0.0000       0.117530         3.1982
  33   0.0000       0.131235         3.5711
  34   0.0000       0.152190         4.1413
  35   0.0000       0.161158         4.3853
  36   0.0000       0.161569         4.3965

MULLIKEN ATOMIC CHARGES
-----------------------
   0 C :   -0.098476
   1 C :   -0.030640
   2 C :   -0.323290
   3 N :   -0.127587
   4 C :   -0.169804
   5 C :   -0.208142
   6 C :    0.092531
   7 C :   -0.209095
   8 N :   -0.049346
   9 H :    0.195394
  10 H :    0.158476
  11 H :    0.130118
  12 H :    0.109110
  13 H :    0.134446
  14 H :    0.138195
  15 H :    0.141714
  16 H :    0.116396
Sum of atomic charges:    0.0000000

LOEWDIN ATOMIC CHARGES
----------------------
   0 C :   -0.087976
   1 C :   -0.104777
   2 C :   -0.277033
   3 N :    0.129857
   4 C :   -0.238203
   5 C :   -0.191769
   6 C :   -0.247366
   7 C :   -0.166867
   8 N :    0.069716
   9 H :    0.128637
  10 H :    0.158609
  11 H :    0.139824
  12 H :    0.125081
  13 H :    0.127041
  14 H :    0.131615
  15 H :    0.144584
  16 H :    0.159027

  Mayer bond orders larger than 0.1
B(  0-C ,  1-C ) :   2.6212 B(  0-C ,  2-C ) :  -0.1104 B(  0-C ,  9-H ) :   0.8946
B(  1-C ,  2-C ) :   1.1059 B(  2-C ,  3-N ) :   0.9478 B(  2-C , 10-H ) :   0.8964
B(  2-C , 11-H ) :   0.9380 B(  3-N ,  4-C ) :   0.9101 B(  3-N ,  6-C ) :   0.9169
B(  4-C ,  5-C ) :   0.9357 B(  4-C , 12-H ) :   0.9228 B(  4-C , 13-H ) :   0.9227
B(  5-C ,  6-C ) :   0.9030 B(  5-C , 14-H ) :   0.9297 B(  5-C , 15-H ) :   0.9173
B(  6-C ,  7-C ) :   0.9248 B(  6-C , 16-H ) :   0.9042 B(  7-C ,  8-N ) :   2.8762

MP2 TOTAL ENERGY:     -380.130437541 Eh
FINAL SINGLE POINT ENERGY      -380.130437540600

DIPOLE MOMENT
-------------
                                X             Y             Z
Electronic contribution:     -0.52225       1.95373      -4.76910
Nuclear contribution   :      0.31311      -2.63439       6.33560
                        -----------------------------------------
Total Dipole Moment    :     -0.20914      -0.68066       1.56650
                        -----------------------------------------
Magnitude (a.u.)       :      1.72075
Magnitude (Debye)      :      4.37379

                             ****ORCA TERMINATED NORMALLY****
TOTAL RUN TIME: 0 days 0 hours 15 minutes 35 seconds 63 msec
