                         Program Version 3.0.3 - RELEASE   -
|  1> ! RI-MP2 RIJK def2-TZVP def2-TZVP/C def2-TZVP/JK TIGHTSCF
|  2> % maxcore 2000
|  3> % mp2 density relaxed end
|  4> *xyz 0 1
|  5>  O        0.4414802429    -0.1132541113     0.3358160811
|  6>  C        0.2483779774     0.9230507946    -0.2404418044
|  7>  C        0.9815026768     2.2180337726     0.0902494244
|  8>  C        1.3482325484     2.9896912184    -1.1702021457
|  9>  O        0.5353301282     3.1594522101    -2.0578613022
| 10>  C        2.7407368081     3.5149412596    -1.2845454863
| 11>  C        3.4648745527     3.1811750560    -2.5597770415
| 12>  N        2.9941091510     4.5330867860    -2.3117061906
| 13>  H       -0.4872949654     1.0189528095    -1.0641951604
| 14>  H        0.2749310790     2.8469593699     0.6512302331
| 15>  H        1.8359430739     2.0050627282     0.7356940651
| 16>  H        3.3102347527     3.6150100321    -0.3657873492
| 17>  H        4.5410658847     3.0412948509    -2.5205503652
| 18>  H        2.9321589572     2.5642598751    -3.2780623118
| 19>  H        2.1142611725     4.6696136784    -2.8117803464
| 20> *
| 21>
| 22>                          ****END OF INPUT****

CARTESIAN COORDINATES (ANGSTROEM)
---------------------------------
  O      0.441480   -0.113254    0.335816
  C      0.248378    0.923051   -0.240442
  C      0.981503    2.218034    0.090249
  C      1.348233    2.989691   -1.170202
  O      0.535330    3.159452   -2.057861
  C      2.740737    3.514941   -1.284545
  C      3.464875    3.181175   -2.559777
  N      2.994109    4.533087   -2.311706
  H     -0.487295    1.018953   -1.064195
  H      0.274931    2.846959    0.651230
  H      1.835943    2.005063    0.735694
  H      3.310235    3.615010   -0.365787
  H      4.541066    3.041295   -2.520550
  H      2.932159    2.564260   -3.278062
  H      2.114261    4.669614   -2.811780

 Total Charge           Charge          ....    0
 Multiplicity           Mult            ....    1
 Number of Electrons    NEL             ....   60
 Basis Dimension        Dim             ....  290

ORBITAL ENERGIES
----------------

  NO   OCC          E(Eh)            E(eV)
   0   2.0000     -20.571918      -559.7904
   1   2.0000     -20.570910      -559.7629
   2   2.0000     -15.582324      -424.0166
   3   2.0000     -11.363261      -309.2101
   4   2.0000     -11.348788      -308.8162
   5   2.0000     -11.286872      -307.1314
   6   2.0000     -11.285931      -307.1058
   7   2.0000     -11.270289      -306.6802
   8   2.0000      -1.419674       -38.6313
   9   2.0000      -1.411032       -38.3961
  10   2.0000      -1.287850       -35.0442
  11   2.0000      -1.072829       -29.1931
  12   2.0000      -0.950527       -25.8652
  13   2.0000      -0.895205       -24.3598
  14   2.0000      -0.820328       -22.3223
  15   2.0000      -0.777443       -21.1553
  16   2.0000      -0.732592       -19.9348
  17   2.0000      -0.689183       -18.7536
  18   2.0000      -0.668256       -18.1842
  19   2.0000      -0.653399       -17.7799
  20   2.0000      -0.639768       -17.4090
  21   2.0000      -0.608701       -16.5636
  22   2.0000      -0.582822       -15.8594
  23   2.0000      -0.549468       -14.9518
  24   2.0000      -0.526533       -14.3277
  25   2.0000      -0.513765       -13.9802
  26   2.0000      -0.498341       -13.5605
  27   2.0000      -0.459039       -12.4911
  28   2.0000      -0.425550       -11.5798
  29   2.0000      -0.413445       -11.2504
  30   0.0000       0.097973         2.6660
  31   0.0000       0.120545         3.2802
  32   0.0000       0.139112         3.7854
  33   0.0000       0.158616         4.3162
  34   0.0000       0.165175         4.4947

MULLIKEN ATOMIC CHARGES
-----------------------
   0 O :   -0.254936
   1 C :    0.079971
   2 C :   -0.176273
   3 C :    0.179556
   4 O :   -0.327494
   5 C :   -0.087969
   6 C :   -0.151277
   7 N :   -0.349608
   8 H :    0.115058
   9 H :    0.157312
  10 H :    0.140737
  11 H :    0.149093
  12 H :    0.137459
  13 H :    0.145796
  14 H :    0.242577
Sum of atomic charges:    0.0000000

LOEWDIN ATOMIC CHARGES
----------------------
   0 O :    0.140986
   1 C :   -0.281705
   2 C :   -0.224584
   3 C :   -0.324110
   4 O :    0.142213
   5 C :   -0.254868
   6 C :   -0.241662
   7 N :    0.011817
   8 H :    0.120868
   9 H :    0.174306
  10 H :    0.152303
  11 H :    0.148732
  12 H :    0.128915
  13 H :    0.129654
  14 H :    0.177135

  Mayer bond orders larger than 0.1
B(  0-O ,  1-C ) :   1.9949 B(  1-C ,  2-C ) :   0.8727 B(  1-C ,  8-H ) :   0.9292
B(  2-C ,  3-C ) :   0.8806 B(  2-C ,  9-H ) :   0.8842 B(  2-C , 10-H ) :   0.9091
B(  3-C ,  4-O ) :   1.8665 B(  3-C ,  5-C ) :   0.9528 B(  5-C ,  6-C ) :   0.8999
B(  5-C ,  7-N ) :   0.9405 B(  5-C , 11-H ) :   0.8973 B(  6-C ,  7-N ) :   0.9267
B(  6-C , 12-H ) :   0.9227 B(  6-C , 13-H ) :   0.9127 B(  7-N , 14-H ) :   0.8604

MP2 TOTAL ENERGY:     -399.137106053 Eh
FINAL SINGLE POINT ENERGY      -399.137106052899

DIPOLE MOMENT
-------------
                                X             Y             Z
Electronic contribution:     -2.96168      -1.62434       0.66294
Nuclear contribution   :      3.28223       1.90380      -0.52875
                        -----------------------------------------
Total Dipole Moment    :      0.32055       0.27946       0.13419
                        -----------------------------------------
Magnitude (a.u.)       :      0.44593
Magnitude (Debye)      :      1.13347

                             ****ORCA TERMINATED NORMALLY****
TOTAL RUN TIME: 0 days 0 hours 9 minutes 47 seconds 132 msec
