                         Program Version 3.0.3 - RELEASE   -
|  1> ! RI-MP2 RIJK def2-TZVP def2-TZVP/C def2-TZVP/JK TIGHTSCF
|  2> % maxcore 2000
|  3> % mp2 density relaxed end
|  4> *xyz 0 1
|  5>  O        0.0321170886     0.0503006786    -0.0428706518
|  6>  C        0.0277811724     1.2496786755    -0.0029214200
|  7>  C       -1.1686715509     2.2341192231     0.0335431457
|  8>  N       -0.4613050503     3.5453680344     0.0750038092
|  9>  C        0.6192732126     3.2985525915    -0.9639721448
| 10>  C        1.1877306032     2.2387955031     0.0264090752
| 11>  C        0.6256260383     3.2302309648     1.0885658299
| 12>  H       -1.7995338468     2.1514760322    -0.8558635780
| 13>  H       -1.7940484607     2.0923841952     0.9193629074
| 14>  H        0.2595707074     2.9748270257    -1.9445943718
| 15>  H        1.2539293331     4.1815633084    -1.0652374319
| 16>  H        2.1977342587     1.8339477030     0.0098071714
| 17>  H        1.2610782190     4.1046836435     1.2443992319
| 18>  H        0.2719272853     2.8419381912     2.0476955976
| 19> *
| 20>
| 21>                          ****END OF INPUT****

CARTESIAN COORDINATES (ANGSTROEM)
---------------------------------
  O      0.032117    0.050301   -0.042871
  C      0.027781    1.249679   -0.002921
  C     -1.168672    2.234119    0.033543
  N     -0.461305    3.545368    0.075004
  C      0.619273    3.298553   -0.963972
  C      1.187731    2.238796    0.026409
  C      0.625626    3.230231    1.088566
  H     -1.799534    2.151476   -0.855864
  H     -1.794048    2.092384    0.919363
  H      0.259571    2.974827   -1.944594
  H      1.253929    4.181563   -1.065237
  H      2.197734    1.833948    0.009807
  H      1.261078    4.104684    1.244399
  H      0.271927    2.841938    2.047696

 Total Charge           Charge          ....    0
 Multiplicity           Mult            ....    1
 Number of Electrons    NEL             ....   52
 Basis Dimension        Dim             ....  259

ORBITAL ENERGIES
----------------

  NO   OCC          E(Eh)            E(eV)
   0   2.0000     -20.553114      -559.2787
   1   2.0000     -15.578287      -423.9067
   2   2.0000     -11.335509      -308.4549
   3   2.0000     -11.279713      -306.9366
   4   2.0000     -11.279700      -306.9363
   5   2.0000     -11.268534      -306.6324
   6   2.0000     -11.257775      -306.3396
   7   2.0000      -1.398067       -38.0433
   8   2.0000      -1.294333       -35.2206
   9   2.0000      -1.018414       -27.7124
  10   2.0000      -0.978723       -26.6324
  11   2.0000      -0.937511       -25.5110
  12   2.0000      -0.803744       -21.8710
  13   2.0000      -0.740163       -20.1409
  14   2.0000      -0.689177       -18.7535
  15   2.0000      -0.678031       -18.4502
  16   2.0000      -0.646591       -17.5946
  17   2.0000      -0.593000       -16.1363
  18   2.0000      -0.571624       -15.5547
  19   2.0000      -0.566628       -15.4187
  20   2.0000      -0.544345       -14.8124
  21   2.0000      -0.520659       -14.1679
  22   2.0000      -0.487884       -13.2760
  23   2.0000      -0.472758       -12.8644
  24   2.0000      -0.447036       -12.1645
  25   2.0000      -0.368339       -10.0230
  26   0.0000       0.135736         3.6936
  27   0.0000       0.145259         3.9527
  28   0.0000       0.161492         4.3944
  29   0.0000       0.166973         4.5436
  30   0.0000       0.172462         4.6929

MULLIKEN ATOMIC CHARGES
-----------------------
   0 O :   -0.260565
   1 C :    0.067057
   2 C :   -0.154748
   3 N :   -0.176289
   4 C :   -0.221105
   5 C :    0.001394
   6 C :   -0.221105
   7 H :    0.144667
   8 H :    0.144667
   9 H :    0.134064
  10 H :    0.132720
  11 H :    0.142458
  12 H :    0.132720
  13 H :    0.134064
Sum of atomic charges:   -0.0000000

LOEWDIN ATOMIC CHARGES
----------------------
   0 O :    0.155528
   1 C :   -0.315500
   2 C :   -0.246288
   3 N :    0.079775
   4 C :   -0.215828
   5 C :   -0.193140
   6 C :   -0.215828
   7 H :    0.141949
   8 H :    0.141949
   9 H :    0.128162
  10 H :    0.135977
  11 H :    0.139104
  12 H :    0.135977
  13 H :    0.128162

  Mayer bond orders larger than 0.1
B(  0-O ,  1-C ) :   2.0325 B(  1-C ,  2-C ) :   0.8902 B(  1-C ,  5-C ) :   0.8349
B(  2-C ,  3-N ) :   0.9128 B(  2-C ,  5-C ) :  -0.1210 B(  2-C ,  7-H ) :   0.9153
B(  2-C ,  8-H ) :   0.9153 B(  3-N ,  4-C ) :   0.9096 B(  3-N ,  6-C ) :   0.9096
B(  4-C ,  5-C ) :   0.8977 B(  4-C ,  9-H ) :   0.9264 B(  4-C , 10-H ) :   0.9198
B(  5-C ,  6-C ) :   0.8977 B(  5-C , 11-H ) :   0.9000 B(  6-C , 12-H ) :   0.9198
B(  6-C , 13-H ) :   0.9264

MP2 TOTAL ENERGY:     -324.004975609 Eh
FINAL SINGLE POINT ENERGY      -324.004975609022

DIPOLE MOMENT
-------------
                                X             Y             Z
Electronic contribution:     -0.36681      -3.49745      -0.11528
Nuclear contribution   :      0.78471       4.16914       0.13634
                        -----------------------------------------
Total Dipole Moment    :      0.41790       0.67169       0.02107
                        -----------------------------------------
Magnitude (a.u.)       :      0.79136
Magnitude (Debye)      :      2.01147

                             ****ORCA TERMINATED NORMALLY****
TOTAL RUN TIME: 0 days 0 hours 8 minutes 23 seconds 750 msec
