                         Program Version 3.0.3 - RELEASE   -
|  1> ! RI-MP2 RIJK def2-TZVP def2-TZVP/C def2-TZVP/JK TIGHTSCF
|  2> % maxcore 2000
|  3> % mp2 density relaxed end
|  4> *xyz 0 1
|  5>  O       -0.0460638625    -0.0406000427    -0.0130480738
|  6>  C       -0.0528971909     1.1608060205     0.0030257441
|  7>  C       -1.1910460620     2.1259346647     0.0312471053
|  8>  C       -0.7035617481     3.3378209133     0.8369293317
|  9>  C       -0.6722106933     3.3722844364    -0.6602585095
| 10>  N        0.7856209061     3.2416219860    -0.9939317589
| 11>  C        1.3775327812     4.2031682408     0.0276328093
| 12>  C        0.8248445327     3.2243687429     1.0937005690
| 13>  C        1.1125468639     2.1379191235     0.0189812418
| 14>  H       -2.2271379798     1.8204699706    -0.0047452947
| 15>  H       -1.3711741110     3.9172008641     1.4588873133
| 16>  H       -1.2830491057     3.9947416537    -1.2985890861
| 17>  H        2.4670545284     4.2097984398    -0.0547984086
| 18>  H        0.9819305879     5.2220461156    -0.0140161896
| 19>  H        1.1758711003     3.1602361122     2.1239475528
| 20>  H        2.1178050327     1.7401956488    -0.0837257459
| 21> *
| 22>
| 23>                          ****END OF INPUT****

CARTESIAN COORDINATES (ANGSTROEM)
---------------------------------
  O     -0.046064   -0.040600   -0.013048
  C     -0.052897    1.160806    0.003026
  C     -1.191046    2.125935    0.031247
  C     -0.703562    3.337821    0.836929
  C     -0.672211    3.372284   -0.660259
  N      0.785621    3.241622   -0.993932
  C      1.377533    4.203168    0.027633
  C      0.824845    3.224369    1.093701
  C      1.112547    2.137919    0.018981
  H     -2.227138    1.820470   -0.004745
  H     -1.371174    3.917201    1.458887
  H     -1.283049    3.994742   -1.298589
  H      2.467055    4.209798   -0.054798
  H      0.981931    5.222046   -0.014016
  H      1.175871    3.160236    2.123948
  H      2.117805    1.740196   -0.083726

 Total Charge           Charge          ....    0
 Multiplicity           Mult            ....    1
 Number of Electrons    NEL             ....   64
 Basis Dimension        Dim             ....  321

ORBITAL ENERGIES
----------------

  NO   OCC          E(Eh)            E(eV)
   0   2.0000     -20.553002      -559.2756
   1   2.0000     -15.580297      -423.9614
   2   2.0000     -11.334305      -308.4221
   3   2.0000     -11.279695      -306.9361
   4   2.0000     -11.275544      -306.8232
   5   2.0000     -11.271322      -306.7083
   6   2.0000     -11.263757      -306.5024
   7   2.0000     -11.259374      -306.3832
   8   2.0000     -11.254789      -306.2584
   9   2.0000      -1.396762       -38.0078
  10   2.0000      -1.318027       -35.8653
  11   2.0000      -1.130411       -30.7600
  12   2.0000      -1.011013       -27.5111
  13   2.0000      -0.990408       -26.9504
  14   2.0000      -0.881446       -23.9854
  15   2.0000      -0.788297       -21.4507
  16   2.0000      -0.779125       -21.2011
  17   2.0000      -0.763649       -20.7799
  18   2.0000      -0.718010       -19.5381
  19   2.0000      -0.661511       -18.0006
  20   2.0000      -0.630802       -17.1650
  21   2.0000      -0.616412       -16.7734
  22   2.0000      -0.599578       -16.3153
  23   2.0000      -0.588680       -16.0188
  24   2.0000      -0.527379       -14.3507
  25   2.0000      -0.517608       -14.0848
  26   2.0000      -0.507373       -13.8063
  27   2.0000      -0.494404       -13.4534
  28   2.0000      -0.455369       -12.3912
  29   2.0000      -0.428252       -11.6533
  30   2.0000      -0.404099       -10.9961
  31   2.0000      -0.377714       -10.2781
  32   0.0000       0.126116         3.4318
  33   0.0000       0.138880         3.7791
  34   0.0000       0.161282         4.3887
  35   0.0000       0.162449         4.4205
  36   0.0000       0.178157         4.8479

MULLIKEN ATOMIC CHARGES
-----------------------
   0 O :   -0.253579
   1 C :    0.112407
   2 C :   -0.179916
   3 C :   -0.196394
   4 C :   -0.032539
   5 N :   -0.186768
   6 C :   -0.179873
   7 C :   -0.029054
   8 C :   -0.034492
   9 H :    0.150629
  10 H :    0.150317
  11 H :    0.146626
  12 H :    0.127965
  13 H :    0.124729
  14 H :    0.135289
  15 H :    0.144653
Sum of atomic charges:   -0.0000000

LOEWDIN ATOMIC CHARGES
----------------------
   0 O :    0.168075
   1 C :   -0.284466
   2 C :   -0.129920
   3 C :   -0.144758
   4 C :   -0.184210
   5 N :    0.131660
   6 C :   -0.216821
   7 C :   -0.166134
   8 C :   -0.161281
   9 H :    0.153631
  10 H :    0.145921
  11 H :    0.143017
  12 H :    0.132823
  13 H :    0.124586
  14 H :    0.137381
  15 H :    0.150498

  Mayer bond orders larger than 0.1
B(  0-O ,  1-C ) :   2.0487 B(  1-C ,  2-C ) :   0.9540 B(  1-C ,  8-C ) :   0.8732
B(  2-C ,  3-C ) :   0.8296 B(  2-C ,  4-C ) :   0.8533 B(  2-C ,  8-C ) :  -0.1341
B(  2-C ,  9-H ) :   0.9183 B(  3-C ,  4-C ) :   0.8547 B(  3-C ,  7-C ) :   0.8833
B(  3-C , 10-H ) :   0.9199 B(  4-C ,  5-N ) :   0.9071 B(  4-C , 11-H ) :   0.9344
B(  5-N ,  6-C ) :   0.9112 B(  5-N ,  8-C ) :   0.9177 B(  6-C ,  7-C ) :   0.9372
B(  6-C , 12-H ) :   0.9235 B(  6-C , 13-H ) :   0.9223 B(  7-C ,  8-C ) :   0.9114
B(  7-C , 14-H ) :   0.9132 B(  8-C , 15-H ) :   0.9042

MP2 TOTAL ENERGY:     -400.027166818 Eh
FINAL SINGLE POINT ENERGY      -400.027166818166

DIPOLE MOMENT
-------------
                                X             Y             Z
Electronic contribution:     -0.80717      -4.78114      -1.08023
Nuclear contribution   :      0.63543       6.06399       1.75905
                        -----------------------------------------
Total Dipole Moment    :     -0.17174       1.28284       0.67882
                        -----------------------------------------
Magnitude (a.u.)       :      1.46150
Magnitude (Debye)      :      3.71483

                             ****ORCA TERMINATED NORMALLY****
TOTAL RUN TIME: 0 days 0 hours 17 minutes 22 seconds 961 msec
