                         Program Version 3.0.3 - RELEASE   -
|  1> ! RI-MP2 RIJK def2-TZVP def2-TZVP/C def2-TZVP/JK TIGHTSCF
|  2> % maxcore 2000
|  3> % mp2 density relaxed end
|  4> *xyz 0 1
|  5>  C       -0.1502554025     1.5323861779    -0.0397978968
|  6>  C        0.1199055585     0.0235414165    -0.0490921877
|  7>  C        0.7502087414    -0.4949165061     1.2404956581
|  8>  O        2.0346188232     0.0653161284     1.4734740587
|  9>  C       -0.1336263385    -0.5005780415     2.5521596343
| 10>  C        0.0793530718    -2.0126037082     2.6311847672
| 11>  N       -0.4826843273    -2.5636952833     1.3679044192
| 12>  C        0.9012153944    -2.0276796146     1.3912586265
| 13>  C        2.0932218920    -2.8317429865     0.9788879552
| 14>  H        0.7756997402     2.1126631376     0.0519546421
| 15>  H       -0.6307630785     1.8492786577    -0.9700417018
| 16>  H       -0.8104714347     1.8180598269     0.7867384759
| 17>  H       -0.8125329508    -0.5250333119    -0.2094572350
| 18>  H        0.7903668565    -0.2236120677    -0.8819506482
| 19>  H        1.9300206508     1.0162379245     1.5801998890
| 20>  H        0.3682029218     0.0494287769     3.3510328130
| 21>  H       -1.1746219014    -0.1790012533     2.4614191436
| 22>  H        0.1488115181    -2.6320139622     3.5176933851
| 23>  H       -0.4007548464    -3.5793213888     1.4210900603
| 24>  H        2.1196891284    -2.9806304403    -0.1071833469
| 25>  H        3.0135919624    -2.3195870450     1.2710625142
| 26>  H        2.0809926704    -3.8199550069     1.4522438340
| 27> *
| 28>
| 29>                          ****END OF INPUT****

CARTESIAN COORDINATES (ANGSTROEM)
---------------------------------
  C     -0.150255    1.532386   -0.039798
  C      0.119906    0.023541   -0.049092
  C      0.750209   -0.494917    1.240496
  O      2.034619    0.065316    1.473474
  C     -0.133626   -0.500578    2.552160
  C      0.079353   -2.012604    2.631185
  N     -0.482684   -2.563695    1.367904
  C      0.901215   -2.027680    1.391259
  C      2.093222   -2.831743    0.978888
  H      0.775700    2.112663    0.051955
  H     -0.630763    1.849279   -0.970042
  H     -0.810471    1.818060    0.786738
  H     -0.812533   -0.525033   -0.209457
  H      0.790367   -0.223612   -0.881951
  H      1.930021    1.016238    1.580200
  H      0.368203    0.049429    3.351033
  H     -1.174622   -0.179001    2.461419
  H      0.148812   -2.632014    3.517693
  H     -0.400755   -3.579321    1.421090
  H      2.119689   -2.980630   -0.107183
  H      3.013592   -2.319587    1.271063
  H      2.080993   -3.819955    1.452244

 Total Charge           Charge          ....    0
 Multiplicity           Mult            ....    1
 Number of Electrons    NEL             ....   70
 Basis Dimension        Dim             ....  357

ORBITAL ENERGIES
----------------

  NO   OCC          E(Eh)            E(eV)
   0   2.0000     -20.554354      -559.3124
   1   2.0000     -15.553158      -423.2230
   2   2.0000     -11.283939      -307.0516
   3   2.0000     -11.257572      -306.3341
   4   2.0000     -11.254147      -306.2409
   5   2.0000     -11.220831      -305.3343
   6   2.0000     -11.219655      -305.3023
   7   2.0000     -11.217038      -305.2311
   8   2.0000     -11.212388      -305.1046
   9   2.0000      -1.366272       -37.1781
  10   2.0000      -1.271872       -34.6094
  11   2.0000      -1.055474       -28.7209
  12   2.0000      -1.006829       -27.3972
  13   2.0000      -0.989990       -26.9390
  14   2.0000      -0.895131       -24.3578
  15   2.0000      -0.833019       -22.6676
  16   2.0000      -0.801776       -21.8174
  17   2.0000      -0.733158       -19.9502
  18   2.0000      -0.673309       -18.3217
  19   2.0000      -0.659522       -17.9465
  20   2.0000      -0.624244       -16.9865
  21   2.0000      -0.612330       -16.6623
  22   2.0000      -0.601005       -16.3542
  23   2.0000      -0.571156       -15.5419
  24   2.0000      -0.550794       -14.9879
  25   2.0000      -0.544948       -14.8288
  26   2.0000      -0.530788       -14.4435
  27   2.0000      -0.520848       -14.1730
  28   2.0000      -0.508761       -13.8441
  29   2.0000      -0.496014       -13.4972
  30   2.0000      -0.475250       -12.9322
  31   2.0000      -0.453915       -12.3516
  32   2.0000      -0.431617       -11.7449
  33   2.0000      -0.409486       -11.1427
  34   2.0000      -0.351986        -9.5780
  35   0.0000       0.132965         3.6182
  36   0.0000       0.143154         3.8954
  37   0.0000       0.167997         4.5714
  38   0.0000       0.179520         4.8850
  39   0.0000       0.186948         5.0871

MULLIKEN ATOMIC CHARGES
-----------------------
   0 C :   -0.422885
   1 C :   -0.275164
   2 C :    0.269245
   3 O :   -0.470987
   4 C :   -0.197760
   5 C :   -0.155771
   6 N :   -0.399285
   7 C :    0.121538
   8 C :   -0.406711
   9 H :    0.111418
  10 H :    0.140753
  11 H :    0.133888
  12 H :    0.138603
  13 H :    0.110876
  14 H :    0.317278
  15 H :    0.108456
  16 H :    0.106197
  17 H :    0.136139
  18 H :    0.211389
  19 H :    0.137480
  20 H :    0.161531
  21 H :    0.123770
Sum of atomic charges:   -0.0000000

LOEWDIN ATOMIC CHARGES
----------------------
   0 C :   -0.322578
   1 C :   -0.259458
   2 C :   -0.312969
   3 O :    0.018148
   4 C :   -0.184837
   5 C :   -0.215100
   6 N :    0.018224
   7 C :   -0.252707
   8 C :   -0.276573
   9 H :    0.114514
  10 H :    0.124390
  11 H :    0.121687
  12 H :    0.149351
  13 H :    0.141591
  14 H :    0.173940
  15 H :    0.135842
  16 H :    0.130884
  17 H :    0.127657
  18 H :    0.170228
  19 H :    0.130178
  20 H :    0.138980
  21 H :    0.128606

  Mayer bond orders larger than 0.1
B(  0-C ,  1-C ) :   0.8996 B(  0-C ,  9-H ) :   0.9379 B(  0-C , 10-H ) :   0.9424
B(  0-C , 11-H ) :   0.9402 B(  1-C ,  2-C ) :   0.9127 B(  1-C , 12-H ) :   0.9257
B(  1-C , 13-H ) :   0.9310 B(  2-C ,  3-O ) :   0.9838 B(  2-C ,  4-C ) :   0.9741
B(  2-C ,  7-C ) :   0.8879 B(  3-O , 14-H ) :   0.8387 B(  4-C ,  5-C ) :   0.9280
B(  4-C , 15-H ) :   0.9205 B(  4-C , 16-H ) :   0.8764 B(  5-C ,  6-N ) :   0.9640
B(  5-C ,  7-C ) :   0.8746 B(  5-C , 17-H ) :   0.9055 B(  6-N ,  7-C ) :   0.9277
B(  6-N , 18-H ) :   0.8721 B(  7-C ,  8-C ) :   0.8957 B(  8-C , 19-H ) :   0.9389
B(  8-C , 20-H ) :   0.9302 B(  8-C , 21-H ) :   0.9260

MP2 TOTAL ENERGY:     -403.628329367 Eh
FINAL SINGLE POINT ENERGY      -403.628329367352

DIPOLE MOMENT
-------------
                                X             Y             Z
Electronic contribution:      0.53077      -2.65563       2.80290
Nuclear contribution   :     -0.44780       2.69716      -2.57088
                        -----------------------------------------
Total Dipole Moment    :      0.08297       0.04153       0.23202
                        -----------------------------------------
Magnitude (a.u.)       :      0.24988
Magnitude (Debye)      :      0.63514

                             ****ORCA TERMINATED NORMALLY****
TOTAL RUN TIME: 0 days 0 hours 19 minutes 54 seconds 789 msec
