                         Program Version 3.0.3 - RELEASE   -
|  1> ! RI-MP2 RIJK def2-TZVP def2-TZVP/C def2-TZVP/JK TIGHTSCF
|  2> % maxcore 2000
|  3> % mp2 density relaxed end
|  4> *xyz 0 1
|  5>  C        0.0645964490     1.6586080712     0.0330078918
|  6>  C        0.0079982077     0.1495036096    -0.0188238283
|  7>  C        0.5633216692    -0.6811503536    -1.1710283458
|  8>  C        1.5708521956    -0.0419632580    -2.1247898777
|  9>  C        2.8778813511    -0.0322660970    -1.2838995341
| 10>  O        2.4760789737    -0.0545159640     0.0825872674
| 11>  C        1.2280512483    -0.7131429636     0.1771440114
| 12>  C        3.7365296082    -1.1966848373    -1.5924225859
| 13>  N        4.4030126294    -2.1079030541    -1.8390702387
| 14>  H        1.0580212124     2.0366624308    -0.2182826262
| 15>  H       -0.6606977610     2.1083828053    -0.6533938103
| 16>  H       -0.1681605016     2.0116635649     1.0427105181
| 17>  H       -0.8979436919    -0.2756003838     0.4075749778
| 18>  H       -0.0166350854    -1.5222143069    -1.5300811393
| 19>  H        1.6844576149    -0.6227497688    -3.0416250698
| 20>  H        1.3027236818     0.9801888581    -2.4049457103
| 21>  H        3.4714394601     0.8741675280    -1.4366015806
| 22>  H        1.2339413285    -1.5753614707     0.8350206107
| 23> *
| 24>
| 25>                          ****END OF INPUT****

CARTESIAN COORDINATES (ANGSTROEM)
---------------------------------
  C      0.064596    1.658608    0.033008
  C      0.007998    0.149504   -0.018824
  C      0.563322   -0.681150   -1.171028
  C      1.570852   -0.041963   -2.124790
  C      2.877881   -0.032266   -1.283900
  O      2.476079   -0.054516    0.082587
  C      1.228051   -0.713143    0.177144
  C      3.736530   -1.196685   -1.592423
  N      4.403013   -2.107903   -1.839070
  H      1.058021    2.036662   -0.218283
  H     -0.660698    2.108383   -0.653394
  H     -0.168161    2.011664    1.042711
  H     -0.897944   -0.275600    0.407575
  H     -0.016635   -1.522214   -1.530081
  H      1.684458   -0.622750   -3.041625
  H      1.302724    0.980189   -2.404946
  H      3.471439    0.874168   -1.436602
  H      1.233941   -1.575361    0.835021

 Total Charge           Charge          ....    0
 Multiplicity           Mult            ....    1
 Number of Electrons    NEL             ....   66
 Basis Dimension        Dim             ....  333

ORBITAL ENERGIES
----------------

  NO   OCC          E(Eh)            E(eV)
   0   2.0000     -20.586420      -560.1850
   1   2.0000     -15.574422      -423.8016
   2   2.0000     -11.341494      -308.6177
   3   2.0000     -11.294633      -307.3426
   4   2.0000     -11.272293      -306.7347
   5   2.0000     -11.259738      -306.3931
   6   2.0000     -11.250933      -306.1535
   7   2.0000     -11.250072      -306.1300
   8   2.0000     -11.229868      -305.5802
   9   2.0000      -1.416691       -38.5501
  10   2.0000      -1.219604       -33.1871
  11   2.0000      -1.158480       -31.5238
  12   2.0000      -1.068811       -29.0838
  13   2.0000      -0.985514       -26.8172
  14   2.0000      -0.910515       -24.7764
  15   2.0000      -0.818993       -22.2859
  16   2.0000      -0.782977       -21.3059
  17   2.0000      -0.740547       -20.1513
  18   2.0000      -0.705112       -19.1871
  19   2.0000      -0.668621       -18.1941
  20   2.0000      -0.627616       -17.0783
  21   2.0000      -0.609210       -16.5775
  22   2.0000      -0.575285       -15.6543
  23   2.0000      -0.568732       -15.4760
  24   2.0000      -0.558144       -15.1879
  25   2.0000      -0.552455       -15.0331
  26   2.0000      -0.535029       -14.5589
  27   2.0000      -0.503634       -13.7046
  28   2.0000      -0.499784       -13.5998
  29   2.0000      -0.471450       -12.8288
  30   2.0000      -0.458169       -12.4674
  31   2.0000      -0.417757       -11.3677
  32   2.0000      -0.404344       -11.0028
  33   0.0000       0.120823         3.2878
  34   0.0000       0.141243         3.8434
  35   0.0000       0.154154         4.1947
  36   0.0000       0.160637         4.3711
  37   0.0000       0.172550         4.6953

MULLIKEN ATOMIC CHARGES
-----------------------
   0 C :   -0.411982
   1 C :   -0.126052
   2 C :   -0.130494
   3 C :   -0.282264
   4 C :    0.227598
   5 O :   -0.315401
   6 C :    0.059341
   7 C :   -0.234734
   8 N :   -0.047510
   9 H :    0.139667
  10 H :    0.136568
  11 H :    0.142558
  12 H :    0.123414
  13 H :    0.143672
  14 H :    0.154354
  15 H :    0.146518
  16 H :    0.136335
  17 H :    0.138414
Sum of atomic charges:    0.0000000

LOEWDIN ATOMIC CHARGES
----------------------
   0 C :   -0.290164
   1 C :   -0.210472
   2 C :   -0.181373
   3 C :   -0.194468
   4 C :   -0.285967
   5 O :    0.217781
   6 C :   -0.246564
   7 C :   -0.162302
   8 N :    0.068057
   9 H :    0.128670
  10 H :    0.126960
  11 H :    0.130868
  12 H :    0.154681
  13 H :    0.148275
  14 H :    0.151022
  15 H :    0.143644
  16 H :    0.163272
  17 H :    0.138078

  Mayer bond orders larger than 0.1
B(  0-C ,  1-C ) :   0.8986 B(  0-C ,  9-H ) :   0.9373 B(  0-C , 10-H ) :   0.9365
B(  0-C , 11-H ) :   0.9348 B(  1-C ,  2-C ) :   0.8771 B(  1-C ,  6-C ) :   0.8879
B(  1-C , 12-H ) :   0.9242 B(  2-C ,  3-C ) :   0.9229 B(  2-C ,  6-C ) :   0.8443
B(  2-C , 13-H ) :   0.9171 B(  3-C ,  4-C ) :   0.9093 B(  3-C , 14-H ) :   0.9233
B(  3-C , 15-H ) :   0.9242 B(  4-C ,  5-O ) :   0.9296 B(  4-C ,  7-C ) :   0.9137
B(  4-C , 16-H ) :   0.9105 B(  5-O ,  6-C ) :   0.9138 B(  6-C , 17-H ) :   0.9318
B(  7-C ,  8-N ) :   2.8633

MP2 TOTAL ENERGY:     -401.253835533 Eh
FINAL SINGLE POINT ENERGY      -401.253835532836

DIPOLE MOMENT
-------------
                                X             Y             Z
Electronic contribution:      7.72390      -5.35949      -0.64884
Nuclear contribution   :     -9.10692       6.27293       0.52559
                        -----------------------------------------
Total Dipole Moment    :     -1.38302       0.91345      -0.12325
                        -----------------------------------------
Magnitude (a.u.)       :      1.66202
Magnitude (Debye)      :      4.22451

                             ****ORCA TERMINATED NORMALLY****
TOTAL RUN TIME: 0 days 0 hours 19 minutes 32 seconds 62 msec
