                         Program Version 3.0.3 - RELEASE   -
|  1> ! RI-MP2 RIJK def2-TZVP def2-TZVP/C def2-TZVP/JK TIGHTSCF
|  2> % maxcore 2000
|  3> % mp2 density relaxed end
|  4> *xyz 0 1
|  5>  C        0.0908025674     1.4710920860    -0.2749121489
|  6>  C       -0.0225933105     0.0127515328     0.0896392103
|  7>  O        1.1908603179    -0.7405007331     0.1994363276
|  8>  C        0.3862481423    -0.5764034222     1.3768152922
|  9>  C        0.9973640041     0.1758756270     2.5337314397
| 10>  C        2.0717253455    -0.6553119328     3.2545458052
| 11>  C        2.6973333485     0.0716908922     4.4252518766
| 12>  C        2.0360943580     0.0489058170     5.7818444478
| 13>  C        3.3299984821    -0.6963085669     5.5563980196
| 14>  H        0.8803489631     1.9733346461     0.2868262278
| 15>  H        0.3178205334     1.5747146210    -1.3412535853
| 16>  H       -0.8572448818     1.9860339863    -0.0841464654
| 17>  H       -0.8093112049    -0.5177341314    -0.4528535035
| 18>  H       -0.1286799535    -1.4950956403     1.6727897617
| 19>  H        1.4394468687     1.1134619964     2.1827150274
| 20>  H        0.2021828696     0.4426850879     3.2425161493
| 21>  H        1.6280512188    -1.5956373194     3.6094489998
| 22>  H        2.8449387680    -0.9346906105     2.5281352008
| 23>  H        3.1880846392     1.0052823199     4.1586468763
| 24>  H        2.0570785820     0.9475501652     6.3885333059
| 25>  H        1.1293133812    -0.5378119536     5.8926424468
| 26>  H        3.2887982653    -1.7800390617     5.5157725713
| 27>  H        4.2354653057    -0.3048681060     6.0068168171
| 28> *
| 29>
| 30>                          ****END OF INPUT****

CARTESIAN COORDINATES (ANGSTROEM)
---------------------------------
  C      0.090803    1.471092   -0.274912
  C     -0.022593    0.012752    0.089639
  O      1.190860   -0.740501    0.199436
  C      0.386248   -0.576403    1.376815
  C      0.997364    0.175876    2.533731
  C      2.071725   -0.655312    3.254546
  C      2.697333    0.071691    4.425252
  C      2.036094    0.048906    5.781844
  C      3.329998   -0.696309    5.556398
  H      0.880349    1.973335    0.286826
  H      0.317821    1.574715   -1.341254
  H     -0.857245    1.986034   -0.084146
  H     -0.809311   -0.517734   -0.452854
  H     -0.128680   -1.495096    1.672790
  H      1.439447    1.113462    2.182715
  H      0.202183    0.442685    3.242516
  H      1.628051   -1.595637    3.609449
  H      2.844939   -0.934691    2.528135
  H      3.188085    1.005282    4.158647
  H      2.057079    0.947550    6.388533
  H      1.129313   -0.537812    5.892642
  H      3.288798   -1.780039    5.515773
  H      4.235465   -0.304868    6.006817

 Total Charge           Charge          ....    0
 Multiplicity           Mult            ....    1
 Number of Electrons    NEL             ....   70
 Basis Dimension        Dim             ....  363

ORBITAL ENERGIES
----------------

  NO   OCC          E(Eh)            E(eV)
   0   2.0000     -20.556424      -559.3687
   1   2.0000     -11.282611      -307.0155
   2   2.0000     -11.279492      -306.9306
   3   2.0000     -11.228199      -305.5348
   4   2.0000     -11.224903      -305.4451
   5   2.0000     -11.223449      -305.4056
   6   2.0000     -11.221867      -305.3625
   7   2.0000     -11.221792      -305.3605
   8   2.0000     -11.220973      -305.3382
   9   2.0000      -1.400868       -38.1196
  10   2.0000      -1.143076       -31.1047
  11   2.0000      -1.047086       -28.4927
  12   2.0000      -1.007702       -27.4210
  13   2.0000      -0.922976       -25.1154
  14   2.0000      -0.849939       -23.1280
  15   2.0000      -0.819627       -22.3032
  16   2.0000      -0.774693       -21.0805
  17   2.0000      -0.772271       -21.0146
  18   2.0000      -0.694214       -18.8905
  19   2.0000      -0.665791       -18.1171
  20   2.0000      -0.635517       -17.2933
  21   2.0000      -0.608869       -16.5682
  22   2.0000      -0.601877       -16.3779
  23   2.0000      -0.577721       -15.7206
  24   2.0000      -0.562838       -15.3156
  25   2.0000      -0.535961       -14.5842
  26   2.0000      -0.515953       -14.0398
  27   2.0000      -0.510480       -13.8909
  28   2.0000      -0.509242       -13.8572
  29   2.0000      -0.487930       -13.2773
  30   2.0000      -0.475630       -12.9426
  31   2.0000      -0.441860       -12.0236
  32   2.0000      -0.423674       -11.5288
  33   2.0000      -0.410085       -11.1590
  34   2.0000      -0.395089       -10.7509
  35   0.0000       0.142900         3.8885
  36   0.0000       0.151215         4.1148
  37   0.0000       0.157376         4.2824
  38   0.0000       0.168138         4.5753
  39   0.0000       0.179080         4.8730

MULLIKEN ATOMIC CHARGES
-----------------------
   0 C :   -0.381275
   1 C :    0.056344
   2 O :   -0.348846
   3 C :    0.052087
   4 C :   -0.235414
   5 C :   -0.256698
   6 C :   -0.061981
   7 C :   -0.279382
   8 C :   -0.261220
   9 H :    0.131107
  10 H :    0.139876
  11 H :    0.127255
  12 H :    0.102554
  13 H :    0.113743
  14 H :    0.112175
  15 H :    0.116566
  16 H :    0.111316
  17 H :    0.137396
  18 H :    0.116459
  19 H :    0.128043
  20 H :    0.123472
  21 H :    0.127942
  22 H :    0.128482
Sum of atomic charges:   -0.0000000

LOEWDIN ATOMIC CHARGES
----------------------
   0 C :   -0.296401
   1 C :   -0.295148
   2 O :    0.152122
   3 C :   -0.271989
   4 C :   -0.246351
   5 C :   -0.244138
   6 C :   -0.235088
   7 C :   -0.234638
   8 C :   -0.231517
   9 H :    0.125179
  10 H :    0.129902
  11 H :    0.129908
  12 H :    0.135103
  13 H :    0.137714
  14 H :    0.141687
  15 H :    0.145804
  16 H :    0.142150
  17 H :    0.146774
  18 H :    0.147010
  19 H :    0.129130
  20 H :    0.131017
  21 H :    0.131888
  22 H :    0.129884

  Mayer bond orders larger than 0.1
B(  0-C ,  1-C ) :   0.8851 B(  0-C ,  9-H ) :   0.9430 B(  0-C , 10-H ) :   0.9358
B(  0-C , 11-H ) :   0.9251 B(  1-C ,  2-O ) :   0.9135 B(  1-C ,  3-C ) :   0.9860
B(  1-C , 12-H ) :   0.9214 B(  2-O ,  3-C ) :   0.8496 B(  3-C ,  4-C ) :   0.9223
B(  3-C , 13-H ) :   0.9081 B(  4-C ,  5-C ) :   0.9242 B(  4-C , 14-H ) :   0.9367
B(  4-C , 15-H ) :   0.9309 B(  5-C ,  6-C ) :   0.9127 B(  5-C , 16-H ) :   0.9307
B(  5-C , 17-H ) :   0.9313 B(  6-C ,  7-C ) :   0.8854 B(  6-C ,  8-C ) :   0.8922
B(  6-C , 18-H ) :   0.9283 B(  7-C ,  8-C ) :   0.9016 B(  7-C , 19-H ) :   0.9293
B(  7-C , 20-H ) :   0.9292 B(  8-C , 21-H ) :   0.9308 B(  8-C , 22-H ) :   0.9330

MP2 TOTAL ENERGY:     -387.580622664 Eh
FINAL SINGLE POINT ENERGY      -387.580622663501

DIPOLE MOMENT
-------------
                                X             Y             Z
Electronic contribution:     -0.21691      -2.58762      -3.89232
Nuclear contribution   :     -0.29180       2.97230       4.20580
                        -----------------------------------------
Total Dipole Moment    :     -0.50871       0.38468       0.31348
                        -----------------------------------------
Magnitude (a.u.)       :      0.71066
Magnitude (Debye)      :      1.80636

                             ****ORCA TERMINATED NORMALLY****
TOTAL RUN TIME: 0 days 0 hours 16 minutes 58 seconds 171 msec
