                         Program Version 3.0.3 - RELEASE   -
|  1> ! RI-MP2 RIJK def2-TZVP def2-TZVP/C def2-TZVP/JK TIGHTSCF
|  2> % maxcore 2000
|  3> % mp2 density relaxed end
|  4> *xyz 0 1
|  5>  C        0.5726992605     0.8368749535    -0.1282480740
|  6>  C       -0.3252804852    -0.3625133252     0.2085348845
|  7>  C       -0.3320453657    -0.6495075841     1.7236015012
|  8>  C       -1.7610142839    -0.0833068745    -0.2536771241
|  9>  O       -2.3080284640     0.9618495021     0.0165858462
| 10>  C       -2.5023989468    -1.1735657576    -1.0303461557
| 11>  C       -2.9830382967    -2.2883466236    -0.1168187955
| 12>  C       -3.2044109093    -3.6592794155    -0.6352889979
| 13>  N       -2.0942862401    -3.3879318785     0.2983643987
| 14>  H        1.5878590342     0.6722863733     0.2453694917
| 15>  H        0.6313850548     1.0066580781    -1.2082055900
| 16>  H        0.1707204683     1.7427624489     0.3324933378
| 17>  H        0.0493184374    -1.2510310808    -0.3139743314
| 18>  H       -0.9182817839    -1.5412108372     1.9635228415
| 19>  H        0.6901228884    -0.8095172896     2.0807091360
| 20>  H       -0.7557583059     0.2028878828     2.2631037766
| 21>  H       -3.3635086651    -0.6999952463    -1.5120197043
| 22>  H       -1.8513926843    -1.5931396473    -1.8080875803
| 23>  H       -3.6291923549    -1.9438616621     0.6882861776
| 24>  H       -4.0039618462    -4.2737450890    -0.2318603970
| 25>  H       -2.9695671504    -3.8504613651    -1.6795831946
| 26>  H       -1.2203610712    -3.3442400424    -0.2208410670
| 27> *
| 28>
| 29>                          ****END OF INPUT****

CARTESIAN COORDINATES (ANGSTROEM)
---------------------------------
  C      0.572699    0.836875   -0.128248
  C     -0.325280   -0.362513    0.208535
  C     -0.332045   -0.649508    1.723602
  C     -1.761014   -0.083307   -0.253677
  O     -2.308028    0.961850    0.016586
  C     -2.502399   -1.173566   -1.030346
  C     -2.983038   -2.288347   -0.116819
  C     -3.204411   -3.659279   -0.635289
  N     -2.094286   -3.387932    0.298364
  H      1.587859    0.672286    0.245369
  H      0.631385    1.006658   -1.208206
  H      0.170720    1.742762    0.332493
  H      0.049318   -1.251031   -0.313974
  H     -0.918282   -1.541211    1.963523
  H      0.690123   -0.809517    2.080709
  H     -0.755758    0.202888    2.263104
  H     -3.363509   -0.699995   -1.512020
  H     -1.851393   -1.593140   -1.808088
  H     -3.629192   -1.943862    0.688286
  H     -4.003962   -4.273745   -0.231860
  H     -2.969567   -3.850461   -1.679583
  H     -1.220361   -3.344240   -0.220841

 Total Charge           Charge          ....    0
 Multiplicity           Mult            ....    1
 Number of Electrons    NEL             ....   70
 Basis Dimension        Dim             ....  357

ORBITAL ENERGIES
----------------

  NO   OCC          E(Eh)            E(eV)
   0   2.0000     -20.544767      -559.0515
   1   2.0000     -15.568278      -423.6344
   2   2.0000     -11.328058      -308.2521
   3   2.0000     -11.275916      -306.8333
   4   2.0000     -11.264828      -306.5316
   5   2.0000     -11.247794      -306.0680
   6   2.0000     -11.244029      -305.9656
   7   2.0000     -11.220115      -305.3149
   8   2.0000     -11.219787      -305.3059
   9   2.0000      -1.389472       -37.8095
  10   2.0000      -1.271594       -34.6018
  11   2.0000      -1.085120       -29.5276
  12   2.0000      -1.028891       -27.9975
  13   2.0000      -0.935482       -25.4558
  14   2.0000      -0.902656       -24.5625
  15   2.0000      -0.857583       -23.3360
  16   2.0000      -0.816415       -22.2158
  17   2.0000      -0.734679       -19.9916
  18   2.0000      -0.688965       -18.7477
  19   2.0000      -0.670147       -18.2356
  20   2.0000      -0.642313       -17.4782
  21   2.0000      -0.636842       -17.3294
  22   2.0000      -0.601096       -16.3566
  23   2.0000      -0.577950       -15.7268
  24   2.0000      -0.572876       -15.5887
  25   2.0000      -0.546253       -14.8643
  26   2.0000      -0.533969       -14.5300
  27   2.0000      -0.525692       -14.3048
  28   2.0000      -0.506349       -13.7785
  29   2.0000      -0.496261       -13.5040
  30   2.0000      -0.482422       -13.1274
  31   2.0000      -0.475320       -12.9341
  32   2.0000      -0.470278       -12.7969
  33   2.0000      -0.415455       -11.3051
  34   2.0000      -0.388399       -10.5689
  35   0.0000       0.119551         3.2531
  36   0.0000       0.136717         3.7203
  37   0.0000       0.152240         4.1427
  38   0.0000       0.159346         4.3360
  39   0.0000       0.171864         4.6767

MULLIKEN ATOMIC CHARGES
-----------------------
   0 C :   -0.400057
   1 C :   -0.037896
   2 C :   -0.432347
   3 C :    0.229727
   4 O :   -0.287978
   5 C :   -0.270401
   6 C :   -0.053818
   7 C :   -0.182174
   8 N :   -0.370863
   9 H :    0.133051
  10 H :    0.127709
  11 H :    0.149532
  12 H :    0.073812
  13 H :    0.162052
  14 H :    0.130770
  15 H :    0.142870
  16 H :    0.131551
  17 H :    0.140883
  18 H :    0.139908
  19 H :    0.128259
  20 H :    0.128463
  21 H :    0.216948
Sum of atomic charges:    0.0000000

LOEWDIN ATOMIC CHARGES
----------------------
   0 C :   -0.286030
   1 C :   -0.279193
   2 C :   -0.282431
   3 C :   -0.296818
   4 O :    0.159739
   5 C :   -0.223096
   6 C :   -0.277118
   7 C :   -0.262854
   8 N :   -0.023140
   9 H :    0.124061
  10 H :    0.123587
  11 H :    0.131929
  12 H :    0.145688
  13 H :    0.128652
  14 H :    0.125008
  15 H :    0.130306
  16 H :    0.154959
  17 H :    0.147886
  18 H :    0.148647
  19 H :    0.126199
  20 H :    0.122171
  21 H :    0.161849

  Mayer bond orders larger than 0.1
B(  0-C ,  1-C ) :   0.9063 B(  0-C ,  9-H ) :   0.9395 B(  0-C , 10-H ) :   0.9363
B(  0-C , 11-H ) :   0.9309 B(  1-C ,  2-C ) :   0.8985 B(  1-C ,  3-C ) :   0.8703
B(  1-C , 12-H ) :   0.9205 B(  2-C , 13-H ) :   0.9250 B(  2-C , 14-H ) :   0.9350
B(  2-C , 15-H ) :   0.9313 B(  3-C ,  4-O ) :   1.9901 B(  3-C ,  5-C ) :   0.9049
B(  5-C ,  6-C ) :   0.9060 B(  5-C , 16-H ) :   0.9139 B(  5-C , 17-H ) :   0.9208
B(  6-C ,  7-C ) :   0.9243 B(  6-C ,  8-N ) :   0.9052 B(  6-C , 18-H ) :   0.9208
B(  7-C ,  8-N ) :   0.9229 B(  7-C , 19-H ) :   0.9243 B(  7-C , 20-H ) :   0.9192
B(  8-N , 21-H ) :   0.8713

MP2 TOTAL ENERGY:     -403.648202322 Eh
FINAL SINGLE POINT ENERGY      -403.648202322496

DIPOLE MOMENT
-------------
                                X             Y             Z
Electronic contribution:     -4.97881       0.95912      -1.08527
Nuclear contribution   :      5.36292      -1.60529       0.34681
                        -----------------------------------------
Total Dipole Moment    :      0.38410      -0.64617      -0.73846
                        -----------------------------------------
Magnitude (a.u.)       :      1.05375
Magnitude (Debye)      :      2.67843

                             ****ORCA TERMINATED NORMALLY****
TOTAL RUN TIME: 0 days 0 hours 21 minutes 47 seconds 164 msec
