                         Program Version 3.0.3 - RELEASE   -
|  1> ! RI-MP2 RIJK def2-TZVP def2-TZVP/C def2-TZVP/JK TIGHTSCF
|  2> % maxcore 2000
|  3> % mp2 density relaxed end
|  4> *xyz 0 1
|  5>  C        0.0312665011     1.5257658610     0.0051511922
|  6>  C       -0.0136023809     0.0330904125    -0.0055727624
|  7>  C        0.8407216695    -0.9817382787    -0.7588164754
|  8>  C        0.8164470079    -0.9868830914     0.7663784598
|  9>  C       -0.3685042699    -1.9946104846     0.7472870713
| 10>  C       -0.3380788115    -1.9964421058    -0.7902729378
| 11>  C       -1.2057683646    -1.0045097927    -0.0251085375
| 12>  O       -2.5659838479    -0.8498787028     0.0370575666
| 13>  H        1.0684079961     1.8781550947     0.0370064877
| 14>  H       -0.4343984548     1.9540303234    -0.8907214417
| 15>  H       -0.4863096428     1.9369077939     0.8794565725
| 16>  H        1.6628992717    -0.8026132941    -1.4406718859
| 17>  H        1.6161998865    -0.8172224766     1.4766839978
| 18>  H       -0.6809803419    -2.7799144618     1.4218307275
| 19>  H       -0.6120046223    -2.7907183977    -1.4719683785
| 20>  H       -2.8854782062    -0.5963103592    -0.8367422963
| 21> *
| 22>
| 23>                          ****END OF INPUT****

CARTESIAN COORDINATES (ANGSTROEM)
---------------------------------
  C      0.031267    1.525766    0.005151
  C     -0.013602    0.033090   -0.005573
  C      0.840722   -0.981738   -0.758816
  C      0.816447   -0.986883    0.766378
  C     -0.368504   -1.994610    0.747287
  C     -0.338079   -1.996442   -0.790273
  C     -1.205768   -1.004510   -0.025109
  O     -2.565984   -0.849879    0.037058
  H      1.068408    1.878155    0.037006
  H     -0.434398    1.954030   -0.890721
  H     -0.486310    1.936908    0.879457
  H      1.662899   -0.802613   -1.440672
  H      1.616200   -0.817222    1.476684
  H     -0.680980   -2.779914    1.421831
  H     -0.612005   -2.790718   -1.471968
  H     -2.885478   -0.596310   -0.836742

 Total Charge           Charge          ....    0
 Multiplicity           Mult            ....    1
 Number of Electrons    NEL             ....   58
 Basis Dimension        Dim             ....  296

ORBITAL ENERGIES
----------------

  NO   OCC          E(Eh)            E(eV)
   0   2.0000     -20.573522      -559.8340
   1   2.0000     -11.287629      -307.1520
   2   2.0000     -11.237232      -305.7806
   3   2.0000     -11.232407      -305.6493
   4   2.0000     -11.231533      -305.6255
   5   2.0000     -11.230920      -305.6089
   6   2.0000     -11.229116      -305.5598
   7   2.0000     -11.222678      -305.3846
   8   2.0000      -1.384427       -37.6722
   9   2.0000      -1.257785       -34.2261
  10   2.0000      -1.025010       -27.8919
  11   2.0000      -0.955014       -25.9872
  12   2.0000      -0.878669       -23.9098
  13   2.0000      -0.841303       -22.8930
  14   2.0000      -0.748565       -20.3695
  15   2.0000      -0.715637       -19.4735
  16   2.0000      -0.677007       -18.4223
  17   2.0000      -0.638290       -17.3688
  18   2.0000      -0.626487       -17.0476
  19   2.0000      -0.592026       -16.1099
  20   2.0000      -0.571626       -15.5547
  21   2.0000      -0.548625       -14.9288
  22   2.0000      -0.542346       -14.7580
  23   2.0000      -0.531729       -14.4691
  24   2.0000      -0.511151       -13.9091
  25   2.0000      -0.404323       -11.0022
  26   2.0000      -0.391109       -10.6426
  27   2.0000      -0.346069        -9.4170
  28   2.0000      -0.333911        -9.0862
  29   0.0000       0.132166         3.5964
  30   0.0000       0.158530         4.3138
  31   0.0000       0.174908         4.7595
  32   0.0000       0.181906         4.9499
  33   0.0000       0.192973         5.2511

MULLIKEN ATOMIC CHARGES
-----------------------
   0 C :   -0.401111
   1 C :   -0.013602
   2 C :   -0.135591
   3 C :   -0.138255
   4 C :   -0.161371
   5 C :   -0.203782
   6 C :    0.193107
   7 O :   -0.441009
   8 H :    0.135397
   9 H :    0.128574
  10 H :    0.143673
  11 H :    0.135589
  12 H :    0.134989
  13 H :    0.146964
  14 H :    0.145189
  15 H :    0.331240
Sum of atomic charges:    0.0000000

LOEWDIN ATOMIC CHARGES
----------------------
   0 C :   -0.279537
   1 C :   -0.155438
   2 C :   -0.113832
   3 C :   -0.109878
   4 C :   -0.107968
   5 C :   -0.121674
   6 C :   -0.269900
   7 O :    0.042344
   8 H :    0.133983
   9 H :    0.127489
  10 H :    0.131781
  11 H :    0.132127
  12 H :    0.132656
  13 H :    0.136407
  14 H :    0.133066
  15 H :    0.188375

  Mayer bond orders larger than 0.1
B(  0-C ,  1-C ) :   0.8667 B(  0-C ,  8-H ) :   0.9459 B(  0-C ,  9-H ) :   0.9376
B(  0-C , 10-H ) :   0.9387 B(  1-C ,  2-C ) :   0.8528 B(  1-C ,  3-C ) :   0.8889
B(  1-C ,  6-C ) :   0.9066 B(  2-C ,  3-C ) :   0.8438 B(  2-C ,  5-C ) :   0.8655
B(  2-C , 11-H ) :   0.9147 B(  3-C ,  4-C ) :   0.9043 B(  3-C , 12-H ) :   0.9278
B(  4-C ,  5-C ) :   0.8475 B(  4-C ,  6-C ) :   0.9384 B(  4-C , 13-H ) :   0.9199
B(  5-C ,  6-C ) :   0.8650 B(  5-C , 14-H ) :   0.9203 B(  6-C ,  7-O ) :   1.0757
B(  7-O , 15-H ) :   0.8314

MP2 TOTAL ENERGY:     -345.877035719 Eh
FINAL SINGLE POINT ENERGY      -345.877035718601

DIPOLE MOMENT
-------------
                                X             Y             Z
Electronic contribution:     -2.18069      -3.47629       0.19689
Nuclear contribution   :      2.36283       3.69635      -0.70604
                        -----------------------------------------
Total Dipole Moment    :      0.18214       0.22006      -0.50915
                        -----------------------------------------
Magnitude (a.u.)       :      0.58381
Magnitude (Debye)      :      1.48394

                             ****ORCA TERMINATED NORMALLY****
TOTAL RUN TIME: 0 days 0 hours 11 minutes 14 seconds 595 msec
