                         Program Version 3.0.3 - RELEASE   -
|  1> ! RI-MP2 RIJK def2-TZVP def2-TZVP/C def2-TZVP/JK TIGHTSCF
|  2> % maxcore 2000
|  3> % mp2 density relaxed end
|  4> *xyz 0 1
|  5>  O       -0.0067699359    -0.0200499188    -0.2712368627
|  6>  C       -0.0210860583     1.1605131765    -0.0336245579
|  7>  N       -1.1200847820     1.9131475587     0.2305468140
|  8>  C       -1.1433918882     3.3723644250     0.1998437649
|  9>  C       -0.9239203243     4.0060370733    -1.1876610970
| 10>  C        0.5081358878     4.0135595821    -1.7417823098
| 11>  O        0.9805188919     2.7273909220    -2.1407228528
| 12>  C        1.7835231896     2.0767191869    -1.2059900175
| 13>  O        1.1191024285     1.9441746896     0.0405278897
| 14>  H       -1.9928364812     1.4144109132     0.1586607736
| 15>  H       -2.1270206961     3.6729213467     0.5727640036
| 16>  H       -0.4030107378     3.7546492708     0.9084524292
| 17>  H       -1.5798767189     3.5178328083    -1.9180805227
| 18>  H       -1.2442205427     5.0549598598    -1.1270115912
| 19>  H        0.5248035253     4.6317287418    -2.6459462020
| 20>  H        1.1982455724     4.4647825300    -1.0146272085
| 21>  H        2.0196268317     1.0966244067    -1.6293560101
| 22>  H        2.6951315383     2.6423790371    -0.9741618730
| 23> *
| 24>
| 25>                          ****END OF INPUT****

CARTESIAN COORDINATES (ANGSTROEM)
---------------------------------
  O     -0.006770   -0.020050   -0.271237
  C     -0.021086    1.160513   -0.033625
  N     -1.120085    1.913148    0.230547
  C     -1.143392    3.372364    0.199844
  C     -0.923920    4.006037   -1.187661
  C      0.508136    4.013560   -1.741782
  O      0.980519    2.727391   -2.140723
  C      1.783523    2.076719   -1.205990
  O      1.119102    1.944175    0.040528
  H     -1.992836    1.414411    0.158661
  H     -2.127021    3.672921    0.572764
  H     -0.403011    3.754649    0.908452
  H     -1.579877    3.517833   -1.918081
  H     -1.244221    5.054960   -1.127012
  H      0.524804    4.631729   -2.645946
  H      1.198246    4.464783   -1.014627
  H      2.019627    1.096624   -1.629356
  H      2.695132    2.642379   -0.974162

 Total Charge           Charge          ....    0
 Multiplicity           Mult            ....    1
 Number of Electrons    NEL             ....   70
 Basis Dimension        Dim             ....  333

ORBITAL ENERGIES
----------------

  NO   OCC          E(Eh)            E(eV)
   0   2.0000     -20.589704      -560.2743
   1   2.0000     -20.574022      -559.8476
   2   2.0000     -20.526064      -558.5426
   3   2.0000     -15.588698      -424.1900
   4   2.0000     -11.398601      -310.1717
   5   2.0000     -11.344781      -308.7072
   6   2.0000     -11.292170      -307.2756
   7   2.0000     -11.280841      -306.9673
   8   2.0000     -11.241122      -305.8865
   9   2.0000      -1.467028       -39.9199
  10   2.0000      -1.397297       -38.0224
  11   2.0000      -1.345517       -36.6134
  12   2.0000      -1.241279       -33.7769
  13   2.0000      -1.061036       -28.8723
  14   2.0000      -0.983441       -26.7608
  15   2.0000      -0.904774       -24.6202
  16   2.0000      -0.853981       -23.2380
  17   2.0000      -0.786473       -21.4010
  18   2.0000      -0.740065       -20.1382
  19   2.0000      -0.705697       -19.2030
  20   2.0000      -0.686560       -18.6823
  21   2.0000      -0.685437       -18.6517
  22   2.0000      -0.656088       -17.8531
  23   2.0000      -0.624451       -16.9922
  24   2.0000      -0.607215       -16.5231
  25   2.0000      -0.589150       -16.0316
  26   2.0000      -0.567518       -15.4430
  27   2.0000      -0.558897       -15.2084
  28   2.0000      -0.528765       -14.3884
  29   2.0000      -0.509463       -13.8632
  30   2.0000      -0.490268       -13.3409
  31   2.0000      -0.485838       -13.2203
  32   2.0000      -0.459489       -12.5033
  33   2.0000      -0.439486       -11.9590
  34   2.0000      -0.399615       -10.8741
  35   0.0000       0.128047         3.4843
  36   0.0000       0.149474         4.0674
  37   0.0000       0.165719         4.5094
  38   0.0000       0.173481         4.7207
  39   0.0000       0.185435         5.0459

MULLIKEN ATOMIC CHARGES
-----------------------
   0 O :   -0.333949
   1 C :    0.343222
   2 N :   -0.326015
   3 C :   -0.137285
   4 C :   -0.191427
   5 C :   -0.076951
   6 O :   -0.317027
   7 C :    0.108453
   8 O :   -0.310103
   9 H :    0.250002
  10 H :    0.145115
  11 H :    0.130628
  12 H :    0.112275
  13 H :    0.117607
  14 H :    0.131680
  15 H :    0.108225
  16 H :    0.133782
  17 H :    0.111771
Sum of atomic charges:   -0.0000000

LOEWDIN ATOMIC CHARGES
----------------------
   0 O :    0.097121
   1 C :   -0.577873
   2 N :    0.107016
   3 C :   -0.283359
   4 C :   -0.275028
   5 C :   -0.308834
   6 O :    0.161479
   7 C :   -0.386708
   8 O :    0.206280
   9 H :    0.193346
  10 H :    0.137849
  11 H :    0.139917
  12 H :    0.142271
  13 H :    0.146436
  14 H :    0.131639
  15 H :    0.126495
  16 H :    0.126356
  17 H :    0.115598

  Mayer bond orders larger than 0.1
B(  0-O ,  1-C ) :   1.9979 B(  1-C ,  2-N ) :   1.2067 B(  1-C ,  8-O ) :   0.9847
B(  2-N ,  3-C ) :   0.8975 B(  2-N ,  9-H ) :   0.8679 B(  3-C ,  4-C ) :   0.9127
B(  3-C , 10-H ) :   0.9340 B(  3-C , 11-H ) :   0.9335 B(  4-C ,  5-C ) :   0.9352
B(  4-C , 12-H ) :   0.9188 B(  4-C , 13-H ) :   0.9173 B(  5-C ,  6-O ) :   0.8828
B(  5-C , 14-H ) :   0.9339 B(  5-C , 15-H ) :   0.9357 B(  6-O ,  7-C ) :   0.9772
B(  7-C ,  8-O ) :   0.8949 B(  7-C , 16-H ) :   0.9283 B(  7-C , 17-H ) :   0.9316

MP2 TOTAL ENERGY:     -475.514865902 Eh
FINAL SINGLE POINT ENERGY      -475.514865902094

DIPOLE MOMENT
-------------
                                X             Y             Z
Electronic contribution:      1.56261      -6.94569       1.41529
Nuclear contribution   :     -2.07950       8.54755      -1.39207
                        -----------------------------------------
Total Dipole Moment    :     -0.51689       1.60186       0.02323
                        -----------------------------------------
Magnitude (a.u.)       :      1.68336
Magnitude (Debye)      :      4.27875

                             ****ORCA TERMINATED NORMALLY****
TOTAL RUN TIME: 0 days 0 hours 16 minutes 24 seconds 148 msec
