                         Program Version 3.0.3 - RELEASE   -
|  1> ! RI-MP2 RIJK def2-TZVP def2-TZVP/C def2-TZVP/JK TIGHTSCF
|  2> % maxcore 2000
|  3> % mp2 density relaxed end
|  4> *xyz 0 1
|  5>  C       -0.6610724942     1.6926441140     0.2777601153
|  6>  C       -0.1637433297     0.2472031240     0.3801731408
|  7>  C       -1.1452979812    -0.7665509433    -0.1939145006
|  8>  C       -1.3647871789    -0.7975950867    -1.7357495944
|  9>  C       -1.2407414482    -2.3490500403    -1.7154144189
| 10>  C       -0.7047220051    -2.2570394252    -0.2531267324
| 11>  C       -2.5638493007    -3.1007237259    -1.9006998719
| 12>  C       -2.4009247747    -4.6172585365    -1.7883667998
| 13>  O       -3.5854961738    -2.6273425134    -1.0209044601
| 14>  H        0.0699863842     2.3976573153     0.6857710466
| 15>  H       -0.8489454099     1.9739029777    -0.7641777829
| 16>  H       -1.5984351832     1.8268851516     0.8290187628
| 17>  H        0.7981451880     0.1506380812    -0.1427648040
| 18>  H        0.0364512650     0.0008980935     1.4320022945
| 19>  H       -2.1108966340    -0.6751849851     0.3144757938
| 20>  H       -2.3134126587    -0.3990728281    -2.1026940550
| 21>  H       -0.5455240133    -0.3198744111    -2.2827910746
| 22>  H       -0.5215561025    -2.7568533205    -2.4333216501
| 23>  H        0.3822725664    -2.3724592800    -0.2020751970
| 24>  H       -1.1412416159    -2.9342729860     0.4896599410
| 25>  H       -2.9444389567    -2.8593198866    -2.9019749560
| 26>  H       -1.9970659059    -4.8975277939    -0.8075133666
| 27>  H       -3.3678198031    -5.1125782759    -1.9129468311
| 28>  H       -1.7133749885    -4.9988052172    -2.5499281838
| 29>  H       -3.3779497453    -2.9445997318    -0.1354848358
| 30> *
| 31>
| 32>                          ****END OF INPUT****

CARTESIAN COORDINATES (ANGSTROEM)
---------------------------------
  C     -0.661072    1.692644    0.277760
  C     -0.163743    0.247203    0.380173
  C     -1.145298   -0.766551   -0.193915
  C     -1.364787   -0.797595   -1.735750
  C     -1.240741   -2.349050   -1.715414
  C     -0.704722   -2.257039   -0.253127
  C     -2.563849   -3.100724   -1.900700
  C     -2.400925   -4.617259   -1.788367
  O     -3.585496   -2.627343   -1.020904
  H      0.069986    2.397657    0.685771
  H     -0.848945    1.973903   -0.764178
  H     -1.598435    1.826885    0.829019
  H      0.798145    0.150638   -0.142765
  H      0.036451    0.000898    1.432002
  H     -2.110897   -0.675185    0.314476
  H     -2.313413   -0.399073   -2.102694
  H     -0.545524   -0.319874   -2.282791
  H     -0.521556   -2.756853   -2.433322
  H      0.382273   -2.372459   -0.202075
  H     -1.141242   -2.934273    0.489660
  H     -2.944439   -2.859320   -2.901975
  H     -1.997066   -4.897528   -0.807513
  H     -3.367820   -5.112578   -1.912947
  H     -1.713375   -4.998805   -2.549928
  H     -3.377950   -2.944600   -0.135485

 Total Charge           Charge          ....    0
 Multiplicity           Mult            ....    1
 Number of Electrons    NEL             ....   72
 Basis Dimension        Dim             ....  375

ORBITAL ENERGIES
----------------

  NO   OCC          E(Eh)            E(eV)
   0   2.0000     -20.549277      -559.1743
   1   2.0000     -11.275580      -306.8241
   2   2.0000     -11.222094      -305.3687
   3   2.0000     -11.218180      -305.2622
   4   2.0000     -11.217609      -305.2467
   5   2.0000     -11.216257      -305.2099
   6   2.0000     -11.214727      -305.1682
   7   2.0000     -11.210267      -305.0469
   8   2.0000     -11.208992      -305.0122
   9   2.0000      -1.355508       -36.8852
  10   2.0000      -1.130269       -30.7562
  11   2.0000      -1.038052       -28.2468
  12   2.0000      -1.002651       -27.2835
  13   2.0000      -0.910839       -24.7852
  14   2.0000      -0.892512       -24.2865
  15   2.0000      -0.846221       -23.0268
  16   2.0000      -0.787696       -21.4343
  17   2.0000      -0.733171       -19.9506
  18   2.0000      -0.666623       -18.1397
  19   2.0000      -0.647963       -17.6320
  20   2.0000      -0.637200       -17.3391
  21   2.0000      -0.608550       -16.5595
  22   2.0000      -0.602665       -16.3993
  23   2.0000      -0.563728       -15.3398
  24   2.0000      -0.554246       -15.0818
  25   2.0000      -0.543611       -14.7924
  26   2.0000      -0.533763       -14.5244
  27   2.0000      -0.525551       -14.3010
  28   2.0000      -0.509611       -13.8672
  29   2.0000      -0.494392       -13.4531
  30   2.0000      -0.481715       -13.1081
  31   2.0000      -0.465194       -12.6586
  32   2.0000      -0.444049       -12.0832
  33   2.0000      -0.426817       -11.6143
  34   2.0000      -0.420353       -11.4384
  35   2.0000      -0.408330       -11.1112
  36   0.0000       0.130212         3.5432
  37   0.0000       0.144452         3.9308
  38   0.0000       0.147722         4.0197
  39   0.0000       0.166467         4.5298
  40   0.0000       0.181996         4.9524

MULLIKEN ATOMIC CHARGES
-----------------------
   0 C :   -0.390635
   1 C :   -0.225367
   2 C :    0.008637
   3 C :   -0.261509
   4 C :    0.028540
   5 C :   -0.359091
   6 C :    0.037678
   7 C :   -0.392470
   8 O :   -0.471377
   9 H :    0.132268
  10 H :    0.126954
  11 H :    0.122858
  12 H :    0.100813
  13 H :    0.108004
  14 H :    0.085164
  15 H :    0.120041
  16 H :    0.110725
  17 H :    0.095267
  18 H :    0.114825
  19 H :    0.109013
  20 H :    0.095582
  21 H :    0.118788
  22 H :    0.146717
  23 H :    0.127330
  24 H :    0.311245
Sum of atomic charges:    0.0000000

LOEWDIN ATOMIC CHARGES
----------------------
   0 C :   -0.317137
   1 C :   -0.284221
   2 C :   -0.238330
   3 C :   -0.197104
   4 C :   -0.217744
   5 C :   -0.205955
   6 C :   -0.355703
   7 C :   -0.302859
   8 O :   -0.016936
   9 H :    0.119661
  10 H :    0.121506
  11 H :    0.120934
  12 H :    0.135056
  13 H :    0.136470
  14 H :    0.147439
  15 H :    0.132010
  16 H :    0.132489
  17 H :    0.144563
  18 H :    0.135246
  19 H :    0.119431
  20 H :    0.146571
  21 H :    0.121125
  22 H :    0.125694
  23 H :    0.126526
  24 H :    0.171269

  Mayer bond orders larger than 0.1
B(  0-C ,  1-C ) :   0.9242 B(  0-C ,  9-H ) :   0.9412 B(  0-C , 10-H ) :   0.9388
B(  0-C , 11-H ) :   0.9386 B(  1-C ,  2-C ) :   0.8913 B(  1-C , 12-H ) :   0.9290
B(  1-C , 13-H ) :   0.9369 B(  2-C ,  3-C ) :   0.9680 B(  2-C ,  5-C ) :   0.9419
B(  2-C , 14-H ) :   0.9159 B(  3-C ,  4-C ) :   0.9157 B(  3-C , 15-H ) :   0.9149
B(  3-C , 16-H ) :   0.9152 B(  4-C ,  5-C ) :   0.8741 B(  4-C ,  6-C ) :   0.9223
B(  4-C , 17-H ) :   0.9042 B(  5-C , 18-H ) :   0.9072 B(  5-C , 19-H ) :   0.9386
B(  6-C ,  7-C ) :   0.9498 B(  6-C ,  8-O ) :   0.9178 B(  6-C , 20-H ) :   0.9292
B(  7-C , 21-H ) :   0.9223 B(  7-C , 22-H ) :   0.9413 B(  7-C , 23-H ) :   0.9346
B(  8-O , 24-H ) :   0.8453

MP2 TOTAL ENERGY:     -388.814912757 Eh
FINAL SINGLE POINT ENERGY      -388.814912757362

DIPOLE MOMENT
-------------
                                X             Y             Z
Electronic contribution:     -3.21535      -2.41337      -1.27830
Nuclear contribution   :      3.71044       2.08949       1.41452
                        -----------------------------------------
Total Dipole Moment    :      0.49509      -0.32388       0.13623
                        -----------------------------------------
Magnitude (a.u.)       :      0.60710
Magnitude (Debye)      :      1.54313

                             ****ORCA TERMINATED NORMALLY****
TOTAL RUN TIME: 0 days 0 hours 33 minutes 21 seconds 415 msec
