                         Program Version 3.0.3 - RELEASE   -
|  1> ! RI-MP2 RIJK def2-TZVP def2-TZVP/C def2-TZVP/JK TIGHTSCF
|  2> % maxcore 2000
|  3> % mp2 density relaxed end
|  4> *xyz 0 1
|  5>  O        0.9710182737     1.2137344052     1.5298726277
|  6>  C        0.4445629750     1.4915529829     0.4643497042
|  7>  N        1.0592951778     1.4414756679    -0.7362190956
|  8>  C        2.4673079083     1.0368144669    -0.8786454765
|  9>  C        3.4592184417     2.0626229280    -0.4370330961
| 10>  C        4.4038641662     2.7832479375    -1.1380187663
| 11>  C        5.0909660908     3.6074583546    -0.2050318090
| 12>  C        4.5409112021     3.3655696838     1.0344761376
| 13>  N        3.5610590208     2.4233218895     0.8846599284
| 14>  H       -0.6137947442     1.8049976565     0.3884545189
| 15>  H        0.5680325006     1.7935271855    -1.5421242519
| 16>  H        2.5862367777     0.1097137710    -0.3067439996
| 17>  H        2.6351122456     0.8006071846    -1.9311808799
| 18>  H        4.5856323352     2.7157847620    -2.2006154199
| 19>  H        5.8965872020     4.2933233550    -0.4173085400
| 20>  H        4.7659037838     3.7841580567     2.0024448864
| 21>  H        2.9311048130     2.0673424324     1.5904699015
| 22> *
| 23>
| 24>                          ****END OF INPUT****

CARTESIAN COORDINATES (ANGSTROEM)
---------------------------------
  O      0.971018    1.213734    1.529873
  C      0.444563    1.491553    0.464350
  N      1.059295    1.441476   -0.736219
  C      2.467308    1.036814   -0.878645
  C      3.459218    2.062623   -0.437033
  C      4.403864    2.783248   -1.138019
  C      5.090966    3.607458   -0.205032
  C      4.540911    3.365570    1.034476
  N      3.561059    2.423322    0.884660
  H     -0.613795    1.804998    0.388455
  H      0.568033    1.793527   -1.542124
  H      2.586237    0.109714   -0.306744
  H      2.635112    0.800607   -1.931181
  H      4.585632    2.715785   -2.200615
  H      5.896587    4.293323   -0.417309
  H      4.765904    3.784158    2.002445
  H      2.931105    2.067342    1.590470

 Total Charge           Charge          ....    0
 Multiplicity           Mult            ....    1
 Number of Electrons    NEL             ....   66
 Basis Dimension        Dim             ....  327

ORBITAL ENERGIES
----------------

  NO   OCC          E(Eh)            E(eV)
   0   2.0000     -20.535039      -558.7868
   1   2.0000     -15.601715      -424.5442
   2   2.0000     -15.589482      -424.2114
   3   2.0000     -11.361297      -309.1566
   4   2.0000     -11.285261      -307.0876
   5   2.0000     -11.250987      -306.1549
   6   2.0000     -11.245541      -306.0067
   7   2.0000     -11.206702      -304.9499
   8   2.0000     -11.202569      -304.8374
   9   2.0000      -1.394775       -37.9538
  10   2.0000      -1.285845       -34.9896
  11   2.0000      -1.244346       -33.8604
  12   2.0000      -1.036945       -28.2167
  13   2.0000      -1.027101       -27.9488
  14   2.0000      -0.928957       -25.2782
  15   2.0000      -0.824448       -22.4344
  16   2.0000      -0.785457       -21.3734
  17   2.0000      -0.764843       -20.8124
  18   2.0000      -0.750430       -20.4202
  19   2.0000      -0.710899       -19.3445
  20   2.0000      -0.658122       -17.9084
  21   2.0000      -0.612183       -16.6583
  22   2.0000      -0.608776       -16.5656
  23   2.0000      -0.588452       -16.0126
  24   2.0000      -0.573958       -15.6182
  25   2.0000      -0.551165       -14.9980
  26   2.0000      -0.544589       -14.8190
  27   2.0000      -0.538648       -14.6574
  28   2.0000      -0.517849       -14.0914
  29   2.0000      -0.447475       -12.1764
  30   2.0000      -0.412492       -11.2245
  31   2.0000      -0.342061        -9.3079
  32   2.0000      -0.290910        -7.9161
  33   0.0000       0.120220         3.2714
  34   0.0000       0.151897         4.1333
  35   0.0000       0.166444         4.5292
  36   0.0000       0.169567         4.6142
  37   0.0000       0.179463         4.8834

MULLIKEN ATOMIC CHARGES
-----------------------
   0 O :   -0.419472
   1 C :    0.220851
   2 N :   -0.301280
   3 C :   -0.220310
   4 C :    0.167025
   5 C :   -0.255352
   6 C :   -0.155164
   7 C :   -0.106101
   8 N :   -0.251476
   9 H :    0.095496
  10 H :    0.245861
  11 H :    0.162966
  12 H :    0.158878
  13 H :    0.120486
  14 H :    0.128149
  15 H :    0.141270
  16 H :    0.268172
Sum of atomic charges:    0.0000000

LOEWDIN ATOMIC CHARGES
----------------------
   0 O :    0.031362
   1 C :   -0.434435
   2 N :    0.094195
   3 C :   -0.242281
   4 C :   -0.246636
   5 C :   -0.180959
   6 C :   -0.203657
   7 C :   -0.233772
   8 N :    0.210085
   9 H :    0.114971
  10 H :    0.186565
  11 H :    0.150509
  12 H :    0.149085
  13 H :    0.137652
  14 H :    0.137059
  15 H :    0.132279
  16 H :    0.197978

  Mayer bond orders larger than 0.1
B(  0-O ,  1-C ) :   1.7842 B(  1-C ,  2-N ) :   1.2082 B(  1-C ,  9-H ) :   0.9293
B(  2-N ,  3-C ) :   0.8842 B(  2-N , 10-H ) :   0.8687 B(  3-C ,  4-C ) :   0.8499
B(  3-C , 11-H ) :   0.9511 B(  3-C , 12-H ) :   0.9564 B(  4-C ,  5-C ) :   1.4483
B(  4-C ,  8-N ) :   1.1345 B(  5-C ,  6-C ) :   1.2944 B(  5-C , 13-H ) :   0.9405
B(  6-C ,  7-C ) :   1.4627 B(  6-C , 14-H ) :   0.9357 B(  7-C ,  8-N ) :   1.1627
B(  7-C , 15-H ) :   0.9233 B(  8-N , 16-H ) :   0.8411

MP2 TOTAL ENERGY:     -417.364127973 Eh
FINAL SINGLE POINT ENERGY      -417.364127972826

DIPOLE MOMENT
-------------
                                X             Y             Z
Electronic contribution:     -1.41805      -0.36574       1.92314
Nuclear contribution   :      0.78446       0.35635      -2.86183
                        -----------------------------------------
Total Dipole Moment    :     -0.63359      -0.00938      -0.93868
                        -----------------------------------------
Magnitude (a.u.)       :      1.13254
Magnitude (Debye)      :      2.87869

                             ****ORCA TERMINATED NORMALLY****
TOTAL RUN TIME: 0 days 0 hours 15 minutes 34 seconds 380 msec
