                         Program Version 3.0.3 - RELEASE   -
|  1> ! RI-MP2 RIJK def2-TZVP def2-TZVP/C def2-TZVP/JK TIGHTSCF
|  2> % maxcore 2000
|  3> % mp2 density relaxed end
|  4> *xyz 0 1
|  5>  C       -0.3198442691     1.6125789171     0.0414691615
|  6>  C       -0.0579339682     0.1005857464    -0.0062229997
|  7>  N       -1.2515226120    -0.7403761432     0.0072849573
|  8>  C       -1.9948821920    -0.8375119979    -1.2364310254
|  9>  C       -2.0071476398    -0.8060276808     1.1656675820
| 10>  C       -3.3515201180    -1.0927427774     1.3650364596
| 11>  C       -3.5121129969    -1.0791255359     2.7681629950
| 12>  N       -2.3883813176    -0.8000785016     3.4104042430
| 13>  N       -1.4786726936    -0.6320831779     2.4095062869
| 14>  H        0.6260701484     2.1635195275     0.0312392407
| 15>  H       -0.9079532408     1.9380307406    -0.8219281231
| 16>  H       -0.8667888834     1.8881231266     0.9476407950
| 17>  H        0.5014228296    -0.1536923522    -0.9126179380
| 18>  H        0.5903081203    -0.1945164698     0.8279468349
| 19>  H       -2.6092945381    -1.7422611423    -1.2265621808
| 20>  H       -2.6581042973     0.0221796803    -1.4218477784
| 21>  H       -1.2892322362    -0.9169037822    -2.0674604876
| 22>  H       -4.0998371531    -1.2715255301     0.6124259402
| 23>  H       -4.4168190483    -1.2581016006     3.3318063707
| 24>  H       -0.5240118138    -0.4428620166     2.6549339564
| 25> *
| 26>
| 27>                          ****END OF INPUT****

CARTESIAN COORDINATES (ANGSTROEM)
---------------------------------
  C     -0.319844    1.612579    0.041469
  C     -0.057934    0.100586   -0.006223
  N     -1.251523   -0.740376    0.007285
  C     -1.994882   -0.837512   -1.236431
  C     -2.007148   -0.806028    1.165668
  C     -3.351520   -1.092743    1.365036
  C     -3.512113   -1.079126    2.768163
  N     -2.388381   -0.800079    3.410404
  N     -1.478673   -0.632083    2.409506
  H      0.626070    2.163520    0.031239
  H     -0.907953    1.938031   -0.821928
  H     -0.866789    1.888123    0.947641
  H      0.501423   -0.153692   -0.912618
  H      0.590308   -0.194516    0.827947
  H     -2.609295   -1.742261   -1.226562
  H     -2.658104    0.022180   -1.421848
  H     -1.289232   -0.916904   -2.067460
  H     -4.099837   -1.271526    0.612426
  H     -4.416819   -1.258102    3.331806
  H     -0.524012   -0.442862    2.654934

 Total Charge           Charge          ....    0
 Multiplicity           Mult            ....    1
 Number of Electrons    NEL             ....   68
 Basis Dimension        Dim             ....  345

ORBITAL ENERGIES
----------------

  NO   OCC          E(Eh)            E(eV)
   0   2.0000     -15.616049      -424.9343
   1   2.0000     -15.580742      -423.9735
   2   2.0000     -15.564323      -423.5268
   3   2.0000     -11.309261      -307.7406
   4   2.0000     -11.275947      -306.8341
   5   2.0000     -11.263437      -306.4937
   6   2.0000     -11.242831      -305.9330
   7   2.0000     -11.227298      -305.5103
   8   2.0000     -11.199829      -304.7628
   9   2.0000      -1.359144       -36.9842
  10   2.0000      -1.259057       -34.2607
  11   2.0000      -1.082301       -29.4509
  12   2.0000      -1.048096       -28.5202
  13   2.0000      -1.013662       -27.5831
  14   2.0000      -0.933527       -25.4026
  15   2.0000      -0.864596       -23.5269
  16   2.0000      -0.798591       -21.7308
  17   2.0000      -0.783513       -21.3205
  18   2.0000      -0.721038       -19.6205
  19   2.0000      -0.658523       -17.9193
  20   2.0000      -0.636866       -17.3300
  21   2.0000      -0.612053       -16.6548
  22   2.0000      -0.603997       -16.4356
  23   2.0000      -0.590311       -16.0632
  24   2.0000      -0.572291       -15.5728
  25   2.0000      -0.566428       -15.4133
  26   2.0000      -0.564643       -15.3647
  27   2.0000      -0.545028       -14.8310
  28   2.0000      -0.518925       -14.1207
  29   2.0000      -0.504319       -13.7232
  30   2.0000      -0.442367       -12.0374
  31   2.0000      -0.425165       -11.5693
  32   2.0000      -0.357103        -9.7173
  33   2.0000      -0.294699        -8.0192
  34   0.0000       0.124256         3.3812
  35   0.0000       0.147351         4.0096
  36   0.0000       0.163292         4.4434
  37   0.0000       0.168157         4.5758
  38   0.0000       0.175099         4.7647

MULLIKEN ATOMIC CHARGES
-----------------------
   0 C :   -0.398133
   1 C :   -0.173343
   2 N :   -0.126413
   3 C :   -0.336788
   4 C :    0.177966
   5 C :   -0.239073
   6 C :   -0.123001
   7 N :   -0.239929
   8 N :   -0.129366
   9 H :    0.134814
  10 H :    0.133467
  11 H :    0.145991
  12 H :    0.131270
  13 H :    0.109136
  14 H :    0.151895
  15 H :    0.133961
  16 H :    0.138771
  17 H :    0.137276
  18 H :    0.124782
  19 H :    0.246716
Sum of atomic charges:   -0.0000000

LOEWDIN ATOMIC CHARGES
----------------------
   0 C :   -0.318669
   1 C :   -0.300053
   2 N :    0.131481
   3 C :   -0.298665
   4 C :   -0.297512
   5 C :   -0.214262
   6 C :   -0.291179
   7 N :    0.007151
   8 N :    0.131097
   9 H :    0.124724
  10 H :    0.123127
  11 H :    0.125758
  12 H :    0.136847
  13 H :    0.128240
  14 H :    0.125447
  15 H :    0.110737
  16 H :    0.122237
  17 H :    0.139331
  18 H :    0.131792
  19 H :    0.182370

  Mayer bond orders larger than 0.1
B(  0-C ,  1-C ) :   0.9113 B(  0-C ,  9-H ) :   0.9339 B(  0-C , 10-H ) :   0.9359
B(  0-C , 11-H ) :   0.9308 B(  1-C ,  2-N ) :   0.9083 B(  1-C , 12-H ) :   0.9409
B(  1-C , 13-H ) :   0.9352 B(  2-N ,  3-C ) :   0.9081 B(  2-N ,  4-C ) :   1.1134
B(  3-C , 14-H ) :   0.9334 B(  3-C , 15-H ) :   0.9273 B(  3-C , 16-H ) :   0.9326
B(  4-C ,  5-C ) :   1.3740 B(  4-C ,  7-N ) :   0.1012 B(  4-C ,  8-N ) :   1.1685
B(  5-C ,  6-C ) :   1.2797 B(  5-C , 17-H ) :   0.9290 B(  6-C ,  7-N ) :   1.5756
B(  6-C , 18-H ) :   0.9447 B(  7-N ,  8-N ) :   1.0140 B(  8-N , 19-H ) :   0.8700

MP2 TOTAL ENERGY:     -398.644002502 Eh
FINAL SINGLE POINT ENERGY      -398.644002502056

DIPOLE MOMENT
-------------
                                X             Y             Z
Electronic contribution:     -2.93607      -4.25210       7.78969
Nuclear contribution   :      3.66023       4.61329      -9.10017
                        -----------------------------------------
Total Dipole Moment    :      0.72416       0.36119      -1.31048
                        -----------------------------------------
Magnitude (a.u.)       :      1.54020
Magnitude (Debye)      :      3.91487

                             ****ORCA TERMINATED NORMALLY****
TOTAL RUN TIME: 0 days 0 hours 21 minutes 24 seconds 557 msec
