                         Program Version 3.0.3 - RELEASE   -
|  1> ! RI-MP2 RIJK def2-TZVP def2-TZVP/C def2-TZVP/JK TIGHTSCF
|  2> % maxcore 2000
|  3> % mp2 density relaxed end
|  4> *xyz 0 1
|  5>  C       -0.1244279769     1.4790666920    -0.3709823136
|  6>  C       -0.1155908070    -0.0504089776    -0.3373081775
|  7>  C       -1.4421674593    -0.6333698549     0.1676143636
|  8>  O       -2.5342197111    -0.2389401496    -0.6826494421
|  9>  C       -3.0697051083    -1.3553892196    -1.3521904397
| 10>  C       -2.7651394179    -1.3409548754    -2.8537016862
| 11>  O       -1.9655457820    -0.6198019300    -3.3841952239
| 12>  C       -2.4216052736    -2.5602537336    -0.7021282909
| 13>  C       -1.4983634286    -2.1378527586     0.1534921075
| 14>  H        0.8274358489     1.8686306724    -0.7434924772
| 15>  H       -0.9215550217     1.8352685022    -1.0280558242
| 16>  H       -0.2917034173     1.8991650139     0.6275777024
| 17>  H        0.0700240319    -0.4460744653    -1.3413956606
| 18>  H        0.6892009556    -0.4157545996     0.3142595241
| 19>  H       -1.6483904549    -0.2303680063     1.1718488471
| 20>  H       -4.1684693845    -1.3642749043    -1.2454793763
| 21>  H       -3.3545267679    -2.0921628452    -3.4319706932
| 22>  H       -2.6780517361    -3.5823427576    -0.9472374537
| 23>  H       -0.8480112693    -2.7562098132     0.7591162442
| 24> *
| 25>
| 26>                          ****END OF INPUT****

CARTESIAN COORDINATES (ANGSTROEM)
---------------------------------
  C     -0.124428    1.479067   -0.370982
  C     -0.115591   -0.050409   -0.337308
  C     -1.442167   -0.633370    0.167614
  O     -2.534220   -0.238940   -0.682649
  C     -3.069705   -1.355389   -1.352190
  C     -2.765139   -1.340955   -2.853702
  O     -1.965546   -0.619802   -3.384195
  C     -2.421605   -2.560254   -0.702128
  C     -1.498363   -2.137853    0.153492
  H      0.827436    1.868631   -0.743492
  H     -0.921555    1.835269   -1.028056
  H     -0.291703    1.899165    0.627578
  H      0.070024   -0.446074   -1.341396
  H      0.689201   -0.415755    0.314260
  H     -1.648390   -0.230368    1.171849
  H     -4.168469   -1.364275   -1.245479
  H     -3.354527   -2.092163   -3.431971
  H     -2.678052   -3.582343   -0.947237
  H     -0.848011   -2.756210    0.759116

 Total Charge           Charge          ....    0
 Multiplicity           Mult            ....    1
 Number of Electrons    NEL             ....   68
 Basis Dimension        Dim             ....  339

ORBITAL ENERGIES
----------------

  NO   OCC          E(Eh)            E(eV)
   0   2.0000     -20.560710      -559.4854
   1   2.0000     -20.560365      -559.4760
   2   2.0000     -11.333403      -308.3976
   3   2.0000     -11.304700      -307.6165
   4   2.0000     -11.289193      -307.1946
   5   2.0000     -11.249666      -306.1190
   6   2.0000     -11.247131      -306.0500
   7   2.0000     -11.219074      -305.2865
   8   2.0000     -11.204928      -304.9016
   9   2.0000      -1.408262       -38.3208
  10   2.0000      -1.383056       -37.6349
  11   2.0000      -1.090703       -29.6795
  12   2.0000      -1.064943       -28.9786
  13   2.0000      -0.991498       -26.9800
  14   2.0000      -0.893899       -24.3242
  15   2.0000      -0.816126       -22.2079
  16   2.0000      -0.782554       -21.2944
  17   2.0000      -0.770952       -20.9787
  18   2.0000      -0.714677       -19.4473
  19   2.0000      -0.693250       -18.8643
  20   2.0000      -0.653416       -17.7804
  21   2.0000      -0.610468       -16.6117
  22   2.0000      -0.601415       -16.3653
  23   2.0000      -0.595171       -16.1954
  24   2.0000      -0.567071       -15.4308
  25   2.0000      -0.556318       -15.1382
  26   2.0000      -0.530708       -14.4413
  27   2.0000      -0.508103       -13.8262
  28   2.0000      -0.503465       -13.7000
  29   2.0000      -0.477511       -12.9937
  30   2.0000      -0.475607       -12.9419
  31   2.0000      -0.447827       -12.1860
  32   2.0000      -0.429818       -11.6959
  33   2.0000      -0.362597        -9.8668
  34   0.0000       0.114825         3.1245
  35   0.0000       0.143542         3.9060
  36   0.0000       0.150065         4.0835
  37   0.0000       0.156264         4.2522
  38   0.0000       0.169984         4.6255

MULLIKEN ATOMIC CHARGES
-----------------------
   0 C :   -0.402500
   1 C :   -0.210713
   2 C :    0.138332
   3 O :   -0.326277
   4 C :    0.182385
   5 C :    0.070883
   6 O :   -0.254223
   7 C :   -0.215131
   8 C :   -0.195960
   9 H :    0.131088
  10 H :    0.152746
  11 H :    0.113715
  12 H :    0.128033
  13 H :    0.100669
  14 H :    0.101201
  15 H :    0.121092
  16 H :    0.073566
  17 H :    0.148024
  18 H :    0.143071
Sum of atomic charges:   -0.0000000

LOEWDIN ATOMIC CHARGES
----------------------
   0 C :   -0.316607
   1 C :   -0.270438
   2 C :   -0.279043
   3 O :    0.218233
   4 C :   -0.311094
   5 C :   -0.273757
   6 O :    0.150319
   7 C :   -0.136624
   8 C :   -0.128726
   9 H :    0.121011
  10 H :    0.128643
  11 H :    0.118810
  12 H :    0.143200
  13 H :    0.137493
  14 H :    0.146148
  15 H :    0.152509
  16 H :    0.110963
  17 H :    0.143491
  18 H :    0.145468

  Mayer bond orders larger than 0.1
B(  0-C ,  1-C ) :   0.9205 B(  0-C ,  9-H ) :   0.9394 B(  0-C , 10-H ) :   0.9375
B(  0-C , 11-H ) :   0.9359 B(  1-C ,  2-C ) :   0.8933 B(  1-C , 12-H ) :   0.9217
B(  1-C , 13-H ) :   0.9280 B(  2-C ,  3-O ) :   0.8994 B(  2-C ,  8-C ) :   0.9457
B(  2-C , 14-H ) :   0.9181 B(  3-O ,  4-C ) :   0.9775 B(  4-C ,  5-C ) :   0.8114
B(  4-C ,  7-C ) :   0.9190 B(  4-C , 15-H ) :   0.8952 B(  5-C ,  6-O ) :   2.0147
B(  5-C , 16-H ) :   0.9236 B(  7-C ,  8-C ) :   1.8166 B(  7-C , 17-H ) :   0.9076
B(  8-C , 18-H ) :   0.9145

MP2 TOTAL ENERGY:     -422.322117893 Eh
FINAL SINGLE POINT ENERGY      -422.322117892524

DIPOLE MOMENT
-------------
                                X             Y             Z
Electronic contribution:     -5.13258      -3.35007      -3.83905
Nuclear contribution   :      4.91674       2.36527       4.47731
                        -----------------------------------------
Total Dipole Moment    :     -0.21584      -0.98480       0.63826
                        -----------------------------------------
Magnitude (a.u.)       :      1.19323
Magnitude (Debye)      :      3.03295

                             ****ORCA TERMINATED NORMALLY****
TOTAL RUN TIME: 0 days 0 hours 30 minutes 23 seconds 290 msec
