                         Program Version 3.0.3 - RELEASE   -
|  1> ! RI-MP2 RIJK def2-TZVP def2-TZVP/C def2-TZVP/JK TIGHTSCF
|  2> % maxcore 2000
|  3> % mp2 density relaxed end
|  4> *xyz 0 1
|  5>  C       -0.0620552889     1.4297634463     0.0308377656
|  6>  C        1.3296876104     0.8315308932     0.0044181070
|  7>  C        2.0594751256     0.4900938351     1.2853567578
|  8>  O        1.1903700718    -0.3777436008     2.0477009840
|  9>  C        0.1288794929    -0.8223672331     1.2819462483
| 10>  O        0.2440825522    -2.1946920042     0.7809755510
| 11>  C       -0.0356219264    -2.1105937072    -0.5442569663
| 12>  N       -0.1854558335    -0.9686058771    -1.0922922260
| 13>  C        0.0969890118    -0.0509032812    -0.0242206381
| 14>  H       -0.4427744751     1.8648192676     0.9515223838
| 15>  H       -0.3822105790     1.9298908646    -0.8763762291
| 16>  H        1.9096282172     0.9479068708    -0.9023922815
| 17>  H        2.9991813513    -0.0289473125     1.0602185878
| 18>  H        2.2834466485     1.3480883774     1.9282556658
| 19>  H       -0.7662844647    -0.8139483813     1.9132331157
| 20>  H       -0.1062549642    -3.0641694576    -1.0551668559
| 21> *
| 22>
| 23>                          ****END OF INPUT****

CARTESIAN COORDINATES (ANGSTROEM)
---------------------------------
  C     -0.062055    1.429763    0.030838
  C      1.329688    0.831531    0.004418
  C      2.059475    0.490094    1.285357
  O      1.190370   -0.377744    2.047701
  C      0.128879   -0.822367    1.281946
  O      0.244083   -2.194692    0.780976
  C     -0.035622   -2.110594   -0.544257
  N     -0.185456   -0.968606   -1.092292
  C      0.096989   -0.050903   -0.024221
  H     -0.442774    1.864819    0.951522
  H     -0.382211    1.929891   -0.876376
  H      1.909628    0.947907   -0.902392
  H      2.999181   -0.028947    1.060219
  H      2.283447    1.348088    1.928256
  H     -0.766284   -0.813948    1.913233
  H     -0.106255   -3.064169   -1.055167

 Total Charge           Charge          ....    0
 Multiplicity           Mult            ....    1
 Number of Electrons    NEL             ....   66
 Basis Dimension        Dim             ....  321

ORBITAL ENERGIES
----------------

  NO   OCC          E(Eh)            E(eV)
   0   2.0000     -20.599468      -560.5400
   1   2.0000     -20.577042      -559.9298
   2   2.0000     -15.559260      -423.3890
   3   2.0000     -11.350299      -308.8573
   4   2.0000     -11.340392      -308.5878
   5   2.0000     -11.292647      -307.2886
   6   2.0000     -11.276750      -306.8560
   7   2.0000     -11.247974      -306.0729
   8   2.0000     -11.244942      -305.9904
   9   2.0000      -1.457065       -39.6488
  10   2.0000      -1.390464       -37.8364
  11   2.0000      -1.238078       -33.6898
  12   2.0000      -1.143505       -31.1164
  13   2.0000      -1.011838       -27.5335
  14   2.0000      -0.922246       -25.0956
  15   2.0000      -0.832629       -22.6570
  16   2.0000      -0.808400       -21.9977
  17   2.0000      -0.802012       -21.8239
  18   2.0000      -0.715162       -19.4606
  19   2.0000      -0.691390       -18.8137
  20   2.0000      -0.673261       -18.3204
  21   2.0000      -0.660482       -17.9726
  22   2.0000      -0.618702       -16.8357
  23   2.0000      -0.600449       -16.3390
  24   2.0000      -0.579597       -15.7716
  25   2.0000      -0.560470       -15.2512
  26   2.0000      -0.531642       -14.4667
  27   2.0000      -0.503579       -13.7031
  28   2.0000      -0.486483       -13.2379
  29   2.0000      -0.472225       -12.8499
  30   2.0000      -0.439252       -11.9527
  31   2.0000      -0.432632       -11.7725
  32   2.0000      -0.359679        -9.7874
  33   0.0000       0.146119         3.9761
  34   0.0000       0.150070         4.0836
  35   0.0000       0.165420         4.5013
  36   0.0000       0.176960         4.8153
  37   0.0000       0.179061         4.8725

MULLIKEN ATOMIC CHARGES
-----------------------
   0 C :   -0.276730
   1 C :   -0.130489
   2 C :   -0.043084
   3 O :   -0.282852
   4 C :    0.128794
   5 O :   -0.255693
   6 C :    0.101842
   7 N :   -0.265806
   8 C :    0.107735
   9 H :    0.141547
  10 H :    0.145098
  11 H :    0.145068
  12 H :    0.114150
  13 H :    0.118867
  14 H :    0.104089
  15 H :    0.147464
Sum of atomic charges:    0.0000000

LOEWDIN ATOMIC CHARGES
----------------------
   0 C :   -0.166198
   1 C :   -0.175007
   2 C :   -0.256744
   3 O :    0.198070
   4 C :   -0.309984
   5 O :    0.224423
   6 C :   -0.329106
   7 N :    0.108189
   8 C :   -0.270493
   9 H :    0.142212
  10 H :    0.146947
  11 H :    0.154977
  12 H :    0.130967
  13 H :    0.129498
  14 H :    0.138700
  15 H :    0.133550

  Mayer bond orders larger than 0.1
B(  0-C ,  1-C ) :   0.9241 B(  0-C ,  8-C ) :   0.8825 B(  0-C ,  9-H ) :   0.9062
B(  0-C , 10-H ) :   0.9140 B(  1-C ,  2-C ) :   0.9630 B(  1-C ,  8-C ) :   0.7967
B(  1-C , 11-H ) :   0.9094 B(  2-C ,  3-O ) :   0.8971 B(  2-C , 12-H ) :   0.9259
B(  2-C , 13-H ) :   0.9188 B(  3-O ,  4-C ) :   1.0675 B(  4-C ,  5-O ) :   0.8653
B(  4-C ,  8-C ) :   0.9602 B(  4-C , 14-H ) :   0.9369 B(  5-O ,  6-C ) :   1.0832
B(  6-C ,  7-N ) :   1.7711 B(  6-C , 15-H ) :   0.9249 B(  7-N ,  8-C ) :   1.0125

MP2 TOTAL ENERGY:     -437.166539848 Eh
FINAL SINGLE POINT ENERGY      -437.166539847579

DIPOLE MOMENT
-------------
                                X             Y             Z
Electronic contribution:     -1.39332      -4.41316       0.12729
Nuclear contribution   :      1.57994       4.92395      -0.16190
                        -----------------------------------------
Total Dipole Moment    :      0.18662       0.51078      -0.03461
                        -----------------------------------------
Magnitude (a.u.)       :      0.54491
Magnitude (Debye)      :      1.38504

                             ****ORCA TERMINATED NORMALLY****
TOTAL RUN TIME: 0 days 0 hours 16 minutes 29 seconds 102 msec
