                         Program Version 3.0.3 - RELEASE   -
|  1> ! RI-MP2 RIJK def2-TZVP def2-TZVP/C def2-TZVP/JK TIGHTSCF
|  2> % maxcore 2000
|  3> % mp2 density relaxed end
|  4> *xyz 0 1
|  5>  C       -0.0501234578     1.5141932507     0.0539454314
|  6>  C        0.0187644512     0.0046761681     0.0402131589
|  7>  C        1.3300676018    -0.7045361658    -0.2427917047
|  8>  C        0.7524092214    -0.7440447313     1.1400599765
|  9>  O        1.4442771797    -0.0090872535     2.1085156932
| 10>  C        0.1630264771    -2.0113338445     1.6762946421
| 11>  C        0.7833642965    -2.7399971068     2.7878238308
| 12>  O       -0.3622992286    -1.8999639691     3.0084792023
| 13>  H        0.8269659055     1.9347505187     0.5517859871
| 14>  H       -0.0958371415     1.9170703008    -0.9635212696
| 15>  H       -0.9387413719     1.8636829752     0.5912095796
| 16>  H       -0.8702938530    -0.4917854858    -0.3428824265
| 17>  H        1.3283079003    -1.6100777517    -0.8406109756
| 18>  H        2.2128372835    -0.0850317121    -0.3620787818
| 19>  H        0.8511413567     0.0397672295     2.8709411386
| 20>  H       -0.4749905870    -2.5615270304     0.9842189445
| 21>  H        0.6003337728    -3.8067901242     2.9027225933
| 22>  H        1.7139527333    -2.3669933479     3.2079383199
| 23> *
| 24>
| 25>                          ****END OF INPUT****

CARTESIAN COORDINATES (ANGSTROEM)
---------------------------------
  C     -0.050123    1.514193    0.053945
  C      0.018764    0.004676    0.040213
  C      1.330068   -0.704536   -0.242792
  C      0.752409   -0.744045    1.140060
  O      1.444277   -0.009087    2.108516
  C      0.163026   -2.011334    1.676295
  C      0.783364   -2.739997    2.787824
  O     -0.362299   -1.899964    3.008479
  H      0.826966    1.934751    0.551786
  H     -0.095837    1.917070   -0.963521
  H     -0.938741    1.863683    0.591210
  H     -0.870294   -0.491785   -0.342882
  H      1.328308   -1.610078   -0.840611
  H      2.212837   -0.085032   -0.362079
  H      0.851141    0.039767    2.870941
  H     -0.474991   -2.561527    0.984219
  H      0.600334   -3.806790    2.902723
  H      1.713953   -2.366993    3.207938

 Total Charge           Charge          ....    0
 Multiplicity           Mult            ....    1
 Number of Electrons    NEL             ....   62
 Basis Dimension        Dim             ....  308

ORBITAL ENERGIES
----------------

  NO   OCC          E(Eh)            E(eV)
   0   2.0000     -20.574419      -559.8584
   1   2.0000     -20.561962      -559.5194
   2   2.0000     -11.294840      -307.3482
   3   2.0000     -11.291748      -307.2641
   4   2.0000     -11.285458      -307.0929
   5   2.0000     -11.234787      -305.7141
   6   2.0000     -11.227738      -305.5223
   7   2.0000     -11.215223      -305.1817
   8   2.0000      -1.419374       -38.6231
   9   2.0000      -1.370645       -37.2971
  10   2.0000      -1.142553       -31.0904
  11   2.0000      -0.978428       -26.6244
  12   2.0000      -0.937329       -25.5060
  13   2.0000      -0.886626       -24.1263
  14   2.0000      -0.797741       -21.7076
  15   2.0000      -0.781324       -21.2609
  16   2.0000      -0.727104       -19.7855
  17   2.0000      -0.684350       -18.6221
  18   2.0000      -0.654503       -17.8099
  19   2.0000      -0.615416       -16.7463
  20   2.0000      -0.605220       -16.4689
  21   2.0000      -0.573082       -15.5944
  22   2.0000      -0.551396       -15.0042
  23   2.0000      -0.545655       -14.8480
  24   2.0000      -0.533136       -14.5074
  25   2.0000      -0.511730       -13.9249
  26   2.0000      -0.498463       -13.5639
  27   2.0000      -0.470929       -12.8146
  28   2.0000      -0.460280       -12.5248
  29   2.0000      -0.414140       -11.2693
  30   2.0000      -0.376356       -10.2412
  31   0.0000       0.142801         3.8858
  32   0.0000       0.156429         4.2566
  33   0.0000       0.171252         4.6600
  34   0.0000       0.176015         4.7896
  35   0.0000       0.193870         5.2755

MULLIKEN ATOMIC CHARGES
-----------------------
   0 C :   -0.433302
   1 C :   -0.108654
   2 C :   -0.316571
   3 C :    0.281901
   4 O :   -0.486838
   5 C :   -0.035815
   6 C :   -0.071783
   7 O :   -0.352803
   8 H :    0.150996
   9 H :    0.132526
  10 H :    0.132021
  11 H :    0.115311
  12 H :    0.136940
  13 H :    0.136386
  14 H :    0.335436
  15 H :    0.128624
  16 H :    0.120700
  17 H :    0.134926
Sum of atomic charges:   -0.0000000

LOEWDIN ATOMIC CHARGES
----------------------
   0 C :   -0.296486
   1 C :   -0.215694
   2 C :   -0.182388
   3 C :   -0.344795
   4 O :    0.036498
   5 C :   -0.259491
   6 C :   -0.256197
   7 O :    0.129526
   8 H :    0.131700
   9 H :    0.125217
  10 H :    0.125587
  11 H :    0.147325
  12 H :    0.134848
  13 H :    0.144524
  14 H :    0.189430
  15 H :    0.145055
  16 H :    0.119942
  17 H :    0.125401

  Mayer bond orders larger than 0.1
B(  0-C ,  1-C ) :   0.8883 B(  0-C ,  8-H ) :   0.9363 B(  0-C ,  9-H ) :   0.9380
B(  0-C , 10-H ) :   0.9410 B(  1-C ,  2-C ) :   0.8903 B(  1-C ,  3-C ) :   0.8667
B(  1-C , 11-H ) :   0.9159 B(  2-C ,  3-C ) :   0.8734 B(  2-C , 12-H ) :   0.9278
B(  2-C , 13-H ) :   0.9141 B(  3-C ,  4-O ) :   0.9154 B(  3-C ,  5-C ) :   0.9447
B(  4-O , 14-H ) :   0.8187 B(  5-C ,  6-C ) :   0.9850 B(  5-C ,  7-O ) :   0.9141
B(  5-C , 15-H ) :   0.8960 B(  6-C ,  7-O ) :   0.8710 B(  6-C , 16-H ) :   0.9211
B(  6-C , 17-H ) :   0.9063

MP2 TOTAL ENERGY:     -384.268740702 Eh
FINAL SINGLE POINT ENERGY      -384.268740702450

DIPOLE MOMENT
-------------
                                X             Y             Z
Electronic contribution:     -0.06031      -3.10873       4.33372
Nuclear contribution   :      0.02694       2.70776      -4.72380
                        -----------------------------------------
Total Dipole Moment    :     -0.03336      -0.40097      -0.39008
                        -----------------------------------------
Magnitude (a.u.)       :      0.56041
Magnitude (Debye)      :      1.42444

                             ****ORCA TERMINATED NORMALLY****
TOTAL RUN TIME: 0 days 0 hours 11 minutes 17 seconds 361 msec
