                         Program Version 3.0.3 - RELEASE   -
|  1> ! RI-MP2 RIJK def2-TZVP def2-TZVP/C def2-TZVP/JK TIGHTSCF
|  2> % maxcore 2000
|  3> % mp2 density relaxed end
|  4> *xyz 0 1
|  5>  C       -0.0837503317     1.4605818825    -0.0378340398
|  6>  N        0.0562259328     0.0156217857    -0.0368466703
|  7>  C        0.5953207015    -0.7180409723    -1.0310951881
|  8>  N        0.5903490984    -2.0076929700    -0.9947671662
|  9>  C        1.1858726921    -2.6745590570    -2.0478489965
| 10>  N        1.2173947852    -3.9551014242    -2.0906570371
| 11>  C        1.7659215991    -1.8047301526    -3.0908401702
| 12>  N        1.7515395482    -0.5272075910    -3.1039660339
| 13>  O        1.1151400130     0.0816325126    -2.0032711567
| 14>  H        0.8741372892     1.9420303202    -0.2478401814
| 15>  H       -0.8136652437     1.8080444338    -0.7784489374
| 16>  H       -0.4175939714     1.7707398122     0.9534909972
| 17>  H       -0.4017355298    -0.5354999438     0.6705831224
| 18>  H        1.6954214963    -4.2647851839    -2.9378800830
| 19>  H        2.2627422507    -2.2463886124    -3.9522202690
| 20> *
| 21>
| 22>                          ****END OF INPUT****

CARTESIAN COORDINATES (ANGSTROEM)
---------------------------------
  C     -0.083750    1.460582   -0.037834
  N      0.056226    0.015622   -0.036847
  C      0.595321   -0.718041   -1.031095
  N      0.590349   -2.007693   -0.994767
  C      1.185873   -2.674559   -2.047849
  N      1.217395   -3.955101   -2.090657
  C      1.765922   -1.804730   -3.090840
  N      1.751540   -0.527208   -3.103966
  O      1.115140    0.081633   -2.003271
  H      0.874137    1.942030   -0.247840
  H     -0.813665    1.808044   -0.778449
  H     -0.417594    1.770740    0.953491
  H     -0.401736   -0.535500    0.670583
  H      1.695421   -4.264785   -2.937880
  H      2.262742   -2.246389   -3.952220

 Total Charge           Charge          ....    0
 Multiplicity           Mult            ....    1
 Number of Electrons    NEL             ....   66
 Basis Dimension        Dim             ....  315

ORBITAL ENERGIES
----------------

  NO   OCC          E(Eh)            E(eV)
   0   2.0000     -20.659990      -562.1869
   1   2.0000     -15.671896      -426.4540
   2   2.0000     -15.604093      -424.6090
   3   2.0000     -15.549572      -423.1254
   4   2.0000     -15.543561      -422.9618
   5   2.0000     -11.406238      -310.3795
   6   2.0000     -11.327413      -308.2346
   7   2.0000     -11.313702      -307.8615
   8   2.0000     -11.281756      -306.9922
   9   2.0000      -1.507160       -41.0119
  10   2.0000      -1.303054       -35.4579
  11   2.0000      -1.268117       -34.5072
  12   2.0000      -1.194808       -32.5124
  13   2.0000      -1.167657       -31.7736
  14   2.0000      -0.979807       -26.6619
  15   2.0000      -0.930831       -25.3292
  16   2.0000      -0.865917       -23.5628
  17   2.0000      -0.782866       -21.3029
  18   2.0000      -0.750026       -20.4093
  19   2.0000      -0.720294       -19.6002
  20   2.0000      -0.696231       -18.9454
  21   2.0000      -0.669524       -18.2187
  22   2.0000      -0.633818       -17.2471
  23   2.0000      -0.619893       -16.8682
  24   2.0000      -0.582863       -15.8605
  25   2.0000      -0.570598       -15.5268
  26   2.0000      -0.535081       -14.5603
  27   2.0000      -0.533657       -14.5215
  28   2.0000      -0.509012       -13.8509
  29   2.0000      -0.466875       -12.7043
  30   2.0000      -0.417411       -11.3583
  31   2.0000      -0.414530       -11.2799
  32   2.0000      -0.350600        -9.5403
  33   0.0000       0.082952         2.2572
  34   0.0000       0.127213         3.4616
  35   0.0000       0.143920         3.9163
  36   0.0000       0.149561         4.0698
  37   0.0000       0.162476         4.4212

MULLIKEN ATOMIC CHARGES
-----------------------
   0 C :   -0.268304
   1 N :   -0.326038
   2 C :    0.362882
   3 N :   -0.297757
   4 C :    0.114224
   5 N :   -0.313163
   6 C :   -0.112839
   7 N :   -0.073691
   8 O :   -0.158257
   9 H :    0.156326
  10 H :    0.145731
  11 H :    0.145240
  12 H :    0.265047
  13 H :    0.205064
  14 H :    0.155534
Sum of atomic charges:   -0.0000000

LOEWDIN ATOMIC CHARGES
----------------------
   0 C :   -0.309418
   1 N :    0.099481
   2 C :   -0.443102
   3 N :    0.126899
   4 C :   -0.402514
   5 N :   -0.039824
   6 C :   -0.215659
   7 N :    0.076378
   8 O :    0.227078
   9 H :    0.124528
  10 H :    0.118267
  11 H :    0.123850
  12 H :    0.200608
  13 H :    0.159322
  14 H :    0.154108

  Mayer bond orders larger than 0.1
B(  0-C ,  1-N ) :   0.8723 B(  0-C ,  9-H ) :   0.9332 B(  0-C , 10-H ) :   0.9345
B(  0-C , 11-H ) :   0.9302 B(  1-N ,  2-C ) :   1.2164 B(  1-N , 12-H ) :   0.8594
B(  2-C ,  3-N ) :   1.6065 B(  2-C ,  8-O ) :   1.0636 B(  3-N ,  4-C ) :   1.1691
B(  4-C ,  5-N ) :   1.9014 B(  4-C ,  6-C ) :   0.9948 B(  5-N , 13-H ) :   0.8631
B(  6-C ,  7-N ) :   1.7621 B(  6-C , 14-H ) :   0.9080 B(  7-N ,  8-O ) :   0.7996

MP2 TOTAL ENERGY:     -449.355567824 Eh
FINAL SINGLE POINT ENERGY      -449.355567823794

DIPOLE MOMENT
-------------
                                X             Y             Z
Electronic contribution:      1.89241      -3.36364      -2.88589
Nuclear contribution   :     -2.05238       4.63486       3.02510
                        -----------------------------------------
Total Dipole Moment    :     -0.15997       1.27121       0.13921
                        -----------------------------------------
Magnitude (a.u.)       :      1.28878
Magnitude (Debye)      :      3.27582

                             ****ORCA TERMINATED NORMALLY****
TOTAL RUN TIME: 0 days 0 hours 14 minutes 50 seconds 327 msec
