                         Program Version 3.0.3 - RELEASE   -
|  1> ! RI-MP2 RIJK def2-TZVP def2-TZVP/C def2-TZVP/JK TIGHTSCF
|  2> % maxcore 2000
|  3> % mp2 density relaxed end
|  4> *xyz 0 1
|  5>  C       -0.0397093462     1.5628208323     0.0079778130
|  6>  C        0.0352221833     0.0320632372     0.0380445146
|  7>  C        0.8120125853    -0.4676760014     1.2610463148
|  8>  C       -1.3932845021    -0.5648983232    -0.0087345766
|  9>  C       -1.4366685430    -2.0140479490    -0.1260528483
| 10>  C       -1.4732545650    -3.2177056381    -0.2322964772
| 11>  C       -1.4833443764    -4.6509133344    -0.3583570396
| 12>  O       -2.4828200557    -5.3317501216    -0.4053969313
| 13>  H        0.9625167615     2.0019640685     0.0094735974
| 14>  H       -0.5631426183     1.9233504739    -0.8838244643
| 15>  H       -0.5711033227     1.9469266181     0.8869811713
| 16>  H        0.5577286050    -0.3076711555    -0.8653401631
| 17>  H        1.8336047764    -0.0753114260     1.2600242144
| 18>  H        0.3303790438    -0.1397221114     2.1901674963
| 19>  H        0.8679879064    -1.5598475927     1.2794365851
| 20>  H       -1.9441960239    -0.2655604168     0.8943446355
| 21>  H       -1.9464091786    -0.1317835141    -0.8527393113
| 22>  H       -0.4734407298    -5.1074742658    -0.4116396306
| 23> *
| 24>
| 25>                          ****END OF INPUT****

CARTESIAN COORDINATES (ANGSTROEM)
---------------------------------
  C     -0.039709    1.562821    0.007978
  C      0.035222    0.032063    0.038045
  C      0.812013   -0.467676    1.261046
  C     -1.393285   -0.564898   -0.008735
  C     -1.436669   -2.014048   -0.126053
  C     -1.473255   -3.217706   -0.232296
  C     -1.483344   -4.650913   -0.358357
  O     -2.482820   -5.331750   -0.405397
  H      0.962517    2.001964    0.009474
  H     -0.563143    1.923350   -0.883824
  H     -0.571103    1.946927    0.886981
  H      0.557729   -0.307671   -0.865340
  H      1.833605   -0.075311    1.260024
  H      0.330379   -0.139722    2.190167
  H      0.867988   -1.559848    1.279437
  H     -1.944196   -0.265560    0.894345
  H     -1.946409   -0.131784   -0.852739
  H     -0.473441   -5.107474   -0.411640

 Total Charge           Charge          ....    0
 Multiplicity           Mult            ....    1
 Number of Electrons    NEL             ....   60
 Basis Dimension        Dim             ....  308

ORBITAL ENERGIES
----------------

  NO   OCC          E(Eh)            E(eV)
   0   2.0000     -20.564132      -559.5785
   1   2.0000     -11.354869      -308.9817
   2   2.0000     -11.265852      -306.5594
   3   2.0000     -11.265022      -306.5368
   4   2.0000     -11.250090      -306.1305
   5   2.0000     -11.238688      -305.8202
   6   2.0000     -11.227837      -305.5250
   7   2.0000     -11.223853      -305.4166
   8   2.0000      -1.399369       -38.0788
   9   2.0000      -1.122219       -30.5371
  10   2.0000      -1.059656       -28.8347
  11   2.0000      -0.978173       -26.6174
  12   2.0000      -0.943531       -25.6748
  13   2.0000      -0.888237       -24.1702
  14   2.0000      -0.796643       -21.6778
  15   2.0000      -0.721533       -19.6339
  16   2.0000      -0.673872       -18.3370
  17   2.0000      -0.654189       -17.8014
  18   2.0000      -0.643797       -17.5186
  19   2.0000      -0.615729       -16.7548
  20   2.0000      -0.583977       -15.8908
  21   2.0000      -0.554815       -15.0973
  22   2.0000      -0.548553       -14.9269
  23   2.0000      -0.541852       -14.7445
  24   2.0000      -0.503517       -13.7014
  25   2.0000      -0.489841       -13.3292
  26   2.0000      -0.484732       -13.1902
  27   2.0000      -0.450467       -12.2578
  28   2.0000      -0.400080       -10.8867
  29   2.0000      -0.397879       -10.8268
  30   0.0000       0.083438         2.2705
  31   0.0000       0.119610         3.2547
  32   0.0000       0.155693         4.2366
  33   0.0000       0.163633         4.4527
  34   0.0000       0.166933         4.5425

MULLIKEN ATOMIC CHARGES
-----------------------
   0 C :   -0.398509
   1 C :   -0.012238
   2 C :   -0.407498
   3 C :   -0.367738
   4 C :    0.016641
   5 C :    0.098550
   6 C :    0.025179
   7 O :   -0.256564
   8 H :    0.138129
   9 H :    0.133273
  10 H :    0.124904
  11 H :    0.097163
  12 H :    0.133819
  13 H :    0.122380
  14 H :    0.143351
  15 H :    0.151943
  16 H :    0.154975
  17 H :    0.102240
Sum of atomic charges:   -0.0000000

LOEWDIN ATOMIC CHARGES
----------------------
   0 C :   -0.293218
   1 C :   -0.295596
   2 C :   -0.290427
   3 C :   -0.226479
   4 C :   -0.028159
   5 C :   -0.068911
   6 C :   -0.297271
   7 O :    0.143916
   8 H :    0.126095
   9 H :    0.123548
  10 H :    0.124614
  11 H :    0.153812
  12 H :    0.125027
  13 H :    0.124797
  14 H :    0.127397
  15 H :    0.163890
  16 H :    0.164132
  17 H :    0.122833

  Mayer bond orders larger than 0.1
B(  0-C ,  1-C ) :   0.9205 B(  0-C ,  8-H ) :   0.9417 B(  0-C ,  9-H ) :   0.9393
B(  0-C , 10-H ) :   0.9281 B(  1-C ,  2-C ) :   0.9227 B(  1-C ,  3-C ) :   0.9194
B(  1-C , 11-H ) :   0.9272 B(  2-C , 12-H ) :   0.9372 B(  2-C , 13-H ) :   0.9299
B(  2-C , 14-H ) :   0.9357 B(  3-C ,  4-C ) :   1.0399 B(  3-C ,  5-C ) :  -0.1301
B(  3-C , 15-H ) :   0.9191 B(  3-C , 16-H ) :   0.9124 B(  4-C ,  5-C ) :   2.7131
B(  5-C ,  6-C ) :   0.8314 B(  5-C , 17-H ) :  -0.1110 B(  6-C ,  7-O ) :   2.0179
B(  6-C , 17-H ) :   1.0116

MP2 TOTAL ENERGY:     -347.172691838 Eh
FINAL SINGLE POINT ENERGY      -347.172691837637

DIPOLE MOMENT
-------------
                                X             Y             Z
Electronic contribution:     -6.76727     -14.02053      -2.85388
Nuclear contribution   :      7.64681      15.28535       2.93989
                        -----------------------------------------
Total Dipole Moment    :      0.87954       1.26482       0.08601
                        -----------------------------------------
Magnitude (a.u.)       :      1.54298
Magnitude (Debye)      :      3.92193

                             ****ORCA TERMINATED NORMALLY****
TOTAL RUN TIME: 0 days 0 hours 11 minutes 10 seconds 870 msec
