                         Program Version 3.0.3 - RELEASE   -
|  1> ! RI-MP2 RIJK def2-TZVP def2-TZVP/C def2-TZVP/JK TIGHTSCF
|  2> % maxcore 2000
|  3> % mp2 density relaxed end
|  4> *xyz 0 1
|  5>  C       -0.4638897383     1.2597840789    -0.5689254293
|  6>  O       -0.6962728230    -0.1280665927    -0.5576141616
|  7>  C       -0.7565112202    -0.6681465453     0.7430691397
|  8>  C       -0.9569273274    -2.1839482775     0.6497518240
|  9>  O       -0.9048258552    -2.7474533876     1.9574284180
| 10>  C       -2.2131208201    -2.6076722594    -0.1403111609
| 11>  C       -2.1780663332    -4.1160977946    -0.4185726499
| 12>  C       -3.5212945878    -2.2117753963     0.5612999588
| 13>  H       -0.4319510928     1.5789229937    -1.6135339071
| 14>  H       -1.2646569244     1.8127801235    -0.0523061815
| 15>  H        0.4932580697     1.5168327708    -0.0884231640
| 16>  H        0.1750965467    -0.4708751616     1.2970959633
| 17>  H       -1.5782076682    -0.2032753041     1.3183384933
| 18>  H       -0.0819363033    -2.5962734420     0.1338109364
| 19>  H       -1.6591462895    -2.4119143881     2.4536161094
| 20>  H       -2.1629012111    -2.0692676745    -1.0937420663
| 21>  H       -2.1412559603    -4.6793785113     0.5192946626
| 22>  H       -3.0644084048    -4.4359044077    -0.9757478666
| 23>  H       -1.2952164554    -4.3896988218    -1.0059848188
| 24>  H       -3.5901055769    -1.1341750901     0.7405666921
| 25>  H       -4.3824045120    -2.4952896766    -0.0515282079
| 26>  H       -3.6354476725    -2.7283623656     1.5225524262
| 27> *
| 28>
| 29>                          ****END OF INPUT****

CARTESIAN COORDINATES (ANGSTROEM)
---------------------------------
  C     -0.463890    1.259784   -0.568925
  O     -0.696273   -0.128067   -0.557614
  C     -0.756511   -0.668147    0.743069
  C     -0.956927   -2.183948    0.649752
  O     -0.904826   -2.747453    1.957428
  C     -2.213121   -2.607672   -0.140311
  C     -2.178066   -4.116098   -0.418573
  C     -3.521295   -2.211775    0.561300
  H     -0.431951    1.578923   -1.613534
  H     -1.264657    1.812780   -0.052306
  H      0.493258    1.516833   -0.088423
  H      0.175097   -0.470875    1.297096
  H     -1.578208   -0.203275    1.318338
  H     -0.081936   -2.596273    0.133811
  H     -1.659146   -2.411914    2.453616
  H     -2.162901   -2.069268   -1.093742
  H     -2.141256   -4.679379    0.519295
  H     -3.064408   -4.435904   -0.975748
  H     -1.295216   -4.389699   -1.005985
  H     -3.590106   -1.134175    0.740567
  H     -4.382405   -2.495290   -0.051528
  H     -3.635448   -2.728362    1.522552

 Total Charge           Charge          ....    0
 Multiplicity           Mult            ....    1
 Number of Electrons    NEL             ....   66
 Basis Dimension        Dim             ....  332

ORBITAL ENERGIES
----------------

  NO   OCC          E(Eh)            E(eV)
   0   2.0000     -20.560014      -559.4664
   1   2.0000     -20.553967      -559.3019
   2   2.0000     -11.274628      -306.7982
   3   2.0000     -11.274524      -306.7954
   4   2.0000     -11.273839      -306.7768
   5   2.0000     -11.222520      -305.3803
   6   2.0000     -11.216292      -305.2108
   7   2.0000     -11.205466      -304.9162
   8   2.0000      -1.383027       -37.6341
   9   2.0000      -1.358713       -36.9725
  10   2.0000      -1.076479       -29.2925
  11   2.0000      -0.998127       -27.1604
  12   2.0000      -0.929868       -25.3030
  13   2.0000      -0.908588       -24.7239
  14   2.0000      -0.850423       -23.1412
  15   2.0000      -0.771937       -21.0055
  16   2.0000      -0.680690       -18.5225
  17   2.0000      -0.669392       -18.2151
  18   2.0000      -0.658165       -17.9096
  19   2.0000      -0.649665       -17.6783
  20   2.0000      -0.608733       -16.5645
  21   2.0000      -0.591041       -16.0831
  22   2.0000      -0.581899       -15.8343
  23   2.0000      -0.546843       -14.8804
  24   2.0000      -0.540447       -14.7063
  25   2.0000      -0.532515       -14.4905
  26   2.0000      -0.521743       -14.1973
  27   2.0000      -0.492110       -13.3910
  28   2.0000      -0.488466       -13.2918
  29   2.0000      -0.467708       -12.7270
  30   2.0000      -0.455292       -12.3891
  31   2.0000      -0.428115       -11.6496
  32   2.0000      -0.422384       -11.4937
  33   0.0000       0.130511         3.5514
  34   0.0000       0.150018         4.0822
  35   0.0000       0.159574         4.3422
  36   0.0000       0.184118         5.0101
  37   0.0000       0.187534         5.1031

MULLIKEN ATOMIC CHARGES
-----------------------
   0 C :   -0.216765
   1 O :   -0.309085
   2 C :   -0.094209
   3 C :    0.142042
   4 O :   -0.478991
   5 C :   -0.031472
   6 C :   -0.392961
   7 C :   -0.480716
   8 H :    0.139396
   9 H :    0.110782
  10 H :    0.114040
  11 H :    0.116712
  12 H :    0.082374
  13 H :    0.095096
  14 H :    0.312993
  15 H :    0.104925
  16 H :    0.134581
  17 H :    0.127154
  18 H :    0.127446
  19 H :    0.139660
  20 H :    0.139177
  21 H :    0.117823
Sum of atomic charges:    0.0000000

LOEWDIN ATOMIC CHARGES
----------------------
   0 C :   -0.360043
   1 O :    0.137969
   2 C :   -0.320918
   3 C :   -0.327189
   4 O :   -0.012397
   5 C :   -0.296943
   6 C :   -0.294571
   7 C :   -0.302729
   8 H :    0.113570
   9 H :    0.101148
  10 H :    0.102565
  11 H :    0.124393
  12 H :    0.114984
  13 H :    0.150745
  14 H :    0.172219
  15 H :    0.158998
  16 H :    0.125980
  17 H :    0.121278
  18 H :    0.123136
  19 H :    0.121675
  20 H :    0.127344
  21 H :    0.118786

  Mayer bond orders larger than 0.1
B(  0-C ,  1-O ) :   0.9201 B(  0-C ,  8-H ) :   0.9393 B(  0-C ,  9-H ) :   0.9372
B(  0-C , 10-H ) :   0.9369 B(  1-O ,  2-C ) :   0.9356 B(  2-C ,  3-C ) :   0.9708
B(  2-C , 11-H ) :   0.9276 B(  2-C , 12-H ) :   0.9129 B(  3-C ,  4-O ) :   0.8818
B(  3-C ,  5-C ) :   0.9064 B(  3-C , 13-H ) :   0.9128 B(  4-O , 14-H ) :   0.8431
B(  5-C ,  6-C ) :   0.9066 B(  5-C ,  7-C ) :   0.8939 B(  5-C , 15-H ) :   0.9168
B(  6-C , 16-H ) :   0.9314 B(  6-C , 17-H ) :   0.9421 B(  6-C , 18-H ) :   0.9387
B(  7-C , 19-H ) :   0.9391 B(  7-C , 20-H ) :   0.9395 B(  7-C , 21-H ) :   0.9351

MP2 TOTAL ENERGY:     -386.701656447 Eh
FINAL SINGLE POINT ENERGY      -386.701656447226

DIPOLE MOMENT
-------------
                                X             Y             Z
Electronic contribution:      3.62706       0.28492       1.07140
Nuclear contribution   :     -4.00344       0.41532      -1.01601
                        -----------------------------------------
Total Dipole Moment    :     -0.37638       0.70024       0.05539
                        -----------------------------------------
Magnitude (a.u.)       :      0.79691
Magnitude (Debye)      :      2.02557

                             ****ORCA TERMINATED NORMALLY****
TOTAL RUN TIME: 0 days 0 hours 13 minutes 31 seconds 785 msec
