                         Program Version 3.0.3 - RELEASE   -
|  1> ! RI-MP2 RIJK def2-TZVP def2-TZVP/C def2-TZVP/JK TIGHTSCF
|  2> % maxcore 2000
|  3> % mp2 density relaxed end
|  4> *xyz 0 1
|  5>  N       -0.2631831546     1.4185070698     0.0142558150
|  6>  C       -0.0840505122     0.0025478327    -0.0473870304
|  7>  C       -0.3848543380    -0.8196821502     1.2026175111
|  8>  C       -1.2952889501    -0.9068488415     0.0166618460
|  9>  O       -2.5764819846    -0.3915454149     0.0379026770
| 10>  C       -1.0096684801    -2.0349254533    -0.9553912263
| 11>  O        0.3619258248    -1.8671729769    -1.3753282596
| 12>  C        0.8530271503    -0.6420560026    -1.0230723879
| 13>  O        1.8596403416    -0.1898933826    -1.4903647157
| 14>  H        0.3993214418     1.8459044444     0.6537204943
| 15>  H       -0.0980663028     1.8341731341    -0.8976760933
| 16>  H        0.2714031614    -1.6445341962     1.4616737348
| 17>  H       -0.7572456686    -0.2377532653     2.0387400520
| 18>  H       -2.4741954477     0.5710641520     0.1067772936
| 19>  H       -1.1049090159    -3.0337716884    -0.5215514861
| 20>  H       -1.6629376654    -1.9546499010    -1.8301658447
| 21> *
| 22>
| 23>                          ****END OF INPUT****

CARTESIAN COORDINATES (ANGSTROEM)
---------------------------------
  N     -0.263183    1.418507    0.014256
  C     -0.084051    0.002548   -0.047387
  C     -0.384854   -0.819682    1.202618
  C     -1.295289   -0.906849    0.016662
  O     -2.576482   -0.391545    0.037903
  C     -1.009668   -2.034925   -0.955391
  O      0.361926   -1.867173   -1.375328
  C      0.853027   -0.642056   -1.023072
  O      1.859640   -0.189893   -1.490365
  H      0.399321    1.845904    0.653720
  H     -0.098066    1.834173   -0.897676
  H      0.271403   -1.644534    1.461674
  H     -0.757246   -0.237753    2.038740
  H     -2.474195    0.571064    0.106777
  H     -1.104909   -3.033772   -0.521551
  H     -1.662938   -1.954650   -1.830166

 Total Charge           Charge          ....    0
 Multiplicity           Mult            ....    1
 Number of Electrons    NEL             ....   68
 Basis Dimension        Dim             ....  321

ORBITAL ENERGIES
----------------

  NO   OCC          E(Eh)            E(eV)
   0   2.0000     -20.607286      -560.7528
   1   2.0000     -20.584213      -560.1249
   2   2.0000     -20.548994      -559.1665
   3   2.0000     -15.582676      -424.0262
   4   2.0000     -11.385463      -309.8142
   5   2.0000     -11.316972      -307.9505
   6   2.0000     -11.308249      -307.7131
   7   2.0000     -11.296142      -307.3836
   8   2.0000     -11.260737      -306.4202
   9   2.0000      -1.464533       -39.8520
  10   2.0000      -1.401765       -38.1440
  11   2.0000      -1.372258       -37.3410
  12   2.0000      -1.239597       -33.7311
  13   2.0000      -1.132267       -30.8106
  14   2.0000      -0.994864       -27.0716
  15   2.0000      -0.909381       -24.7455
  16   2.0000      -0.821214       -22.3464
  17   2.0000      -0.788873       -21.4663
  18   2.0000      -0.728099       -19.8126
  19   2.0000      -0.708262       -19.2728
  20   2.0000      -0.694066       -18.8865
  21   2.0000      -0.680545       -18.5186
  22   2.0000      -0.658537       -17.9197
  23   2.0000      -0.618609       -16.8332
  24   2.0000      -0.615862       -16.7584
  25   2.0000      -0.605496       -16.4764
  26   2.0000      -0.580109       -15.7856
  27   2.0000      -0.553262       -15.0550
  28   2.0000      -0.538943       -14.6654
  29   2.0000      -0.482554       -13.1310
  30   2.0000      -0.469094       -12.7647
  31   2.0000      -0.459108       -12.4930
  32   2.0000      -0.437009       -11.8916
  33   2.0000      -0.390913       -10.6373
  34   0.0000       0.120956         3.2914
  35   0.0000       0.144871         3.9421
  36   0.0000       0.155959         4.2439
  37   0.0000       0.178338         4.8528
  38   0.0000       0.179022         4.8714

MULLIKEN ATOMIC CHARGES
-----------------------
   0 N :   -0.573384
   1 C :    0.074312
   2 C :   -0.299300
   3 C :    0.151415
   4 O :   -0.454087
   5 C :   -0.028483
   6 O :   -0.231256
   7 C :    0.226483
   8 O :   -0.283183
   9 H :    0.260245
  10 H :    0.255753
  11 H :    0.151675
  12 H :    0.154025
  13 H :    0.340037
  14 H :    0.129808
  15 H :    0.125939
Sum of atomic charges:   -0.0000000

LOEWDIN ATOMIC CHARGES
----------------------
   0 N :   -0.098848
   1 C :   -0.289485
   2 C :   -0.150942
   3 C :   -0.344776
   4 O :    0.041226
   5 C :   -0.211414
   6 O :    0.254091
   7 C :   -0.443308
   8 O :    0.141054
   9 H :    0.171225
  10 H :    0.172071
  11 H :    0.144260
  12 H :    0.150035
  13 H :    0.192417
  14 H :    0.134267
  15 H :    0.138127

  Mayer bond orders larger than 0.1
B(  0-N ,  1-C ) :   0.9659 B(  0-N ,  9-H ) :   0.8801 B(  0-N , 10-H ) :   0.8821
B(  1-C ,  2-C ) :   0.8341 B(  1-C ,  3-C ) :   0.8144 B(  1-C ,  7-C ) :   0.9533
B(  2-C ,  3-C ) :   0.8827 B(  2-C , 11-H ) :   0.9026 B(  2-C , 12-H ) :   0.9247
B(  3-C ,  4-O ) :   1.1246 B(  3-C ,  5-C ) :   0.9462 B(  4-O , 13-H ) :   0.8062
B(  5-C ,  6-O ) :   0.8820 B(  5-C , 14-H ) :   0.9274 B(  5-C , 15-H ) :   0.9135
B(  6-O ,  7-C ) :   1.1168 B(  7-C ,  8-O ) :   2.0343

MP2 TOTAL ENERGY:     -474.298618593 Eh
FINAL SINGLE POINT ENERGY      -474.298618593231

DIPOLE MOMENT
-------------
                                X             Y             Z
Electronic contribution:      2.58175      -0.95117      -2.91918
Nuclear contribution   :     -3.15517       1.34781       3.65988
                        -----------------------------------------
Total Dipole Moment    :     -0.57342       0.39664       0.74070
                        -----------------------------------------
Magnitude (a.u.)       :      1.01724
Magnitude (Debye)      :      2.58561

                             ****ORCA TERMINATED NORMALLY****
TOTAL RUN TIME: 0 days 0 hours 16 minutes 20 seconds 496 msec
