                         Program Version 3.0.3 - RELEASE   -
|  1> ! RI-MP2 RIJK def2-TZVP def2-TZVP/C def2-TZVP/JK TIGHTSCF
|  2> % maxcore 2000
|  3> % mp2 density relaxed end
|  4> *xyz 0 1
|  5>  N       -0.0850251061     1.3314331847     0.0087000216
|  6>  C        0.1017825556    -0.0007479391     0.0014382664
|  7>  O        1.1422081560    -0.6079573212    -0.0095366456
|  8>  N       -1.1480802273    -0.7227004918     0.0103769144
|  9>  C       -1.3432132902    -2.0591061097     0.0080854321
| 10>  N       -2.6313783770    -2.2991246601     0.0178430495
| 11>  N       -3.2369072515    -1.0722983833     0.0275944609
| 12>  N       -2.3676146168    -0.1268789776     0.0233487004
| 13>  H        0.7274943284     1.9232026293     0.0030363815
| 14>  H       -1.0132394325     1.7228513749     0.0174935989
| 15>  H       -0.5400512586    -2.7757623361    -0.0013113100
| 16> *
| 17>
| 18>                          ****END OF INPUT****

CARTESIAN COORDINATES (ANGSTROEM)
---------------------------------
  N     -0.085025    1.331433    0.008700
  C      0.101783   -0.000748    0.001438
  O      1.142208   -0.607957   -0.009537
  N     -1.148080   -0.722700    0.010377
  C     -1.343213   -2.059106    0.008085
  N     -2.631378   -2.299125    0.017843
  N     -3.236907   -1.072298    0.027594
  N     -2.367615   -0.126879    0.023349
  H      0.727494    1.923203    0.003036
  H     -1.013239    1.722851    0.017494
  H     -0.540051   -2.775762   -0.001311

 Total Charge           Charge          ....    0
 Multiplicity           Mult            ....    1
 Number of Electrons    NEL             ....   58
 Basis Dimension        Dim             ....  266

ORBITAL ENERGIES
----------------

  NO   OCC          E(Eh)            E(eV)
   0   2.0000     -20.566889      -559.6535
   1   2.0000     -15.695429      -427.0943
   2   2.0000     -15.679954      -426.6732
   3   2.0000     -15.668337      -426.3571
   4   2.0000     -15.624541      -425.1654
   5   2.0000     -15.616069      -424.9348
   6   2.0000     -11.438803      -311.2657
   7   2.0000     -11.348040      -308.7959
   8   2.0000      -1.513422       -41.1823
   9   2.0000      -1.442577       -39.2545
  10   2.0000      -1.291367       -35.1399
  11   2.0000      -1.244124       -33.8543
  12   2.0000      -1.210534       -32.9403
  13   2.0000      -0.961388       -26.1607
  14   2.0000      -0.908215       -24.7138
  15   2.0000      -0.846937       -23.0463
  16   2.0000      -0.805563       -21.9205
  17   2.0000      -0.731602       -19.9079
  18   2.0000      -0.711653       -19.3651
  19   2.0000      -0.704489       -19.1701
  20   2.0000      -0.661650       -18.0044
  21   2.0000      -0.618432       -16.8284
  22   2.0000      -0.590558       -16.0699
  23   2.0000      -0.511811       -13.9271
  24   2.0000      -0.488771       -13.3001
  25   2.0000      -0.481466       -13.1014
  26   2.0000      -0.464866       -12.6496
  27   2.0000      -0.462403       -12.5826
  28   2.0000      -0.433990       -11.8095
  29   0.0000       0.082428         2.2430
  30   0.0000       0.121266         3.2998
  31   0.0000       0.159734         4.3466
  32   0.0000       0.163587         4.4514
  33   0.0000       0.179314         4.8794

MULLIKEN ATOMIC CHARGES
-----------------------
   0 N :   -0.471227
   1 C :    0.340071
   2 O :   -0.324043
   3 N :    0.066215
   4 C :   -0.000236
   5 N :   -0.159850
   6 N :   -0.109835
   7 N :   -0.120657
   8 H :    0.280145
   9 H :    0.302509
  10 H :    0.196909
Sum of atomic charges:    0.0000000

LOEWDIN ATOMIC CHARGES
----------------------
   0 N :    0.017668
   1 C :   -0.506557
   2 O :    0.118357
   3 N :    0.187665
   4 C :   -0.284404
   5 N :    0.020267
   6 N :   -0.045052
   7 N :   -0.031937
   8 H :    0.187667
   9 H :    0.184621
  10 H :    0.151706

  Mayer bond orders larger than 0.1
B(  0-N ,  1-C ) :   1.2454 B(  0-N ,  8-H ) :   0.8562 B(  0-N ,  9-H ) :   0.8392
B(  1-C ,  2-O ) :   1.9749 B(  1-C ,  3-N ) :   0.8795 B(  3-N ,  4-C ) :   1.1800
B(  3-N ,  7-N ) :   0.9784 B(  4-C ,  5-N ) :   1.5415 B(  4-C , 10-H ) :   0.9117
B(  5-N ,  6-N ) :   1.0628 B(  6-N ,  7-N ) :   1.3628

MP2 TOTAL ENERGY:     -426.240956644 Eh
FINAL SINGLE POINT ENERGY      -426.240956644433

DIPOLE MOMENT
-------------
                                X             Y             Z
Electronic contribution:     -1.40578      -1.46900       0.00647
Nuclear contribution   :      2.47689       2.66275      -0.01224
                        -----------------------------------------
Total Dipole Moment    :      1.07110       1.19375      -0.00578
                        -----------------------------------------
Magnitude (a.u.)       :      1.60385
Magnitude (Debye)      :      4.07666

                             ****ORCA TERMINATED NORMALLY****
TOTAL RUN TIME: 0 days 0 hours 8 minutes 56 seconds 24 msec
