                         Program Version 3.0.3 - RELEASE   -
|  1> ! RI-MP2 RIJK def2-TZVP def2-TZVP/C def2-TZVP/JK TIGHTSCF
|  2> % maxcore 2000
|  3> % mp2 density relaxed end
|  4> *xyz 0 1
|  5>  C        0.4469592900     1.0816468500    -0.3773545237
|  6>  O       -0.3046396205     0.1083681011     0.3295380756
|  7>  C        0.4224944612    -0.5256171420     1.3192631079
|  8>  C       -0.0133916789    -1.8913412129     1.7311633260
|  9>  C       -1.1735799539    -2.5846334531     1.0430086802
| 10>  O       -0.9689059423    -3.9843546309     0.9391652611
| 11>  C        1.3126707383    -1.7258702466     0.9690908954
| 12>  C        1.4157574145    -2.2019009380    -0.3772070447
| 13>  C        1.5091347687    -2.6340611454    -1.4979418313
| 14>  H        1.2988140318     0.6277306225    -0.8984926682
| 15>  H       -0.2270805392     1.5325564369    -1.1084143164
| 16>  H        0.8179258265     1.8658198250     0.2991546208
| 17>  H        0.8198260220     0.1434374662     2.0854793048
| 18>  H        0.1017198945    -2.1397246539     2.7819262110
| 19>  H       -2.0810239076    -2.4516880012     1.6410093036
| 20>  H       -1.3534533811    -2.1251161014     0.0651308020
| 21>  H       -0.2531694467    -4.1105394011     0.3054141916
| 22>  H        2.2184807494    -1.8307055135     1.5594053058
| 23>  H        1.6000790731    -2.9922703318    -2.4934915113
| 24> *
| 25>
| 26>                          ****END OF INPUT****

CARTESIAN COORDINATES (ANGSTROEM)
---------------------------------
  C      0.446959    1.081647   -0.377355
  O     -0.304640    0.108368    0.329538
  C      0.422494   -0.525617    1.319263
  C     -0.013392   -1.891341    1.731163
  C     -1.173580   -2.584633    1.043009
  O     -0.968906   -3.984355    0.939165
  C      1.312671   -1.725870    0.969091
  C      1.415757   -2.201901   -0.377207
  C      1.509135   -2.634061   -1.497942
  H      1.298814    0.627731   -0.898493
  H     -0.227081    1.532556   -1.108414
  H      0.817926    1.865820    0.299155
  H      0.819826    0.143437    2.085479
  H      0.101720   -2.139725    2.781926
  H     -2.081024   -2.451688    1.641009
  H     -1.353453   -2.125116    0.065131
  H     -0.253169   -4.110539    0.305414
  H      2.218481   -1.830706    1.559405
  H      1.600079   -2.992270   -2.493492

 Total Charge           Charge          ....    0
 Multiplicity           Mult            ....    1
 Number of Electrons    NEL             ....   68
 Basis Dimension        Dim             ....  339

ORBITAL ENERGIES
----------------

  NO   OCC          E(Eh)            E(eV)
   0   2.0000     -20.573231      -559.8261
   1   2.0000     -20.545042      -559.0590
   2   2.0000     -11.304118      -307.6007
   3   2.0000     -11.277910      -306.8875
   4   2.0000     -11.272086      -306.7291
   5   2.0000     -11.262217      -306.4605
   6   2.0000     -11.246740      -306.0394
   7   2.0000     -11.245519      -306.0061
   8   2.0000     -11.229648      -305.5742
   9   2.0000      -1.399186       -38.0738
  10   2.0000      -1.350784       -36.7567
  11   2.0000      -1.161832       -31.6151
  12   2.0000      -1.036153       -28.1951
  13   2.0000      -0.949153       -25.8278
  14   2.0000      -0.943291       -25.6683
  15   2.0000      -0.860774       -23.4228
  16   2.0000      -0.793534       -21.5932
  17   2.0000      -0.729380       -19.8474
  18   2.0000      -0.718607       -19.5543
  19   2.0000      -0.683733       -18.6053
  20   2.0000      -0.670140       -18.2354
  21   2.0000      -0.639357       -17.3978
  22   2.0000      -0.625154       -17.0113
  23   2.0000      -0.606224       -16.4962
  24   2.0000      -0.590346       -16.0641
  25   2.0000      -0.565289       -15.3823
  26   2.0000      -0.518228       -14.1017
  27   2.0000      -0.502414       -13.6714
  28   2.0000      -0.487710       -13.2713
  29   2.0000      -0.467198       -12.7131
  30   2.0000      -0.443840       -12.0775
  31   2.0000      -0.432280       -11.7629
  32   2.0000      -0.388213       -10.5638
  33   2.0000      -0.358792        -9.7632
  34   0.0000       0.135345         3.6829
  35   0.0000       0.147160         4.0044
  36   0.0000       0.160951         4.3797
  37   0.0000       0.163575         4.4511
  38   0.0000       0.172007         4.6806

MULLIKEN ATOMIC CHARGES
-----------------------
   0 C :   -0.218415
   1 O :   -0.304819
   2 C :    0.058118
   3 C :   -0.087457
   4 C :   -0.048587
   5 O :   -0.478386
   6 C :   -0.311414
   7 C :   -0.047981
   8 C :   -0.115279
   9 H :    0.134437
  10 H :    0.141988
  11 H :    0.115776
  12 H :    0.113339
  13 H :    0.126734
  14 H :    0.119388
  15 H :    0.142269
  16 H :    0.325896
  17 H :    0.143298
  18 H :    0.191093
Sum of atomic charges:    0.0000000

LOEWDIN ATOMIC CHARGES
----------------------
   0 C :   -0.334862
   1 O :    0.182220
   2 C :   -0.271067
   3 C :   -0.176818
   4 C :   -0.318320
   5 O :   -0.043955
   6 C :   -0.180654
   7 C :   -0.107296
   8 C :   -0.102995
   9 H :    0.109869
  10 H :    0.115129
  11 H :    0.104095
  12 H :    0.137664
  13 H :    0.153340
  14 H :    0.133905
  15 H :    0.130148
  16 H :    0.177163
  17 H :    0.164537
  18 H :    0.127898

  Mayer bond orders larger than 0.1
B(  0-C ,  1-O ) :   0.8865 B(  0-C ,  9-H ) :   0.9340 B(  0-C , 10-H ) :   0.9389
B(  0-C , 11-H ) :   0.9353 B(  1-O ,  2-C ) :   1.0015 B(  2-C ,  3-C ) :   0.8695
B(  2-C ,  6-C ) :   0.8490 B(  2-C , 12-H ) :   0.9309 B(  3-C ,  4-C ) :   0.9375
B(  3-C ,  6-C ) :   0.8186 B(  3-C , 13-H ) :   0.9146 B(  4-C ,  5-O ) :   0.9113
B(  4-C , 14-H ) :   0.9287 B(  4-C , 15-H ) :   0.9258 B(  5-O , 16-H ) :   0.8404
B(  6-C ,  7-C ) :   1.2056 B(  6-C ,  8-C ) :  -0.1382 B(  6-C , 17-H ) :   0.9280
B(  7-C ,  8-C ) :   2.5310 B(  8-C , 18-H ) :   0.9058

MP2 TOTAL ENERGY:     -422.245977045 Eh
FINAL SINGLE POINT ENERGY      -422.245977044579

DIPOLE MOMENT
-------------
                                X             Y             Z
Electronic contribution:      0.17294      -3.22690       0.23804
Nuclear contribution   :      0.52768       4.05350      -0.35684
                        -----------------------------------------
Total Dipole Moment    :      0.70062       0.82660      -0.11880
                        -----------------------------------------
Magnitude (a.u.)       :      1.09007
Magnitude (Debye)      :      2.77074

                             ****ORCA TERMINATED NORMALLY****
TOTAL RUN TIME: 0 days 0 hours 17 minutes 53 seconds 690 msec
