                         Program Version 3.0.3 - RELEASE   -
|  1> ! RI-MP2 RIJK def2-TZVP def2-TZVP/C def2-TZVP/JK TIGHTSCF
|  2> % maxcore 2000
|  3> % mp2 density relaxed end
|  4> *xyz 0 1
|  5>  C        0.2749899667     1.4756131814    -0.2649435432
|  6>  C       -0.1402183207     0.0532291892     0.1323493752
|  7>  C        0.5725454346    -0.4808558430     1.3480282891
|  8>  C        0.7199206795     0.2470461485     2.6787309953
|  9>  C        2.0774713631    -0.5167038598     2.8294150949
| 10>  C        1.8226564841    -1.8096839476     3.5632757625
| 11>  C        1.1241551873    -2.6045734112     2.7515204433
| 12>  C        1.0006029880    -1.9308875668     1.4306158249
| 13>  N        2.0339231855    -0.8685601518     1.3346446797
| 14>  H        1.3587914372     1.5337283032    -0.4041413290
| 15>  H       -0.2054785975     1.7717822712    -1.2022896968
| 16>  H       -0.0096011560     2.2090282072     0.4960335231
| 17>  H       -1.2230501875     0.0158226758     0.3147517363
| 18>  H        0.0529860014    -0.6264593729    -0.7060754594
| 19>  H        0.8895182174     1.3124325896     2.5112641761
| 20>  H       -0.0402095898     0.1128623251     3.4544885959
| 21>  H        2.9519909084     0.0621138279     3.1233520778
| 22>  H        2.0437950793    -1.9678159990     4.6111117634
| 23>  H        0.6883232103    -3.5681708749     2.9802008412
| 24>  H        0.8610920784    -2.5178263219     0.5271785597
| 25> *
| 26>
| 27>                          ****END OF INPUT****

CARTESIAN COORDINATES (ANGSTROEM)
---------------------------------
  C      0.274990    1.475613   -0.264944
  C     -0.140218    0.053229    0.132349
  C      0.572545   -0.480856    1.348028
  C      0.719921    0.247046    2.678731
  C      2.077471   -0.516704    2.829415
  C      1.822656   -1.809684    3.563276
  C      1.124155   -2.604573    2.751520
  C      1.000603   -1.930888    1.430616
  N      2.033923   -0.868560    1.334645
  H      1.358791    1.533728   -0.404141
  H     -0.205479    1.771782   -1.202290
  H     -0.009601    2.209028    0.496034
  H     -1.223050    0.015823    0.314752
  H      0.052986   -0.626459   -0.706075
  H      0.889518    1.312433    2.511264
  H     -0.040210    0.112862    3.454489
  H      2.951991    0.062114    3.123352
  H      2.043795   -1.967816    4.611112
  H      0.688323   -3.568171    2.980201
  H      0.861092   -2.517826    0.527179

 Total Charge           Charge          ....    0
 Multiplicity           Mult            ....    1
 Number of Electrons    NEL             ....   66
 Basis Dimension        Dim             ....  345

ORBITAL ENERGIES
----------------

  NO   OCC          E(Eh)            E(eV)
   0   2.0000     -15.553894      -423.2430
   1   2.0000     -11.264921      -306.5341
   2   2.0000     -11.262973      -306.4811
   3   2.0000     -11.258746      -306.3661
   4   2.0000     -11.230699      -305.6029
   5   2.0000     -11.229342      -305.5659
   6   2.0000     -11.228228      -305.5356
   7   2.0000     -11.226108      -305.4779
   8   2.0000     -11.212787      -305.1155
   9   2.0000      -1.301562       -35.4173
  10   2.0000      -1.071368       -29.1534
  11   2.0000      -1.030185       -28.0328
  12   2.0000      -1.010643       -27.5010
  13   2.0000      -0.926791       -25.2193
  14   2.0000      -0.860500       -23.4154
  15   2.0000      -0.789403       -21.4807
  16   2.0000      -0.762273       -20.7425
  17   2.0000      -0.708018       -19.2661
  18   2.0000      -0.696376       -18.9494
  19   2.0000      -0.631509       -17.1842
  20   2.0000      -0.612136       -16.6571
  21   2.0000      -0.584719       -15.9110
  22   2.0000      -0.570515       -15.5245
  23   2.0000      -0.544467       -14.8157
  24   2.0000      -0.543253       -14.7827
  25   2.0000      -0.516822       -14.0634
  26   2.0000      -0.507883       -13.8202
  27   2.0000      -0.490902       -13.3581
  28   2.0000      -0.470980       -12.8160
  29   2.0000      -0.440864       -11.9965
  30   2.0000      -0.427494       -11.6327
  31   2.0000      -0.393667       -10.7122
  32   2.0000      -0.320472        -8.7205
  33   0.0000       0.133807         3.6411
  34   0.0000       0.144541         3.9331
  35   0.0000       0.164750         4.4831
  36   0.0000       0.167245         4.5510
  37   0.0000       0.181367         4.9353

MULLIKEN ATOMIC CHARGES
-----------------------
   0 C :   -0.426396
   1 C :   -0.200819
   2 C :    0.125446
   3 C :   -0.228763
   4 C :    0.101073
   5 C :   -0.267767
   6 C :   -0.149192
   7 C :   -0.116871
   8 N :   -0.233603
   9 H :    0.146253
  10 H :    0.134485
  11 H :    0.123379
  12 H :    0.114675
  13 H :    0.113615
  14 H :    0.126915
  15 H :    0.114676
  16 H :    0.131497
  17 H :    0.130940
  18 H :    0.133335
  19 H :    0.127124
Sum of atomic charges:    0.0000000

LOEWDIN ATOMIC CHARGES
----------------------
   0 C :   -0.313406
   1 C :   -0.256274
   2 C :   -0.230063
   3 C :   -0.180177
   4 C :   -0.194807
   5 C :   -0.141409
   6 C :   -0.139179
   7 C :   -0.200563
   8 N :    0.164655
   9 H :    0.127346
  10 H :    0.121537
  11 H :    0.118275
  12 H :    0.144687
  13 H :    0.146250
  14 H :    0.143046
  15 H :    0.129467
  16 H :    0.135321
  17 H :    0.138850
  18 H :    0.139917
  19 H :    0.146525

  Mayer bond orders larger than 0.1
B(  0-C ,  1-C ) :   0.9175 B(  0-C ,  9-H ) :   0.9373 B(  0-C , 10-H ) :   0.9384
B(  0-C , 11-H ) :   0.9377 B(  1-C ,  2-C ) :   0.8875 B(  1-C , 12-H ) :   0.9327
B(  1-C , 13-H ) :   0.9268 B(  2-C ,  3-C ) :   0.9550 B(  2-C ,  7-C ) :   0.9236
B(  2-C ,  8-N ) :   0.7812 B(  3-C ,  4-C ) :   0.9124 B(  3-C , 14-H ) :   0.9201
B(  3-C , 15-H ) :   0.9009 B(  4-C ,  5-C ) :   0.9545 B(  4-C ,  8-N ) :   0.9302
B(  4-C , 16-H ) :   0.9076 B(  5-C ,  6-C ) :   1.7885 B(  5-C , 17-H ) :   0.9262
B(  6-C ,  7-C ) :   0.9637 B(  6-C , 18-H ) :   0.9235 B(  7-C ,  8-N ) :   0.9882
B(  7-C , 19-H ) :   0.9015

MP2 TOTAL ENERGY:     -365.315018120 Eh
FINAL SINGLE POINT ENERGY      -365.315018120088

DIPOLE MOMENT
-------------
                                X             Y             Z
Electronic contribution:      3.17159      -5.23459       3.36747
Nuclear contribution   :     -3.76295       5.31198      -3.00716
                        -----------------------------------------
Total Dipole Moment    :     -0.59136       0.07739       0.36031
                        -----------------------------------------
Magnitude (a.u.)       :      0.69679
Magnitude (Debye)      :      1.77111

                             ****ORCA TERMINATED NORMALLY****
TOTAL RUN TIME: 0 days 0 hours 19 minutes 46 seconds 696 msec
