                         Program Version 3.0.3 - RELEASE   -
|  1> ! RI-MP2 RIJK def2-TZVP def2-TZVP/C def2-TZVP/JK TIGHTSCF
|  2> % maxcore 2000
|  3> % mp2 density relaxed end
|  4> *xyz 0 1
|  5>  C       -0.1036791822     1.5331687238     0.0894661582
|  6>  C        0.0837912404     0.0244535619     0.0119036732
|  7>  C        1.2901820769    -0.6251744596    -0.7064080593
|  8>  C        2.2048954360    -0.1771697277     0.5253580218
|  9>  C        0.8840336766    -0.7607375405     1.1195475199
| 10>  C        0.0852421212    -1.6277666228     2.1154522107
| 11>  C       -0.2075115332    -2.5975599175     0.8733279706
| 12>  O       -1.4750611884    -2.5018366499     0.2661663516
| 13>  C        1.0156662653    -1.9236283510     0.1307490122
| 14>  H        0.8052078702     2.0842524258     0.3432290301
| 15>  H       -0.4641149661     1.9186784460    -0.8712804830
| 16>  H       -0.8613722280     1.7841598074     0.8407362956
| 17>  H       -0.8647770376    -0.4453055134    -0.2447332055
| 18>  H        1.5630714875    -0.5367598452    -1.7632646790
| 19>  H        3.1047265423    -0.7752870629     0.6924260748
| 20>  H        2.4260637211     0.8876988904     0.6214563837
| 21>  H        0.6954095338    -2.1345430207     2.8691013423
| 22>  H       -0.7827599895    -1.1678999232     2.5995450226
| 23>  H        0.0236855730    -3.6472594229     1.1010960195
| 24>  H       -2.1253615231    -2.8604453714     0.8793446452
| 25>  H        1.8961796437    -2.5593494165     0.2625273447
| 26> *
| 27>
| 28>                          ****END OF INPUT****

CARTESIAN COORDINATES (ANGSTROEM)
---------------------------------
  C     -0.103679    1.533169    0.089466
  C      0.083791    0.024454    0.011904
  C      1.290182   -0.625174   -0.706408
  C      2.204895   -0.177170    0.525358
  C      0.884034   -0.760738    1.119548
  C      0.085242   -1.627767    2.115452
  C     -0.207512   -2.597560    0.873328
  O     -1.475061   -2.501837    0.266166
  C      1.015666   -1.923628    0.130749
  H      0.805208    2.084252    0.343229
  H     -0.464115    1.918678   -0.871280
  H     -0.861372    1.784160    0.840736
  H     -0.864777   -0.445306   -0.244733
  H      1.563071   -0.536760   -1.763265
  H      3.104727   -0.775287    0.692426
  H      2.426064    0.887699    0.621456
  H      0.695410   -2.134543    2.869101
  H     -0.782760   -1.167900    2.599545
  H      0.023686   -3.647259    1.101096
  H     -2.125362   -2.860445    0.879345
  H      1.896180   -2.559349    0.262527

 Total Charge           Charge          ....    0
 Multiplicity           Mult            ....    1
 Number of Electrons    NEL             ....   68
 Basis Dimension        Dim             ....  351

ORBITAL ENERGIES
----------------

  NO   OCC          E(Eh)            E(eV)
   0   2.0000     -20.559004      -559.4389
   1   2.0000     -11.293513      -307.3121
   2   2.0000     -11.248406      -306.0847
   3   2.0000     -11.236156      -305.7514
   4   2.0000     -11.234587      -305.7086
   5   2.0000     -11.232373      -305.6484
   6   2.0000     -11.217619      -305.2469
   7   2.0000     -11.216177      -305.2077
   8   2.0000     -11.205525      -304.9178
   9   2.0000      -1.366972       -37.1972
  10   2.0000      -1.215889       -33.0860
  11   2.0000      -1.042480       -28.3673
  12   2.0000      -0.979942       -26.6656
  13   2.0000      -0.895995       -24.3813
  14   2.0000      -0.864857       -23.5340
  15   2.0000      -0.812025       -22.0963
  16   2.0000      -0.793133       -21.5822
  17   2.0000      -0.696171       -18.9438
  18   2.0000      -0.692340       -18.8395
  19   2.0000      -0.643958       -17.5230
  20   2.0000      -0.618506       -16.8304
  21   2.0000      -0.605254       -16.4698
  22   2.0000      -0.588202       -16.0058
  23   2.0000      -0.562220       -15.2988
  24   2.0000      -0.548229       -14.9181
  25   2.0000      -0.529116       -14.3980
  26   2.0000      -0.520142       -14.1538
  27   2.0000      -0.495302       -13.4778
  28   2.0000      -0.455575       -12.3968
  29   2.0000      -0.434533       -11.8243
  30   2.0000      -0.429046       -11.6749
  31   2.0000      -0.416513       -11.3339
  32   2.0000      -0.398957       -10.8562
  33   2.0000      -0.349176        -9.5016
  34   0.0000       0.133237         3.6256
  35   0.0000       0.148629         4.0444
  36   0.0000       0.161916         4.4060
  37   0.0000       0.168459         4.5840
  38   0.0000       0.185819         5.0564

MULLIKEN ATOMIC CHARGES
-----------------------
   0 C :   -0.420083
   1 C :   -0.073447
   2 C :   -0.100173
   3 C :   -0.193496
   4 C :    0.026429
   5 C :   -0.296096
   6 C :    0.068326
   7 O :   -0.459201
   8 C :   -0.156049
   9 H :    0.118454
  10 H :    0.134372
  11 H :    0.129044
  12 H :    0.137094
  13 H :    0.125702
  14 H :    0.110402
  15 H :    0.113238
  16 H :    0.114719
  17 H :    0.119234
  18 H :    0.093018
  19 H :    0.317323
  20 H :    0.091190
Sum of atomic charges:    0.0000000

LOEWDIN ATOMIC CHARGES
----------------------
   0 C :   -0.297170
   1 C :   -0.188052
   2 C :   -0.139717
   3 C :   -0.169446
   4 C :   -0.171052
   5 C :   -0.197475
   6 C :   -0.287659
   7 O :   -0.018470
   8 C :   -0.135344
   9 H :    0.119662
  10 H :    0.126299
  11 H :    0.125358
  12 H :    0.157392
  13 H :    0.121063
  14 H :    0.127897
  15 H :    0.120289
  16 H :    0.134869
  17 H :    0.126033
  18 H :    0.124505
  19 H :    0.176662
  20 H :    0.144355

  Mayer bond orders larger than 0.1
B(  0-C ,  1-C ) :   0.9063 B(  0-C ,  9-H ) :   0.9364 B(  0-C , 10-H ) :   0.9414
B(  0-C , 11-H ) :   0.9376 B(  1-C ,  2-C ) :   0.8979 B(  1-C ,  4-C ) :   0.8850
B(  1-C , 12-H ) :   0.9018 B(  2-C ,  3-C ) :   0.8962 B(  2-C ,  8-C ) :   0.9056
B(  2-C , 13-H ) :   0.8836 B(  3-C ,  4-C ) :   0.8876 B(  3-C , 14-H ) :   0.9209
B(  3-C , 15-H ) :   0.9242 B(  4-C ,  5-C ) :   0.8868 B(  4-C ,  8-C ) :   0.8316
B(  5-C ,  6-C ) :   0.9193 B(  5-C , 16-H ) :   0.9065 B(  5-C , 17-H ) :   0.9204
B(  6-C ,  7-O ) :   0.9971 B(  6-C ,  8-C ) :   0.8704 B(  6-C , 18-H ) :   0.9393
B(  7-O , 19-H ) :   0.8395 B(  8-C , 20-H ) :   0.9341

MP2 TOTAL ENERGY:     -386.293378644 Eh
FINAL SINGLE POINT ENERGY      -386.293378643898

DIPOLE MOMENT
-------------
                                X             Y             Z
Electronic contribution:     -1.04700      -4.22688      -0.69534
Nuclear contribution   :      0.97899       3.99730       1.28859
                        -----------------------------------------
Total Dipole Moment    :     -0.06800      -0.22957       0.59325
                        -----------------------------------------
Magnitude (a.u.)       :      0.63974
Magnitude (Debye)      :      1.62610

                             ****ORCA TERMINATED NORMALLY****
TOTAL RUN TIME: 0 days 0 hours 19 minutes 44 seconds 857 msec
