                         Program Version 3.0.3 - RELEASE   -
|  1> ! RI-MP2 RIJK def2-TZVP def2-TZVP/C def2-TZVP/JK TIGHTSCF
|  2> % maxcore 2000
|  3> % mp2 density relaxed end
|  4> *xyz 0 1
|  5>  O       -0.0240282769     1.3766589577    -0.0474959959
|  6>  C        0.0146517955    -0.0320629004     0.0137336847
|  7>  C        0.6039498217    -0.6154053272     1.3214590384
|  8>  O       -0.0742285552    -1.8566603308     1.5413734789
|  9>  C       -0.9918782781    -2.0508487085     0.4589805011
| 10>  C       -1.3941506043    -0.6290305142     0.0585995269
| 11>  C       -0.2732313598    -2.7354950494    -0.7139795735
| 12>  O        0.9072881515    -2.0340243479    -1.0792741149
| 13>  C        0.7359361383    -0.6334610376    -1.2100792167
| 14>  H        0.8811547680     1.7064377536    -0.0728941270
| 15>  H        1.6838745317    -0.7947693260     1.2540321931
| 16>  H        0.4042866939     0.0715555662     2.1540538708
| 17>  H       -1.8162200374    -2.6739391781     0.8171409912
| 18>  H       -1.9976780908    -0.1473819634     0.8326034191
| 19>  H       -1.9165532900    -0.5663703311    -0.8991344849
| 20>  H        0.0575175155    -3.7372059918    -0.4273654084
| 21>  H       -0.9655883904    -2.8259986084    -1.5684829967
| 22>  H        0.1731497403    -0.3737835324    -2.1213510444
| 23>  H        1.7464726165    -0.2173970103    -1.3040483918
| 24> *
| 25>
| 26>                          ****END OF INPUT****

CARTESIAN COORDINATES (ANGSTROEM)
---------------------------------
  O     -0.024028    1.376659   -0.047496
  C      0.014652   -0.032063    0.013734
  C      0.603950   -0.615405    1.321459
  O     -0.074229   -1.856660    1.541373
  C     -0.991878   -2.050849    0.458981
  C     -1.394151   -0.629031    0.058600
  C     -0.273231   -2.735495   -0.713980
  O      0.907288   -2.034024   -1.079274
  C      0.735936   -0.633461   -1.210079
  H      0.881155    1.706438   -0.072894
  H      1.683875   -0.794769    1.254032
  H      0.404287    0.071556    2.154054
  H     -1.816220   -2.673939    0.817141
  H     -1.997678   -0.147382    0.832603
  H     -1.916553   -0.566370   -0.899134
  H      0.057518   -3.737206   -0.427365
  H     -0.965588   -2.825999   -1.568483
  H      0.173150   -0.373784   -2.121351
  H      1.746473   -0.217397   -1.304048

 Total Charge           Charge          ....    0
 Multiplicity           Mult            ....    1
 Number of Electrons    NEL             ....   70
 Basis Dimension        Dim             ....  339

ORBITAL ENERGIES
----------------

  NO   OCC          E(Eh)            E(eV)
   0   2.0000     -20.573166      -559.8243
   1   2.0000     -20.561999      -559.5204
   2   2.0000     -20.553548      -559.2905
   3   2.0000     -11.294690      -307.3441
   4   2.0000     -11.285479      -307.0935
   5   2.0000     -11.282701      -307.0179
   6   2.0000     -11.277912      -306.8876
   7   2.0000     -11.274042      -306.7823
   8   2.0000     -11.228804      -305.5513
   9   2.0000      -1.402070       -38.1523
  10   2.0000      -1.375942       -37.4413
  11   2.0000      -1.362953       -37.0878
  12   2.0000      -1.072275       -29.1781
  13   2.0000      -1.039546       -28.2875
  14   2.0000      -0.940252       -25.5856
  15   2.0000      -0.894614       -24.3437
  16   2.0000      -0.811887       -22.0926
  17   2.0000      -0.780754       -21.2454
  18   2.0000      -0.727092       -19.7852
  19   2.0000      -0.680252       -18.5106
  20   2.0000      -0.676337       -18.4041
  21   2.0000      -0.647908       -17.6305
  22   2.0000      -0.623238       -16.9592
  23   2.0000      -0.605214       -16.4687
  24   2.0000      -0.590393       -16.0654
  25   2.0000      -0.578342       -15.7375
  26   2.0000      -0.568312       -15.4645
  27   2.0000      -0.551033       -14.9944
  28   2.0000      -0.534945       -14.5566
  29   2.0000      -0.512241       -13.9388
  30   2.0000      -0.493117       -13.4184
  31   2.0000      -0.454141       -12.3578
  32   2.0000      -0.437603       -11.9078
  33   2.0000      -0.424127       -11.5411
  34   2.0000      -0.406619       -11.0647
  35   0.0000       0.125988         3.4283
  36   0.0000       0.142727         3.8838
  37   0.0000       0.175083         4.7643
  38   0.0000       0.178116         4.8468
  39   0.0000       0.190729         5.1900

MULLIKEN ATOMIC CHARGES
-----------------------
   0 O :   -0.455515
   1 C :    0.197856
   2 C :   -0.077391
   3 O :   -0.328134
   4 C :    0.085558
   5 C :   -0.277699
   6 C :   -0.067761
   7 O :   -0.315486
   8 C :   -0.102421
   9 H :    0.320180
  10 H :    0.097417
  11 H :    0.105284
  12 H :    0.117118
  13 H :    0.128358
  14 H :    0.131654
  15 H :    0.128249
  16 H :    0.091741
  17 H :    0.109309
  18 H :    0.111682
Sum of atomic charges:    0.0000000

LOEWDIN ATOMIC CHARGES
----------------------
   0 O :    0.023426
   1 C :   -0.397067
   2 C :   -0.259183
   3 O :    0.166050
   4 C :   -0.307334
   5 C :   -0.195928
   6 C :   -0.292914
   7 O :    0.162514
   8 C :   -0.285359
   9 H :    0.180110
  10 H :    0.127414
  11 H :    0.125484
  12 H :    0.144919
  13 H :    0.148434
  14 H :    0.143551
  15 H :    0.134424
  16 H :    0.124133
  17 H :    0.127262
  18 H :    0.130062

  Mayer bond orders larger than 0.1
B(  0-O ,  1-C ) :   0.9907 B(  0-O ,  9-H ) :   0.8381 B(  1-C ,  2-C ) :   0.9334
B(  1-C ,  5-C ) :   0.8854 B(  1-C ,  8-C ) :   0.9207 B(  2-C ,  3-O ) :   0.9537
B(  2-C , 10-H ) :   0.9033 B(  2-C , 11-H ) :   0.9198 B(  3-O ,  4-C ) :   0.9152
B(  4-C ,  5-C ) :   0.9451 B(  4-C ,  6-C ) :   0.9211 B(  4-C , 12-H ) :   0.9158
B(  5-C , 13-H ) :   0.9078 B(  5-C , 14-H ) :   0.9242 B(  6-C ,  7-O ) :   0.9295
B(  6-C , 15-H ) :   0.9238 B(  6-C , 16-H ) :   0.9247 B(  7-O ,  8-C ) :   0.9429
B(  8-C , 17-H ) :   0.9352 B(  8-C , 18-H ) :   0.9119

MP2 TOTAL ENERGY:     -459.440159271 Eh
FINAL SINGLE POINT ENERGY      -459.440159271247

DIPOLE MOMENT
-------------
                                X             Y             Z
Electronic contribution:      1.22848      -0.13862       1.22314
Nuclear contribution   :     -1.30418       0.43146      -1.56768
                        -----------------------------------------
Total Dipole Moment    :     -0.07570       0.29284      -0.34454
                        -----------------------------------------
Magnitude (a.u.)       :      0.45846
Magnitude (Debye)      :      1.16532

                             ****ORCA TERMINATED NORMALLY****
TOTAL RUN TIME: 0 days 0 hours 18 minutes 13 seconds 335 msec
