                         Program Version 3.0.3 - RELEASE   -
|  1> ! RI-MP2 RIJK def2-TZVP def2-TZVP/C def2-TZVP/JK TIGHTSCF
|  2> % maxcore 2000
|  3> % mp2 density relaxed end
|  4> *xyz 0 1
|  5>  C        0.8353934719    -0.0110076103    -0.7783158643
|  6>  N       -0.1394811905     0.1371807306     0.2948644259
|  7>  C       -0.1440261014     1.4683784717     0.8898473895
|  8>  C       -1.3861355386    -0.4435912729     0.1181752619
|  9>  N       -2.4827658905     0.2311884822     0.4108555805
| 10>  O       -3.5392262764    -0.6640859903     0.2304469136
| 11>  C       -3.0372035781    -1.8340633684    -0.1813563985
| 12>  C       -1.6857312696    -1.7974449534    -0.2830228894
| 13>  C       -0.7716797646    -2.9286583013    -0.6368092097
| 14>  H        1.8258099553     0.2555669263    -0.3972888501
| 15>  H        0.8764212152    -1.0419380063    -1.1279216025
| 16>  H        0.6147189675     0.6386206760    -1.6413466902
| 17>  H       -0.5222864258     2.2397746079     0.2017724681
| 18>  H       -0.7800930056     1.4706024397     1.7758350136
| 19>  H        0.8801380671     1.7249328031     1.1760339818
| 20>  H       -3.7550724082    -2.6233614865    -0.3502882218
| 21>  H       -1.3160662949    -3.8769623567    -0.6222301971
| 22>  H       -0.3337306474    -2.8222923624    -1.6361443529
| 23>  H        0.0551860845    -3.0092252390     0.0768167918
| 24> *
| 25>
| 26>                          ****END OF INPUT****

CARTESIAN COORDINATES (ANGSTROEM)
---------------------------------
  C      0.835393   -0.011008   -0.778316
  N     -0.139481    0.137181    0.294864
  C     -0.144026    1.468378    0.889847
  C     -1.386136   -0.443591    0.118175
  N     -2.482766    0.231188    0.410856
  O     -3.539226   -0.664086    0.230447
  C     -3.037204   -1.834063   -0.181356
  C     -1.685731   -1.797445   -0.283023
  C     -0.771680   -2.928658   -0.636809
  H      1.825810    0.255567   -0.397289
  H      0.876421   -1.041938   -1.127922
  H      0.614719    0.638621   -1.641347
  H     -0.522286    2.239775    0.201772
  H     -0.780093    1.470602    1.775835
  H      0.880138    1.724933    1.176034
  H     -3.755072   -2.623361   -0.350288
  H     -1.316066   -3.876962   -0.622230
  H     -0.333731   -2.822292   -1.636144
  H      0.055186   -3.009225    0.076817

 Total Charge           Charge          ....    0
 Multiplicity           Mult            ....    1
 Number of Electrons    NEL             ....   68
 Basis Dimension        Dim             ....  339

ORBITAL ENERGIES
----------------

  NO   OCC          E(Eh)            E(eV)
   0   2.0000     -20.625812      -561.2569
   1   2.0000     -15.592639      -424.2973
   2   2.0000     -15.577223      -423.8778
   3   2.0000     -11.305342      -307.6340
   4   2.0000     -11.301997      -307.5430
   5   2.0000     -11.262453      -306.4669
   6   2.0000     -11.248034      -306.0746
   7   2.0000     -11.240720      -305.8755
   8   2.0000     -11.238488      -305.8148
   9   2.0000      -1.476146       -40.1680
  10   2.0000      -1.268894       -34.5284
  11   2.0000      -1.126148       -30.6440
  12   2.0000      -1.087470       -29.5916
  13   2.0000      -0.966894       -26.3105
  14   2.0000      -0.957693       -26.0601
  15   2.0000      -0.906710       -24.6728
  16   2.0000      -0.805760       -21.9259
  17   2.0000      -0.762750       -20.7555
  18   2.0000      -0.707690       -19.2572
  19   2.0000      -0.660266       -17.9667
  20   2.0000      -0.639075       -17.3901
  21   2.0000      -0.628362       -17.0986
  22   2.0000      -0.621544       -16.9131
  23   2.0000      -0.583213       -15.8700
  24   2.0000      -0.578003       -15.7283
  25   2.0000      -0.574269       -15.6266
  26   2.0000      -0.552115       -15.0238
  27   2.0000      -0.541992       -14.7484
  28   2.0000      -0.530548       -14.4369
  29   2.0000      -0.518698       -14.1145
  30   2.0000      -0.459614       -12.5067
  31   2.0000      -0.447847       -12.1865
  32   2.0000      -0.352731        -9.5983
  33   2.0000      -0.342548        -9.3212
  34   0.0000       0.127164         3.4603
  35   0.0000       0.138359         3.7649
  36   0.0000       0.155827         4.2403
  37   0.0000       0.170932         4.6513
  38   0.0000       0.188445         5.1279

MULLIKEN ATOMIC CHARGES
-----------------------
   0 C :   -0.296717
   1 N :   -0.142305
   2 C :   -0.310326
   3 C :    0.134453
   4 N :   -0.159746
   5 O :   -0.122196
   6 C :   -0.020859
   7 C :   -0.070705
   8 C :   -0.435074
   9 H :    0.136884
  10 H :    0.136566
  11 H :    0.125563
  12 H :    0.128920
  13 H :    0.157543
  14 H :    0.129864
  15 H :    0.151143
  16 H :    0.145742
  17 H :    0.150377
  18 H :    0.160873
Sum of atomic charges:    0.0000000

LOEWDIN ATOMIC CHARGES
----------------------
   0 C :   -0.298571
   1 N :    0.111918
   2 C :   -0.302755
   3 C :   -0.322169
   4 N :    0.028717
   5 O :    0.264402
   6 C :   -0.253225
   7 C :   -0.198235
   8 C :   -0.275600
   9 H :    0.120496
  10 H :    0.121414
  11 H :    0.110863
  12 H :    0.111791
  13 H :    0.127573
  14 H :    0.117232
  15 H :    0.137797
  16 H :    0.134527
  17 H :    0.128508
  18 H :    0.135317

  Mayer bond orders larger than 0.1
B(  0-C ,  1-N ) :   0.8942 B(  0-C ,  9-H ) :   0.9368 B(  0-C , 10-H ) :   0.9377
B(  0-C , 11-H ) :   0.9251 B(  1-N ,  2-C ) :   0.9010 B(  1-N ,  3-C ) :   1.1303
B(  2-C , 12-H ) :   0.9316 B(  2-C , 13-H ) :   0.9311 B(  2-C , 14-H ) :   0.9308
B(  3-C ,  4-N ) :   1.5568 B(  3-C ,  7-C ) :   1.1484 B(  4-N ,  5-O ) :   0.8485
B(  4-N ,  6-C ) :   0.1031 B(  5-O ,  6-C ) :   1.1227 B(  6-C ,  7-C ) :   1.5641
B(  6-C , 15-H ) :   0.9238 B(  7-C ,  8-C ) :   0.8512 B(  8-C , 16-H ) :   0.9341
B(  8-C , 17-H ) :   0.9324 B(  8-C , 18-H ) :   0.9421

MP2 TOTAL ENERGY:     -418.479795644 Eh
FINAL SINGLE POINT ENERGY      -418.479795643766

DIPOLE MOMENT
-------------
                                X             Y             Z
Electronic contribution:     -9.39136       0.00078       1.95333
Nuclear contribution   :     10.31939      -0.71195      -2.42037
                        -----------------------------------------
Total Dipole Moment    :      0.92803      -0.71117      -0.46703
                        -----------------------------------------
Magnitude (a.u.)       :      1.25901
Magnitude (Debye)      :      3.20016

                             ****ORCA TERMINATED NORMALLY****
TOTAL RUN TIME: 0 days 0 hours 20 minutes 59 seconds 758 msec
