                         Program Version 3.0.3 - RELEASE   -
|  1> ! RI-MP2 RIJK def2-TZVP def2-TZVP/C def2-TZVP/JK TIGHTSCF
|  2> % maxcore 2000
|  3> % mp2 density relaxed end
|  4> *xyz 0 1
|  5>  C       -0.1483570535     1.5982794199     0.1410547684
|  6>  C        0.0304188435     0.1035366805    -0.0408156631
|  7>  C        0.8474378318    -0.5418593006    -1.1931596608
|  8>  C        2.0959424675    -0.0845905284    -0.4099392069
|  9>  N        1.1852703316    -0.6036371457     0.7227333498
| 10>  C        0.9079736946    -1.7560376539    -0.2510991983
| 11>  C       -0.1915297111    -2.7892349280     0.0278035503
| 12>  O        0.7500710605    -3.8700780335    -0.1349963584
| 13>  C        1.8522943890    -2.9616836960    -0.3386296105
| 14>  H        0.7308715305     2.1895634787    -0.1225028997
| 15>  H       -0.9803558005     1.9453558285    -0.4809969958
| 16>  H       -0.4004108326     1.8156091281     1.1842042970
| 17>  H       -0.9227989704    -0.3932097586     0.1721677485
| 18>  H        0.6579544277    -0.5229897501    -2.2726401491
| 19>  H        3.0149434191    -0.6644279642    -0.5260915791
| 20>  H        2.3259531784     0.9783608352    -0.3474847654
| 21>  H       -0.6067774698    -2.7514665793     1.0430560153
| 22>  H       -1.0107735245    -2.8436199414    -0.7004561389
| 23>  H        2.3490884388    -3.1266391499    -1.3032071954
| 24>  H        2.5930225694    -3.0219612613     0.4690124223
| 25> *
| 26>
| 27>                          ****END OF INPUT****

CARTESIAN COORDINATES (ANGSTROEM)
---------------------------------
  C     -0.148357    1.598279    0.141055
  C      0.030419    0.103537   -0.040816
  C      0.847438   -0.541859   -1.193160
  C      2.095942   -0.084591   -0.409939
  N      1.185270   -0.603637    0.722733
  C      0.907974   -1.756038   -0.251099
  C     -0.191530   -2.789235    0.027804
  O      0.750071   -3.870078   -0.134996
  C      1.852294   -2.961684   -0.338630
  H      0.730872    2.189563   -0.122503
  H     -0.980356    1.945356   -0.480997
  H     -0.400411    1.815609    1.184204
  H     -0.922799   -0.393210    0.172168
  H      0.657954   -0.522990   -2.272640
  H      3.014943   -0.664428   -0.526092
  H      2.325953    0.978361   -0.347485
  H     -0.606777   -2.751467    1.043056
  H     -1.010774   -2.843620   -0.700456
  H      2.349088   -3.126639   -1.303207
  H      2.593023   -3.021961    0.469012

 Total Charge           Charge          ....    0
 Multiplicity           Mult            ....    1
 Number of Electrons    NEL             ....   68
 Basis Dimension        Dim             ....  345

ORBITAL ENERGIES
----------------

  NO   OCC          E(Eh)            E(eV)
   0   2.0000     -20.548769      -559.1604
   1   2.0000     -15.571946      -423.7342
   2   2.0000     -11.277214      -306.8686
   3   2.0000     -11.277127      -306.8662
   4   2.0000     -11.275053      -306.8098
   5   2.0000     -11.273385      -306.7644
   6   2.0000     -11.264737      -306.5291
   7   2.0000     -11.254419      -306.2483
   8   2.0000     -11.224577      -305.4363
   9   2.0000      -1.380567       -37.5671
  10   2.0000      -1.297984       -35.3199
  11   2.0000      -1.020289       -27.7635
  12   2.0000      -0.975936       -26.5566
  13   2.0000      -0.945900       -25.7392
  14   2.0000      -0.931655       -25.3516
  15   2.0000      -0.887994       -24.1635
  16   2.0000      -0.786779       -21.4094
  17   2.0000      -0.715629       -19.4733
  18   2.0000      -0.683821       -18.6077
  19   2.0000      -0.671868       -18.2825
  20   2.0000      -0.652700       -17.7609
  21   2.0000      -0.624261       -16.9870
  22   2.0000      -0.581128       -15.8133
  23   2.0000      -0.573355       -15.6018
  24   2.0000      -0.565332       -15.3835
  25   2.0000      -0.548084       -14.9141
  26   2.0000      -0.529057       -14.3964
  27   2.0000      -0.496160       -13.5012
  28   2.0000      -0.490832       -13.3562
  29   2.0000      -0.474022       -12.8988
  30   2.0000      -0.436082       -11.8664
  31   2.0000      -0.434867       -11.8333
  32   2.0000      -0.414073       -11.2675
  33   2.0000      -0.378034       -10.2868
  34   0.0000       0.137839         3.7508
  35   0.0000       0.153128         4.1668
  36   0.0000       0.155343         4.2271
  37   0.0000       0.176271         4.7966
  38   0.0000       0.183179         4.9846

MULLIKEN ATOMIC CHARGES
-----------------------
   0 C :   -0.413004
   1 C :   -0.022753
   2 C :   -0.049195
   3 C :   -0.188371
   4 N :   -0.187821
   5 C :   -0.000650
   6 C :   -0.046029
   7 O :   -0.328210
   8 C :   -0.051334
   9 H :    0.122979
  10 H :    0.136935
  11 H :    0.146518
  12 H :    0.102802
  13 H :    0.112994
  14 H :    0.117715
  15 H :    0.121645
  16 H :    0.109784
  17 H :    0.102793
  18 H :    0.102740
  19 H :    0.110462
Sum of atomic charges:    0.0000000

LOEWDIN ATOMIC CHARGES
----------------------
   0 C :   -0.294780
   1 C :   -0.237187
   2 C :   -0.161367
   3 C :   -0.215220
   4 N :    0.137704
   5 C :   -0.265027
   6 C :   -0.240457
   7 O :    0.116584
   8 C :   -0.237831
   9 H :    0.122427
  10 H :    0.130146
  11 H :    0.132904
  12 H :    0.146750
  13 H :    0.122861
  14 H :    0.127342
  15 H :    0.121065
  16 H :    0.125764
  17 H :    0.121189
  18 H :    0.121276
  19 H :    0.125858

  Mayer bond orders larger than 0.1
B(  0-C ,  1-C ) :   0.9141 B(  0-C ,  9-H ) :   0.9339 B(  0-C , 10-H ) :   0.9362
B(  0-C , 11-H ) :   0.9374 B(  1-C ,  2-C ) :   0.9147 B(  1-C ,  4-N ) :   0.8919
B(  1-C , 12-H ) :   0.9249 B(  2-C ,  3-C ) :   0.9341 B(  2-C ,  5-C ) :   0.8647
B(  2-C , 13-H ) :   0.8911 B(  3-C ,  4-N ) :   0.9064 B(  3-C , 14-H ) :   0.9240
B(  3-C , 15-H ) :   0.9256 B(  4-N ,  5-C ) :   0.9550 B(  5-C ,  6-C ) :   0.9855
B(  5-C ,  8-C ) :   0.9901 B(  6-C ,  7-O ) :   0.9696 B(  6-C , 16-H ) :   0.9010
B(  6-C , 17-H ) :   0.9051 B(  7-O ,  8-C ) :   0.9729 B(  8-C , 18-H ) :   0.9036
B(  8-C , 19-H ) :   0.9021

MP2 TOTAL ENERGY:     -402.354661165 Eh
FINAL SINGLE POINT ENERGY      -402.354661164854

DIPOLE MOMENT
-------------
                                X             Y             Z
Electronic contribution:      0.95357      -5.78090       0.38968
Nuclear contribution   :     -1.07125       6.66687      -1.07352
                        -----------------------------------------
Total Dipole Moment    :     -0.11768       0.88597      -0.68384
                        -----------------------------------------
Magnitude (a.u.)       :      1.12535
Magnitude (Debye)      :      2.86042

                             ****ORCA TERMINATED NORMALLY****
TOTAL RUN TIME: 0 days 0 hours 17 minutes 38 seconds 377 msec
