                         Program Version 3.0.3 - RELEASE   -
|  1> ! RI-MP2 RIJK def2-TZVP def2-TZVP/C def2-TZVP/JK TIGHTSCF
|  2> % maxcore 2000
|  3> % mp2 density relaxed end
|  4> *xyz 0 1
|  5>  O        0.1069129846     1.3964052021    -0.1255755650
|  6>  C        0.0499569808    -0.0048812169    -0.0086185478
|  7>  C        0.6630069105    -0.5912253918     1.3109521638
|  8>  C       -0.5377418689    -1.3437068731     1.9549827741
|  9>  C       -1.2310893355    -1.9277290146     0.7004562625
| 10>  C       -1.3961440045    -0.5452368164     0.0674765222
| 11>  O       -2.0421690595     0.2164941950     1.1312613679
| 12>  C       -1.5440463091    -0.2804541932     2.3253227148
| 13>  N       -1.8712132656     0.1205243102     3.4732556543
| 14>  H       -0.5635352048     1.7531438456     0.4708336317
| 15>  H        0.5592074610    -0.4026941156    -0.8911805098
| 16>  H        1.4778593240    -1.2890508958     1.1000931756
| 17>  H        1.0539800499     0.2076083088     1.9443113709
| 18>  H       -0.2948404982    -2.0134263314     2.7760408883
| 19>  H       -0.5906730114    -2.5950621498     0.1183188310
| 20>  H       -2.1855230760    -2.4178298055     0.9066721112
| 21>  H       -1.9982286291    -0.4374104193    -0.8330390400
| 22>  H       -2.5657196583     0.8679415018     3.4131516643
| 23> *
| 24>
| 25>                          ****END OF INPUT****

CARTESIAN COORDINATES (ANGSTROEM)
---------------------------------
  O      0.106913    1.396405   -0.125576
  C      0.049957   -0.004881   -0.008619
  C      0.663007   -0.591225    1.310952
  C     -0.537742   -1.343707    1.954983
  C     -1.231089   -1.927729    0.700456
  C     -1.396144   -0.545237    0.067477
  O     -2.042169    0.216494    1.131261
  C     -1.544046   -0.280454    2.325323
  N     -1.871213    0.120524    3.473256
  H     -0.563535    1.753144    0.470834
  H      0.559207   -0.402694   -0.891181
  H      1.477859   -1.289051    1.100093
  H      1.053980    0.207608    1.944311
  H     -0.294840   -2.013426    2.776041
  H     -0.590673   -2.595062    0.118319
  H     -2.185523   -2.417830    0.906672
  H     -1.998229   -0.437410   -0.833039
  H     -2.565720    0.867942    3.413152

 Total Charge           Charge          ....    0
 Multiplicity           Mult            ....    1
 Number of Electrons    NEL             ....   68
 Basis Dimension        Dim             ....  333

ORBITAL ENERGIES
----------------

  NO   OCC          E(Eh)            E(eV)
   0   2.0000     -20.600116      -560.5577
   1   2.0000     -20.561453      -559.5056
   2   2.0000     -15.538258      -422.8175
   3   2.0000     -11.339221      -308.5559
   4   2.0000     -11.305365      -307.6346
   5   2.0000     -11.295471      -307.3654
   6   2.0000     -11.257381      -306.3289
   7   2.0000     -11.251053      -306.1567
   8   2.0000     -11.241592      -305.8993
   9   2.0000      -1.438226       -39.1361
  10   2.0000      -1.369100       -37.2551
  11   2.0000      -1.200282       -32.6613
  12   2.0000      -1.141288       -31.0560
  13   2.0000      -0.991593       -26.9826
  14   2.0000      -0.979856       -26.6632
  15   2.0000      -0.844725       -22.9861
  16   2.0000      -0.830928       -22.6107
  17   2.0000      -0.757346       -20.6084
  18   2.0000      -0.728990       -19.8368
  19   2.0000      -0.702421       -19.1139
  20   2.0000      -0.675385       -18.3782
  21   2.0000      -0.642472       -17.4826
  22   2.0000      -0.617858       -16.8128
  23   2.0000      -0.593583       -16.1522
  24   2.0000      -0.581760       -15.8305
  25   2.0000      -0.552790       -15.0422
  26   2.0000      -0.543712       -14.7952
  27   2.0000      -0.535329       -14.5670
  28   2.0000      -0.504519       -13.7287
  29   2.0000      -0.500337       -13.6149
  30   2.0000      -0.483463       -13.1557
  31   2.0000      -0.435044       -11.8381
  32   2.0000      -0.431479       -11.7411
  33   2.0000      -0.400421       -10.8960
  34   0.0000       0.126913         3.4535
  35   0.0000       0.153269         4.1707
  36   0.0000       0.158568         4.3149
  37   0.0000       0.169219         4.6047
  38   0.0000       0.179787         4.8922

MULLIKEN ATOMIC CHARGES
-----------------------
   0 O :   -0.464407
   1 C :    0.013987
   2 C :   -0.254803
   3 C :    0.063108
   4 C :   -0.313947
   5 C :    0.086724
   6 O :   -0.294399
   7 C :    0.022627
   8 N :   -0.352720
   9 H :    0.328653
  10 H :    0.108757
  11 H :    0.134624
  12 H :    0.136764
  13 H :    0.141681
  14 H :    0.138380
  15 H :    0.139586
  16 H :    0.140988
  17 H :    0.224398
Sum of atomic charges:    0.0000000

LOEWDIN ATOMIC CHARGES
----------------------
   0 O :   -0.009712
   1 C :   -0.317037
   2 C :   -0.196608
   3 C :   -0.193193
   4 C :   -0.197974
   5 C :   -0.248372
   6 O :    0.228765
   7 C :   -0.383606
   8 N :   -0.050196
   9 H :    0.179491
  10 H :    0.144888
  11 H :    0.140284
  12 H :    0.145242
  13 H :    0.155559
  14 H :    0.145956
  15 H :    0.144784
  16 H :    0.142154
  17 H :    0.169574

  Mayer bond orders larger than 0.1
B(  0-O ,  1-C ) :   0.9750 B(  0-O ,  9-H ) :   0.8250 B(  1-C ,  2-C ) :   0.9231
B(  1-C ,  5-C ) :   0.9267 B(  1-C , 10-H ) :   0.9315 B(  2-C ,  3-C ) :   0.8855
B(  2-C , 11-H ) :   0.9212 B(  2-C , 12-H ) :   0.9206 B(  3-C ,  4-C ) :   0.8934
B(  3-C ,  7-C ) :   0.9015 B(  3-C , 13-H ) :   0.9104 B(  4-C ,  5-C ) :   0.9446
B(  4-C , 14-H ) :   0.9279 B(  4-C , 15-H ) :   0.9101 B(  5-C ,  6-O ) :   0.8305
B(  5-C , 16-H ) :   0.9217 B(  6-O ,  7-C ) :   1.0406 B(  7-C ,  8-N ) :   2.1060
B(  8-N , 17-H ) :   0.8519

MP2 TOTAL ENERGY:     -438.401028602 Eh
FINAL SINGLE POINT ENERGY      -438.401028602448

DIPOLE MOMENT
-------------
                                X             Y             Z
Electronic contribution:     -2.55094       2.77515       0.87323
Nuclear contribution   :      2.52599      -3.56011      -1.52671
                        -----------------------------------------
Total Dipole Moment    :     -0.02495      -0.78496      -0.65348
                        -----------------------------------------
Magnitude (a.u.)       :      1.02167
Magnitude (Debye)      :      2.59689

                             ****ORCA TERMINATED NORMALLY****
TOTAL RUN TIME: 0 days 0 hours 18 minutes 46 seconds 443 msec
