                         Program Version 3.0.3 - RELEASE   -
|  1> ! RI-MP2 RIJK def2-TZVP def2-TZVP/C def2-TZVP/JK TIGHTSCF
|  2> % maxcore 2000
|  3> % mp2 density relaxed end
|  4> *xyz 0 1
|  5>  O       -0.1229036133     1.4711291436     0.1030746027
|  6>  C        0.0165405797     0.0596247645     0.0866095660
|  7>  C       -1.3770276090    -0.5416230709    -0.1260763965
|  8>  C       -1.3780066653    -2.0361632134    -0.1374676159
|  9>  C       -1.3312233841    -2.9318413659    -1.1898149388
| 10>  C       -1.3074131014    -4.2414587842    -0.6348235729
| 11>  O       -1.2654177716    -5.4347050017    -1.2994665091
| 12>  C       -1.3389410845    -4.1245736107     0.7348233992
| 13>  N       -1.3776277132    -2.7727090746     1.0170968163
| 14>  H        0.7516896127     1.8601191857     0.1938383893
| 15>  H        0.6830840651    -0.2753102319    -0.7226162092
| 16>  H        0.4401245212    -0.3143882195     1.0327757990
| 17>  H       -2.0389300022    -0.1558640167     0.6597756165
| 18>  H       -1.7717607198    -0.1677473145    -1.0755765136
| 19>  H       -1.3181753467    -2.6720679678    -2.2386986762
| 20>  H       -1.2670273211    -5.2533937900    -2.2432373552
| 21>  H       -1.3474751631    -4.8736976032     1.5075598238
| 22>  H       -1.4308761134    -2.3842539789     1.9420721047
| 23> *
| 24>
| 25>                          ****END OF INPUT****

CARTESIAN COORDINATES (ANGSTROEM)
---------------------------------
  O     -0.122904    1.471129    0.103075
  C      0.016541    0.059625    0.086610
  C     -1.377028   -0.541623   -0.126076
  C     -1.378007   -2.036163   -0.137468
  C     -1.331223   -2.931841   -1.189815
  C     -1.307413   -4.241459   -0.634824
  O     -1.265418   -5.434705   -1.299467
  C     -1.338941   -4.124574    0.734823
  N     -1.377628   -2.772709    1.017097
  H      0.751690    1.860119    0.193838
  H      0.683084   -0.275310   -0.722616
  H      0.440125   -0.314388    1.032776
  H     -2.038930   -0.155864    0.659776
  H     -1.771761   -0.167747   -1.075577
  H     -1.318175   -2.672068   -2.238699
  H     -1.267027   -5.253394   -2.243237
  H     -1.347475   -4.873698    1.507560
  H     -1.430876   -2.384254    1.942072

 Total Charge           Charge          ....    0
 Multiplicity           Mult            ....    1
 Number of Electrons    NEL             ....   68
 Basis Dimension        Dim             ....  333

ORBITAL ENERGIES
----------------

  NO   OCC          E(Eh)            E(eV)
   0   2.0000     -20.572168      -559.7972
   1   2.0000     -20.561562      -559.5085
   2   2.0000     -15.598982      -424.4699
   3   2.0000     -11.283064      -307.0278
   4   2.0000     -11.270921      -306.6974
   5   2.0000     -11.263275      -306.4893
   6   2.0000     -11.236319      -305.7558
   7   2.0000     -11.233755      -305.6860
   8   2.0000     -11.206699      -304.9498
   9   2.0000      -1.385749       -37.7081
  10   2.0000      -1.365995       -37.1706
  11   2.0000      -1.286838       -35.0166
  12   2.0000      -1.057249       -28.7692
  13   2.0000      -1.033438       -28.1213
  14   2.0000      -0.953031       -25.9333
  15   2.0000      -0.852764       -23.2049
  16   2.0000      -0.786705       -21.4073
  17   2.0000      -0.783444       -21.3186
  18   2.0000      -0.729034       -19.8380
  19   2.0000      -0.693545       -18.8723
  20   2.0000      -0.658922       -17.9302
  21   2.0000      -0.633449       -17.2370
  22   2.0000      -0.610579       -16.6147
  23   2.0000      -0.604622       -16.4526
  24   2.0000      -0.580987       -15.8095
  25   2.0000      -0.577236       -15.7074
  26   2.0000      -0.550696       -14.9852
  27   2.0000      -0.533049       -14.5050
  28   2.0000      -0.527804       -14.3623
  29   2.0000      -0.499688       -13.5972
  30   2.0000      -0.492654       -13.4058
  31   2.0000      -0.450523       -12.2593
  32   2.0000      -0.333227        -9.0676
  33   2.0000      -0.281931        -7.6717
  34   0.0000       0.125594         3.4176
  35   0.0000       0.139513         3.7963
  36   0.0000       0.145866         3.9692
  37   0.0000       0.165696         4.5088
  38   0.0000       0.175781         4.7832

MULLIKEN ATOMIC CHARGES
-----------------------
   0 O :   -0.464360
   1 C :   -0.053999
   2 C :   -0.224886
   3 C :    0.110984
   4 C :   -0.296132
   5 C :    0.202389
   6 O :   -0.446155
   7 C :   -0.161276
   8 N :   -0.270210
   9 H :    0.317296
  10 H :    0.103819
  11 H :    0.086038
  12 H :    0.124898
  13 H :    0.131004
  14 H :    0.125828
  15 H :    0.330963
  16 H :    0.143434
  17 H :    0.240365
Sum of atomic charges:   -0.0000000

LOEWDIN ATOMIC CHARGES
----------------------
   0 O :   -0.052008
   1 C :   -0.347380
   2 C :   -0.239263
   3 C :   -0.238486
   4 C :   -0.176967
   5 C :   -0.321933
   6 O :    0.048179
   7 C :   -0.225257
   8 N :    0.197490
   9 H :    0.173034
  10 H :    0.117178
  11 H :    0.111652
  12 H :    0.146529
  13 H :    0.152964
  14 H :    0.138678
  15 H :    0.190260
  16 H :    0.133664
  17 H :    0.191666

  Mayer bond orders larger than 0.1
B(  0-O ,  1-C ) :   1.0096 B(  0-O ,  9-H ) :   0.8476 B(  1-C ,  2-C ) :   0.9195
B(  1-C , 10-H ) :   0.9310 B(  1-C , 11-H ) :   0.9307 B(  2-C ,  3-C ) :   0.8581
B(  2-C , 12-H ) :   0.9320 B(  2-C , 13-H ) :   0.9398 B(  3-C ,  4-C ) :   1.4365
B(  3-C ,  8-N ) :   1.1352 B(  4-C ,  5-C ) :   1.2593 B(  4-C , 14-H ) :   0.9096
B(  5-C ,  6-O ) :   1.0742 B(  5-C ,  7-C ) :   1.4972 B(  6-O , 15-H ) :   0.8387
B(  7-C ,  8-N ) :   1.0943 B(  7-C , 16-H ) :   0.9115 B(  8-N , 17-H ) :   0.8747

MP2 TOTAL ENERGY:     -438.391459315 Eh
FINAL SINGLE POINT ENERGY      -438.391459314686

DIPOLE MOMENT
-------------
                                X             Y             Z
Electronic contribution:     -1.24398      -4.92554      -0.27335
Nuclear contribution   :      1.76184       5.41153       0.50666
                        -----------------------------------------
Total Dipole Moment    :      0.51785       0.48599       0.23331
                        -----------------------------------------
Magnitude (a.u.)       :      0.74752
Magnitude (Debye)      :      1.90005

                             ****ORCA TERMINATED NORMALLY****
TOTAL RUN TIME: 0 days 0 hours 15 minutes 8 seconds 267 msec
