                         Program Version 3.0.3 - RELEASE   -
|  1> ! RI-MP2 RIJK def2-TZVP def2-TZVP/C def2-TZVP/JK TIGHTSCF
|  2> % maxcore 2000
|  3> % mp2 density relaxed end
|  4> *xyz 0 1
|  5>  C        0.0161478143     1.4824959950     0.1208631716
|  6>  C       -0.0467983111    -0.0457748033     0.0497162872
|  7>  C        0.8305174568    -0.6369133821    -1.1131039551
|  8>  N        2.1148944630    -1.0520026690    -0.5122106011
|  9>  C        1.8703536685    -1.0574992533     0.7328743096
| 10>  O        2.7041288641    -1.3120145958     1.7567968637
| 11>  C        1.9493876314    -1.1382841152     2.9752428714
| 12>  C        0.7139851559    -0.3038656938     2.5704795568
| 13>  N        0.5979299006    -0.7225835630     1.1853106378
| 14>  H        1.0531064842     1.8315359513     0.1705148766
| 15>  H       -0.4406434517     1.9094167982    -0.7773377274
| 16>  H       -0.5255882270     1.8771420404     0.9866441101
| 17>  H       -1.0900761698    -0.3656615846    -0.0358667076
| 18>  H        0.3357156037    -1.5025150927    -1.5723371740
| 19>  H        0.9951270412     0.1025060584    -1.9036271980
| 20>  H        1.6593065664    -2.1251042514     3.3517585379
| 21>  H        2.5916624001    -0.6455348660     3.7068081012
| 22>  H       -0.1660341368    -0.5631959332     3.1663084502
| 23>  H        0.9060289560     0.7734643101     2.6822575691
| 24> *
| 25>
| 26>                          ****END OF INPUT****

CARTESIAN COORDINATES (ANGSTROEM)
---------------------------------
  C      0.016148    1.482496    0.120863
  C     -0.046798   -0.045775    0.049716
  C      0.830517   -0.636913   -1.113104
  N      2.114894   -1.052003   -0.512211
  C      1.870354   -1.057499    0.732874
  O      2.704129   -1.312015    1.756797
  C      1.949388   -1.138284    2.975243
  C      0.713985   -0.303866    2.570480
  N      0.597930   -0.722584    1.185311
  H      1.053106    1.831536    0.170515
  H     -0.440643    1.909417   -0.777338
  H     -0.525588    1.877142    0.986644
  H     -1.090076   -0.365662   -0.035867
  H      0.335716   -1.502515   -1.572337
  H      0.995127    0.102506   -1.903627
  H      1.659307   -2.125104    3.351759
  H      2.591662   -0.645535    3.706808
  H     -0.166034   -0.563196    3.166308
  H      0.906029    0.773464    2.682258

 Total Charge           Charge          ....    0
 Multiplicity           Mult            ....    1
 Number of Electrons    NEL             ....   68
 Basis Dimension        Dim             ....  339

ORBITAL ENERGIES
----------------

  NO   OCC          E(Eh)            E(eV)
   0   2.0000     -20.599725      -560.5470
   1   2.0000     -15.576827      -423.8670
   2   2.0000     -15.516313      -422.2204
   3   2.0000     -11.348110      -308.7978
   4   2.0000     -11.305469      -307.6375
   5   2.0000     -11.282983      -307.0256
   6   2.0000     -11.273293      -306.7619
   7   2.0000     -11.248830      -306.0962
   8   2.0000     -11.225868      -305.4714
   9   2.0000      -1.450542       -39.4712
  10   2.0000      -1.286494       -35.0073
  11   2.0000      -1.182926       -32.1890
  12   2.0000      -1.046107       -28.4660
  13   2.0000      -1.010295       -27.4915
  14   2.0000      -0.930304       -25.3149
  15   2.0000      -0.868539       -23.6341
  16   2.0000      -0.821199       -22.3460
  17   2.0000      -0.762377       -20.7453
  18   2.0000      -0.716420       -19.4948
  19   2.0000      -0.671311       -18.2673
  20   2.0000      -0.649766       -17.6810
  21   2.0000      -0.639660       -17.4060
  22   2.0000      -0.611685       -16.6448
  23   2.0000      -0.590221       -16.0607
  24   2.0000      -0.570428       -15.5221
  25   2.0000      -0.557316       -15.1653
  26   2.0000      -0.539213       -14.6727
  27   2.0000      -0.531482       -14.4624
  28   2.0000      -0.520819       -14.1722
  29   2.0000      -0.508081       -13.8256
  30   2.0000      -0.490768       -13.3545
  31   2.0000      -0.423105       -11.5133
  32   2.0000      -0.412230       -11.2173
  33   2.0000      -0.339221        -9.2307
  34   0.0000       0.127500         3.4694
  35   0.0000       0.148361         4.0371
  36   0.0000       0.162030         4.4091
  37   0.0000       0.174111         4.7378
  38   0.0000       0.187121         5.0918

MULLIKEN ATOMIC CHARGES
-----------------------
   0 C :   -0.469017
   1 C :   -0.001777
   2 C :   -0.075677
   3 N :   -0.249179
   4 C :    0.168082
   5 O :   -0.254247
   6 C :   -0.028708
   7 C :   -0.186899
   8 N :   -0.146632
   9 H :    0.151711
  10 H :    0.140325
  11 H :    0.135566
  12 H :    0.107518
  13 H :    0.103106
  14 H :    0.114076
  15 H :    0.114369
  16 H :    0.127027
  17 H :    0.134650
  18 H :    0.115707
Sum of atomic charges:   -0.0000000

LOEWDIN ATOMIC CHARGES
----------------------
   0 C :   -0.300514
   1 C :   -0.272946
   2 C :   -0.243289
   3 N :    0.059779
   4 C :   -0.463278
   5 O :    0.258297
   6 C :   -0.248716
   7 C :   -0.262339
   8 N :    0.176098
   9 H :    0.130729
  10 H :    0.129561
  11 H :    0.121613
  12 H :    0.141553
  13 H :    0.127651
  14 H :    0.129625
  15 H :    0.127789
  16 H :    0.128617
  17 H :    0.132931
  18 H :    0.126837

  Mayer bond orders larger than 0.1
B(  0-C ,  1-C ) :   0.8875 B(  0-C ,  9-H ) :   0.9330 B(  0-C , 10-H ) :   0.9323
B(  0-C , 11-H ) :   0.9369 B(  1-C ,  2-C ) :   0.9062 B(  1-C ,  8-N ) :   0.9194
B(  1-C , 12-H ) :   0.9285 B(  2-C ,  3-N ) :   0.9158 B(  2-C , 13-H ) :   0.9101
B(  2-C , 14-H ) :   0.9295 B(  3-N ,  4-C ) :   1.8905 B(  4-C ,  5-O ) :   1.1059
B(  4-C ,  8-N ) :   1.0831 B(  5-O ,  6-C ) :   0.8807 B(  6-C ,  7-C ) :   0.9503
B(  6-C , 15-H ) :   0.9254 B(  6-C , 16-H ) :   0.9267 B(  7-C ,  8-N ) :   0.9088
B(  7-C , 17-H ) :   0.9246 B(  7-C , 18-H ) :   0.9117

MP2 TOTAL ENERGY:     -418.522598390 Eh
FINAL SINGLE POINT ENERGY      -418.522598389694

DIPOLE MOMENT
-------------
                                X             Y             Z
Electronic contribution:      4.95042      -5.34304       0.20756
Nuclear contribution   :     -6.19172       6.02715       0.88751
                        -----------------------------------------
Total Dipole Moment    :     -1.24130       0.68411       1.09508
                        -----------------------------------------
Magnitude (a.u.)       :      1.79109
Magnitude (Debye)      :      4.55260

                             ****ORCA TERMINATED NORMALLY****
TOTAL RUN TIME: 0 days 0 hours 19 minutes 18 seconds 933 msec
