                         Program Version 3.0.3 - RELEASE   -
|  1> ! RI-MP2 RIJK def2-TZVP def2-TZVP/C def2-TZVP/JK TIGHTSCF
|  2> % maxcore 2000
|  3> % mp2 density relaxed end
|  4> *xyz 0 1
|  5>  N        0.0240554613     1.4116567515     0.2141885100
|  6>  C       -0.0631822027    -0.0361511695     0.0081835979
|  7>  C       -1.4773862727    -0.4455950922     0.0387378172
|  8>  N       -2.5808840469    -0.7868301647     0.0097196633
|  9>  C        0.5882550604    -0.5734707704    -1.2801649951
| 10>  C        2.1501141374    -0.4252935270    -1.4194935838
| 11>  C        2.2328930709    -1.9538512419    -1.5162512160
| 12>  O        1.6563241806    -2.4797145874    -0.3156166450
| 13>  C        0.7749413186    -2.1002001358    -1.3791807254
| 14>  H        1.0010572773     1.6799920102     0.2809357573
| 15>  H       -0.3655310353     1.9033303550    -0.5854139733
| 16>  H        0.4342938086    -0.5224505473     0.8552334879
| 17>  H        0.0722244125    -0.1697469040    -2.1563229838
| 18>  H        2.4393610792     0.0927568015    -2.3360928247
| 19>  H        2.6868076323     0.0078340757    -0.5705489599
| 20>  H        2.9602912009    -2.5710561534    -2.0292201494
| 21>  H        0.0876253276    -2.8500893804    -1.7509380669
| 22> *
| 23>
| 24>                          ****END OF INPUT****

CARTESIAN COORDINATES (ANGSTROEM)
---------------------------------
  N      0.024055    1.411657    0.214189
  C     -0.063182   -0.036151    0.008184
  C     -1.477386   -0.445595    0.038738
  N     -2.580884   -0.786830    0.009720
  C      0.588255   -0.573471   -1.280165
  C      2.150114   -0.425294   -1.419494
  C      2.232893   -1.953851   -1.516251
  O      1.656324   -2.479715   -0.315617
  C      0.774941   -2.100200   -1.379181
  H      1.001057    1.679992    0.280936
  H     -0.365531    1.903330   -0.585414
  H      0.434294   -0.522451    0.855233
  H      0.072224   -0.169747   -2.156323
  H      2.439361    0.092757   -2.336093
  H      2.686808    0.007834   -0.570549
  H      2.960291   -2.571056   -2.029220
  H      0.087625   -2.850089   -1.750938

 Total Charge           Charge          ....    0
 Multiplicity           Mult            ....    1
 Number of Electrons    NEL             ....   66
 Basis Dimension        Dim             ....  327

ORBITAL ENERGIES
----------------

  NO   OCC          E(Eh)            E(eV)
   0   2.0000     -20.586144      -560.1774
   1   2.0000     -15.573392      -423.7735
   2   2.0000     -15.569919      -423.6790
   3   2.0000     -11.314457      -307.8820
   4   2.0000     -11.306266      -307.6591
   5   2.0000     -11.304574      -307.6131
   6   2.0000     -11.270414      -306.6836
   7   2.0000     -11.270368      -306.6823
   8   2.0000     -11.259116      -306.3761
   9   2.0000      -1.438006       -39.1301
  10   2.0000      -1.237236       -33.6669
  11   2.0000      -1.202318       -32.7167
  12   2.0000      -1.109879       -30.2013
  13   2.0000      -0.998708       -27.1762
  14   2.0000      -0.915061       -24.9001
  15   2.0000      -0.876086       -23.8395
  16   2.0000      -0.782305       -21.2876
  17   2.0000      -0.748559       -20.3693
  18   2.0000      -0.727884       -19.8067
  19   2.0000      -0.662984       -18.0407
  20   2.0000      -0.653277       -17.7766
  21   2.0000      -0.635804       -17.3011
  22   2.0000      -0.604308       -16.4441
  23   2.0000      -0.575569       -15.6620
  24   2.0000      -0.560203       -15.2439
  25   2.0000      -0.535009       -14.5583
  26   2.0000      -0.531904       -14.4738
  27   2.0000      -0.501953       -13.6588
  28   2.0000      -0.473858       -12.8943
  29   2.0000      -0.463937       -12.6244
  30   2.0000      -0.455094       -12.3837
  31   2.0000      -0.446471       -12.1491
  32   2.0000      -0.404440       -11.0054
  33   0.0000       0.111754         3.0410
  34   0.0000       0.141799         3.8585
  35   0.0000       0.149089         4.0569
  36   0.0000       0.163692         4.4543
  37   0.0000       0.174516         4.7488

MULLIKEN ATOMIC CHARGES
-----------------------
   0 N :   -0.516141
   1 C :    0.090666
   2 C :   -0.190221
   3 N :   -0.052861
   4 C :   -0.034396
   5 C :   -0.227490
   6 C :   -0.034046
   7 O :   -0.322445
   8 C :   -0.021816
   9 H :    0.234840
  10 H :    0.236357
  11 H :    0.157804
  12 H :    0.123923
  13 H :    0.131132
  14 H :    0.118201
  15 H :    0.146226
  16 H :    0.160265
Sum of atomic charges:    0.0000000

LOEWDIN ATOMIC CHARGES
----------------------
   0 N :   -0.123436
   1 C :   -0.304142
   2 C :   -0.162441
   3 N :    0.065478
   4 C :   -0.190113
   5 C :   -0.198233
   6 C :   -0.240710
   7 O :    0.177701
   8 C :   -0.217753
   9 H :    0.157809
  10 H :    0.161027
  11 H :    0.177576
  12 H :    0.156919
  13 H :    0.138957
  14 H :    0.133045
  15 H :    0.131959
  16 H :    0.136357

  Mayer bond orders larger than 0.1
B(  0-N ,  1-C ) :   0.9268 B(  0-N ,  9-H ) :   0.8939 B(  0-N , 10-H ) :   0.8847
B(  1-C ,  2-C ) :   0.9313 B(  1-C ,  4-C ) :   0.8988 B(  1-C , 11-H ) :   0.8967
B(  2-C ,  3-N ) :   2.8729 B(  4-C ,  5-C ) :   0.9407 B(  4-C ,  8-C ) :   0.8777
B(  4-C , 12-H ) :   0.8985 B(  5-C ,  6-C ) :   0.9172 B(  5-C , 13-H ) :   0.9085
B(  5-C , 14-H ) :   0.9143 B(  6-C ,  7-O ) :   0.9326 B(  6-C ,  8-C ) :   0.8861
B(  6-C , 15-H ) :   0.9301 B(  7-O ,  8-C ) :   0.8827 B(  8-C , 16-H ) :   0.9192

MP2 TOTAL ENERGY:     -417.263180560 Eh
FINAL SINGLE POINT ENERGY      -417.263180560065

DIPOLE MOMENT
-------------
                                X             Y             Z
Electronic contribution:     -3.98446      -3.18511       1.90346
Nuclear contribution   :      5.68148       3.74472      -3.11728
                        -----------------------------------------
Total Dipole Moment    :      1.69702       0.55962      -1.21382
                        -----------------------------------------
Magnitude (a.u.)       :      2.16018
Magnitude (Debye)      :      5.49075

                             ****ORCA TERMINATED NORMALLY****
TOTAL RUN TIME: 0 days 0 hours 18 minutes 40 seconds 611 msec
