                         Program Version 3.0.3 - RELEASE   -
|  1> ! RI-MP2 RIJK def2-TZVP def2-TZVP/C def2-TZVP/JK TIGHTSCF
|  2> % maxcore 2000
|  3> % mp2 density relaxed end
|  4> *xyz 0 1
|  5>  C       -0.0055134810    -1.1754874050    -0.0056471014
|  6>  C        0.0260501121     0.0261877863    -0.0105327295
|  7>  C       -0.0052029084     1.4586666790     0.0019597797
|  8>  C        0.4149466489     2.2461673291    -1.1917286971
|  9>  N        1.2959446095     2.2121234100     0.0000976450
| 10>  C        0.9969275047     3.3075686002     0.8713048797
| 11>  N       -0.1296741082     3.3586083477     1.4548909068
| 12>  C       -0.8980331864     2.1797391956     1.0291755464
| 13>  H       -0.0158093551    -2.2373909502    -0.0048424467
| 14>  H        0.8081083526     1.7224346155    -2.0565115963
| 15>  H       -0.1116181572     3.1747650469    -1.3989344692
| 16>  H        1.7737238916     4.0535552638     1.0129995268
| 17>  H       -1.8667603594     2.4885474515     0.6234972100
| 18>  H       -1.0925496138     1.5326729698     1.8906537158
| 19> *
| 20>
| 21>                          ****END OF INPUT****

CARTESIAN COORDINATES (ANGSTROEM)
---------------------------------
  C     -0.005513   -1.175487   -0.005647
  C      0.026050    0.026188   -0.010533
  C     -0.005203    1.458667    0.001960
  C      0.414947    2.246167   -1.191729
  N      1.295945    2.212123    0.000098
  C      0.996928    3.307569    0.871305
  N     -0.129674    3.358608    1.454891
  C     -0.898033    2.179739    1.029176
  H     -0.015809   -2.237391   -0.004842
  H      0.808108    1.722435   -2.056512
  H     -0.111618    3.174765   -1.398934
  H      1.773724    4.053555    1.013000
  H     -1.866760    2.488547    0.623497
  H     -1.092550    1.532673    1.890654

 Total Charge           Charge          ....    0
 Multiplicity           Mult            ....    1
 Number of Electrons    NEL             ....   56
 Basis Dimension        Dim             ....  284

ORBITAL ENERGIES
----------------

  NO   OCC          E(Eh)            E(eV)
   0   2.0000     -15.593182      -424.3120
   1   2.0000     -15.563714      -423.5102
   2   2.0000     -11.311217      -307.7938
   3   2.0000     -11.305925      -307.6499
   4   2.0000     -11.288450      -307.1743
   5   2.0000     -11.272374      -306.7369
   6   2.0000     -11.246109      -306.0222
   7   2.0000     -11.237856      -305.7976
   8   2.0000      -1.343353       -36.5545
   9   2.0000      -1.204316       -32.7711
  10   2.0000      -1.065665       -28.9982
  11   2.0000      -1.004958       -27.3463
  12   2.0000      -0.915808       -24.9204
  13   2.0000      -0.862541       -23.4709
  14   2.0000      -0.793524       -21.5929
  15   2.0000      -0.735597       -20.0166
  16   2.0000      -0.709487       -19.3061
  17   2.0000      -0.667558       -18.1652
  18   2.0000      -0.621424       -16.9098
  19   2.0000      -0.587968       -15.9994
  20   2.0000      -0.578026       -15.7289
  21   2.0000      -0.530515       -14.4361
  22   2.0000      -0.524575       -14.2744
  23   2.0000      -0.478751       -13.0275
  24   2.0000      -0.436153       -11.8683
  25   2.0000      -0.405133       -11.0242
  26   2.0000      -0.389488       -10.5985
  27   2.0000      -0.376606       -10.2480
  28   0.0000       0.134439         3.6583
  29   0.0000       0.150081         4.0839
  30   0.0000       0.153031         4.1642
  31   0.0000       0.162670         4.4265
  32   0.0000       0.167536         4.5589

MULLIKEN ATOMIC CHARGES
-----------------------
   0 C :   -0.091267
   1 C :   -0.024202
   2 C :   -0.095930
   3 C :   -0.153055
   4 N :   -0.224109
   5 C :    0.014194
   6 N :   -0.219259
   7 C :   -0.112259
   8 H :    0.198044
   9 H :    0.146305
  10 H :    0.138775
  11 H :    0.146035
  12 H :    0.138575
  13 H :    0.138152
Sum of atomic charges:   -0.0000000

LOEWDIN ATOMIC CHARGES
----------------------
   0 C :   -0.071758
   1 C :   -0.067394
   2 C :   -0.251284
   3 C :   -0.179678
   4 N :    0.150202
   5 C :   -0.279043
   6 N :    0.095829
   7 C :   -0.220749
   8 H :    0.129445
   9 H :    0.136681
  10 H :    0.134804
  11 H :    0.136849
  12 H :    0.140787
  13 H :    0.145307

  Mayer bond orders larger than 0.1
B(  0-C ,  1-C ) :   2.5879 B(  0-C ,  2-C ) :  -0.1624 B(  0-C ,  8-H ) :   0.8714
B(  1-C ,  2-C ) :   1.2142 B(  2-C ,  3-C ) :   0.9001 B(  2-C ,  4-N ) :   0.7634
B(  2-C ,  7-C ) :   0.9653 B(  3-C ,  4-N ) :   0.8809 B(  3-C ,  9-H ) :   0.9199
B(  3-C , 10-H ) :   0.9040 B(  4-N ,  5-C ) :   0.9887 B(  5-C ,  6-N ) :   1.8411
B(  5-C , 11-H ) :   0.9214 B(  6-N ,  7-C ) :   0.9356 B(  7-C , 12-H ) :   0.9188
B(  7-C , 13-H ) :   0.9171

MP2 TOTAL ENERGY:     -340.911818880 Eh
FINAL SINGLE POINT ENERGY      -340.911818879719

DIPOLE MOMENT
-------------
                                X             Y             Z
Electronic contribution:      1.38125      -0.46523       0.85655
Nuclear contribution   :     -1.64616       0.24592      -1.45925
                        -----------------------------------------
Total Dipole Moment    :     -0.26491      -0.21930      -0.60269
                        -----------------------------------------
Magnitude (a.u.)       :      0.69391
Magnitude (Debye)      :      1.76378

                             ****ORCA TERMINATED NORMALLY****
TOTAL RUN TIME: 0 days 0 hours 11 minutes 20 seconds 394 msec
