                         Program Version 3.0.3 - RELEASE   -
|  1> ! RI-MP2 RIJK def2-TZVP def2-TZVP/C def2-TZVP/JK TIGHTSCF
|  2> % maxcore 2000
|  3> % mp2 density relaxed end
|  4> *xyz 0 1
|  5>  C        0.0840746271     1.4706436140     0.0091734282
|  6>  C       -0.0662697362    -0.0446779160     0.0024680081
|  7>  C       -1.5470462933    -0.4607166480     0.0143976228
|  8>  O        0.5870026422    -0.4872987921    -1.1807626265
|  9>  C        0.8223722893    -1.8861686107    -1.2546040690
| 10>  C        1.5937196512    -2.3661158466    -0.0258834366
| 11>  C        0.8460843286    -1.8994696403     1.2224619317
| 12>  O        0.6094684094    -0.4999161938     1.1681703691
| 13>  H        1.1458372787     1.7244236795     0.0003376607
| 14>  H       -0.3927547187     1.8995237250    -0.8750962836
| 15>  H       -0.3756322749     1.8899305358     0.9070069253
| 16>  H       -2.0487280616    -0.0555628479    -0.8680923488
| 17>  H       -1.6837515631    -1.5441149517     0.0099483131
| 18>  H       -2.0317443759    -0.0650153867     0.9105620532
| 19>  H       -0.1236708059    -2.4427542262    -1.3495760954
| 20>  H        1.3885762407    -2.0438915647    -2.1768502081
| 21>  H        1.6933268146    -3.4572921069    -0.0326932115
| 22>  H        2.5973619641    -1.9277904129    -0.0331395171
| 23>  H       -0.0980160595    -2.4571546466     1.3295499511
| 24>  H        1.4298297534    -2.0670222631     2.1319504231
| 25> *
| 26>
| 27>                          ****END OF INPUT****

CARTESIAN COORDINATES (ANGSTROEM)
---------------------------------
  C      0.084075    1.470644    0.009173
  C     -0.066270   -0.044678    0.002468
  C     -1.547046   -0.460717    0.014398
  O      0.587003   -0.487299   -1.180763
  C      0.822372   -1.886169   -1.254604
  C      1.593720   -2.366116   -0.025883
  C      0.846084   -1.899470    1.222462
  O      0.609468   -0.499916    1.168170
  H      1.145837    1.724424    0.000338
  H     -0.392755    1.899524   -0.875096
  H     -0.375632    1.889931    0.907007
  H     -2.048728   -0.055563   -0.868092
  H     -1.683752   -1.544115    0.009948
  H     -2.031744   -0.065015    0.910562
  H     -0.123671   -2.442754   -1.349576
  H      1.388576   -2.043892   -2.176850
  H      1.693327   -3.457292   -0.032693
  H      2.597362   -1.927790   -0.033140
  H     -0.098016   -2.457155    1.329550
  H      1.429830   -2.067022    2.131950

 Total Charge           Charge          ....    0
 Multiplicity           Mult            ....    1
 Number of Electrons    NEL             ....   64
 Basis Dimension        Dim             ....  320

ORBITAL ENERGIES
----------------

  NO   OCC          E(Eh)            E(eV)
   0   2.0000     -20.552086      -559.2507
   1   2.0000     -20.552067      -559.2502
   2   2.0000     -11.333173      -308.3913
   3   2.0000     -11.276262      -306.8427
   4   2.0000     -11.276257      -306.8426
   5   2.0000     -11.224777      -305.4417
   6   2.0000     -11.215520      -305.1898
   7   2.0000     -11.205510      -304.9174
   8   2.0000      -1.412962       -38.4486
   9   2.0000      -1.335464       -36.3398
  10   2.0000      -1.079732       -29.3810
  11   2.0000      -1.004754       -27.3407
  12   2.0000      -0.942238       -25.6396
  13   2.0000      -0.914953       -24.8971
  14   2.0000      -0.841423       -22.8963
  15   2.0000      -0.749062       -20.3830
  16   2.0000      -0.679485       -18.4897
  17   2.0000      -0.678147       -18.4533
  18   2.0000      -0.633580       -17.2406
  19   2.0000      -0.631541       -17.1851
  20   2.0000      -0.616803       -16.7841
  21   2.0000      -0.580673       -15.8009
  22   2.0000      -0.562348       -15.3023
  23   2.0000      -0.550156       -14.9705
  24   2.0000      -0.528818       -14.3899
  25   2.0000      -0.524053       -14.2602
  26   2.0000      -0.517592       -14.0844
  27   2.0000      -0.500023       -13.6063
  28   2.0000      -0.471020       -12.8171
  29   2.0000      -0.467140       -12.7115
  30   2.0000      -0.421596       -11.4722
  31   2.0000      -0.412605       -11.2276
  32   0.0000       0.136701         3.7198
  33   0.0000       0.157804         4.2941
  34   0.0000       0.167154         4.5485
  35   0.0000       0.182433         4.9642
  36   0.0000       0.201808         5.4915

MULLIKEN ATOMIC CHARGES
-----------------------
   0 C :   -0.359007
   1 C :    0.273715
   2 C :   -0.419703
   3 O :   -0.297092
   4 C :   -0.084273
   5 C :   -0.199175
   6 C :   -0.084274
   7 O :   -0.297093
   8 H :    0.132644
   9 H :    0.126675
  10 H :    0.126677
  11 H :    0.140126
  12 H :    0.123694
  13 H :    0.140125
  14 H :    0.095929
  15 H :    0.131864
  16 H :    0.114176
  17 H :    0.107202
  18 H :    0.095927
  19 H :    0.131864
Sum of atomic charges:   -0.0000000

LOEWDIN ATOMIC CHARGES
----------------------
   0 C :   -0.264405
   1 C :   -0.485362
   2 C :   -0.276637
   3 O :    0.194034
   4 C :   -0.317032
   5 C :   -0.277867
   6 C :   -0.317034
   7 O :    0.194032
   8 H :    0.130226
   9 H :    0.128691
  10 H :    0.128691
  11 H :    0.131250
  12 H :    0.120185
  13 H :    0.131250
  14 H :    0.119584
  15 H :    0.129944
  16 H :    0.140193
  17 H :    0.140731
  18 H :    0.119583
  19 H :    0.129944

  Mayer bond orders larger than 0.1
B(  0-C ,  1-C ) :   0.8903 B(  0-C ,  8-H ) :   0.9412 B(  0-C ,  9-H ) :   0.9372
B(  0-C , 10-H ) :   0.9372 B(  1-C ,  2-C ) :   0.9378 B(  1-C ,  3-O ) :   0.9656
B(  1-C ,  7-O ) :   0.9656 B(  2-C , 11-H ) :   0.9399 B(  2-C , 12-H ) :   0.9185
B(  2-C , 13-H ) :   0.9399 B(  3-O ,  4-C ) :   0.9197 B(  4-C ,  5-C ) :   0.9371
B(  4-C , 14-H ) :   0.9335 B(  4-C , 15-H ) :   0.9338 B(  5-C ,  6-C ) :   0.9371
B(  5-C , 16-H ) :   0.9195 B(  5-C , 17-H ) :   0.9133 B(  6-C ,  7-O ) :   0.9197
B(  6-C , 18-H ) :   0.9335 B(  6-C , 19-H ) :   0.9338

MP2 TOTAL ENERGY:     -385.524219863 Eh
FINAL SINGLE POINT ENERGY      -385.524219863139

DIPOLE MOMENT
-------------
                                X             Y             Z
Electronic contribution:      2.38812       0.62368      -0.01951
Nuclear contribution   :     -2.60417      -1.28797       0.01800
                        -----------------------------------------
Total Dipole Moment    :     -0.21605      -0.66429      -0.00151
                        -----------------------------------------
Magnitude (a.u.)       :      0.69854
Magnitude (Debye)      :      1.77556

                             ****ORCA TERMINATED NORMALLY****
TOTAL RUN TIME: 0 days 0 hours 13 minutes 59 seconds 672 msec
