                         Program Version 3.0.3 - RELEASE   -
|  1> ! RI-MP2 RIJK def2-TZVP def2-TZVP/C def2-TZVP/JK TIGHTSCF
|  2> % maxcore 2000
|  3> % mp2 density relaxed end
|  4> *xyz 0 1
|  5>  C       -0.0328227488     1.5096986152     0.0508119456
|  6>  C       -0.0138905252     0.0159145665    -0.0001094290
|  7>  C        0.0004820427    -0.7738779543    -1.0812913235
|  8>  C       -0.0014172335    -2.2569062147    -0.7394603613
|  9>  C        1.2195812882    -2.9592248881    -1.3253866886
| 10>  O        1.1804470670    -3.7140958501    -2.2619498690
| 11>  C        0.0251795755    -2.2398065354     0.7922833787
| 12>  O        1.2024573962    -1.6469175196     1.3462458544
| 13>  C        0.0084267617    -0.8355018885     1.2328234079
| 14>  H        0.8595804678     1.8983093518     0.5566059210
| 15>  H       -0.0754146852     1.9444611243    -0.9508539694
| 16>  H       -0.8986270439     1.8749718019     0.6170054818
| 17>  H        0.0505258308    -0.4294244962    -2.1083603997
| 18>  H       -0.8909397805    -2.7655912940    -1.1271006193
| 19>  H        2.1707987310    -2.6975625760    -0.8174798938
| 20>  H       -0.3993672606    -3.0608872145     1.3626535082
| 21>  H       -0.4052590233    -0.4989238382     2.1790310561
| 22> *
| 23>
| 24>                          ****END OF INPUT****

CARTESIAN COORDINATES (ANGSTROEM)
---------------------------------
  C     -0.032823    1.509699    0.050812
  C     -0.013891    0.015915   -0.000109
  C      0.000482   -0.773878   -1.081291
  C     -0.001417   -2.256906   -0.739460
  C      1.219581   -2.959225   -1.325387
  O      1.180447   -3.714096   -2.261950
  C      0.025180   -2.239807    0.792283
  O      1.202457   -1.646918    1.346246
  C      0.008427   -0.835502    1.232823
  H      0.859580    1.898309    0.556606
  H     -0.075415    1.944461   -0.950854
  H     -0.898627    1.874972    0.617005
  H      0.050526   -0.429424   -2.108360
  H     -0.890940   -2.765591   -1.127101
  H      2.170799   -2.697563   -0.817480
  H     -0.399367   -3.060887    1.362654
  H     -0.405259   -0.498924    2.179031

 Total Charge           Charge          ....    0
 Multiplicity           Mult            ....    1
 Number of Electrons    NEL             ....   66
 Basis Dimension        Dim             ....  327

ORBITAL ENERGIES
----------------

  NO   OCC          E(Eh)            E(eV)
   0   2.0000     -20.582617      -560.0815
   1   2.0000     -20.557643      -559.4019
   2   2.0000     -11.331273      -308.3396
   3   2.0000     -11.303500      -307.5839
   4   2.0000     -11.302159      -307.5474
   5   2.0000     -11.258836      -306.3685
   6   2.0000     -11.257548      -306.3335
   7   2.0000     -11.247098      -306.0491
   8   2.0000     -11.241299      -305.8913
   9   2.0000      -1.426621       -38.8203
  10   2.0000      -1.396305       -37.9954
  11   2.0000      -1.138616       -30.9833
  12   2.0000      -1.045902       -28.4605
  13   2.0000      -0.948954       -25.8224
  14   2.0000      -0.927354       -25.2346
  15   2.0000      -0.849782       -23.1237
  16   2.0000      -0.787172       -21.4201
  17   2.0000      -0.757925       -20.6242
  18   2.0000      -0.718073       -19.5397
  19   2.0000      -0.666921       -18.1478
  20   2.0000      -0.642137       -17.4734
  21   2.0000      -0.613171       -16.6852
  22   2.0000      -0.601059       -16.3557
  23   2.0000      -0.592174       -16.1139
  24   2.0000      -0.578896       -15.7526
  25   2.0000      -0.558244       -15.1906
  26   2.0000      -0.547748       -14.9050
  27   2.0000      -0.530234       -14.4284
  28   2.0000      -0.502156       -13.6644
  29   2.0000      -0.477463       -12.9924
  30   2.0000      -0.451070       -12.2743
  31   2.0000      -0.410524       -11.1709
  32   2.0000      -0.360941        -9.8217
  33   0.0000       0.110002         2.9933
  34   0.0000       0.132572         3.6075
  35   0.0000       0.144356         3.9281
  36   0.0000       0.161471         4.3938
  37   0.0000       0.172170         4.6850

MULLIKEN ATOMIC CHARGES
-----------------------
   0 C :   -0.438084
   1 C :    0.043936
   2 C :   -0.263103
   3 C :    0.101889
   4 C :    0.053539
   5 O :   -0.260613
   6 C :   -0.018863
   7 O :   -0.324579
   8 C :    0.018617
   9 H :    0.152122
  10 H :    0.145165
  11 H :    0.143879
  12 H :    0.144691
  13 H :    0.111796
  14 H :    0.110672
  15 H :    0.145631
  16 H :    0.133303
Sum of atomic charges:   -0.0000000

LOEWDIN ATOMIC CHARGES
----------------------
   0 C :   -0.267332
   1 C :   -0.167556
   2 C :   -0.091677
   3 C :   -0.208681
   4 C :   -0.262236
   5 O :    0.135038
   6 C :   -0.219548
   7 O :    0.169716
   8 C :   -0.202313
   9 H :    0.136574
  10 H :    0.133437
  11 H :    0.134075
  12 H :    0.144912
  13 H :    0.165397
  14 H :    0.121450
  15 H :    0.138477
  16 H :    0.140268

  Mayer bond orders larger than 0.1
B(  0-C ,  1-C ) :   0.8793 B(  0-C ,  9-H ) :   0.9277 B(  0-C , 10-H ) :   0.9541
B(  0-C , 11-H ) :   0.9296 B(  1-C ,  2-C ) :   1.7081 B(  1-C ,  8-C ) :   0.9105
B(  2-C ,  3-C ) :   0.8935 B(  2-C , 12-H ) :   0.9178 B(  3-C ,  4-C ) :   0.8193
B(  3-C ,  6-C ) :   0.8796 B(  3-C , 13-H ) :   0.9006 B(  4-C ,  5-O ) :   1.9764
B(  4-C , 14-H ) :   0.9295 B(  6-C ,  7-O ) :   0.9075 B(  6-C ,  8-C ) :   0.9553
B(  6-C , 15-H ) :   0.9181 B(  7-O ,  8-C ) :   0.8984 B(  8-C , 16-H ) :   0.9285

MP2 TOTAL ENERGY:     -421.108203491 Eh
FINAL SINGLE POINT ENERGY      -421.108203490611

DIPOLE MOMENT
-------------
                                X             Y             Z
Electronic contribution:      2.00115      -6.38199      -0.80651
Nuclear contribution   :     -2.79700       7.34835       1.40301
                        -----------------------------------------
Total Dipole Moment    :     -0.79585       0.96636       0.59650
                        -----------------------------------------
Magnitude (a.u.)       :      1.38674
Magnitude (Debye)      :      3.52481

                             ****ORCA TERMINATED NORMALLY****
TOTAL RUN TIME: 0 days 0 hours 16 minutes 28 seconds 723 msec
