                         Program Version 3.0.3 - RELEASE   -
|  1> ! RI-MP2 RIJK def2-TZVP def2-TZVP/C def2-TZVP/JK TIGHTSCF
|  2> % maxcore 2000
|  3> % mp2 density relaxed end
|  4> *xyz 0 1
|  5>  O        0.0218521187     1.3344150907    -0.1032629140
|  6>  C        0.0347286430    -0.0740365704     0.0148086056
|  7>  C        0.1167082870    -0.5658605761     1.4957767070
|  8>  C       -1.4324399359    -0.4892190755     1.5434039472
|  9>  C       -1.4337526386    -0.5986827571    -0.0131328128
| 10>  C       -1.5119444933    -2.0235391219    -0.4892539009
| 11>  C       -0.9023529440    -3.0524912892     0.1008240413
| 12>  C       -0.0676435372    -3.0085358389     1.3617914742
| 13>  O        0.7066122785    -1.8451008248     1.6162377165
| 14>  H        0.9018139606     1.6587579364     0.1166881947
| 15>  H        0.7402454030    -0.5489810223    -0.6785187459
| 16>  H        0.6690502497     0.0875572630     2.1794491632
| 17>  H       -1.9769664450    -1.2453073441     2.1110880006
| 18>  H       -1.7460894984     0.5037613761     1.8694154542
| 19>  H       -2.1294015710     0.0457961789    -0.5526929805
| 20>  H       -2.0886326878    -2.2086292631    -1.3914935962
| 21>  H       -1.0242683598    -4.0491849194    -0.3175077183
| 22>  H       -0.7175837767    -3.2246151027     2.2269694930
| 23>  H        0.6684716370    -3.8185589496     1.3276101712
| 24> *
| 25>
| 26>                          ****END OF INPUT****

CARTESIAN COORDINATES (ANGSTROEM)
---------------------------------
  O      0.021852    1.334415   -0.103263
  C      0.034729   -0.074037    0.014809
  C      0.116708   -0.565861    1.495777
  C     -1.432440   -0.489219    1.543404
  C     -1.433753   -0.598683   -0.013133
  C     -1.511944   -2.023539   -0.489254
  C     -0.902353   -3.052491    0.100824
  C     -0.067644   -3.008536    1.361791
  O      0.706612   -1.845101    1.616238
  H      0.901814    1.658758    0.116688
  H      0.740245   -0.548981   -0.678519
  H      0.669050    0.087557    2.179449
  H     -1.976966   -1.245307    2.111088
  H     -1.746089    0.503761    1.869415
  H     -2.129402    0.045796   -0.552693
  H     -2.088633   -2.208629   -1.391494
  H     -1.024268   -4.049185   -0.317508
  H     -0.717584   -3.224615    2.226969
  H      0.668472   -3.818559    1.327610

 Total Charge           Charge          ....    0
 Multiplicity           Mult            ....    1
 Number of Electrons    NEL             ....   68
 Basis Dimension        Dim             ....  339

ORBITAL ENERGIES
----------------

  NO   OCC          E(Eh)            E(eV)
   0   2.0000     -20.561592      -559.5094
   1   2.0000     -20.555682      -559.3485
   2   2.0000     -11.282806      -307.0208
   3   2.0000     -11.280240      -306.9509
   4   2.0000     -11.277218      -306.8687
   5   2.0000     -11.233335      -305.6746
   6   2.0000     -11.231977      -305.6376
   7   2.0000     -11.229641      -305.5741
   8   2.0000     -11.224555      -305.4357
   9   2.0000      -1.379375       -37.5347
  10   2.0000      -1.364024       -37.1170
  11   2.0000      -1.128679       -30.7129
  12   2.0000      -1.064222       -28.9589
  13   2.0000      -0.932839       -25.3838
  14   2.0000      -0.903960       -24.5980
  15   2.0000      -0.890124       -24.2215
  16   2.0000      -0.751736       -20.4558
  17   2.0000      -0.720542       -19.6069
  18   2.0000      -0.713320       -19.4104
  19   2.0000      -0.682987       -18.5850
  20   2.0000      -0.675507       -18.3815
  21   2.0000      -0.618205       -16.8222
  22   2.0000      -0.605050       -16.4642
  23   2.0000      -0.589606       -16.0440
  24   2.0000      -0.580727       -15.8024
  25   2.0000      -0.563062       -15.3217
  26   2.0000      -0.524960       -14.2849
  27   2.0000      -0.513746       -13.9798
  28   2.0000      -0.496323       -13.5056
  29   2.0000      -0.469571       -12.7777
  30   2.0000      -0.448092       -12.1932
  31   2.0000      -0.432516       -11.7694
  32   2.0000      -0.390382       -10.6228
  33   2.0000      -0.350189        -9.5291
  34   0.0000       0.135504         3.6873
  35   0.0000       0.141109         3.8398
  36   0.0000       0.153488         4.1766
  37   0.0000       0.166131         4.5207
  38   0.0000       0.176845         4.8122

MULLIKEN ATOMIC CHARGES
-----------------------
   0 O :   -0.467291
   1 C :    0.007601
   2 C :    0.052501
   3 C :   -0.288060
   4 C :    0.116558
   5 C :   -0.320764
   6 C :   -0.132706
   7 C :   -0.057142
   8 O :   -0.319313
   9 H :    0.320102
  10 H :    0.099958
  11 H :    0.112215
  12 H :    0.132983
  13 H :    0.129207
  14 H :    0.120758
  15 H :    0.122693
  16 H :    0.124814
  17 H :    0.111980
  18 H :    0.133905
Sum of atomic charges:    0.0000000

LOEWDIN ATOMIC CHARGES
----------------------
   0 O :   -0.010901
   1 C :   -0.280454
   2 C :   -0.284864
   3 C :   -0.193649
   4 C :   -0.194809
   5 C :   -0.152888
   6 C :   -0.177213
   7 C :   -0.307488
   8 O :    0.179357
   9 H :    0.178086
  10 H :    0.126602
  11 H :    0.130738
  12 H :    0.132736
  13 H :    0.145661
  14 H :    0.147575
  15 H :    0.146748
  16 H :    0.146627
  17 H :    0.130256
  18 H :    0.137881

  Mayer bond orders larger than 0.1
B(  0-O ,  1-C ) :   1.0266 B(  0-O ,  9-H ) :   0.8424 B(  1-C ,  2-C ) :   0.8585
B(  1-C ,  4-C ) :   0.8505 B(  1-C , 10-H ) :   0.9562 B(  2-C ,  3-C ) :   0.9125
B(  2-C ,  8-O ) :   0.9217 B(  2-C , 11-H ) :   0.9435 B(  3-C ,  4-C ) :   0.8822
B(  3-C , 12-H ) :   0.9267 B(  3-C , 13-H ) :   0.9021 B(  4-C ,  5-C ) :   0.8887
B(  4-C , 14-H ) :   0.9175 B(  5-C ,  6-C ) :   1.8057 B(  5-C , 15-H ) :   0.9326
B(  6-C ,  7-C ) :   0.9121 B(  6-C , 16-H ) :   0.9149 B(  7-C ,  8-O ) :   0.9471
B(  7-C , 17-H ) :   0.9310 B(  7-C , 18-H ) :   0.9295

MP2 TOTAL ENERGY:     -422.292207867 Eh
FINAL SINGLE POINT ENERGY      -422.292207866528

DIPOLE MOMENT
-------------
                                X             Y             Z
Electronic contribution:      1.97641       1.44594      -0.49352
Nuclear contribution   :     -1.98710      -1.65138       0.56647
                        -----------------------------------------
Total Dipole Moment    :     -0.01069      -0.20544       0.07295
                        -----------------------------------------
Magnitude (a.u.)       :      0.21827
Magnitude (Debye)      :      0.55480

                             ****ORCA TERMINATED NORMALLY****
TOTAL RUN TIME: 0 days 0 hours 19 minutes 35 seconds 365 msec
