                         Program Version 3.0.3 - RELEASE   -
|  1> ! RI-MP2 RIJK def2-TZVP def2-TZVP/C def2-TZVP/JK TIGHTSCF
|  2> % maxcore 2000
|  3> % mp2 density relaxed end
|  4> *xyz 0 1
|  5>  C        0.0571896603     1.3763257852     0.4590929841
|  6>  N        0.0624678289    -0.0406462031     0.1610378128
|  7>  C       -1.0027399926    -0.6579992750    -0.1146184478
|  8>  O       -1.0633818483    -1.9697395477    -0.4151896162
|  9>  C        0.1622713017    -2.6799061351    -0.3792268163
| 10>  C        0.5014030543    -3.4344688905     0.8699718138
| 11>  C        0.0225394448    -4.1644022162    -0.3710819693
| 12>  C       -2.3335757981    -0.0706660185    -0.1690698569
| 13>  N       -3.3638390554     0.4526876515    -0.1934048492
| 14>  H        0.7094132682     1.8899413474    -0.2555351569
| 15>  H       -0.9348293653     1.8451357651     0.4311973511
| 16>  H        0.4918532761     1.5293694941     1.4527022653
| 17>  H        0.9511556417    -2.1977317297    -0.9436552319
| 18>  H        1.5443034050    -3.5014746963     1.1575907015
| 19>  H       -0.1967950945    -3.3581055099     1.6954339625
| 20>  H       -0.9862256373    -4.5604505934    -0.3531577594
| 21>  H        0.7306642004    -4.7458686280    -0.9499466873
| 22> *
| 23>
| 24>                          ****END OF INPUT****

CARTESIAN COORDINATES (ANGSTROEM)
---------------------------------
  C      0.057190    1.376326    0.459093
  N      0.062468   -0.040646    0.161038
  C     -1.002740   -0.657999   -0.114618
  O     -1.063382   -1.969740   -0.415190
  C      0.162271   -2.679906   -0.379227
  C      0.501403   -3.434469    0.869972
  C      0.022539   -4.164402   -0.371082
  C     -2.333576   -0.070666   -0.169070
  N     -3.363839    0.452688   -0.193405
  H      0.709413    1.889941   -0.255535
  H     -0.934829    1.845136    0.431197
  H      0.491853    1.529369    1.452702
  H      0.951156   -2.197732   -0.943655
  H      1.544303   -3.501475    1.157591
  H     -0.196795   -3.358106    1.695434
  H     -0.986226   -4.560451   -0.353158
  H      0.730664   -4.745869   -0.949947

 Total Charge           Charge          ....    0
 Multiplicity           Mult            ....    1
 Number of Electrons    NEL             ....   66
 Basis Dimension        Dim             ....  327

ORBITAL ENERGIES
----------------

  NO   OCC          E(Eh)            E(eV)
   0   2.0000     -20.619074      -561.0735
   1   2.0000     -15.600637      -424.5149
   2   2.0000     -15.584142      -424.0661
   3   2.0000     -11.389198      -309.9158
   4   2.0000     -11.303160      -307.5746
   5   2.0000     -11.295542      -307.3673
   6   2.0000     -11.267535      -306.6052
   7   2.0000     -11.240695      -305.8749
   8   2.0000     -11.239734      -305.8487
   9   2.0000      -1.459388       -39.7120
  10   2.0000      -1.262660       -34.3587
  11   2.0000      -1.232621       -33.5413
  12   2.0000      -1.152199       -31.3529
  13   2.0000      -0.990023       -26.9399
  14   2.0000      -0.925744       -25.1908
  15   2.0000      -0.844838       -22.9892
  16   2.0000      -0.816235       -22.2109
  17   2.0000      -0.761118       -20.7111
  18   2.0000      -0.701264       -19.0824
  19   2.0000      -0.684209       -18.6183
  20   2.0000      -0.641265       -17.4497
  21   2.0000      -0.634791       -17.2735
  22   2.0000      -0.594350       -16.1731
  23   2.0000      -0.588992       -16.0273
  24   2.0000      -0.579193       -15.7606
  25   2.0000      -0.559139       -15.2150
  26   2.0000      -0.530995       -14.4491
  27   2.0000      -0.508580       -13.8392
  28   2.0000      -0.492730       -13.4079
  29   2.0000      -0.450189       -12.2503
  30   2.0000      -0.443037       -12.0556
  31   2.0000      -0.436418       -11.8755
  32   2.0000      -0.401871       -10.9355
  33   0.0000       0.092580         2.5192
  34   0.0000       0.143258         3.8983
  35   0.0000       0.156849         4.2681
  36   0.0000       0.162341         4.4175
  37   0.0000       0.169078         4.6009

MULLIKEN ATOMIC CHARGES
-----------------------
   0 C :   -0.298142
   1 N :   -0.246037
   2 C :    0.333253
   3 O :   -0.231964
   4 C :    0.027937
   5 C :   -0.259078
   6 C :   -0.233662
   7 C :   -0.160628
   8 N :   -0.038266
   9 H :    0.147583
  10 H :    0.128639
  11 H :    0.148415
  12 H :    0.125158
  13 H :    0.135100
  14 H :    0.139252
  15 H :    0.144400
  16 H :    0.138041
Sum of atomic charges:   -0.0000000

LOEWDIN ATOMIC CHARGES
----------------------
   0 C :   -0.318150
   1 N :    0.116959
   2 C :   -0.386096
   3 O :    0.301021
   4 C :   -0.279461
   5 C :   -0.221853
   6 C :   -0.220327
   7 C :   -0.142206
   8 N :    0.093727
   9 H :    0.123980
  10 H :    0.116348
  11 H :    0.124135
  12 H :    0.141487
  13 H :    0.134616
  14 H :    0.139548
  15 H :    0.141318
  16 H :    0.134954

  Mayer bond orders larger than 0.1
B(  0-C ,  1-N ) :   0.8805 B(  0-C ,  9-H ) :   0.9300 B(  0-C , 10-H ) :   0.9226
B(  0-C , 11-H ) :   0.9305 B(  1-N ,  2-C ) :   1.7872 B(  2-C ,  3-O ) :   1.1071
B(  2-C ,  7-C ) :   0.9103 B(  3-O ,  4-C ) :   0.8735 B(  4-C ,  5-C ) :   0.9142
B(  4-C ,  6-C ) :   0.8845 B(  4-C , 12-H ) :   0.9290 B(  5-C ,  6-C ) :   0.9051
B(  5-C , 13-H ) :   0.9209 B(  5-C , 14-H ) :   0.9215 B(  6-C , 15-H ) :   0.9180
B(  6-C , 16-H ) :   0.9264 B(  7-C ,  8-N ) :   2.8142

MP2 TOTAL ENERGY:     -417.277640866 Eh
FINAL SINGLE POINT ENERGY      -417.277640866037

DIPOLE MOMENT
-------------
                                X             Y             Z
Electronic contribution:     -6.51187       2.54795      -2.01187
Nuclear contribution   :      7.71838      -2.93574       2.16899
                        -----------------------------------------
Total Dipole Moment    :      1.20652      -0.38779       0.15712
                        -----------------------------------------
Magnitude (a.u.)       :      1.27701
Magnitude (Debye)      :      3.24590

                             ****ORCA TERMINATED NORMALLY****
TOTAL RUN TIME: 0 days 0 hours 15 minutes 38 seconds 953 msec
