                         Program Version 3.0.3 - RELEASE   -
|  1> ! RI-MP2 RIJK def2-TZVP def2-TZVP/C def2-TZVP/JK TIGHTSCF
|  2> % maxcore 2000
|  3> % mp2 density relaxed end
|  4> *xyz 0 1
|  5>  C        0.6784980675     1.4309860539     0.1295869497
|  6>  C       -0.1365728520     0.1563758713    -0.0489381880
|  7>  O       -1.5078249775     0.4422635068    -0.2522103933
|  8>  C        0.4960485696    -0.8725762034    -1.0415571419
|  9>  C        1.0340619423    -1.6827796566     0.1715875836
| 10>  O        2.3926238274    -1.3016655061     0.3783500322
| 11>  C        0.0415250906    -0.8875427661     1.0828877363
| 12>  C        0.8911346887    -3.1318396703     0.1514475702
| 13>  C        0.7797022905    -4.3293391237     0.1676634694
| 14>  H        1.7254878718     1.1946210798     0.3322330480
| 15>  H        0.6408455453     2.0435713599    -0.7807785090
| 16>  H        0.2777973577     2.0225349452     0.9591772219
| 17>  H       -1.5739486312     1.1391524444    -0.9140808567
| 18>  H       -0.2821391389    -1.4179699471    -1.5767999145
| 19>  H        1.2679990976    -0.5268001001    -1.7324153263
| 20>  H        2.6962442951    -1.7362789430     1.1834423974
| 21>  H        0.4462519987    -0.5426604002     2.0377309587
| 22>  H       -0.8890193422    -1.4341652967     1.2447505942
| 23>  H        0.6805804692    -5.3867413180     0.1682651182
| 24> *
| 25>
| 26>                          ****END OF INPUT****

CARTESIAN COORDINATES (ANGSTROEM)
---------------------------------
  C      0.678498    1.430986    0.129587
  C     -0.136573    0.156376   -0.048938
  O     -1.507825    0.442264   -0.252210
  C      0.496049   -0.872576   -1.041557
  C      1.034062   -1.682780    0.171588
  O      2.392624   -1.301666    0.378350
  C      0.041525   -0.887543    1.082888
  C      0.891135   -3.131840    0.151448
  C      0.779702   -4.329339    0.167663
  H      1.725488    1.194621    0.332233
  H      0.640846    2.043571   -0.780779
  H      0.277797    2.022535    0.959177
  H     -1.573949    1.139152   -0.914081
  H     -0.282139   -1.417970   -1.576800
  H      1.267999   -0.526800   -1.732415
  H      2.696244   -1.736279    1.183442
  H      0.446252   -0.542660    2.037731
  H     -0.889019   -1.434165    1.244751
  H      0.680580   -5.386741    0.168265

 Total Charge           Charge          ....    0
 Multiplicity           Mult            ....    1
 Number of Electrons    NEL             ....   68
 Basis Dimension        Dim             ....  339

ORBITAL ENERGIES
----------------

  NO   OCC          E(Eh)            E(eV)
   0   2.0000     -20.567871      -559.6802
   1   2.0000     -20.557049      -559.3857
   2   2.0000     -11.314709      -307.8889
   3   2.0000     -11.290781      -307.2378
   4   2.0000     -11.236172      -305.7518
   5   2.0000     -11.230453      -305.5962
   6   2.0000     -11.227923      -305.5273
   7   2.0000     -11.226546      -305.4898
   8   2.0000     -11.217773      -305.2511
   9   2.0000      -1.378383       -37.5077
  10   2.0000      -1.365788       -37.1650
  11   2.0000      -1.128978       -30.7211
  12   2.0000      -1.038193       -28.2507
  13   2.0000      -0.977667       -26.6037
  14   2.0000      -0.920509       -25.0483
  15   2.0000      -0.873929       -23.7808
  16   2.0000      -0.767073       -20.8731
  17   2.0000      -0.742347       -20.2003
  18   2.0000      -0.700683       -19.0666
  19   2.0000      -0.683348       -18.5948
  20   2.0000      -0.655447       -17.8356
  21   2.0000      -0.610726       -16.6187
  22   2.0000      -0.608222       -16.5506
  23   2.0000      -0.588164       -16.0048
  24   2.0000      -0.565488       -15.3877
  25   2.0000      -0.553623       -15.0648
  26   2.0000      -0.526625       -14.3302
  27   2.0000      -0.513186       -13.9645
  28   2.0000      -0.497988       -13.5509
  29   2.0000      -0.462791       -12.5932
  30   2.0000      -0.448425       -12.2023
  31   2.0000      -0.420703       -11.4479
  32   2.0000      -0.395952       -10.7744
  33   2.0000      -0.382954       -10.4207
  34   0.0000       0.129485         3.5235
  35   0.0000       0.140306         3.8179
  36   0.0000       0.161566         4.3964
  37   0.0000       0.170553         4.6410
  38   0.0000       0.173168         4.7121

MULLIKEN ATOMIC CHARGES
-----------------------
   0 C :   -0.488464
   1 C :    0.240370
   2 O :   -0.451649
   3 C :   -0.221212
   4 C :    0.121462
   5 O :   -0.468331
   6 C :   -0.234377
   7 C :   -0.106811
   8 C :   -0.132870
   9 H :    0.158905
  10 H :    0.119681
  11 H :    0.138809
  12 H :    0.312734
  13 H :    0.128415
  14 H :    0.121757
  15 H :    0.321967
  16 H :    0.117083
  17 H :    0.128792
  18 H :    0.193739
Sum of atomic charges:    0.0000000

LOEWDIN ATOMIC CHARGES
----------------------
   0 C :   -0.283392
   1 C :   -0.382237
   2 O :    0.004864
   3 C :   -0.146834
   4 C :   -0.342815
   5 O :    0.020042
   6 C :   -0.146498
   7 C :   -0.077134
   8 C :   -0.085528
   9 H :    0.135387
  10 H :    0.122788
  11 H :    0.127608
  12 H :    0.175749
  13 H :    0.147649
  14 H :    0.137342
  15 H :    0.180975
  16 H :    0.133107
  17 H :    0.150992
  18 H :    0.127935

  Mayer bond orders larger than 0.1
B(  0-C ,  1-C ) :   0.9121 B(  0-C ,  9-H ) :   0.9258 B(  0-C , 10-H ) :   0.9247
B(  0-C , 11-H ) :   0.9425 B(  1-C ,  2-O ) :   1.0832 B(  1-C ,  3-C ) :   0.9135
B(  1-C ,  6-C ) :   0.8738 B(  2-O , 12-H ) :   0.8413 B(  3-C ,  4-C ) :   0.8919
B(  3-C , 13-H ) :   0.9121 B(  3-C , 14-H ) :   0.9059 B(  4-C ,  5-O ) :   0.8650
B(  4-C ,  6-C ) :   0.9098 B(  4-C ,  7-C ) :   1.1918 B(  4-C ,  8-C ) :  -0.1050
B(  5-O , 15-H ) :   0.8374 B(  6-C , 16-H ) :   0.9135 B(  6-C , 17-H ) :   0.8927
B(  7-C ,  8-C ) :   2.5839 B(  8-C , 18-H ) :   0.8842

MP2 TOTAL ENERGY:     -422.276231197 Eh
FINAL SINGLE POINT ENERGY      -422.276231196827

DIPOLE MOMENT
-------------
                                X             Y             Z
Electronic contribution:      0.25251      -5.24368      -0.01736
Nuclear contribution   :     -0.12758       5.35285       0.09758
                        -----------------------------------------
Total Dipole Moment    :      0.12493       0.10917       0.08023
                        -----------------------------------------
Magnitude (a.u.)       :      0.18429
Magnitude (Debye)      :      0.46842

                             ****ORCA TERMINATED NORMALLY****
TOTAL RUN TIME: 0 days 0 hours 20 minutes 37 seconds 915 msec
