                         Program Version 3.0.3 - RELEASE   -
|  1> ! RI-MP2 RIJK def2-TZVP def2-TZVP/C def2-TZVP/JK TIGHTSCF
|  2> % maxcore 2000
|  3> % mp2 density relaxed end
|  4> *xyz 0 1
|  5>  C        0.0269769468     1.5693526128     0.1004402235
|  6>  C       -0.0172615989     0.0672205080     0.0677210953
|  7>  C       -1.1349518341    -0.6263830186    -0.2347707277
|  8>  N       -1.2944925877    -2.0020094668    -0.0782148705
|  9>  C       -0.9690580428    -2.9116545972    -1.1859826756
| 10>  C       -0.0949447173    -2.8282380909     0.0270251429
| 11>  C        1.2703229834    -2.1564094559     0.0147109006
| 12>  C        1.2373993000    -0.6547032793     0.3359030829
| 13>  O        2.2485805097    -0.0885585898     0.7065721475
| 14>  H        0.8080550609     1.9561898077    -0.5618263390
| 15>  H       -0.9336843916     1.9996567924    -0.1957478411
| 16>  H        0.2709942586     1.9290448544     1.1057714517
| 17>  H       -2.0413301819    -0.1165719263    -0.5578368335
| 18>  H       -1.6430903913    -3.7526502917    -1.3191027649
| 19>  H       -0.5955231809    -2.4604046864    -2.1022030348
| 20>  H       -0.2114469035    -3.6261653543     0.7565968018
| 21>  H        1.9374566409    -2.6295006561     0.7388439664
| 22>  H        1.7624127098    -2.2540881520    -0.9605845255
| 23> *
| 24>
| 25>                          ****END OF INPUT****

CARTESIAN COORDINATES (ANGSTROEM)
---------------------------------
  C      0.026977    1.569353    0.100440
  C     -0.017262    0.067221    0.067721
  C     -1.134952   -0.626383   -0.234771
  N     -1.294493   -2.002009   -0.078215
  C     -0.969058   -2.911655   -1.185983
  C     -0.094945   -2.828238    0.027025
  C      1.270323   -2.156409    0.014711
  C      1.237399   -0.654703    0.335903
  O      2.248581   -0.088559    0.706572
  H      0.808055    1.956190   -0.561826
  H     -0.933684    1.999657   -0.195748
  H      0.270994    1.929045    1.105771
  H     -2.041330   -0.116572   -0.557837
  H     -1.643090   -3.752650   -1.319103
  H     -0.595523   -2.460405   -2.102203
  H     -0.211447   -3.626165    0.756597
  H      1.937457   -2.629501    0.738844
  H      1.762413   -2.254088   -0.960585

 Total Charge           Charge          ....    0
 Multiplicity           Mult            ....    1
 Number of Electrons    NEL             ....   66
 Basis Dimension        Dim             ....  333

ORBITAL ENERGIES
----------------

  NO   OCC          E(Eh)            E(eV)
   0   2.0000     -20.535805      -558.8077
   1   2.0000     -15.586812      -424.1387
   2   2.0000     -11.327529      -308.2377
   3   2.0000     -11.289882      -307.2133
   4   2.0000     -11.283805      -307.0479
   5   2.0000     -11.281317      -306.9802
   6   2.0000     -11.246640      -306.0366
   7   2.0000     -11.235719      -305.7394
   8   2.0000     -11.220557      -305.3269
   9   2.0000      -1.378956       -37.5233
  10   2.0000      -1.310449       -35.6591
  11   2.0000      -1.098191       -29.8833
  12   2.0000      -1.042523       -28.3685
  13   2.0000      -0.977685       -26.6042
  14   2.0000      -0.881264       -23.9804
  15   2.0000      -0.840942       -22.8832
  16   2.0000      -0.829653       -22.5760
  17   2.0000      -0.706425       -19.2228
  18   2.0000      -0.697921       -18.9914
  19   2.0000      -0.660099       -17.9622
  20   2.0000      -0.652883       -17.7658
  21   2.0000      -0.609527       -16.5861
  22   2.0000      -0.593521       -16.1505
  23   2.0000      -0.573800       -15.6139
  24   2.0000      -0.554219       -15.0811
  25   2.0000      -0.548451       -14.9241
  26   2.0000      -0.534060       -14.5325
  27   2.0000      -0.509584       -13.8665
  28   2.0000      -0.501332       -13.6419
  29   2.0000      -0.483252       -13.1499
  30   2.0000      -0.432556       -11.7704
  31   2.0000      -0.400511       -10.8985
  32   2.0000      -0.336609        -9.1596
  33   0.0000       0.090844         2.4720
  34   0.0000       0.139841         3.8053
  35   0.0000       0.155630         4.2349
  36   0.0000       0.163002         4.4355
  37   0.0000       0.169699         4.6177

MULLIKEN ATOMIC CHARGES
-----------------------
   0 C :   -0.395555
   1 C :   -0.019730
   2 C :   -0.046528
   3 N :   -0.206440
   4 C :   -0.183049
   5 C :   -0.024826
   6 C :   -0.232805
   7 C :    0.159090
   8 O :   -0.297940
   9 H :    0.142494
  10 H :    0.129008
  11 H :    0.147014
  12 H :    0.129838
  13 H :    0.135549
  14 H :    0.135751
  15 H :    0.137846
  16 H :    0.149116
  17 H :    0.141165
Sum of atomic charges:   -0.0000000

LOEWDIN ATOMIC CHARGES
----------------------
   0 C :   -0.264004
   1 C :   -0.186919
   2 C :   -0.164690
   3 N :    0.155620
   4 C :   -0.212538
   5 C :   -0.227808
   6 C :   -0.206485
   7 C :   -0.297746
   8 O :    0.143315
   9 H :    0.133933
  10 H :    0.127602
  11 H :    0.136419
  12 H :    0.146055
  13 H :    0.127674
  14 H :    0.129651
  15 H :    0.146533
  16 H :    0.155840
  17 H :    0.157549

  Mayer bond orders larger than 0.1
B(  0-C ,  1-C ) :   0.9098 B(  0-C ,  9-H ) :   0.9284 B(  0-C , 10-H ) :   0.9491
B(  0-C , 11-H ) :   0.9196 B(  1-C ,  2-C ) :   1.6023 B(  1-C ,  7-C ) :   0.9729
B(  2-C ,  3-N ) :   1.0559 B(  2-C , 12-H ) :   0.9392 B(  3-N ,  4-C ) :   0.8489
B(  3-N ,  5-C ) :   0.8772 B(  4-C ,  5-C ) :   0.9251 B(  4-C , 13-H ) :   0.9233
B(  4-C , 14-H ) :   0.9147 B(  5-C ,  6-C ) :   0.8928 B(  5-C , 15-H ) :   0.9193
B(  6-C ,  7-C ) :   0.9394 B(  6-C , 16-H ) :   0.9314 B(  6-C , 17-H ) :   0.9008
B(  7-C ,  8-O ) :   1.9931

MP2 TOTAL ENERGY:     -401.254062626 Eh
FINAL SINGLE POINT ENERGY      -401.254062626406

DIPOLE MOMENT
-------------
                                X             Y             Z
Electronic contribution:      1.32909      -1.11190       1.94604
Nuclear contribution   :     -2.02449       0.45633      -2.65955
                        -----------------------------------------
Total Dipole Moment    :     -0.69539      -0.65556      -0.71351
                        -----------------------------------------
Magnitude (a.u.)       :      1.19265
Magnitude (Debye)      :      3.03148

                             ****ORCA TERMINATED NORMALLY****
TOTAL RUN TIME: 0 days 0 hours 19 minutes 28 seconds 566 msec
