                         Program Version 3.0.3 - RELEASE   -
|  1> ! RI-MP2 RIJK def2-TZVP def2-TZVP/C def2-TZVP/JK TIGHTSCF
|  2> % maxcore 2000
|  3> % mp2 density relaxed end
|  4> *xyz 0 1
|  5>  N       -0.0060403396     1.3759071290     0.0823016556
|  6>  C       -0.0409992114     0.0260972679     0.0250289144
|  7>  C       -1.1663952141    -0.7469814982     0.0105108848
|  8>  O       -2.3945843638    -0.1772903261     0.0201634987
|  9>  N       -1.1087878512    -2.1044515703    -0.0107169949
| 10>  N       -0.0574872091    -2.7693374717    -0.0254131742
| 11>  O        1.1845388099    -2.0275412641    -0.0251789564
| 12>  C        1.2444123776    -0.6672836703    -0.0075254429
| 13>  O        2.3087054877    -0.0949235168    -0.0238393644
| 14>  H        0.8943329457     1.8072425874    -0.0573619650
| 15>  H       -0.8429474466     1.9090249955    -0.0774186367
| 16>  H       -3.0481207351    -0.8885685223     0.0045036310
| 17> *
| 18>
| 19>                          ****END OF INPUT****

CARTESIAN COORDINATES (ANGSTROEM)
---------------------------------
  N     -0.006040    1.375907    0.082302
  C     -0.040999    0.026097    0.025029
  C     -1.166395   -0.746981    0.010511
  O     -2.394584   -0.177290    0.020163
  N     -1.108788   -2.104452   -0.010717
  N     -0.057487   -2.769337   -0.025413
  O      1.184539   -2.027541   -0.025179
  C      1.244412   -0.667284   -0.007525
  O      2.308705   -0.094924   -0.023839
  H      0.894333    1.807243   -0.057362
  H     -0.842947    1.909025   -0.077419
  H     -3.048121   -0.888569    0.004504

 Total Charge           Charge          ....    0
 Multiplicity           Mult            ....    1
 Number of Electrons    NEL             ....   66
 Basis Dimension        Dim             ....  297

ORBITAL ENERGIES
----------------

  NO   OCC          E(Eh)            E(eV)
   0   2.0000     -20.660194      -562.1925
   1   2.0000     -20.628857      -561.3397
   2   2.0000     -20.559395      -559.4496
   3   2.0000     -15.733892      -428.1410
   4   2.0000     -15.674660      -426.5292
   5   2.0000     -15.603639      -424.5966
   6   2.0000     -11.410295      -310.4899
   7   2.0000     -11.364776      -309.2513
   8   2.0000     -11.333018      -308.3871
   9   2.0000      -1.521947       -41.4143
  10   2.0000      -1.457352       -39.6566
  11   2.0000      -1.416265       -38.5385
  12   2.0000      -1.338938       -36.4344
  13   2.0000      -1.266383       -34.4600
  14   2.0000      -1.107718       -30.1425
  15   2.0000      -0.976311       -26.5668
  16   2.0000      -0.921949       -25.0875
  17   2.0000      -0.842538       -22.9266
  18   2.0000      -0.763926       -20.7875
  19   2.0000      -0.754251       -20.5242
  20   2.0000      -0.703942       -19.1552
  21   2.0000      -0.699844       -19.0437
  22   2.0000      -0.664193       -18.0736
  23   2.0000      -0.651445       -17.7267
  24   2.0000      -0.633633       -17.2420
  25   2.0000      -0.631822       -17.1927
  26   2.0000      -0.580063       -15.7843
  27   2.0000      -0.574435       -15.6312
  28   2.0000      -0.530424       -14.4336
  29   2.0000      -0.496249       -13.5036
  30   2.0000      -0.480197       -13.0668
  31   2.0000      -0.460568       -12.5327
  32   2.0000      -0.334495        -9.1021
  33   0.0000       0.042305         1.1512
  34   0.0000       0.119188         3.2433
  35   0.0000       0.137197         3.7333
  36   0.0000       0.145632         3.9629
  37   0.0000       0.176242         4.7958

MULLIKEN ATOMIC CHARGES
-----------------------
   0 N :   -0.485049
   1 C :    0.039408
   2 C :    0.247622
   3 O :   -0.437290
   4 N :   -0.102625
   5 N :   -0.027235
   6 O :   -0.103055
   7 C :    0.280750
   8 O :   -0.334071
   9 H :    0.290982
  10 H :    0.276143
  11 H :    0.354420
Sum of atomic charges:   -0.0000000

LOEWDIN ATOMIC CHARGES
----------------------
   0 N :    0.023724
   1 C :   -0.229691
   2 C :   -0.374434
   3 O :    0.080768
   4 N :    0.050231
   5 N :    0.002898
   6 O :    0.227861
   7 C :   -0.476852
   8 O :    0.117749
   9 H :    0.190331
  10 H :    0.182148
  11 H :    0.205267

  Mayer bond orders larger than 0.1
B(  0-N ,  1-C ) :   1.1696 B(  0-N ,  9-H ) :   0.8423 B(  0-N , 10-H ) :   0.8611
B(  1-C ,  2-C ) :   1.3610 B(  1-C ,  7-C ) :   1.0296 B(  2-C ,  3-O ) :   1.1084
B(  2-C ,  4-N ) :   1.2166 B(  3-O , 11-H ) :   0.8082 B(  4-N ,  5-N ) :   1.4496
B(  5-N ,  6-O ) :   0.7894 B(  6-O ,  7-C ) :   1.1435 B(  7-C ,  8-O ) :   1.8900

MP2 TOTAL ENERGY:     -505.144624860 Eh
FINAL SINGLE POINT ENERGY      -505.144624860458

DIPOLE MOMENT
-------------
                                X             Y             Z
Electronic contribution:      1.25576      -3.65357      -0.01058
Nuclear contribution   :     -2.77006       4.81866      -0.13109
                        -----------------------------------------
Total Dipole Moment    :     -1.51430       1.16510      -0.14167
                        -----------------------------------------
Magnitude (a.u.)       :      1.91589
Magnitude (Debye)      :      4.86979

                             ****ORCA TERMINATED NORMALLY****
TOTAL RUN TIME: 0 days 0 hours 13 minutes 39 seconds 642 msec
