                         Program Version 3.0.3 - RELEASE   -
|  1> ! RI-MP2 RIJK def2-TZVP def2-TZVP/C def2-TZVP/JK TIGHTSCF
|  2> % maxcore 2000
|  3> % mp2 density relaxed end
|  4> *xyz 0 1
|  5>  C        0.1090168772     1.1385933965     0.6758557855
|  6>  C       -0.0813864394     0.3812159777    -0.6431540027
|  7>  C       -1.4037362471    -0.3670342809    -0.6704242690
|  8>  O       -1.6975891478    -1.0479469987    -1.9365674429
|  9>  C       -2.1139566193    -2.2334445404    -1.2235501192
| 10>  C       -3.3652196997    -2.9065829736    -1.6824089612
| 11>  C       -0.9001608574    -2.8183535684    -0.5937816046
| 12>  O        0.3552415561    -2.7431472650    -1.1960379296
| 13>  C       -1.6075007257    -1.6632402377     0.1077172036
| 14>  H        1.0562497659     1.6849038780     0.6794608146
| 15>  H       -0.6950083316     1.8646978981     0.8407708376
| 16>  H        0.1191513562     0.4513450429     1.5284607915
| 17>  H       -0.0711577261     1.0859651978    -1.4843838059
| 18>  H        0.7411596671    -0.3226186685    -0.7907088320
| 19>  H       -2.2275705111     0.3327053872    -0.4704067344
| 20>  H       -3.2484620118    -3.2759200265    -2.7077170763
| 21>  H       -3.5954428311    -3.7614073409    -1.0398782448
| 22>  H       -4.2151243386    -2.2168626481    -1.6651264822
| 23>  H       -1.0474993077    -3.7719487983    -0.0931986702
| 24>  H        0.2364831736    -2.1759174179    -1.9705283156
| 25>  H       -2.0163955316    -1.7444569332     1.1068859679
| 26> *
| 27>
| 28>                          ****END OF INPUT****

CARTESIAN COORDINATES (ANGSTROEM)
---------------------------------
  C      0.109017    1.138593    0.675856
  C     -0.081386    0.381216   -0.643154
  C     -1.403736   -0.367034   -0.670424
  O     -1.697589   -1.047947   -1.936567
  C     -2.113957   -2.233445   -1.223550
  C     -3.365220   -2.906583   -1.682409
  C     -0.900161   -2.818354   -0.593782
  O      0.355242   -2.743147   -1.196038
  C     -1.607501   -1.663240    0.107717
  H      1.056250    1.684904    0.679461
  H     -0.695008    1.864698    0.840771
  H      0.119151    0.451345    1.528461
  H     -0.071158    1.085965   -1.484384
  H      0.741160   -0.322619   -0.790709
  H     -2.227571    0.332705   -0.470407
  H     -3.248462   -3.275920   -2.707717
  H     -3.595443   -3.761407   -1.039878
  H     -4.215124   -2.216863   -1.665126
  H     -1.047499   -3.771949   -0.093199
  H      0.236483   -2.175917   -1.970528
  H     -2.016396   -1.744457    1.106886

 Total Charge           Charge          ....    0
 Multiplicity           Mult            ....    1
 Number of Electrons    NEL             ....   70
 Basis Dimension        Dim             ....  351

ORBITAL ENERGIES
----------------

  NO   OCC          E(Eh)            E(eV)
   0   2.0000     -20.559720      -559.4584
   1   2.0000     -20.557122      -559.3877
   2   2.0000     -11.295000      -307.3526
   3   2.0000     -11.291051      -307.2451
   4   2.0000     -11.288478      -307.1751
   5   2.0000     -11.235700      -305.7389
   6   2.0000     -11.230293      -305.5918
   7   2.0000     -11.220996      -305.3388
   8   2.0000     -11.219265      -305.2917
   9   2.0000      -1.405273       -38.2394
  10   2.0000      -1.356528       -36.9130
  11   2.0000      -1.110403       -30.2156
  12   2.0000      -1.061053       -28.8727
  13   2.0000      -0.993427       -27.0325
  14   2.0000      -0.920740       -25.0546
  15   2.0000      -0.846054       -23.0223
  16   2.0000      -0.796399       -21.6711
  17   2.0000      -0.734968       -19.9995
  18   2.0000      -0.702432       -19.1141
  19   2.0000      -0.686841       -18.6899
  20   2.0000      -0.647001       -17.6058
  21   2.0000      -0.615068       -16.7369
  22   2.0000      -0.589061       -16.0292
  23   2.0000      -0.580285       -15.7904
  24   2.0000      -0.576110       -15.6768
  25   2.0000      -0.566014       -15.4020
  26   2.0000      -0.556908       -15.1542
  27   2.0000      -0.530551       -14.4370
  28   2.0000      -0.525020       -14.2865
  29   2.0000      -0.505323       -13.7505
  30   2.0000      -0.490546       -13.3484
  31   2.0000      -0.470988       -12.8162
  32   2.0000      -0.458454       -12.4752
  33   2.0000      -0.386174       -10.5083
  34   2.0000      -0.374827       -10.1996
  35   0.0000       0.134991         3.6733
  36   0.0000       0.143955         3.9172
  37   0.0000       0.166859         4.5405
  38   0.0000       0.174656         4.7526
  39   0.0000       0.184772         5.0279

MULLIKEN ATOMIC CHARGES
-----------------------
   0 C :   -0.430419
   1 C :   -0.162286
   2 C :    0.060161
   3 O :   -0.351522
   4 C :    0.160760
   5 C :   -0.406411
   6 C :    0.043606
   7 O :   -0.463908
   8 C :   -0.192163
   9 H :    0.140334
  10 H :    0.124779
  11 H :    0.134928
  12 H :    0.117725
  13 H :    0.114345
  14 H :    0.098302
  15 H :    0.144696
  16 H :    0.130315
  17 H :    0.138571
  18 H :    0.119310
  19 H :    0.335813
  20 H :    0.143065
Sum of atomic charges:    0.0000000

LOEWDIN ATOMIC CHARGES
----------------------
   0 C :   -0.312212
   1 C :   -0.276824
   2 C :   -0.252794
   3 O :    0.169530
   4 C :   -0.291293
   5 C :   -0.269880
   6 C :   -0.288506
   7 O :    0.000101
   8 C :   -0.147310
   9 H :    0.123898
  10 H :    0.120819
  11 H :    0.123580
  12 H :    0.141206
  13 H :    0.141145
  14 H :    0.145601
  15 H :    0.135838
  16 H :    0.134693
  17 H :    0.131635
  18 H :    0.150451
  19 H :    0.182725
  20 H :    0.137600

  Mayer bond orders larger than 0.1
B(  0-C ,  1-C ) :   0.9124 B(  0-C ,  9-H ) :   0.9382 B(  0-C , 10-H ) :   0.9393
B(  0-C , 11-H ) :   0.9375 B(  1-C ,  2-C ) :   0.9204 B(  1-C , 12-H ) :   0.9262
B(  1-C , 13-H ) :   0.9161 B(  2-C ,  3-O ) :   0.8801 B(  2-C ,  8-C ) :   0.9264
B(  2-C , 14-H ) :   0.9157 B(  3-O ,  4-C ) :   0.9365 B(  4-C ,  5-C ) :   0.8924
B(  4-C ,  6-C ) :   0.9310 B(  4-C ,  8-C ) :   0.8125 B(  5-C , 15-H ) :   0.9351
B(  5-C , 16-H ) :   0.9298 B(  5-C , 17-H ) :   0.9364 B(  6-C ,  7-O ) :   0.9830
B(  6-C ,  8-C ) :   0.8413 B(  6-C , 18-H ) :   0.9487 B(  7-O , 19-H ) :   0.8171
B(  8-C , 20-H ) :   0.8991

MP2 TOTAL ENERGY:     -423.484745713 Eh
FINAL SINGLE POINT ENERGY      -423.484745712879

DIPOLE MOMENT
-------------
                                X             Y             Z
Electronic contribution:      0.31493      -4.01820      -3.07816
Nuclear contribution   :     -0.93474       4.17868       3.47726
                        -----------------------------------------
Total Dipole Moment    :     -0.61981       0.16049       0.39911
                        -----------------------------------------
Magnitude (a.u.)       :      0.75446
Magnitude (Debye)      :      1.91768

                             ****ORCA TERMINATED NORMALLY****
TOTAL RUN TIME: 0 days 0 hours 28 minutes 41 seconds 754 msec
