                         Program Version 3.0.3 - RELEASE   -
|  1> ! RI-MP2 RIJK def2-TZVP def2-TZVP/C def2-TZVP/JK TIGHTSCF
|  2> % maxcore 2000
|  3> % mp2 density relaxed end
|  4> *xyz 0 1
|  5>  C       -0.0095012173     1.4791285068     0.0189331514
|  6>  C       -0.0490558146    -0.0182509762     0.0017551935
|  7>  C       -1.2202216810    -0.9763648582    -0.2015139393
|  8>  N       -0.3237744052    -2.0960767979     0.3178607464
|  9>  C        0.5817319972    -1.0156816184     0.9104126365
| 10>  C        1.2184514095    -0.8516622205    -0.4600473195
| 11>  O        2.4157685096    -0.2569106369    -0.7531631901
| 12>  C        0.6561948735    -2.1898805659    -0.8110698238
| 13>  O        0.8636319827    -3.0775233253    -1.5737998992
| 14>  H        0.9991560337     1.8380892527     0.2436492449
| 15>  H       -0.3096399952     1.8938435710    -0.9501011219
| 16>  H       -0.6900432296     1.8790334072     0.7780129244
| 17>  H       -2.0496098992    -0.8018776230     0.4904617914
| 18>  H       -1.6077693020    -1.1485816791    -1.2124003414
| 19>  H        1.0275840087    -1.0336959213     1.8937415293
| 20>  H        2.3495714392     0.1810338950    -1.6097290525
| 21> *
| 22>
| 23>                          ****END OF INPUT****

CARTESIAN COORDINATES (ANGSTROEM)
---------------------------------
  C     -0.009501    1.479129    0.018933
  C     -0.049056   -0.018251    0.001755
  C     -1.220222   -0.976365   -0.201514
  N     -0.323774   -2.096077    0.317861
  C      0.581732   -1.015682    0.910413
  C      1.218451   -0.851662   -0.460047
  O      2.415769   -0.256911   -0.753163
  C      0.656195   -2.189881   -0.811070
  O      0.863632   -3.077523   -1.573800
  H      0.999156    1.838089    0.243649
  H     -0.309640    1.893844   -0.950101
  H     -0.690043    1.879033    0.778013
  H     -2.049610   -0.801878    0.490462
  H     -1.607769   -1.148582   -1.212400
  H      1.027584   -1.033696    1.893742
  H      2.349571    0.181034   -1.609729

 Total Charge           Charge          ....    0
 Multiplicity           Mult            ....    1
 Number of Electrons    NEL             ....   66
 Basis Dimension        Dim             ....  321

ORBITAL ENERGIES
----------------

  NO   OCC          E(Eh)            E(eV)
   0   2.0000     -20.601485      -560.5949
   1   2.0000     -20.557077      -559.3865
   2   2.0000     -15.585198      -424.0948
   3   2.0000     -11.363032      -309.2038
   4   2.0000     -11.322463      -308.0999
   5   2.0000     -11.290191      -307.2217
   6   2.0000     -11.284521      -307.0674
   7   2.0000     -11.282029      -306.9996
   8   2.0000     -11.247933      -306.0718
   9   2.0000      -1.425886       -38.8003
  10   2.0000      -1.404281       -38.2124
  11   2.0000      -1.322245       -35.9801
  12   2.0000      -1.075250       -29.2590
  13   2.0000      -1.016885       -27.6709
  14   2.0000      -0.944133       -25.6912
  15   2.0000      -0.889577       -24.2066
  16   2.0000      -0.792481       -21.5645
  17   2.0000      -0.751093       -20.4383
  18   2.0000      -0.700604       -19.0644
  19   2.0000      -0.685663       -18.6578
  20   2.0000      -0.660316       -17.9681
  21   2.0000      -0.646775       -17.5996
  22   2.0000      -0.618975       -16.8432
  23   2.0000      -0.599088       -16.3020
  24   2.0000      -0.592932       -16.1345
  25   2.0000      -0.556335       -15.1386
  26   2.0000      -0.550606       -14.9828
  27   2.0000      -0.543015       -14.7762
  28   2.0000      -0.507311       -13.8046
  29   2.0000      -0.449109       -12.2209
  30   2.0000      -0.441164       -12.0047
  31   2.0000      -0.412392       -11.2218
  32   2.0000      -0.378953       -10.3118
  33   0.0000       0.110678         3.0117
  34   0.0000       0.147142         4.0039
  35   0.0000       0.151054         4.1104
  36   0.0000       0.167317         4.5529
  37   0.0000       0.177072         4.8184

MULLIKEN ATOMIC CHARGES
-----------------------
   0 C :   -0.452199
   1 C :   -0.083660
   2 C :   -0.079485
   3 N :   -0.177756
   4 C :   -0.046095
   5 C :    0.114496
   6 O :   -0.452171
   7 C :    0.192065
   8 O :   -0.233798
   9 H :    0.159641
  10 H :    0.143927
  11 H :    0.148990
  12 H :    0.124521
  13 H :    0.122818
  14 H :    0.177970
  15 H :    0.340735
Sum of atomic charges:    0.0000000

LOEWDIN ATOMIC CHARGES
----------------------
   0 C :   -0.272498
   1 C :   -0.204756
   2 C :   -0.185743
   3 N :    0.147385
   4 C :   -0.109882
   5 C :   -0.271177
   6 O :    0.059688
   7 C :   -0.349444
   8 O :    0.178556
   9 H :    0.137982
  10 H :    0.132130
  11 H :    0.135343
  12 H :    0.134676
  13 H :    0.128390
  14 H :    0.142799
  15 H :    0.196550

  Mayer bond orders larger than 0.1
B(  0-C ,  1-C ) :   0.8727 B(  0-C ,  9-H ) :   0.9287 B(  0-C , 10-H ) :   0.9343
B(  0-C , 11-H ) :   0.9380 B(  1-C ,  2-C ) :   0.9492 B(  1-C ,  4-C ) :   0.8981
B(  1-C ,  5-C ) :   0.7637 B(  2-C ,  3-N ) :   0.9154 B(  2-C , 12-H ) :   0.9029
B(  2-C , 13-H ) :   0.9209 B(  3-N ,  4-C ) :   0.9523 B(  3-N ,  7-C ) :   0.8855
B(  4-C ,  5-C ) :   0.8152 B(  4-C , 14-H ) :   0.8788 B(  5-C ,  6-O ) :   0.9988
B(  5-C ,  7-C ) :   0.9455 B(  6-O , 15-H ) :   0.8286 B(  7-C ,  8-O ) :   2.0761

MP2 TOTAL ENERGY:     -437.110138512 Eh
FINAL SINGLE POINT ENERGY      -437.110138512284

DIPOLE MOMENT
-------------
                                X             Y             Z
Electronic contribution:      3.12358      -7.19825      -1.61505
Nuclear contribution   :     -3.47719       9.05235       1.71577
                        -----------------------------------------
Total Dipole Moment    :     -0.35361       1.85410       0.10072
                        -----------------------------------------
Magnitude (a.u.)       :      1.89020
Magnitude (Debye)      :      4.80451

                             ****ORCA TERMINATED NORMALLY****
TOTAL RUN TIME: 0 days 0 hours 17 minutes 6 seconds 39 msec
