                         Program Version 3.0.3 - RELEASE   -
|  1> ! RI-MP2 RIJK def2-TZVP def2-TZVP/C def2-TZVP/JK TIGHTSCF
|  2> % maxcore 2000
|  3> % mp2 density relaxed end
|  4> *xyz 0 1
|  5>  N       -0.0739087429    -1.1442916674     0.0345337316
|  6>  C       -0.0613929491     0.0108455560     0.0118431208
|  7>  C       -0.0112849244     1.4720460790    -0.0165604594
|  8>  C        1.4126870558     1.9869850499    -0.0141623469
|  9>  C        2.3243991470     1.8824492675     1.2275281553
| 10>  C        2.8864057435     3.1984002808     0.7223167372
| 11>  C        2.8995739595     3.1689169502    -0.7717723489
| 12>  C        2.3461205230     1.8338531737    -1.2344881372
| 13>  N        1.6336604848     3.5360450535    -0.0427807356
| 14>  H       -0.5354635358     1.8323975985    -0.9091502521
| 15>  H       -0.5509980983     1.8671562009     0.8517313199
| 16>  H        1.7574321796     2.0279338753     2.1511585452
| 17>  H        2.9768712785     1.0095999355     1.3228467005
| 18>  H        3.4130201485     3.9591580118     1.2866389205
| 19>  H        3.4363086712     3.9070045197    -1.3563041291
| 20>  H        2.9998755351     0.9581548416    -1.2837668124
| 21>  H        1.7955812938     1.9425755036    -2.1729953695
| 22> *
| 23>
| 24>                          ****END OF INPUT****

CARTESIAN COORDINATES (ANGSTROEM)
---------------------------------
  N     -0.073909   -1.144292    0.034534
  C     -0.061393    0.010846    0.011843
  C     -0.011285    1.472046   -0.016560
  C      1.412687    1.986985   -0.014162
  C      2.324399    1.882449    1.227528
  C      2.886406    3.198400    0.722317
  C      2.899574    3.168917   -0.771772
  C      2.346121    1.833853   -1.234488
  N      1.633660    3.536045   -0.042781
  H     -0.535464    1.832398   -0.909150
  H     -0.550998    1.867156    0.851731
  H      1.757432    2.027934    2.151159
  H      2.976871    1.009600    1.322847
  H      3.413020    3.959158    1.286639
  H      3.436309    3.907005   -1.356304
  H      2.999876    0.958155   -1.283767
  H      1.795581    1.942576   -2.172995

 Total Charge           Charge          ....    0
 Multiplicity           Mult            ....    1
 Number of Electrons    NEL             ....   64
 Basis Dimension        Dim             ....  327

ORBITAL ENERGIES
----------------

  NO   OCC          E(Eh)            E(eV)
   0   2.0000     -15.575731      -423.8372
   1   2.0000     -15.573881      -423.7869
   2   2.0000     -11.299419      -307.4728
   3   2.0000     -11.287676      -307.1533
   4   2.0000     -11.278593      -306.9061
   5   2.0000     -11.278390      -306.9006
   6   2.0000     -11.277677      -306.8812
   7   2.0000     -11.248633      -306.0909
   8   2.0000     -11.248616      -306.0904
   9   2.0000      -1.334688       -36.3187
  10   2.0000      -1.223491       -33.2929
  11   2.0000      -1.084246       -29.5038
  12   2.0000      -1.008463       -27.4417
  13   2.0000      -0.992712       -27.0131
  14   2.0000      -0.907405       -24.6918
  15   2.0000      -0.774586       -21.0776
  16   2.0000      -0.739328       -20.1181
  17   2.0000      -0.725498       -19.7418
  18   2.0000      -0.688103       -18.7242
  19   2.0000      -0.658980       -17.9318
  20   2.0000      -0.631645       -17.1879
  21   2.0000      -0.608786       -16.5659
  22   2.0000      -0.576709       -15.6931
  23   2.0000      -0.558374       -15.1941
  24   2.0000      -0.550658       -14.9842
  25   2.0000      -0.527667       -14.3586
  26   2.0000      -0.476650       -12.9703
  27   2.0000      -0.471627       -12.8336
  28   2.0000      -0.459954       -12.5160
  29   2.0000      -0.441824       -12.0226
  30   2.0000      -0.423065       -11.5122
  31   2.0000      -0.394278       -10.7288
  32   0.0000       0.120558         3.2805
  33   0.0000       0.154765         4.2114
  34   0.0000       0.156757         4.2656
  35   0.0000       0.165519         4.5040
  36   0.0000       0.178917         4.8686

MULLIKEN ATOMIC CHARGES
-----------------------
   0 N :   -0.057819
   1 C :   -0.189351
   2 C :   -0.109692
   3 C :    0.019533
   4 C :   -0.176304
   5 C :   -0.108536
   6 C :   -0.108541
   7 C :   -0.176302
   8 N :   -0.204705
   9 H :    0.164537
  10 H :    0.164537
  11 H :    0.119900
  12 H :    0.130220
  13 H :    0.141200
  14 H :    0.141201
  15 H :    0.130221
  16 H :    0.119899
Sum of atomic charges:   -0.0000000

LOEWDIN ATOMIC CHARGES
----------------------
   0 N :    0.061612
   1 C :   -0.182227
   2 C :   -0.206943
   3 C :   -0.229636
   4 C :   -0.182851
   5 C :   -0.207579
   6 C :   -0.207580
   7 C :   -0.182851
   8 N :    0.157244
   9 H :    0.172264
  10 H :    0.172264
  11 H :    0.146697
  12 H :    0.134999
  13 H :    0.136445
  14 H :    0.136445
  15 H :    0.135000
  16 H :    0.146697

  Mayer bond orders larger than 0.1
B(  0-N ,  1-C ) :   2.8618 B(  1-C ,  2-C ) :   0.9249 B(  2-C ,  3-C ) :   0.8764
B(  2-C ,  9-H ) :   0.9049 B(  2-C , 10-H ) :   0.9049 B(  3-C ,  4-C ) :   0.9541
B(  3-C ,  7-C ) :   0.9541 B(  3-C ,  8-N ) :   0.9601 B(  4-C ,  5-C ) :   0.9487
B(  4-C , 11-H ) :   0.9137 B(  4-C , 12-H ) :   0.9014 B(  5-C ,  6-C ) :   0.9065
B(  5-C ,  8-N ) :   0.8845 B(  5-C , 13-H ) :   0.9124 B(  6-C ,  7-C ) :   0.9487
B(  6-C ,  8-N ) :   0.8845 B(  6-C , 14-H ) :   0.9124 B(  7-C , 15-H ) :   0.9014
B(  7-C , 16-H ) :   0.9137

MP2 TOTAL ENERGY:     -380.156951195 Eh
FINAL SINGLE POINT ENERGY      -380.156951194520

DIPOLE MOMENT
-------------
                                X             Y             Z
Electronic contribution:     -2.55392      -2.10394       0.01900
Nuclear contribution   :      3.16135       3.05198      -0.03237
                        -----------------------------------------
Total Dipole Moment    :      0.60742       0.94804      -0.01336
                        -----------------------------------------
Magnitude (a.u.)       :      1.12602
Magnitude (Debye)      :      2.86210

                             ****ORCA TERMINATED NORMALLY****
TOTAL RUN TIME: 0 days 0 hours 17 minutes 51 seconds 835 msec
