                         Program Version 3.0.3 - RELEASE   -
|  1> ! RI-MP2 RIJK def2-TZVP def2-TZVP/C def2-TZVP/JK TIGHTSCF
|  2> % maxcore 2000
|  3> % mp2 density relaxed end
|  4> *xyz 0 1
|  5>  C        0.0022291547    -1.1078753389     0.6959859840
|  6>  C       -0.0189797666     0.0165609920     0.2687892362
|  7>  C       -0.0793794645     1.3559994313    -0.2551293031
|  8>  C       -0.0980798560     2.5387150120     0.7003541163
|  9>  C        1.1163131622     2.2660871217    -0.1463699567
| 10>  O       -0.7777317110     1.4897310988    -1.4752078795
| 11>  C       -2.1357406350     1.1063698208    -1.4329436450
| 12>  C       -3.0019390221     2.0915327179    -0.7572608841
| 13>  N       -3.6850868559     2.8654710613    -0.2384536528
| 14>  H        0.0368131993    -2.0992519787     1.0759553871
| 15>  H       -0.7350892496     3.3675513723     0.4179303653
| 16>  H       -0.0564245241     2.3252465633     1.7615890214
| 17>  H        2.0071979594     1.8658070193     0.3214059011
| 18>  H        1.2861954176     2.9076771049    -1.0031525537
| 19>  H       -2.4615938681     1.0128903988    -2.4727188161
| 20>  H       -2.2624608403     0.1307523032    -0.9455011604
| 21> *
| 22>
| 23>                          ****END OF INPUT****

CARTESIAN COORDINATES (ANGSTROEM)
---------------------------------
  C      0.002229   -1.107875    0.695986
  C     -0.018980    0.016561    0.268789
  C     -0.079379    1.355999   -0.255129
  C     -0.098080    2.538715    0.700354
  C      1.116313    2.266087   -0.146370
  O     -0.777732    1.489731   -1.475208
  C     -2.135741    1.106370   -1.432944
  C     -3.001939    2.091533   -0.757261
  N     -3.685087    2.865471   -0.238454
  H      0.036813   -2.099252    1.075955
  H     -0.735089    3.367551    0.417930
  H     -0.056425    2.325247    1.761589
  H      2.007198    1.865807    0.321406
  H      1.286195    2.907677   -1.003153
  H     -2.461594    1.012890   -2.472719
  H     -2.262461    0.130752   -0.945501

 Total Charge           Charge          ....    0
 Multiplicity           Mult            ....    1
 Number of Electrons    NEL             ....   64
 Basis Dimension        Dim             ....  321

ORBITAL ENERGIES
----------------

  NO   OCC          E(Eh)            E(eV)
   0   2.0000     -20.601942      -560.6073
   1   2.0000     -15.579979      -423.9528
   2   2.0000     -11.340792      -308.5986
   3   2.0000     -11.330510      -308.3188
   4   2.0000     -11.279530      -306.9316
   5   2.0000     -11.252266      -306.1897
   6   2.0000     -11.249838      -306.1236
   7   2.0000     -11.248983      -306.1004
   8   2.0000     -11.244160      -305.9691
   9   2.0000      -1.424437       -38.7609
  10   2.0000      -1.225611       -33.3506
  11   2.0000      -1.167828       -31.7782
  12   2.0000      -1.045174       -28.4406
  13   2.0000      -1.012707       -27.5572
  14   2.0000      -0.878311       -23.9001
  15   2.0000      -0.850748       -23.1500
  16   2.0000      -0.773838       -21.0572
  17   2.0000      -0.722857       -19.6699
  18   2.0000      -0.706625       -19.2282
  19   2.0000      -0.690853       -18.7991
  20   2.0000      -0.664437       -18.0803
  21   2.0000      -0.627373       -17.0717
  22   2.0000      -0.579574       -15.7710
  23   2.0000      -0.558064       -15.1857
  24   2.0000      -0.540298       -14.7022
  25   2.0000      -0.529108       -14.3978
  26   2.0000      -0.488665       -13.2973
  27   2.0000      -0.468864       -12.7584
  28   2.0000      -0.465909       -12.6780
  29   2.0000      -0.452407       -12.3106
  30   2.0000      -0.413280       -11.2459
  31   2.0000      -0.377315       -10.2673
  32   0.0000       0.135935         3.6990
  33   0.0000       0.139814         3.8045
  34   0.0000       0.153756         4.1839
  35   0.0000       0.156138         4.2487
  36   0.0000       0.163290         4.4433

MULLIKEN ATOMIC CHARGES
-----------------------
   0 C :   -0.132036
   1 C :   -0.056872
   2 C :    0.066838
   3 C :   -0.264372
   4 C :   -0.253588
   5 O :   -0.275690
   6 C :    0.036365
   7 C :   -0.179673
   8 N :   -0.067312
   9 H :    0.197692
  10 H :    0.162655
  11 H :    0.144826
  12 H :    0.148098
  13 H :    0.145089
  14 H :    0.168887
  15 H :    0.159095
Sum of atomic charges:   -0.0000000

LOEWDIN ATOMIC CHARGES
----------------------
   0 C :   -0.076718
   1 C :   -0.074175
   2 C :   -0.327842
   3 C :   -0.179567
   4 C :   -0.176551
   5 O :    0.236263
   6 C :   -0.293217
   7 C :   -0.188697
   8 N :    0.065798
   9 H :    0.130080
  10 H :    0.146038
  11 H :    0.141066
  12 H :    0.141546
  13 H :    0.144694
  14 H :    0.157131
  15 H :    0.154151

  Mayer bond orders larger than 0.1
B(  0-C ,  1-C ) :   2.5887 B(  0-C ,  2-C ) :  -0.1015 B(  0-C ,  9-H ) :   0.8926
B(  1-C ,  2-C ) :   1.1134 B(  2-C ,  3-C ) :   0.8904 B(  2-C ,  4-C ) :   0.8457
B(  2-C ,  5-O ) :   0.9598 B(  3-C ,  4-C ) :   0.9221 B(  3-C , 10-H ) :   0.9146
B(  3-C , 11-H ) :   0.9216 B(  4-C , 12-H ) :   0.9243 B(  4-C , 13-H ) :   0.9157
B(  5-O ,  6-C ) :   0.9426 B(  6-C ,  7-C ) :   0.8781 B(  6-C , 14-H ) :   0.9102
B(  6-C , 15-H ) :   0.9235 B(  7-C ,  8-N ) :   2.8360

MP2 TOTAL ENERGY:     -399.990836417 Eh
FINAL SINGLE POINT ENERGY      -399.990836416920

DIPOLE MOMENT
-------------
                                X             Y             Z
Electronic contribution:     -3.51740      -0.45176      -1.41512
Nuclear contribution   :      4.27475      -0.43947       1.30117
                        -----------------------------------------
Total Dipole Moment    :      0.75735      -0.89123      -0.11395
                        -----------------------------------------
Magnitude (a.u.)       :      1.17510
Magnitude (Debye)      :      2.98686

                             ****ORCA TERMINATED NORMALLY****
TOTAL RUN TIME: 0 days 0 hours 16 minutes 2 seconds 501 msec
