                         Program Version 3.0.3 - RELEASE   -
|  1> ! RI-MP2 RIJK def2-TZVP def2-TZVP/C def2-TZVP/JK TIGHTSCF
|  2> % maxcore 2000
|  3> % mp2 density relaxed end
|  4> *xyz 0 1
|  5>  C       -0.0133266090     1.5309246639    -0.0578183818
|  6>  C       -0.0050934062     0.0282904930     0.0576537070
|  7>  C       -1.2848666448    -0.7680214267     0.4233633185
|  8>  C       -0.3311371195    -1.8572624600     0.9595572259
|  9>  O        0.1962365566    -2.6167032904    -0.1437930083
| 10>  C        1.1722121755    -1.7546886847    -0.7123568923
| 11>  C        2.0059629043    -1.3110069769     0.4968421204
| 12>  C        0.7694950626    -0.7590281640     1.1869942711
| 13>  O        0.5535061650    -0.5531736031    -1.1467424095
| 14>  H        1.0026225940     1.9199306528    -0.1767200567
| 15>  H       -0.5975821589     1.8402489798    -0.9306048296
| 16>  H       -0.4607673432     1.9834016587     0.8322431648
| 17>  H       -1.8448050087    -0.2855886732     1.2311999549
| 18>  H       -1.9502910280    -1.0466791329    -0.3958908503
| 19>  H       -0.6447971053    -2.5418701603     1.7481924442
| 20>  H        1.6456632230    -2.2489471041    -1.5586128132
| 21>  H        2.4729669009    -2.1490015931     1.0183615633
| 22>  H        2.7503539409    -0.5546062887     0.2400069979
| 23>  H        0.8375308408    -0.2980141603     2.1690418838
| 24> *
| 25>
| 26>                          ****END OF INPUT****

CARTESIAN COORDINATES (ANGSTROEM)
---------------------------------
  C     -0.013327    1.530925   -0.057818
  C     -0.005093    0.028290    0.057654
  C     -1.284867   -0.768021    0.423363
  C     -0.331137   -1.857262    0.959557
  O      0.196237   -2.616703   -0.143793
  C      1.172212   -1.754689   -0.712357
  C      2.005963   -1.311007    0.496842
  C      0.769495   -0.759028    1.186994
  O      0.553506   -0.553174   -1.146742
  H      1.002623    1.919931   -0.176720
  H     -0.597582    1.840249   -0.930605
  H     -0.460767    1.983402    0.832243
  H     -1.844805   -0.285589    1.231200
  H     -1.950291   -1.046679   -0.395891
  H     -0.644797   -2.541870    1.748192
  H      1.645663   -2.248947   -1.558613
  H      2.472967   -2.149002    1.018362
  H      2.750354   -0.554606    0.240007
  H      0.837531   -0.298014    2.169042

 Total Charge           Charge          ....    0
 Multiplicity           Mult            ....    1
 Number of Electrons    NEL             ....   68
 Basis Dimension        Dim             ....  339

ORBITAL ENERGIES
----------------

  NO   OCC          E(Eh)            E(eV)
   0   2.0000     -20.556315      -559.3658
   1   2.0000     -20.555038      -559.3310
   2   2.0000     -11.328479      -308.2636
   3   2.0000     -11.290825      -307.2390
   4   2.0000     -11.284465      -307.0659
   5   2.0000     -11.238115      -305.8047
   6   2.0000     -11.226629      -305.4921
   7   2.0000     -11.221303      -305.3472
   8   2.0000     -11.219219      -305.2905
   9   2.0000      -1.432560       -38.9819
  10   2.0000      -1.334283       -36.3077
  11   2.0000      -1.123537       -30.5730
  12   2.0000      -1.042840       -28.3771
  13   2.0000      -0.983249       -26.7556
  14   2.0000      -0.892398       -24.2834
  15   2.0000      -0.835168       -22.7261
  16   2.0000      -0.816191       -22.2097
  17   2.0000      -0.738487       -20.0952
  18   2.0000      -0.697877       -18.9902
  19   2.0000      -0.673889       -18.3374
  20   2.0000      -0.647291       -17.6137
  21   2.0000      -0.607863       -16.5408
  22   2.0000      -0.592803       -16.1310
  23   2.0000      -0.581590       -15.8259
  24   2.0000      -0.563411       -15.3312
  25   2.0000      -0.548469       -14.9246
  26   2.0000      -0.530180       -14.4269
  27   2.0000      -0.520321       -14.1587
  28   2.0000      -0.514985       -14.0135
  29   2.0000      -0.488458       -13.2916
  30   2.0000      -0.462569       -12.5871
  31   2.0000      -0.432108       -11.7583
  32   2.0000      -0.409441       -11.1415
  33   2.0000      -0.404437       -11.0053
  34   0.0000       0.135380         3.6839
  35   0.0000       0.160883         4.3778
  36   0.0000       0.163715         4.4549
  37   0.0000       0.185182         5.0391
  38   0.0000       0.195222         5.3123

MULLIKEN ATOMIC CHARGES
-----------------------
   0 C :   -0.410409
   1 C :    0.213070
   2 C :   -0.247522
   3 C :    0.068010
   4 O :   -0.317196
   5 C :    0.134361
   6 C :   -0.255320
   7 C :   -0.134518
   8 O :   -0.316873
   9 H :    0.133946
  10 H :    0.144694
  11 H :    0.124269
  12 H :    0.108955
  13 H :    0.117570
  14 H :    0.121084
  15 H :    0.127640
  16 H :    0.126871
  17 H :    0.122228
  18 H :    0.139139
Sum of atomic charges:   -0.0000000

LOEWDIN ATOMIC CHARGES
----------------------
   0 C :   -0.272319
   1 C :   -0.302428
   2 C :   -0.188103
   3 C :   -0.236848
   4 O :    0.188906
   5 C :   -0.373232
   6 C :   -0.220131
   7 C :   -0.168163
   8 O :    0.209203
   9 H :    0.129679
  10 H :    0.133870
  11 H :    0.128641
  12 H :    0.140620
  13 H :    0.133454
  14 H :    0.128123
  15 H :    0.136398
  16 H :    0.142953
  17 H :    0.142640
  18 H :    0.146739

  Mayer bond orders larger than 0.1
B(  0-C ,  1-C ) :   0.8670 B(  0-C ,  9-H ) :   0.9379 B(  0-C , 10-H ) :   0.9409
B(  0-C , 11-H ) :   0.9387 B(  1-C ,  2-C ) :   0.9610 B(  1-C ,  7-C ) :   0.8802
B(  1-C ,  8-O ) :   0.8752 B(  2-C ,  3-C ) :   0.9510 B(  2-C , 12-H ) :   0.9214
B(  2-C , 13-H ) :   0.8958 B(  3-C ,  4-O ) :   0.8999 B(  3-C ,  7-C ) :   0.9146
B(  3-C , 14-H ) :   0.9278 B(  4-O ,  5-C ) :   0.9853 B(  5-C ,  6-C ) :   0.9663
B(  5-C ,  8-O ) :   0.9910 B(  5-C , 15-H ) :   0.9268 B(  6-C ,  7-C ) :   0.9530
B(  6-C , 16-H ) :   0.9205 B(  6-C , 17-H ) :   0.9201 B(  7-C , 18-H ) :   0.9087

MP2 TOTAL ENERGY:     -422.335266870 Eh
FINAL SINGLE POINT ENERGY      -422.335266870193

DIPOLE MOMENT
-------------
                                X             Y             Z
Electronic contribution:      0.38973      -4.75626      -2.25433
Nuclear contribution   :     -0.18559       5.20102       3.01659
                        -----------------------------------------
Total Dipole Moment    :      0.20414       0.44476       0.76226
                        -----------------------------------------
Magnitude (a.u.)       :      0.90583
Magnitude (Debye)      :      2.30244

                             ****ORCA TERMINATED NORMALLY****
TOTAL RUN TIME: 0 days 0 hours 18 minutes 33 seconds 606 msec
