                         Program Version 3.0.3 - RELEASE   -
|  1> ! RI-MP2 RIJK def2-TZVP def2-TZVP/C def2-TZVP/JK TIGHTSCF
|  2> % maxcore 2000
|  3> % mp2 density relaxed end
|  4> *xyz 0 1
|  5>  O        0.0397282154     1.3971448785     0.0364095523
|  6>  C        0.0007044252    -0.0163412984     0.0216287459
|  7>  C       -1.4064092772    -0.6047012170    -0.2053131808
|  8>  C       -1.5919330462    -0.2722092317    -1.6960975405
|  9>  O       -0.2611933390    -0.3034916299    -2.2616772731
| 10>  C        0.6662229483    -0.6083876438    -1.2264128037
| 11>  O        0.8922665925    -1.9890115753    -1.0744820821
| 12>  C       -0.3085529656    -2.7523631754    -0.9532834040
| 13>  C       -1.3154199229    -2.1269830636     0.0257890747
| 14>  H       -0.0577309997     1.7036574426    -0.8723720387
| 15>  H        0.4676392349    -0.3609443588     0.9458922157
| 16>  H       -2.1636575242    -0.1367746401     0.4268532184
| 17>  H       -2.2244613982    -0.9925507351    -2.2257451357
| 18>  H       -2.0166673082     0.7277639585    -1.8424604330
| 19>  H        1.6283497532    -0.1638842920    -1.4889083888
| 20>  H       -0.7674880431    -2.8610295232    -1.9452326151
| 21>  H        0.0025328058    -3.7459721307    -0.6216011851
| 22>  H       -1.0048560839    -2.3165470084     1.0594010231
| 23>  H       -2.2927092371    -2.6038712363    -0.1115698193
| 24> *
| 25>
| 26>                          ****END OF INPUT****

CARTESIAN COORDINATES (ANGSTROEM)
---------------------------------
  O      0.039728    1.397145    0.036410
  C      0.000704   -0.016341    0.021629
  C     -1.406409   -0.604701   -0.205313
  C     -1.591933   -0.272209   -1.696098
  O     -0.261193   -0.303492   -2.261677
  C      0.666223   -0.608388   -1.226413
  O      0.892267   -1.989012   -1.074482
  C     -0.308553   -2.752363   -0.953283
  C     -1.315420   -2.126983    0.025789
  H     -0.057731    1.703657   -0.872372
  H      0.467639   -0.360944    0.945892
  H     -2.163658   -0.136775    0.426853
  H     -2.224461   -0.992551   -2.225745
  H     -2.016667    0.727764   -1.842460
  H      1.628350   -0.163884   -1.488908
  H     -0.767488   -2.861030   -1.945233
  H      0.002533   -3.745972   -0.621601
  H     -1.004856   -2.316547    1.059401
  H     -2.292709   -2.603871   -0.111570

 Total Charge           Charge          ....    0
 Multiplicity           Mult            ....    1
 Number of Electrons    NEL             ....   70
 Basis Dimension        Dim             ....  339

ORBITAL ENERGIES
----------------

  NO   OCC          E(Eh)            E(eV)
   0   2.0000     -20.568021      -559.6843
   1   2.0000     -20.564178      -559.5797
   2   2.0000     -20.562806      -559.5424
   3   2.0000     -11.332753      -308.3799
   4   2.0000     -11.286668      -307.1258
   5   2.0000     -11.284731      -307.0731
   6   2.0000     -11.281853      -306.9948
   7   2.0000     -11.242434      -305.9222
   8   2.0000     -11.238049      -305.8029
   9   2.0000      -1.428319       -38.8665
  10   2.0000      -1.370374       -37.2898
  11   2.0000      -1.346729       -36.6464
  12   2.0000      -1.099194       -29.9106
  13   2.0000      -1.018794       -27.7228
  14   2.0000      -0.964222       -26.2378
  15   2.0000      -0.871872       -23.7249
  16   2.0000      -0.816652       -22.2222
  17   2.0000      -0.792274       -21.5589
  18   2.0000      -0.733979       -19.9726
  19   2.0000      -0.714406       -19.4400
  20   2.0000      -0.656507       -17.8645
  21   2.0000      -0.637883       -17.3577
  22   2.0000      -0.625647       -17.0247
  23   2.0000      -0.609932       -16.5971
  24   2.0000      -0.593938       -16.1619
  25   2.0000      -0.581340       -15.8191
  26   2.0000      -0.569009       -15.4835
  27   2.0000      -0.557640       -15.1742
  28   2.0000      -0.525670       -14.3042
  29   2.0000      -0.501417       -13.6443
  30   2.0000      -0.482302       -13.1241
  31   2.0000      -0.472089       -12.8462
  32   2.0000      -0.453506       -12.3405
  33   2.0000      -0.442675       -12.0458
  34   2.0000      -0.406680       -11.0663
  35   0.0000       0.131172         3.5694
  36   0.0000       0.152023         4.1368
  37   0.0000       0.161264         4.3882
  38   0.0000       0.172795         4.7020
  39   0.0000       0.191962         5.2235

MULLIKEN ATOMIC CHARGES
-----------------------
   0 O :   -0.463774
   1 C :   -0.004519
   2 C :    0.037380
   3 C :   -0.155559
   4 O :   -0.329230
   5 C :    0.175925
   6 O :   -0.308215
   7 C :   -0.083327
   8 C :   -0.303378
   9 H :    0.327908
  10 H :    0.119606
  11 H :    0.123850
  12 H :    0.118299
  13 H :    0.125037
  14 H :    0.122021
  15 H :    0.113923
  16 H :    0.132786
  17 H :    0.120944
  18 H :    0.130323
Sum of atomic charges:    0.0000000

LOEWDIN ATOMIC CHARGES
----------------------
   0 O :   -0.003792
   1 C :   -0.307520
   2 C :   -0.238047
   3 C :   -0.271622
   4 O :    0.158500
   5 C :   -0.389099
   6 O :    0.177209
   7 C :   -0.301202
   8 C :   -0.242322
   9 H :    0.180318
  10 H :    0.149136
  11 H :    0.153942
  12 H :    0.127678
  13 H :    0.123063
  14 H :    0.140957
  15 H :    0.126230
  16 H :    0.131451
  17 H :    0.142200
  18 H :    0.142920

  Mayer bond orders larger than 0.1
B(  0-O ,  1-C ) :   0.9578 B(  0-O ,  9-H ) :   0.8310 B(  1-C ,  2-C ) :   0.8555
B(  1-C ,  5-C ) :   0.9783 B(  1-C , 10-H ) :   0.9333 B(  2-C ,  3-C ) :   0.9045
B(  2-C ,  8-C ) :   0.8852 B(  2-C , 11-H ) :   0.9173 B(  3-C ,  4-O ) :   0.8993
B(  3-C , 12-H ) :   0.9249 B(  3-C , 13-H ) :   0.9327 B(  4-O ,  5-C ) :   0.9440
B(  5-C ,  6-O ) :   0.9803 B(  5-C , 14-H ) :   0.9305 B(  6-O ,  7-C ) :   0.9153
B(  7-C ,  8-C ) :   0.9497 B(  7-C , 15-H ) :   0.9388 B(  7-C , 16-H ) :   0.9265
B(  8-C , 17-H ) :   0.9249 B(  8-C , 18-H ) :   0.9198

MP2 TOTAL ENERGY:     -459.451519039 Eh
FINAL SINGLE POINT ENERGY      -459.451519039496

DIPOLE MOMENT
-------------
                                X             Y             Z
Electronic contribution:      3.76603       2.39534      -1.37335
Nuclear contribution   :     -4.61897      -2.72529       1.50837
                        -----------------------------------------
Total Dipole Moment    :     -0.85294      -0.32995       0.13503
                        -----------------------------------------
Magnitude (a.u.)       :      0.92445
Magnitude (Debye)      :      2.34977

                             ****ORCA TERMINATED NORMALLY****
TOTAL RUN TIME: 0 days 0 hours 17 minutes 41 seconds 926 msec
