                         Program Version 3.0.3 - RELEASE   -
|  1> ! RI-MP2 RIJK def2-TZVP def2-TZVP/C def2-TZVP/JK TIGHTSCF
|  2> % maxcore 2000
|  3> % mp2 density relaxed end
|  4> *xyz 0 1
|  5>  C        0.1492490332     1.1250926636    -0.3695329816
|  6>  O       -0.0937550148    -0.1445120293     0.2495521089
|  7>  C       -1.3902763477    -0.6149017507     0.1038889030
|  8>  C       -2.4040502693     0.0331513745     0.8972909236
|  9>  N       -3.2328968891     0.5609929621     1.5090531980
| 10>  C       -1.7986787616    -1.2423905002    -1.2564421757
| 11>  O       -0.8946824693    -1.1795431783    -2.2963609420
| 12>  C       -1.4450025647    -2.1296842215    -0.0947222417
| 13>  O       -0.2115140626    -2.7679878660    -0.2030911715
| 14>  H        1.2009142748     1.3537244833    -0.1896491805
| 15>  H       -0.0463375255     1.0711360094    -1.4437629522
| 16>  H       -0.4733358724     1.9016958474     0.0895138532
| 17>  H       -2.8361034966    -1.1303905864    -1.5557301117
| 18>  H       -0.2318674509    -1.8640936938    -2.1122148305
| 19>  H       -2.2063242175    -2.7019114293     0.4256847218
| 20>  H        0.4500336342    -2.1712211649     0.1772918891
| 21> *
| 22>
| 23>                          ****END OF INPUT****

CARTESIAN COORDINATES (ANGSTROEM)
---------------------------------
  C      0.149249    1.125093   -0.369533
  O     -0.093755   -0.144512    0.249552
  C     -1.390276   -0.614902    0.103889
  C     -2.404050    0.033151    0.897291
  N     -3.232897    0.560993    1.509053
  C     -1.798679   -1.242391   -1.256442
  O     -0.894682   -1.179543   -2.296361
  C     -1.445003   -2.129684   -0.094722
  O     -0.211514   -2.767988   -0.203091
  H      1.200914    1.353724   -0.189649
  H     -0.046338    1.071136   -1.443763
  H     -0.473336    1.901696    0.089514
  H     -2.836103   -1.130391   -1.555730
  H     -0.231867   -1.864094   -2.112215
  H     -2.206324   -2.701911    0.425685
  H      0.450034   -2.171221    0.177292

 Total Charge           Charge          ....    0
 Multiplicity           Mult            ....    1
 Number of Electrons    NEL             ....   68
 Basis Dimension        Dim             ....  321

ORBITAL ENERGIES
----------------

  NO   OCC          E(Eh)            E(eV)
   0   2.0000     -20.607514      -560.7590
   1   2.0000     -20.599752      -560.5477
   2   2.0000     -20.590137      -560.2861
   3   2.0000     -15.586548      -424.1315
   4   2.0000     -11.347242      -308.7742
   5   2.0000     -11.326618      -308.2129
   6   2.0000     -11.324281      -308.1494
   7   2.0000     -11.294329      -307.3343
   8   2.0000     -11.286899      -307.1321
   9   2.0000      -1.448910       -39.4269
  10   2.0000      -1.407216       -38.2923
  11   2.0000      -1.390783       -37.8451
  12   2.0000      -1.231884       -33.5213
  13   2.0000      -1.147266       -31.2187
  14   2.0000      -0.971122       -26.4256
  15   2.0000      -0.902995       -24.5717
  16   2.0000      -0.861950       -23.4548
  17   2.0000      -0.793666       -21.5967
  18   2.0000      -0.742573       -20.2064
  19   2.0000      -0.720637       -19.6095
  20   2.0000      -0.678268       -18.4566
  21   2.0000      -0.671654       -18.2766
  22   2.0000      -0.636580       -17.3222
  23   2.0000      -0.617020       -16.7900
  24   2.0000      -0.609256       -16.5787
  25   2.0000      -0.574501       -15.6330
  26   2.0000      -0.567423       -15.4404
  27   2.0000      -0.546954       -14.8834
  28   2.0000      -0.535180       -14.5630
  29   2.0000      -0.514744       -14.0069
  30   2.0000      -0.502439       -13.6721
  31   2.0000      -0.479706       -13.0535
  32   2.0000      -0.434800       -11.8315
  33   2.0000      -0.399789       -10.8788
  34   0.0000       0.121444         3.3047
  35   0.0000       0.140625         3.8266
  36   0.0000       0.156075         4.2470
  37   0.0000       0.166220         4.5231
  38   0.0000       0.175195         4.7673

MULLIKEN ATOMIC CHARGES
-----------------------
   0 C :   -0.232340
   1 O :   -0.334627
   2 C :    0.282125
   3 C :   -0.265096
   4 N :   -0.052497
   5 C :    0.046084
   6 O :   -0.453964
   7 C :    0.047336
   8 O :   -0.491759
   9 H :    0.144538
  10 H :    0.159807
  11 H :    0.142985
  12 H :    0.152624
  13 H :    0.343657
  14 H :    0.151180
  15 H :    0.359949
Sum of atomic charges:   -0.0000000

LOEWDIN ATOMIC CHARGES
----------------------
   0 C :   -0.311642
   1 O :    0.193497
   2 C :   -0.331195
   3 C :   -0.155021
   4 N :    0.077920
   5 C :   -0.275026
   6 O :    0.028171
   7 C :   -0.265707
   8 O :    0.014343
   9 H :    0.116752
  10 H :    0.115099
  11 H :    0.113754
  12 H :    0.148659
  13 H :    0.190463
  14 H :    0.147087
  15 H :    0.192846

  Mayer bond orders larger than 0.1
B(  0-C ,  1-O ) :   0.8526 B(  0-C ,  9-H ) :   0.9355 B(  0-C , 10-H ) :   0.9304
B(  0-C , 11-H ) :   0.9325 B(  1-O ,  2-C ) :   0.9718 B(  2-C ,  3-C ) :   0.8746
B(  2-C ,  5-C ) :   0.8044 B(  2-C ,  7-C ) :   0.8489 B(  3-C ,  4-N ) :   2.8386
B(  5-C ,  6-O ) :   0.9669 B(  5-C ,  7-C ) :   0.8840 B(  5-C , 12-H ) :   0.9236
B(  6-O , 13-H ) :   0.8024 B(  7-C ,  8-O ) :   0.9335 B(  7-C , 14-H ) :   0.9307
B(  8-O , 15-H ) :   0.8025

MP2 TOTAL ENERGY:     -474.242115795 Eh
FINAL SINGLE POINT ENERGY      -474.242115795350

DIPOLE MOMENT
-------------
                                X             Y             Z
Electronic contribution:     -2.94165      -1.70136       2.41366
Nuclear contribution   :      3.83669       1.49715      -2.90638
                        -----------------------------------------
Total Dipole Moment    :      0.89504      -0.20421      -0.49272
                        -----------------------------------------
Magnitude (a.u.)       :      1.04190
Magnitude (Debye)      :      2.64831

                             ****ORCA TERMINATED NORMALLY****
TOTAL RUN TIME: 0 days 0 hours 16 minutes 0 seconds 823 msec
