                         Program Version 3.0.3 - RELEASE   -
|  1> ! RI-MP2 RIJK def2-TZVP def2-TZVP/C def2-TZVP/JK TIGHTSCF
|  2> % maxcore 2000
|  3> % mp2 density relaxed end
|  4> *xyz 0 1
|  5>  O       -0.1911834880     1.2916115829    -0.1635681010
|  6>  C       -0.0702516769    -0.0676913734    -0.0441572184
|  7>  C       -0.3563924944    -1.0062631140    -1.1487546312
|  8>  C       -1.3207770880    -1.0228422304     0.0452346302
|  9>  C       -0.9832393120    -2.0118009566     1.1406079579
| 10>  O        0.4251952789    -1.8893789894     1.3524785141
| 11>  C        0.8232393666    -0.5523780151     1.0820882126
| 12>  C       -2.6052572810    -0.3437852529    -0.0727480898
| 13>  O       -2.8102806191     0.5690152602    -0.8574881656
| 14>  H       -0.9945392477     1.4680725874    -0.6832103852
| 15>  H       -0.7624811814    -0.5790207103    -2.0593913666
| 16>  H        0.2597998184    -1.8919677132    -1.2674337761
| 17>  H       -1.5501405977    -1.7762351361     2.0559883834
| 18>  H       -1.1680767378    -3.0589931272     0.8794759601
| 19>  H        1.8859398125    -0.5762946759     0.8226849940
| 20>  H        0.6826863951     0.1137715838     1.9468169391
| 21>  H       -3.3962207476    -0.6576334000     0.6399109125
| 22> *
| 23>
| 24>                          ****END OF INPUT****

CARTESIAN COORDINATES (ANGSTROEM)
---------------------------------
  O     -0.191183    1.291612   -0.163568
  C     -0.070252   -0.067691   -0.044157
  C     -0.356392   -1.006263   -1.148755
  C     -1.320777   -1.022842    0.045235
  C     -0.983239   -2.011801    1.140608
  O      0.425195   -1.889379    1.352479
  C      0.823239   -0.552378    1.082088
  C     -2.605257   -0.343785   -0.072748
  O     -2.810281    0.569015   -0.857488
  H     -0.994539    1.468073   -0.683210
  H     -0.762481   -0.579021   -2.059391
  H      0.259800   -1.891968   -1.267434
  H     -1.550141   -1.776235    2.055988
  H     -1.168077   -3.058993    0.879476
  H      1.885940   -0.576295    0.822685
  H      0.682686    0.113772    1.946817
  H     -3.396221   -0.657633    0.639911

 Total Charge           Charge          ....    0
 Multiplicity           Mult            ....    1
 Number of Electrons    NEL             ....   68
 Basis Dimension        Dim             ....  327

ORBITAL ENERGIES
----------------

  NO   OCC          E(Eh)            E(eV)
   0   2.0000     -20.576347      -559.9109
   1   2.0000     -20.573095      -559.8224
   2   2.0000     -20.564053      -559.5763
   3   2.0000     -11.350234      -308.8556
   4   2.0000     -11.321259      -308.0671
   5   2.0000     -11.299538      -307.4761
   6   2.0000     -11.291967      -307.2700
   7   2.0000     -11.256270      -306.2987
   8   2.0000     -11.253842      -306.2326
   9   2.0000      -1.415309       -38.5125
  10   2.0000      -1.397551       -38.0293
  11   2.0000      -1.384878       -37.6845
  12   2.0000      -1.160668       -31.5834
  13   2.0000      -1.021014       -27.7832
  14   2.0000      -0.940359       -25.5885
  15   2.0000      -0.898035       -24.4368
  16   2.0000      -0.799501       -21.7555
  17   2.0000      -0.786088       -21.3905
  18   2.0000      -0.729827       -19.8596
  19   2.0000      -0.689332       -18.7577
  20   2.0000      -0.677766       -18.4429
  21   2.0000      -0.665464       -18.1082
  22   2.0000      -0.631245       -17.1771
  23   2.0000      -0.619424       -16.8554
  24   2.0000      -0.597826       -16.2677
  25   2.0000      -0.591496       -16.0954
  26   2.0000      -0.564562       -15.3625
  27   2.0000      -0.554888       -15.0993
  28   2.0000      -0.535237       -14.5645
  29   2.0000      -0.501392       -13.6436
  30   2.0000      -0.454695       -12.3729
  31   2.0000      -0.445434       -12.1209
  32   2.0000      -0.432248       -11.7621
  33   2.0000      -0.380203       -10.3459
  34   0.0000       0.102702         2.7947
  35   0.0000       0.139214         3.7882
  36   0.0000       0.159928         4.3519
  37   0.0000       0.177572         4.8320
  38   0.0000       0.185752         5.0546

MULLIKEN ATOMIC CHARGES
-----------------------
   0 O :   -0.427957
   1 C :    0.134401
   2 C :   -0.252098
   3 C :   -0.057737
   4 C :   -0.025634
   5 O :   -0.319321
   6 C :   -0.042916
   7 C :    0.114469
   8 O :   -0.350302
   9 H :    0.347663
  10 H :    0.159193
  11 H :    0.154448
  12 H :    0.100713
  13 H :    0.126007
  14 H :    0.127545
  15 H :    0.111116
  16 H :    0.100410
Sum of atomic charges:    0.0000000

LOEWDIN ATOMIC CHARGES
----------------------
   0 O :    0.062883
   1 C :   -0.322114
   2 C :   -0.144593
   3 C :   -0.218760
   4 C :   -0.257115
   5 O :    0.156359
   6 C :   -0.253039
   7 C :   -0.264330
   8 O :    0.091748
   9 H :    0.192957
  10 H :    0.151235
  11 H :    0.150281
  12 H :    0.129042
  13 H :    0.132649
  14 H :    0.136580
  15 H :    0.133033
  16 H :    0.123183

  Mayer bond orders larger than 0.1
B(  0-O ,  1-C ) :   1.1301 B(  0-O ,  9-H ) :   0.7880 B(  1-C ,  2-C ) :   0.9486
B(  1-C ,  3-C ) :   0.7213 B(  1-C ,  6-C ) :   0.9432 B(  2-C ,  3-C ) :   0.8050
B(  2-C , 10-H ) :   0.9121 B(  2-C , 11-H ) :   0.8987 B(  3-C ,  4-C ) :   0.9329
B(  3-C ,  7-C ) :   0.9586 B(  4-C ,  5-O ) :   0.9239 B(  4-C , 12-H ) :   0.9187
B(  4-C , 13-H ) :   0.9207 B(  5-O ,  6-C ) :   0.9279 B(  6-C , 14-H ) :   0.9214
B(  6-C , 15-H ) :   0.9202 B(  7-C ,  8-O ) :   1.8092 B(  7-C , 16-H ) :   0.9514

MP2 TOTAL ENERGY:     -458.227505800 Eh
FINAL SINGLE POINT ENERGY      -458.227505800316

DIPOLE MOMENT
-------------
                                X             Y             Z
Electronic contribution:     -1.27679       1.92818      -0.90713
Nuclear contribution   :      1.15270      -2.54608       1.03493
                        -----------------------------------------
Total Dipole Moment    :     -0.12409      -0.61790       0.12780
                        -----------------------------------------
Magnitude (a.u.)       :      0.64307
Magnitude (Debye)      :      1.63455

                             ****ORCA TERMINATED NORMALLY****
TOTAL RUN TIME: 0 days 0 hours 18 minutes 30 seconds 855 msec
