                         Program Version 3.0.3 - RELEASE   -
|  1> ! RI-MP2 RIJK def2-TZVP def2-TZVP/C def2-TZVP/JK TIGHTSCF
|  2> % maxcore 2000
|  3> % mp2 density relaxed end
|  4> *xyz 0 1
|  5>  C       -0.4165477642     1.6550029026    -0.4363474121
|  6>  O       -0.5769660217     0.2582062071    -0.5340450811
|  7>  C        0.5039958754    -0.4472405437    -1.1172758021
|  8>  C        0.6503033792    -0.1254432603    -2.6048955997
|  9>  C        1.8546360562    -0.4229967961    -0.3392422862
| 10>  C        1.9338144143    -1.9665944857    -0.4954690488
| 11>  C        2.4660844891    -2.7893462635     0.6693223680
| 12>  C        0.4050772315    -1.9830680617    -0.8432204568
| 13>  C       -0.5391789387    -2.3741762405     0.2899461797
| 14>  H        0.5173402155     1.9277658856     0.0771966456
| 15>  H       -0.4289130491     2.1539122568    -1.4160755838
| 16>  H       -1.2585832011     2.0307826049     0.1508740545
| 17>  H        0.9423000427     0.9164231115    -2.7716672721
| 18>  H        1.4175539800    -0.7561060417    -3.0644623160
| 19>  H       -0.2973931971    -0.3066661093    -3.1222885546
| 20>  H        2.6730891663     0.1749171282    -0.7498432545
| 21>  H        1.6943956702    -0.1355016328     0.7046046239
| 22>  H        2.5088633622    -2.2153716158    -1.3938947981
| 23>  H        1.9236510643    -2.5787909438     1.5962456047
| 24>  H        2.3852635591    -3.8643141373     0.4722997175
| 25>  H        3.5239237249    -2.5654658678     0.8477586038
| 26>  H        0.1548792827    -2.5689966677    -1.7343390602
| 27>  H       -0.3472192278    -1.8068061425     1.2044995901
| 28>  H       -1.5768930272    -2.1814644538     0.0052614046
| 29>  H       -0.4404185769    -3.4398271627     0.5222878540
| 30> *
| 31>
| 32>                          ****END OF INPUT****

CARTESIAN COORDINATES (ANGSTROEM)
---------------------------------
  C     -0.416548    1.655003   -0.436347
  O     -0.576966    0.258206   -0.534045
  C      0.503996   -0.447241   -1.117276
  C      0.650303   -0.125443   -2.604896
  C      1.854636   -0.422997   -0.339242
  C      1.933814   -1.966594   -0.495469
  C      2.466084   -2.789346    0.669322
  C      0.405077   -1.983068   -0.843220
  C     -0.539179   -2.374176    0.289946
  H      0.517340    1.927766    0.077197
  H     -0.428913    2.153912   -1.416076
  H     -1.258583    2.030783    0.150874
  H      0.942300    0.916423   -2.771667
  H      1.417554   -0.756106   -3.064462
  H     -0.297393   -0.306666   -3.122289
  H      2.673089    0.174917   -0.749843
  H      1.694396   -0.135502    0.704605
  H      2.508863   -2.215372   -1.393895
  H      1.923651   -2.578791    1.596246
  H      2.385264   -3.864314    0.472300
  H      3.523924   -2.565466    0.847759
  H      0.154879   -2.568997   -1.734339
  H     -0.347219   -1.806806    1.204500
  H     -1.576893   -2.181464    0.005261
  H     -0.440419   -3.439827    0.522288

 Total Charge           Charge          ....    0
 Multiplicity           Mult            ....    1
 Number of Electrons    NEL             ....   72
 Basis Dimension        Dim             ....  375

ORBITAL ENERGIES
----------------

  NO   OCC          E(Eh)            E(eV)
   0   2.0000     -20.545441      -559.0699
   1   2.0000     -11.276917      -306.8605
   2   2.0000     -11.265137      -306.5400
   3   2.0000     -11.222666      -305.3843
   4   2.0000     -11.217513      -305.2440
   5   2.0000     -11.212824      -305.1164
   6   2.0000     -11.212145      -305.0980
   7   2.0000     -11.209558      -305.0276
   8   2.0000     -11.202103      -304.8247
   9   2.0000      -1.368259       -37.2322
  10   2.0000      -1.132924       -30.8284
  11   2.0000      -1.002480       -27.2789
  12   2.0000      -0.978839       -26.6356
  13   2.0000      -0.932860       -25.3844
  14   2.0000      -0.923108       -25.1190
  15   2.0000      -0.846923       -23.0459
  16   2.0000      -0.787822       -21.4377
  17   2.0000      -0.706079       -19.2134
  18   2.0000      -0.662452       -18.0262
  19   2.0000      -0.647506       -17.6195
  20   2.0000      -0.634854       -17.2753
  21   2.0000      -0.627358       -17.0713
  22   2.0000      -0.573695       -15.6110
  23   2.0000      -0.568367       -15.4660
  24   2.0000      -0.550755       -14.9868
  25   2.0000      -0.546877       -14.8813
  26   2.0000      -0.537364       -14.6224
  27   2.0000      -0.530640       -14.4394
  28   2.0000      -0.526037       -14.3142
  29   2.0000      -0.508641       -13.8408
  30   2.0000      -0.488389       -13.2897
  31   2.0000      -0.459359       -12.4998
  32   2.0000      -0.443393       -12.0653
  33   2.0000      -0.428584       -11.6624
  34   2.0000      -0.411856       -11.2072
  35   2.0000      -0.392021       -10.6674
  36   0.0000       0.130733         3.5574
  37   0.0000       0.150552         4.0967
  38   0.0000       0.158107         4.3023
  39   0.0000       0.177447         4.8286
  40   0.0000       0.193077         5.2539

MULLIKEN ATOMIC CHARGES
-----------------------
   0 C :   -0.228893
   1 O :   -0.303059
   2 C :    0.277730
   3 C :   -0.469754
   4 C :   -0.325943
   5 C :   -0.019960
   6 C :   -0.433862
   7 C :   -0.056542
   8 C :   -0.440308
   9 H :    0.112584
  10 H :    0.115025
  11 H :    0.140728
  12 H :    0.130486
  13 H :    0.134898
  14 H :    0.137790
  15 H :    0.119669
  16 H :    0.119550
  17 H :    0.099712
  18 H :    0.127052
  19 H :    0.131130
  20 H :    0.132557
  21 H :    0.101572
  22 H :    0.127794
  23 H :    0.139717
  24 H :    0.130328
Sum of atomic charges:    0.0000000

LOEWDIN ATOMIC CHARGES
----------------------
   0 C :   -0.356635
   1 O :    0.180939
   2 C :   -0.341465
   3 C :   -0.274137
   4 C :   -0.190982
   5 C :   -0.235139
   6 C :   -0.301555
   7 C :   -0.192626
   8 C :   -0.293862
   9 H :    0.103546
  10 H :    0.101300
  11 H :    0.113302
  12 H :    0.123052
  13 H :    0.130592
  14 H :    0.129074
  15 H :    0.125703
  16 H :    0.141858
  17 H :    0.147389
  18 H :    0.123368
  19 H :    0.123910
  20 H :    0.124719
  21 H :    0.142576
  22 H :    0.124433
  23 H :    0.127873
  24 H :    0.122765

  Mayer bond orders larger than 0.1
B(  0-C ,  1-O ) :   0.9119 B(  0-C ,  9-H ) :   0.9318 B(  0-C , 10-H ) :   0.9336
B(  0-C , 11-H ) :   0.9423 B(  1-O ,  2-C ) :   0.9931 B(  2-C ,  3-C ) :   0.9012
B(  2-C ,  4-C ) :   0.9012 B(  2-C ,  7-C ) :   0.8549 B(  3-C , 12-H ) :   0.9344
B(  3-C , 13-H ) :   0.9294 B(  3-C , 14-H ) :   0.9454 B(  4-C ,  5-C ) :   0.9620
B(  4-C , 15-H ) :   0.9207 B(  4-C , 16-H ) :   0.9084 B(  5-C ,  6-C ) :   0.8583
B(  5-C ,  7-C ) :   0.9241 B(  5-C , 17-H ) :   0.9297 B(  6-C , 18-H ) :   0.9426
B(  6-C , 19-H ) :   0.9436 B(  6-C , 20-H ) :   0.9404 B(  7-C ,  8-C ) :   0.8926
B(  7-C , 21-H ) :   0.9238 B(  8-C , 22-H ) :   0.9389 B(  8-C , 23-H ) :   0.9347
B(  8-C , 24-H ) :   0.9384

MP2 TOTAL ENERGY:     -388.806318777 Eh
FINAL SINGLE POINT ENERGY      -388.806318776695

DIPOLE MOMENT
-------------
                                X             Y             Z
Electronic contribution:     -2.04348       1.26363      -0.89677
Nuclear contribution   :      2.40176      -1.05828       0.74733
                        -----------------------------------------
Total Dipole Moment    :      0.35828       0.20535      -0.14944
                        -----------------------------------------
Magnitude (a.u.)       :      0.43916
Magnitude (Debye)      :      1.11627

                             ****ORCA TERMINATED NORMALLY****
TOTAL RUN TIME: 0 days 0 hours 22 minutes 33 seconds 179 msec
