                         Program Version 3.0.3 - RELEASE   -
|  1> ! RI-MP2 RIJK def2-TZVP def2-TZVP/C def2-TZVP/JK TIGHTSCF
|  2> % maxcore 2000
|  3> % mp2 density relaxed end
|  4> *xyz 0 1
|  5>  O       -0.0318686221    -0.0420338390     0.0572455515
|  6>  C        0.0361340178     1.1626268644     0.0055286813
|  7>  C        1.3120139470     1.9299331131     0.0033913841
|  8>  C        2.7553075988     1.3935605265     0.0625752220
|  9>  C        2.9083488401     2.9322624561    -0.0018141606
| 10>  C        1.7537313870     3.0184815315    -1.0673618096
| 11>  C        0.9665884471     4.2879710252    -0.7775186163
| 12>  C        0.9338970426     4.3469717795     0.5551338392
| 13>  C        1.7031222348     3.1096866010     0.9941101114
| 14>  H       -0.8819350637     1.7900002605    -0.0453142372
| 15>  H        3.0544122967     0.9056828747     0.9932096323
| 16>  H        3.0985667012     0.8259974803    -0.8055296835
| 17>  H        3.8298629354     3.5199000361    -0.0051964093
| 18>  H        1.9361269936     2.6979578397    -2.0935688319
| 19>  H        0.5488578842     4.9626419078    -1.5111402617
| 20>  H        0.4822385079     5.0828810553     1.2049931744
| 21>  H        1.8343504117     2.8814417973     2.0523131339
| 22> *
| 23>
| 24>                          ****END OF INPUT****

CARTESIAN COORDINATES (ANGSTROEM)
---------------------------------
  O     -0.031869   -0.042034    0.057246
  C      0.036134    1.162627    0.005529
  C      1.312014    1.929933    0.003391
  C      2.755308    1.393561    0.062575
  C      2.908349    2.932262   -0.001814
  C      1.753731    3.018482   -1.067362
  C      0.966588    4.287971   -0.777519
  C      0.933897    4.346972    0.555134
  C      1.703122    3.109687    0.994110
  H     -0.881935    1.790000   -0.045314
  H      3.054412    0.905683    0.993210
  H      3.098567    0.825997   -0.805530
  H      3.829863    3.519900   -0.005196
  H      1.936127    2.697958   -2.093569
  H      0.548858    4.962642   -1.511140
  H      0.482239    5.082881    1.204993
  H      1.834350    2.881442    2.052313

 Total Charge           Charge          ....    0
 Multiplicity           Mult            ....    1
 Number of Electrons    NEL             ....   64
 Basis Dimension        Dim             ....  327

ORBITAL ENERGIES
----------------

  NO   OCC          E(Eh)            E(eV)
   0   2.0000     -20.555688      -559.3487
   1   2.0000     -11.327854      -308.2466
   2   2.0000     -11.263235      -306.4882
   3   2.0000     -11.258921      -306.3708
   4   2.0000     -11.258743      -306.3660
   5   2.0000     -11.258082      -306.3480
   6   2.0000     -11.237882      -305.7983
   7   2.0000     -11.236157      -305.7514
   8   2.0000     -11.235554      -305.7350
   9   2.0000      -1.391469       -37.8638
  10   2.0000      -1.245294       -33.8862
  11   2.0000      -1.067253       -29.0414
  12   2.0000      -0.941487       -25.6192
  13   2.0000      -0.937456       -25.5095
  14   2.0000      -0.885447       -24.0942
  15   2.0000      -0.795715       -21.6525
  16   2.0000      -0.750802       -20.4304
  17   2.0000      -0.729723       -19.8568
  18   2.0000      -0.701967       -19.1015
  19   2.0000      -0.680010       -18.5040
  20   2.0000      -0.648194       -17.6383
  21   2.0000      -0.589649       -16.0452
  22   2.0000      -0.559085       -15.2135
  23   2.0000      -0.540441       -14.7061
  24   2.0000      -0.529295       -14.4029
  25   2.0000      -0.504081       -13.7168
  26   2.0000      -0.494726       -13.4622
  27   2.0000      -0.475134       -12.9291
  28   2.0000      -0.454634       -12.3712
  29   2.0000      -0.441941       -12.0258
  30   2.0000      -0.415645       -11.3103
  31   2.0000      -0.337014        -9.1706
  32   0.0000       0.111278         3.0280
  33   0.0000       0.129139         3.5140
  34   0.0000       0.147634         4.0173
  35   0.0000       0.168033         4.5724
  36   0.0000       0.170699         4.6450

MULLIKEN ATOMIC CHARGES
-----------------------
   0 O :   -0.256188
   1 C :    0.011355
   2 C :    0.083480
   3 C :   -0.201313
   4 C :   -0.128052
   5 C :   -0.033804
   6 C :   -0.229170
   7 C :   -0.229118
   8 C :   -0.033762
   9 H :    0.092890
  10 H :    0.123109
  11 H :    0.123107
  12 H :    0.133152
  13 H :    0.133398
  14 H :    0.138758
  15 H :    0.138762
  16 H :    0.133395
Sum of atomic charges:    0.0000000

LOEWDIN ATOMIC CHARGES
----------------------
   0 O :    0.138321
   1 C :   -0.258965
   2 C :   -0.160933
   3 C :   -0.170040
   4 C :   -0.119386
   5 C :   -0.115876
   6 C :   -0.133496
   7 C :   -0.133480
   8 C :   -0.115901
   9 H :    0.118748
  10 H :    0.133401
  11 H :    0.133399
  12 H :    0.127059
  13 H :    0.142490
  14 H :    0.136083
  15 H :    0.136081
  16 H :    0.142494

  Mayer bond orders larger than 0.1
B(  0-O ,  1-C ) :   2.0277 B(  0-O ,  2-C ) :  -0.1167 B(  1-C ,  2-C ) :   0.7788
B(  1-C ,  9-H ) :   0.9780 B(  2-C ,  3-C ) :   0.8470 B(  2-C ,  5-C ) :   0.8268
B(  2-C ,  8-C ) :   0.8269 B(  2-C ,  9-H ) :  -0.1091 B(  3-C ,  4-C ) :   0.9127
B(  3-C , 10-H ) :   0.9311 B(  3-C , 11-H ) :   0.9311 B(  4-C ,  5-C ) :   0.8860
B(  4-C ,  8-C ) :   0.8861 B(  4-C , 12-H ) :   0.8874 B(  5-C ,  6-C ) :   0.9271
B(  5-C , 13-H ) :   0.9155 B(  6-C ,  7-C ) :   1.7647 B(  6-C , 14-H ) :   0.9313
B(  7-C ,  8-C ) :   0.9270 B(  7-C , 15-H ) :   0.9313 B(  8-C , 16-H ) :   0.9155

MP2 TOTAL ENERGY:     -383.958424844 Eh
FINAL SINGLE POINT ENERGY      -383.958424844175

DIPOLE MOMENT
-------------
                                X             Y             Z
Electronic contribution:     -2.53795      -2.19243       0.03480
Nuclear contribution   :      2.89864       3.20138      -0.07058
                        -----------------------------------------
Total Dipole Moment    :      0.36068       1.00895      -0.03579
                        -----------------------------------------
Magnitude (a.u.)       :      1.07208
Magnitude (Debye)      :      2.72501

                             ****ORCA TERMINATED NORMALLY****
TOTAL RUN TIME: 0 days 0 hours 18 minutes 8 seconds 622 msec
