                         Program Version 3.0.3 - RELEASE   -
|  1> ! RI-MP2 RIJK def2-TZVP def2-TZVP/C def2-TZVP/JK TIGHTSCF
|  2> % maxcore 2000
|  3> % mp2 density relaxed end
|  4> *xyz 0 1
|  5>  C        0.5421970691     1.2988896877    -0.1204226396
|  6>  O       -0.2180850977     0.1777508173     0.3117428553
|  7>  C        0.4601925375    -0.5892333448     1.2686438490
|  8>  C       -0.0901176802    -1.9209632991     1.6592955951
|  9>  C       -1.1189547511    -2.5671782649     0.7236616429
| 10>  C       -0.2723615840    -3.2762564636    -0.3570182631
| 11>  C        1.0360004791    -2.4583711883    -0.4903670653
| 12>  O        1.0051207636    -1.5244205658    -1.5623821085
| 13>  C        1.2385420539    -1.8337091968     0.9035302981
| 14>  H        1.4584100986     0.9816843887    -0.6339478703
| 15>  H       -0.0879350590     1.8635602972    -0.8114900609
| 16>  H        0.8076856053     1.9446263664     0.7282206264
| 17>  H        0.8822692491     0.0209834368     2.0684542095
| 18>  H       -0.1264419376    -2.1614054011     2.7161782218
| 19>  H       -1.7578803956    -3.2664187836     1.2683976400
| 20>  H       -1.7749245406    -1.8082374978     0.2858621669
| 21>  H       -0.0195477308    -4.2830594269    -0.0048452525
| 22>  H       -0.7720992791    -3.3792469976    -1.3244786377
| 23>  H        1.8789459711    -3.1147534407    -0.7243392550
| 24>  H        0.2924778015    -0.9067286428    -1.3574350278
| 25>  H        2.1886886072    -1.9941920503     1.4016538856
| 26> *
| 27>
| 28>                          ****END OF INPUT****

CARTESIAN COORDINATES (ANGSTROEM)
---------------------------------
  C      0.542197    1.298890   -0.120423
  O     -0.218085    0.177751    0.311743
  C      0.460193   -0.589233    1.268644
  C     -0.090118   -1.920963    1.659296
  C     -1.118955   -2.567178    0.723662
  C     -0.272362   -3.276256   -0.357018
  C      1.036000   -2.458371   -0.490367
  O      1.005121   -1.524421   -1.562382
  C      1.238542   -1.833709    0.903530
  H      1.458410    0.981684   -0.633948
  H     -0.087935    1.863560   -0.811490
  H      0.807686    1.944626    0.728221
  H      0.882269    0.020983    2.068454
  H     -0.126442   -2.161405    2.716178
  H     -1.757880   -3.266419    1.268398
  H     -1.774925   -1.808237    0.285862
  H     -0.019548   -4.283059   -0.004845
  H     -0.772099   -3.379247   -1.324479
  H      1.878946   -3.114753   -0.724339
  H      0.292478   -0.906729   -1.357435
  H      2.188689   -1.994192    1.401654

 Total Charge           Charge          ....    0
 Multiplicity           Mult            ....    1
 Number of Electrons    NEL             ....   70
 Basis Dimension        Dim             ....  351

ORBITAL ENERGIES
----------------

  NO   OCC          E(Eh)            E(eV)
   0   2.0000     -20.572054      -559.7941
   1   2.0000     -20.536646      -558.8306
   2   2.0000     -11.287613      -307.1516
   3   2.0000     -11.276987      -306.8624
   4   2.0000     -11.275436      -306.8202
   5   2.0000     -11.231010      -305.6113
   6   2.0000     -11.227154      -305.5064
   7   2.0000     -11.221198      -305.3443
   8   2.0000     -11.215011      -305.1760
   9   2.0000      -1.392893       -37.9025
  10   2.0000      -1.344850       -36.5952
  11   2.0000      -1.161374       -31.6026
  12   2.0000      -1.026289       -27.9268
  13   2.0000      -0.949420       -25.8350
  14   2.0000      -0.934943       -25.4411
  15   2.0000      -0.829014       -22.5586
  16   2.0000      -0.777892       -21.1675
  17   2.0000      -0.767791       -20.8926
  18   2.0000      -0.714113       -19.4320
  19   2.0000      -0.669183       -18.2094
  20   2.0000      -0.644169       -17.5287
  21   2.0000      -0.632776       -17.2187
  22   2.0000      -0.619639       -16.8612
  23   2.0000      -0.604832       -16.4583
  24   2.0000      -0.579770       -15.7763
  25   2.0000      -0.558180       -15.1889
  26   2.0000      -0.544308       -14.8114
  27   2.0000      -0.516251       -14.0479
  28   2.0000      -0.496290       -13.5047
  29   2.0000      -0.484616       -13.1871
  30   2.0000      -0.471805       -12.8385
  31   2.0000      -0.462988       -12.5986
  32   2.0000      -0.418604       -11.3908
  33   2.0000      -0.401158       -10.9161
  34   2.0000      -0.388540       -10.5727
  35   0.0000       0.136888         3.7249
  36   0.0000       0.154719         4.2101
  37   0.0000       0.164479         4.4757
  38   0.0000       0.176831         4.8118
  39   0.0000       0.194680         5.2975

MULLIKEN ATOMIC CHARGES
-----------------------
   0 C :   -0.251520
   1 O :   -0.345040
   2 C :   -0.021625
   3 C :   -0.074842
   4 C :   -0.260264
   5 C :   -0.233439
   6 C :    0.068264
   7 O :   -0.471182
   8 C :   -0.111237
   9 H :    0.152816
  10 H :    0.143456
  11 H :    0.121097
  12 H :    0.102838
  13 H :    0.129186
  14 H :    0.121661
  15 H :    0.138210
  16 H :    0.114011
  17 H :    0.119812
  18 H :    0.103605
  19 H :    0.324741
  20 H :    0.129451
Sum of atomic charges:    0.0000000

LOEWDIN ATOMIC CHARGES
----------------------
   0 C :   -0.350439
   1 O :    0.151940
   2 C :   -0.280040
   3 C :   -0.173691
   4 C :   -0.234203
   5 C :   -0.234333
   6 C :   -0.311739
   7 O :   -0.022723
   8 C :   -0.164457
   9 H :    0.109828
  10 H :    0.114416
  11 H :    0.105977
  12 H :    0.139101
  13 H :    0.142734
  14 H :    0.136712
  15 H :    0.140530
  16 H :    0.139933
  17 H :    0.134968
  18 H :    0.143474
  19 H :    0.169655
  20 H :    0.142357

  Mayer bond orders larger than 0.1
B(  0-C ,  1-O ) :   0.8709 B(  0-C ,  9-H ) :   0.9328 B(  0-C , 10-H ) :   0.9382
B(  0-C , 11-H ) :   0.9345 B(  1-O ,  2-C ) :   0.9358 B(  2-C ,  3-C ) :   0.9049
B(  2-C ,  8-C ) :   0.9107 B(  2-C , 12-H ) :   0.9318 B(  3-C ,  4-C ) :   0.9087
B(  3-C ,  8-C ) :   0.8380 B(  3-C , 13-H ) :   0.9160 B(  4-C ,  5-C ) :   0.9389
B(  4-C , 14-H ) :   0.9309 B(  4-C , 15-H ) :   0.9245 B(  5-C ,  6-C ) :   0.9383
B(  5-C , 16-H ) :   0.9230 B(  5-C , 17-H ) :   0.9320 B(  6-C ,  7-O ) :   0.9670
B(  6-C ,  8-C ) :   0.8777 B(  6-C , 18-H ) :   0.9395 B(  7-O , 19-H ) :   0.8241
B(  8-C , 20-H ) :   0.9149

MP2 TOTAL ENERGY:     -423.504571381 Eh
FINAL SINGLE POINT ENERGY      -423.504571381358

DIPOLE MOMENT
-------------
                                X             Y             Z
Electronic contribution:      0.49940      -0.00909      -0.29077
Nuclear contribution   :     -0.47409       0.20183       1.01730
                        -----------------------------------------
Total Dipole Moment    :      0.02531       0.19275       0.72653
                        -----------------------------------------
Magnitude (a.u.)       :      0.75209
Magnitude (Debye)      :      1.91166

                             ****ORCA TERMINATED NORMALLY****
TOTAL RUN TIME: 0 days 0 hours 30 minutes 30 seconds 191 msec
