                         Program Version 3.0.3 - RELEASE   -
|  1> ! RI-MP2 RIJK def2-TZVP def2-TZVP/C def2-TZVP/JK TIGHTSCF
|  2> % maxcore 2000
|  3> % mp2 density relaxed end
|  4> *xyz 0 1
|  5>  O       -0.9714026593     0.8086689262     0.3346715527
|  6>  C        0.0426919674     0.8122333541    -0.3068124565
|  7>  C        1.2109307845     1.7553415469    -0.0159864535
|  8>  C        1.1697654917     2.4809951091     1.3429131867
|  9>  C        2.3720474285     1.5982092384     1.6696853364
| 10>  O        3.1208965947     1.4106540157     2.5652241207
| 11>  O        2.3784435019     0.9770922563     0.4268038689
| 12>  C        1.5697901084     2.6054720612    -1.2196295572
| 13>  O        0.8096509604     2.7963444487    -2.1310515023
| 14>  H        0.2216519855     0.1103801793    -1.1444119088
| 15>  H        1.3850378469     3.5509229011     1.3397354037
| 16>  H        0.2662231814     2.2762338170     1.9187786772
| 17>  H        2.5931071780     3.0371439862    -1.1836616979
| 18> *
| 19>
| 20>                          ****END OF INPUT****

CARTESIAN COORDINATES (ANGSTROEM)
---------------------------------
  O     -0.971403    0.808669    0.334672
  C      0.042692    0.812233   -0.306812
  C      1.210931    1.755342   -0.015986
  C      1.169765    2.480995    1.342913
  C      2.372047    1.598209    1.669685
  O      3.120897    1.410654    2.565224
  O      2.378444    0.977092    0.426804
  C      1.569790    2.605472   -1.219630
  O      0.809651    2.796344   -2.131052
  H      0.221652    0.110380   -1.144412
  H      1.385038    3.550923    1.339735
  H      0.266223    2.276234    1.918779
  H      2.593107    3.037144   -1.183662

 Total Charge           Charge          ....    0
 Multiplicity           Mult            ....    1
 Number of Electrons    NEL             ....   66
 Basis Dimension        Dim             ....  303

ORBITAL ENERGIES
----------------

  NO   OCC          E(Eh)            E(eV)
   0   2.0000     -20.643065      -561.7264
   1   2.0000     -20.609230      -560.8056
   2   2.0000     -20.600356      -560.5642
   3   2.0000     -20.586304      -560.1818
   4   2.0000     -11.418348      -310.7090
   5   2.0000     -11.380003      -309.6656
   6   2.0000     -11.371911      -309.4454
   7   2.0000     -11.361012      -309.1489
   8   2.0000     -11.298238      -307.4407
   9   2.0000      -1.501366       -40.8542
  10   2.0000      -1.448772       -39.4231
  11   2.0000      -1.438350       -39.1395
  12   2.0000      -1.415146       -38.5081
  13   2.0000      -1.104623       -30.0583
  14   2.0000      -1.020575       -27.7712
  15   2.0000      -0.906826       -24.6760
  16   2.0000      -0.814818       -22.1723
  17   2.0000      -0.784750       -21.3541
  18   2.0000      -0.752228       -20.4692
  19   2.0000      -0.743807       -20.2400
  20   2.0000      -0.717404       -19.5216
  21   2.0000      -0.698985       -19.0204
  22   2.0000      -0.679734       -18.4965
  23   2.0000      -0.642392       -17.4804
  24   2.0000      -0.624537       -16.9945
  25   2.0000      -0.604061       -16.4373
  26   2.0000      -0.587296       -15.9811
  27   2.0000      -0.562897       -15.3172
  28   2.0000      -0.542563       -14.7639
  29   2.0000      -0.521225       -14.1832
  30   2.0000      -0.486055       -13.2262
  31   2.0000      -0.477652       -12.9976
  32   2.0000      -0.448326       -12.1996
  33   0.0000       0.079005         2.1498
  34   0.0000       0.098035         2.6677
  35   0.0000       0.126213         3.4344
  36   0.0000       0.136747         3.7211
  37   0.0000       0.161833         4.4037

MULLIKEN ATOMIC CHARGES
-----------------------
   0 O :   -0.240042
   1 C :    0.085416
   2 C :    0.326584
   3 C :   -0.312285
   4 C :    0.236643
   5 O :   -0.224719
   6 O :   -0.259175
   7 C :    0.031312
   8 O :   -0.231412
   9 H :    0.114017
  10 H :    0.166891
  11 H :    0.187104
  12 H :    0.119668
Sum of atomic charges:    0.0000000

LOEWDIN ATOMIC CHARGES
----------------------
   0 O :    0.170725
   1 C :   -0.234242
   2 C :   -0.291984
   3 C :   -0.154560
   4 C :   -0.436489
   5 O :    0.184648
   6 O :    0.265209
   7 C :   -0.248913
   8 O :    0.170569
   9 H :    0.128706
  10 H :    0.155933
  11 H :    0.163353
  12 H :    0.127044

  Mayer bond orders larger than 0.1
B(  0-O ,  1-C ) :   1.9736 B(  1-C ,  2-C ) :   0.8306 B(  1-C ,  9-H ) :   0.9264
B(  2-C ,  3-C ) :   0.8501 B(  2-C ,  6-O ) :   0.8566 B(  2-C ,  7-C ) :   0.8313
B(  3-C ,  4-C ) :   0.9491 B(  3-C , 10-H ) :   0.9072 B(  3-C , 11-H ) :   0.8864
B(  4-C ,  5-O ) :   2.0853 B(  4-C ,  6-O ) :   1.0378 B(  7-C ,  8-O ) :   1.9932
B(  7-C , 12-H ) :   0.9315

MP2 TOTAL ENERGY:     -492.954754601 Eh
FINAL SINGLE POINT ENERGY      -492.954754601418

DIPOLE MOMENT
-------------
                                X             Y             Z
Electronic contribution:      0.75088      -1.50108      -0.01119
Nuclear contribution   :     -0.68188       2.07852      -0.23214
                        -----------------------------------------
Total Dipole Moment    :      0.06899       0.57744      -0.24333
                        -----------------------------------------
Magnitude (a.u.)       :      0.63040
Magnitude (Debye)      :      1.60235

                             ****ORCA TERMINATED NORMALLY****
TOTAL RUN TIME: 0 days 0 hours 13 minutes 6 seconds 769 msec
