                         Program Version 3.0.3 - RELEASE   -
|  1> ! RI-MP2 RIJK def2-TZVP def2-TZVP/C def2-TZVP/JK TIGHTSCF
|  2> % maxcore 2000
|  3> % mp2 density relaxed end
|  4> *xyz 0 1
|  5>  C        0.0700897001     1.5700115856     0.0502744309
|  6>  C        0.0215364498     0.0396308192     0.0484129774
|  7>  C       -1.4056961133    -0.5158034601     0.0023122230
|  8>  C       -1.4605269918    -2.0463330132    -0.0006092614
|  9>  C       -2.8817596497    -2.6130562619    -0.0104818745
| 10>  C       -2.8873519060    -4.1401982403    -0.1316638817
| 11>  O       -3.5075116210    -2.1793925649     1.1927721471
| 12>  C       -4.9199616175    -2.2096150573     1.1895681544
| 13>  C       -5.4136250175    -1.5915449370     2.4878891636
| 14>  H        1.0998446956     1.9395096764     0.0873017111
| 15>  H       -0.3991455906     1.9819830206    -0.8503523697
| 16>  H       -0.4627759525     1.9805263669     0.9152536988
| 17>  H        0.5907721589    -0.3439948871    -0.8091733869
| 18>  H        0.5296676786    -0.3437771335     0.9432724680
| 19>  H       -1.9759213960    -0.1448069613     0.8612023740
| 20>  H       -1.9144715382    -0.1323382599    -0.8939463635
| 21>  H       -0.9248855015    -2.4380825433    -0.8748386479
| 22>  H       -0.9434451970    -2.4377296389     0.8856379452
| 23>  H       -3.4287497886    -2.1841706913    -0.8690583110
| 24>  H       -3.9042798341    -4.5428238919    -0.1377220840
| 25>  H       -2.4020070013    -4.4531152541    -1.0617351761
| 26>  H       -2.3470052343    -4.5882325584     0.7085149366
| 27>  H       -5.3087167427    -1.6484255986     0.3228035518
| 28>  H       -5.2958547195    -3.2410715124     1.0982483756
| 29>  H       -5.0361238159    -2.1536054305     3.3469321881
| 30>  H       -5.0672705648    -0.5579354875     2.5775680956
| 31>  H       -6.5073384991    -1.5974467152     2.5228598456
| 32> *
| 33>
| 34>                          ****END OF INPUT****

CARTESIAN COORDINATES (ANGSTROEM)
---------------------------------
  C      0.070090    1.570012    0.050274
  C      0.021536    0.039631    0.048413
  C     -1.405696   -0.515803    0.002312
  C     -1.460527   -2.046333   -0.000609
  C     -2.881760   -2.613056   -0.010482
  C     -2.887352   -4.140198   -0.131664
  O     -3.507512   -2.179393    1.192772
  C     -4.919962   -2.209615    1.189568
  C     -5.413625   -1.591545    2.487889
  H      1.099845    1.939510    0.087302
  H     -0.399146    1.981983   -0.850352
  H     -0.462776    1.980526    0.915254
  H      0.590772   -0.343995   -0.809173
  H      0.529668   -0.343777    0.943272
  H     -1.975921   -0.144807    0.861202
  H     -1.914472   -0.132338   -0.893946
  H     -0.924886   -2.438083   -0.874839
  H     -0.943445   -2.437730    0.885638
  H     -3.428750   -2.184171   -0.869058
  H     -3.904280   -4.542824   -0.137722
  H     -2.402007   -4.453115   -1.061735
  H     -2.347005   -4.588233    0.708515
  H     -5.308717   -1.648426    0.322804
  H     -5.295855   -3.241072    1.098248
  H     -5.036124   -2.153605    3.346932
  H     -5.067271   -0.557935    2.577568
  H     -6.507338   -1.597447    2.522860

 Total Charge           Charge          ....    0
 Multiplicity           Mult            ....    1
 Number of Electrons    NEL             ....   74
 Basis Dimension        Dim             ....  387

ORBITAL ENERGIES
----------------

  NO   OCC          E(Eh)            E(eV)
   0   2.0000     -20.544051      -559.0320
   1   2.0000     -11.273841      -306.7768
   2   2.0000     -11.270042      -306.6734
   3   2.0000     -11.212629      -305.1112
   4   2.0000     -11.211743      -305.0870
   5   2.0000     -11.211408      -305.0779
   6   2.0000     -11.211090      -305.0693
   7   2.0000     -11.207792      -304.9795
   8   2.0000     -11.207075      -304.9600
   9   2.0000      -1.366895       -37.1951
  10   2.0000      -1.080135       -29.3920
  11   2.0000      -1.039149       -28.2767
  12   2.0000      -0.992557       -27.0089
  13   2.0000      -0.961355       -26.1598
  14   2.0000      -0.874978       -23.8094
  15   2.0000      -0.831393       -22.6234
  16   2.0000      -0.791910       -21.5490
  17   2.0000      -0.780386       -21.2354
  18   2.0000      -0.677054       -18.4236
  19   2.0000      -0.649097       -17.6628
  20   2.0000      -0.624845       -17.0029
  21   2.0000      -0.614664       -16.7259
  22   2.0000      -0.592801       -16.1309
  23   2.0000      -0.566351       -15.4112
  24   2.0000      -0.559214       -15.2170
  25   2.0000      -0.544400       -14.8139
  26   2.0000      -0.541344       -14.7307
  27   2.0000      -0.526972       -14.3396
  28   2.0000      -0.520535       -14.1645
  29   2.0000      -0.504818       -13.7368
  30   2.0000      -0.488570       -13.2947
  31   2.0000      -0.479508       -13.0481
  32   2.0000      -0.465496       -12.6668
  33   2.0000      -0.459480       -12.5031
  34   2.0000      -0.455664       -12.3993
  35   2.0000      -0.441965       -12.0265
  36   2.0000      -0.407991       -11.1020
  37   0.0000       0.137867         3.7516
  38   0.0000       0.147640         4.0175
  39   0.0000       0.153710         4.1827
  40   0.0000       0.164150         4.4668
  41   0.0000       0.177878         4.8403

MULLIKEN ATOMIC CHARGES
-----------------------
   0 C :   -0.382200
   1 C :   -0.177701
   2 C :   -0.245043
   3 C :   -0.186227
   4 C :    0.075461
   5 C :   -0.389487
   6 O :   -0.300458
   7 C :   -0.046506
   8 C :   -0.367813
   9 H :    0.130971
  10 H :    0.119221
  11 H :    0.121636
  12 H :    0.099828
  13 H :    0.105129
  14 H :    0.125315
  15 H :    0.094650
  16 H :    0.106905
  17 H :    0.107129
  18 H :    0.067852
  19 H :    0.130838
  20 H :    0.127408
  21 H :    0.128201
  22 H :    0.089021
  23 H :    0.088174
  24 H :    0.128802
  25 H :    0.128414
  26 H :    0.120480
Sum of atomic charges:   -0.0000000

LOEWDIN ATOMIC CHARGES
----------------------
   0 C :   -0.322905
   1 C :   -0.298472
   2 C :   -0.272027
   3 C :   -0.249789
   4 C :   -0.351161
   5 C :   -0.298958
   6 O :    0.178383
   7 C :   -0.355856
   8 C :   -0.318154
   9 H :    0.119150
  10 H :    0.119139
  11 H :    0.120040
  12 H :    0.132380
  13 H :    0.134217
  14 H :    0.140323
  15 H :    0.134618
  16 H :    0.141051
  17 H :    0.142872
  18 H :    0.133940
  19 H :    0.119831
  20 H :    0.125353
  21 H :    0.126116
  22 H :    0.115446
  23 H :    0.114968
  24 H :    0.123586
  25 H :    0.122731
  26 H :    0.123179

  Mayer bond orders larger than 0.1
B(  0-C ,  1-C ) :   0.9228 B(  0-C ,  9-H ) :   0.9436 B(  0-C , 10-H ) :   0.9398
B(  0-C , 11-H ) :   0.9399 B(  1-C ,  2-C ) :   0.9340 B(  1-C , 12-H ) :   0.9327
B(  1-C , 13-H ) :   0.9341 B(  2-C ,  3-C ) :   0.9445 B(  2-C , 14-H ) :   0.9271
B(  2-C , 15-H ) :   0.9260 B(  3-C ,  4-C ) :   0.9332 B(  3-C , 16-H ) :   0.9275
B(  3-C , 17-H ) :   0.9180 B(  4-C ,  5-C ) :   0.9129 B(  4-C ,  6-O ) :   0.9236
B(  4-C , 18-H ) :   0.9393 B(  5-C , 19-H ) :   0.9397 B(  5-C , 20-H ) :   0.9350
B(  5-C , 21-H ) :   0.9350 B(  6-O ,  7-C ) :   0.9251 B(  7-C ,  8-C ) :   0.9540
B(  7-C , 22-H ) :   0.9246 B(  7-C , 23-H ) :   0.9197 B(  8-C , 24-H ) :   0.9363
B(  8-C , 25-H ) :   0.9377 B(  8-C , 26-H ) :   0.9335

MP2 TOTAL ENERGY:     -390.021693935 Eh
FINAL SINGLE POINT ENERGY      -390.021693935000

DIPOLE MOMENT
-------------
                                X             Y             Z
Electronic contribution:     -1.62468      -2.47728       0.73236
Nuclear contribution   :      1.37841       2.32298      -1.04381
                        -----------------------------------------
Total Dipole Moment    :     -0.24627      -0.15431      -0.31146
                        -----------------------------------------
Magnitude (a.u.)       :      0.42599
Magnitude (Debye)      :      1.08278

                             ****ORCA TERMINATED NORMALLY****
TOTAL RUN TIME: 0 days 0 hours 18 minutes 41 seconds 564 msec
