                         Program Version 3.0.3 - RELEASE   -
|  1> ! RI-MP2 RIJK def2-TZVP def2-TZVP/C def2-TZVP/JK TIGHTSCF
|  2> % maxcore 2000
|  3> % mp2 density relaxed end
|  4> *xyz 0 1
|  5>  C        0.0922836957     1.5063126570     0.0013459587
|  6>  N       -0.1313953420     0.0745137674    -0.1938126697
|  7>  C        0.6812185324    -0.5322132476    -1.2382772667
|  8>  C        2.1383792542    -0.4738452339    -0.9552691827
|  9>  N        3.2603939252    -0.4240212517    -0.6793432617
| 10>  C        0.2487204954    -1.9820590901    -1.4778579099
| 11>  C       -1.1330777258    -2.1252786173    -2.1463320106
| 12>  O       -0.5344726252    -2.5803960123    -3.3785067358
| 13>  C        0.7742406498    -2.6339152929    -2.7751599615
| 14>  H        1.1344958066     1.7704155742     0.2390566708
| 15>  H       -0.1961242280     2.0437357214    -0.9082904911
| 16>  H       -0.5489242931     1.8568198877     0.8139139408
| 17>  H        0.0206712700    -0.4207844099     0.6795156432
| 18>  H        0.5103901956     0.0356793472    -2.1628172660
| 19>  H        0.3981984458    -2.5670702579    -0.5671770517
| 20>  H       -1.7844433374    -2.8869905610    -1.7002927436
| 21>  H       -1.7010156855    -1.1968846761    -2.2709082761
| 22>  H        1.5188074994    -2.0610526392    -3.3413082452
| 23>  H        1.1335088868    -3.6636388648    -2.6586841412
| 24> *
| 25>
| 26>                          ****END OF INPUT****

CARTESIAN COORDINATES (ANGSTROEM)
---------------------------------
  C      0.092284    1.506313    0.001346
  N     -0.131395    0.074514   -0.193813
  C      0.681219   -0.532213   -1.238277
  C      2.138379   -0.473845   -0.955269
  N      3.260394   -0.424021   -0.679343
  C      0.248720   -1.982059   -1.477858
  C     -1.133078   -2.125279   -2.146332
  O     -0.534473   -2.580396   -3.378507
  C      0.774241   -2.633915   -2.775160
  H      1.134496    1.770416    0.239057
  H     -0.196124    2.043736   -0.908290
  H     -0.548924    1.856820    0.813914
  H      0.020671   -0.420784    0.679516
  H      0.510390    0.035679   -2.162817
  H      0.398198   -2.567070   -0.567177
  H     -1.784443   -2.886991   -1.700293
  H     -1.701016   -1.196885   -2.270908
  H      1.518807   -2.061053   -3.341308
  H      1.133509   -3.663639   -2.658684

 Total Charge           Charge          ....    0
 Multiplicity           Mult            ....    1
 Number of Electrons    NEL             ....   68
 Basis Dimension        Dim             ....  339

ORBITAL ENERGIES
----------------

  NO   OCC          E(Eh)            E(eV)
   0   2.0000     -20.558752      -559.4321
   1   2.0000     -15.578988      -423.9258
   2   2.0000     -15.578455      -423.9113
   3   2.0000     -11.320811      -308.0549
   4   2.0000     -11.292713      -307.2903
   5   2.0000     -11.290591      -307.2326
   6   2.0000     -11.276550      -306.8505
   7   2.0000     -11.264210      -306.5147
   8   2.0000     -11.261402      -306.4383
   9   2.0000      -1.389905       -37.8212
  10   2.0000      -1.254802       -34.1449
  11   2.0000      -1.215775       -33.0829
  12   2.0000      -1.075275       -29.2597
  13   2.0000      -0.964288       -26.2396
  14   2.0000      -0.948432       -25.8082
  15   2.0000      -0.902003       -24.5448
  16   2.0000      -0.786212       -21.3939
  17   2.0000      -0.747415       -20.3382
  18   2.0000      -0.701300       -19.0834
  19   2.0000      -0.692262       -18.8374
  20   2.0000      -0.641081       -17.4447
  21   2.0000      -0.625637       -17.0245
  22   2.0000      -0.604817       -16.4579
  23   2.0000      -0.593735       -16.1564
  24   2.0000      -0.575895       -15.6709
  25   2.0000      -0.563836       -15.3427
  26   2.0000      -0.547108       -14.8876
  27   2.0000      -0.541435       -14.7332
  28   2.0000      -0.485362       -13.2074
  29   2.0000      -0.480145       -13.0654
  30   2.0000      -0.470304       -12.7976
  31   2.0000      -0.461213       -12.5503
  32   2.0000      -0.426289       -11.5999
  33   2.0000      -0.411847       -11.2069
  34   0.0000       0.120622         3.2823
  35   0.0000       0.135792         3.6951
  36   0.0000       0.146989         3.9998
  37   0.0000       0.158674         4.3177
  38   0.0000       0.173848         4.7306

MULLIKEN ATOMIC CHARGES
-----------------------
   0 C :   -0.308832
   1 N :   -0.324606
   2 C :   -0.012884
   3 C :   -0.206445
   4 N :   -0.053554
   5 C :   -0.044399
   6 C :   -0.014308
   7 O :   -0.328565
   8 C :   -0.043195
   9 H :    0.138699
  10 H :    0.133870
  11 H :    0.143933
  12 H :    0.213485
  13 H :    0.151145
  14 H :    0.128379
  15 H :    0.098099
  16 H :    0.111386
  17 H :    0.112196
  18 H :    0.105595
Sum of atomic charges:   -0.0000000

LOEWDIN ATOMIC CHARGES
----------------------
   0 C :   -0.338178
   1 N :   -0.002105
   2 C :   -0.294359
   3 C :   -0.176881
   4 N :    0.062362
   5 C :   -0.211103
   6 C :   -0.246830
   7 O :    0.111478
   8 C :   -0.245634
   9 H :    0.109365
  10 H :    0.118769
  11 H :    0.119695
  12 H :    0.176555
  13 H :    0.177685
  14 H :    0.150536
  15 H :    0.119881
  16 H :    0.123417
  17 H :    0.123979
  18 H :    0.121369

  Mayer bond orders larger than 0.1
B(  0-C ,  1-N ) :   0.9214 B(  0-C ,  9-H ) :   0.9273 B(  0-C , 10-H ) :   0.9351
B(  0-C , 11-H ) :   0.9354 B(  1-N ,  2-C ) :   0.9711 B(  1-N , 12-H ) :   0.8756
B(  2-C ,  3-C ) :   0.8712 B(  2-C ,  5-C ) :   0.9145 B(  2-C , 13-H ) :   0.9167
B(  3-C ,  4-N ) :   2.8701 B(  5-C ,  6-C ) :   0.9439 B(  5-C ,  8-C ) :   0.9545
B(  5-C , 14-H ) :   0.8995 B(  6-C ,  7-O ) :   0.9468 B(  6-C , 15-H ) :   0.9172
B(  6-C , 16-H ) :   0.9054 B(  7-O ,  8-C ) :   0.9503 B(  8-C , 17-H ) :   0.9108
B(  8-C , 18-H ) :   0.9128

MP2 TOTAL ENERGY:     -418.476419169 Eh
FINAL SINGLE POINT ENERGY      -418.476419169400

DIPOLE MOMENT
-------------
                                X             Y             Z
Electronic contribution:      3.83146      -2.69647      -1.74038
Nuclear contribution   :     -4.71159       2.87466       2.33294
                        -----------------------------------------
Total Dipole Moment    :     -0.88013       0.17820       0.59257
                        -----------------------------------------
Magnitude (a.u.)       :      1.07588
Magnitude (Debye)      :      2.73467

                             ****ORCA TERMINATED NORMALLY****
TOTAL RUN TIME: 0 days 0 hours 17 minutes 46 seconds 296 msec
