                         Program Version 3.0.3 - RELEASE   -
|  1> ! RI-MP2 RIJK def2-TZVP def2-TZVP/C def2-TZVP/JK TIGHTSCF
|  2> % maxcore 2000
|  3> % mp2 density relaxed end
|  4> *xyz 0 1
|  5>  N        0.0441188542     1.3081608422     0.2767380737
|  6>  C       -0.0088810457    -0.0284381090    -0.0224351715
|  7>  C        1.3333286634    -0.7188752032    -0.2191801192
|  8>  O        1.1702119428    -2.0514836977    -0.5948280107
|  9>  N       -1.0564240284    -0.7402155276    -0.1910967526
| 10>  C       -2.3576417016    -0.1486406999    -0.0454364997
| 11>  C       -3.5603810042    -1.0879823636    -0.2666524782
| 12>  O       -4.1469019368    -0.7077322864     0.9980933257
| 13>  C       -2.9592206045     0.0023453412     1.3838045382
| 14>  H        0.9260691425     1.7040470740     0.5585337905
| 15>  H       -0.7698456709     1.7627748973     0.6550851677
| 16>  H        1.9032938805    -0.1599250972    -0.9801921405
| 17>  H        1.9050958416    -0.6396793817     0.7221848669
| 18>  H        0.2032693187    -2.1787600950    -0.6028126484
| 19>  H       -2.4508669350     0.7794158872    -0.6271218893
| 20>  H       -4.2256419389    -0.8697792547    -1.1089951523
| 21>  H       -3.2678990334    -2.1452488640    -0.2878739515
| 22>  H       -2.3815016087    -0.5330207699     2.1497658381
| 23>  H       -3.1831634555     1.0169458781     1.7382790631
| 24> *
| 25>
| 26>                          ****END OF INPUT****

CARTESIAN COORDINATES (ANGSTROEM)
---------------------------------
  N      0.044119    1.308161    0.276738
  C     -0.008881   -0.028438   -0.022435
  C      1.333329   -0.718875   -0.219180
  O      1.170212   -2.051484   -0.594828
  N     -1.056424   -0.740216   -0.191097
  C     -2.357642   -0.148641   -0.045436
  C     -3.560381   -1.087982   -0.266652
  O     -4.146902   -0.707732    0.998093
  C     -2.959221    0.002345    1.383805
  H      0.926069    1.704047    0.558534
  H     -0.769846    1.762775    0.655085
  H      1.903294   -0.159925   -0.980192
  H      1.905096   -0.639679    0.722185
  H      0.203269   -2.178760   -0.602813
  H     -2.450867    0.779416   -0.627122
  H     -4.225642   -0.869779   -1.108995
  H     -3.267899   -2.145249   -0.287874
  H     -2.381502   -0.533021    2.149766
  H     -3.183163    1.016946    1.738279

 Total Charge           Charge          ....    0
 Multiplicity           Mult            ....    1
 Number of Electrons    NEL             ....   70
 Basis Dimension        Dim             ....  339

ORBITAL ENERGIES
----------------

  NO   OCC          E(Eh)            E(eV)
   0   2.0000     -20.548525      -559.1538
   1   2.0000     -20.544499      -559.0442
   2   2.0000     -15.600635      -424.5149
   3   2.0000     -15.544391      -422.9844
   4   2.0000     -11.332970      -308.3858
   5   2.0000     -11.292389      -307.2815
   6   2.0000     -11.282031      -306.9997
   7   2.0000     -11.274560      -306.7964
   8   2.0000     -11.267651      -306.6084
   9   2.0000      -1.379964       -37.5507
  10   2.0000      -1.365412       -37.1548
  11   2.0000      -1.285960       -34.9928
  12   2.0000      -1.183356       -32.2007
  13   2.0000      -1.015830       -27.6421
  14   2.0000      -0.952186       -25.9103
  15   2.0000      -0.935470       -25.4554
  16   2.0000      -0.812259       -22.1027
  17   2.0000      -0.769992       -20.9526
  18   2.0000      -0.744321       -20.2540
  19   2.0000      -0.718890       -19.5620
  20   2.0000      -0.684788       -18.6340
  21   2.0000      -0.660944       -17.9852
  22   2.0000      -0.650266       -17.6946
  23   2.0000      -0.608765       -16.5653
  24   2.0000      -0.608499       -16.5581
  25   2.0000      -0.586826       -15.9683
  26   2.0000      -0.561832       -15.2882
  27   2.0000      -0.543868       -14.7994
  28   2.0000      -0.517113       -14.0714
  29   2.0000      -0.487605       -13.2684
  30   2.0000      -0.472257       -12.8508
  31   2.0000      -0.442004       -12.0275
  32   2.0000      -0.424068       -11.5395
  33   2.0000      -0.411539       -11.1985
  34   2.0000      -0.375059       -10.2059
  35   0.0000       0.105967         2.8835
  36   0.0000       0.141690         3.8556
  37   0.0000       0.162420         4.4197
  38   0.0000       0.164993         4.4897
  39   0.0000       0.174362         4.7446

MULLIKEN ATOMIC CHARGES
-----------------------
   0 N :   -0.522278
   1 C :    0.283202
   2 C :   -0.026351
   3 O :   -0.485042
   4 N :   -0.366162
   5 C :   -0.125205
   6 C :    0.011452
   7 O :   -0.325299
   8 C :   -0.018343
   9 H :    0.257847
  10 H :    0.262458
  11 H :    0.114298
  12 H :    0.103214
  13 H :    0.334162
  14 H :    0.114527
  15 H :    0.101219
  16 H :    0.096516
  17 H :    0.097957
  18 H :    0.091827
Sum of atomic charges:    0.0000000

LOEWDIN ATOMIC CHARGES
----------------------
   0 N :   -0.029461
   1 C :   -0.370894
   2 C :   -0.328772
   3 O :   -0.037737
   4 N :    0.078771
   5 C :   -0.294831
   6 C :   -0.248221
   7 O :    0.110489
   8 C :   -0.268885
   9 H :    0.176185
  10 H :    0.171819
  11 H :    0.129407
  12 H :    0.126650
  13 H :    0.176798
  14 H :    0.138617
  15 H :    0.116187
  16 H :    0.121348
  17 H :    0.120360
  18 H :    0.112169

  Mayer bond orders larger than 0.1
B(  0-N ,  1-C ) :   1.0894 B(  0-N ,  9-H ) :   0.8722 B(  0-N , 10-H ) :   0.8716
B(  1-C ,  2-C ) :   0.9146 B(  1-C ,  4-N ) :   1.6937 B(  2-C ,  3-O ) :   1.0434
B(  2-C , 11-H ) :   0.9311 B(  2-C , 12-H ) :   0.9093 B(  3-O , 13-H ) :   0.7875
B(  4-N ,  5-C ) :   0.9548 B(  5-C ,  6-C ) :   0.9731 B(  5-C ,  8-C ) :   0.9382
B(  5-C , 14-H ) :   0.9237 B(  6-C ,  7-O ) :   0.9449 B(  6-C , 15-H ) :   0.9180
B(  6-C , 16-H ) :   0.9076 B(  7-O ,  8-C ) :   0.9672 B(  8-C , 17-H ) :   0.8959
B(  8-C , 18-H ) :   0.9129

MP2 TOTAL ENERGY:     -455.584557337 Eh
FINAL SINGLE POINT ENERGY      -455.584557337008

DIPOLE MOMENT
-------------
                                X             Y             Z
Electronic contribution:     -0.75697      -1.55058      -0.33510
Nuclear contribution   :      1.18013       3.21255       0.64868
                        -----------------------------------------
Total Dipole Moment    :      0.42316       1.66197       0.31358
                        -----------------------------------------
Magnitude (a.u.)       :      1.74343
Magnitude (Debye)      :      4.43144

                             ****ORCA TERMINATED NORMALLY****
TOTAL RUN TIME: 0 days 0 hours 15 minutes 17 seconds 77 msec
