                         Program Version 3.0.3 - RELEASE   -
|  1> ! RI-MP2 RIJK def2-TZVP def2-TZVP/C def2-TZVP/JK TIGHTSCF
|  2> % maxcore 2000
|  3> % mp2 density relaxed end
|  4> *xyz 0 1
|  5>  C       -0.0193105043     1.4415409671    -0.0034403347
|  6>  N        0.0255814041    -0.0046032321    -0.0224827580
|  7>  C        0.0412985515    -0.8157254573    -1.1528599605
|  8>  C        0.0335080815    -0.2453449068    -2.5306616783
|  9>  C        0.0603149956    -2.1171359737    -0.7202845701
| 10>  C        0.0470752789    -2.1323206249     0.7123508876
| 11>  C        0.0617780374    -3.3252955278     1.6192351741
| 12>  C        0.0260615815    -0.8103387986     1.0875325619
| 13>  O       -0.0042187040    -0.2040620291     2.3087085007
| 14>  H        0.7707957680     1.8622432978    -0.6332106408
| 15>  H       -0.9845220849     1.8212050141    -0.3589727894
| 16>  H        0.1314210520     1.7819696642     1.0208596201
| 17>  H        0.9085383693     0.3865103097    -2.7348521775
| 18>  H        0.0420286577    -1.0597123119    -3.2591207134
| 19>  H       -0.8557229130     0.3671450982    -2.7316818492
| 20>  H        0.0775447668    -2.9860446366    -1.3625771782
| 21>  H        1.0378858902    -3.8269618337     1.6470351278
| 22>  H       -0.1887295572    -3.0556212339     2.6532942554
| 23>  H       -0.6745544355    -4.0756082839     1.3093037020
| 24>  H        0.1677677346    -0.8746930908     2.9762270604
| 25> *
| 26>
| 27>                          ****END OF INPUT****

CARTESIAN COORDINATES (ANGSTROEM)
---------------------------------
  C     -0.019311    1.441541   -0.003440
  N      0.025581   -0.004603   -0.022483
  C      0.041299   -0.815725   -1.152860
  C      0.033508   -0.245345   -2.530662
  C      0.060315   -2.117136   -0.720285
  C      0.047075   -2.132321    0.712351
  C      0.061778   -3.325296    1.619235
  C      0.026062   -0.810339    1.087533
  O     -0.004219   -0.204062    2.308709
  H      0.770796    1.862243   -0.633211
  H     -0.984522    1.821205   -0.358973
  H      0.131421    1.781970    1.020860
  H      0.908538    0.386510   -2.734852
  H      0.042029   -1.059712   -3.259121
  H     -0.855723    0.367145   -2.731682
  H      0.077545   -2.986045   -1.362577
  H      1.037886   -3.826962    1.647035
  H     -0.188730   -3.055621    2.653294
  H     -0.674554   -4.075608    1.309304
  H      0.167768   -0.874693    2.976227

 Total Charge           Charge          ....    0
 Multiplicity           Mult            ....    1
 Number of Electrons    NEL             ....   68
 Basis Dimension        Dim             ....  345

ORBITAL ENERGIES
----------------

  NO   OCC          E(Eh)            E(eV)
   0   2.0000     -20.589508      -560.2690
   1   2.0000     -15.590260      -424.2325
   2   2.0000     -11.302314      -307.5516
   3   2.0000     -11.261178      -306.4322
   4   2.0000     -11.242101      -305.9131
   5   2.0000     -11.224437      -305.4325
   6   2.0000     -11.219822      -305.3069
   7   2.0000     -11.198721      -304.7327
   8   2.0000     -11.195291      -304.6394
   9   2.0000      -1.410432       -38.3798
  10   2.0000      -1.281219       -34.8637
  11   2.0000      -1.079037       -29.3621
  12   2.0000      -1.022489       -27.8233
  13   2.0000      -0.971402       -26.4332
  14   2.0000      -0.911812       -24.8117
  15   2.0000      -0.880609       -23.9626
  16   2.0000      -0.791331       -21.5332
  17   2.0000      -0.729859       -19.8605
  18   2.0000      -0.689597       -18.7649
  19   2.0000      -0.652738       -17.7619
  20   2.0000      -0.643185       -17.5020
  21   2.0000      -0.607714       -16.5367
  22   2.0000      -0.582048       -15.8383
  23   2.0000      -0.563032       -15.3209
  24   2.0000      -0.560571       -15.2539
  25   2.0000      -0.556472       -15.1424
  26   2.0000      -0.551412       -15.0047
  27   2.0000      -0.548273       -14.9193
  28   2.0000      -0.535092       -14.5606
  29   2.0000      -0.507558       -13.8114
  30   2.0000      -0.486239       -13.2312
  31   2.0000      -0.481649       -13.1063
  32   2.0000      -0.324574        -8.8321
  33   2.0000      -0.263429        -7.1683
  34   0.0000       0.126910         3.4534
  35   0.0000       0.141560         3.8521
  36   0.0000       0.169701         4.6178
  37   0.0000       0.185658         5.0520
  38   0.0000       0.187273         5.0960

MULLIKEN ATOMIC CHARGES
-----------------------
   0 C :   -0.340653
   1 N :   -0.027685
   2 C :    0.080420
   3 C :   -0.439834
   4 C :   -0.277513
   5 C :    0.028487
   6 C :   -0.430027
   7 C :    0.139137
   8 O :   -0.455024
   9 H :    0.141899
  10 H :    0.143531
  11 H :    0.174518
  12 H :    0.137264
  13 H :    0.148066
  14 H :    0.136613
  15 H :    0.115954
  16 H :    0.145322
  17 H :    0.097506
  18 H :    0.145030
  19 H :    0.336988
Sum of atomic charges:    0.0000000

LOEWDIN ATOMIC CHARGES
----------------------
   0 C :   -0.272074
   1 N :    0.253580
   2 C :   -0.240907
   3 C :   -0.282744
   4 C :   -0.162130
   5 C :   -0.220197
   6 C :   -0.284434
   7 C :   -0.323328
   8 O :    0.053816
   9 H :    0.122456
  10 H :    0.120744
  11 H :    0.133206
  12 H :    0.126295
  13 H :    0.137495
  14 H :    0.127035
  15 H :    0.138899
  16 H :    0.126915
  17 H :    0.119130
  18 H :    0.131139
  19 H :    0.195103

  Mayer bond orders larger than 0.1
B(  0-C ,  1-N ) :   0.8684 B(  0-C ,  9-H ) :   0.9316 B(  0-C , 10-H ) :   0.9309
B(  0-C , 11-H ) :   0.9275 B(  1-N ,  2-C ) :   1.1046 B(  1-N ,  7-C ) :   1.1588
B(  2-C ,  3-C ) :   0.8719 B(  2-C ,  4-C ) :   1.4972 B(  3-C , 12-H ) :   0.9390
B(  3-C , 13-H ) :   0.9500 B(  3-C , 14-H ) :   0.9353 B(  4-C ,  5-C ) :   1.1790
B(  4-C , 15-H ) :   0.9362 B(  5-C ,  6-C ) :   0.8466 B(  5-C ,  7-C ) :   1.4262
B(  6-C , 16-H ) :   0.9387 B(  6-C , 17-H ) :   0.9482 B(  6-C , 18-H ) :   0.9473
B(  7-C ,  8-O ) :   1.0835 B(  8-O , 19-H ) :   0.8287

MP2 TOTAL ENERGY:     -402.494235273 Eh
FINAL SINGLE POINT ENERGY      -402.494235272599

DIPOLE MOMENT
-------------
                                X             Y             Z
Electronic contribution:     -0.00681       0.35137       3.41292
Nuclear contribution   :      0.09699      -0.04374      -3.27073
                        -----------------------------------------
Total Dipole Moment    :      0.09018       0.30763       0.14219
                        -----------------------------------------
Magnitude (a.u.)       :      0.35069
Magnitude (Debye)      :      0.89139

                             ****ORCA TERMINATED NORMALLY****
TOTAL RUN TIME: 0 days 0 hours 18 minutes 0 seconds 265 msec
