                         Program Version 3.0.3 - RELEASE   -
|  1> ! RI-MP2 RIJK def2-TZVP def2-TZVP/C def2-TZVP/JK TIGHTSCF
|  2> % maxcore 2000
|  3> % mp2 density relaxed end
|  4> *xyz 0 1
|  5>  C        0.6131063187     1.4212096723    -0.0027008040
|  6>  O        0.7385635440     0.0276539158    -0.1359945285
|  7>  C       -0.1870681357    -0.5216292434    -1.0560265265
|  8>  C        0.0334251515    -2.0179737655    -1.0973360217
|  9>  C       -0.6567273349    -2.9235332597    -2.1814384052
| 10>  C       -0.0798573396    -2.3355484008    -3.4803807697
| 11>  C        1.2126153236    -2.1602155725    -3.1917344303
| 12>  C        1.3235633713    -2.6519711374    -1.7419459163
| 13>  C        0.4677881263    -3.9637165148    -1.8395603218
| 14>  H        0.7861386677     1.9431435612    -0.9578332648
| 15>  H       -0.3850220874     1.7102027161     0.3651911486
| 16>  H        1.3633443432     1.7522891738     0.7201250606
| 17>  H       -1.2209987896    -0.3054769394    -0.7317163933
| 18>  H       -0.0549039373    -0.0713222711    -2.0509902743
| 19>  H       -0.1251048699    -2.4224218568    -0.0916657547
| 20>  H       -1.7174395773    -3.1722648983    -2.1435384925
| 21>  H       -0.6265949265    -2.1319541360    -4.3900684742
| 22>  H        2.0154808771    -1.7677777027    -3.7992348674
| 23>  H        2.2915522956    -2.6174113501    -1.2449983262
| 24>  H        0.3231213556    -4.4683532196    -0.8790224236
| 25>  H        0.7367746137    -4.6758716411    -2.6225213441
| 26> *
| 27>
| 28>                          ****END OF INPUT****

CARTESIAN COORDINATES (ANGSTROEM)
---------------------------------
  C      0.613106    1.421210   -0.002701
  O      0.738564    0.027654   -0.135995
  C     -0.187068   -0.521629   -1.056027
  C      0.033425   -2.017974   -1.097336
  C     -0.656727   -2.923533   -2.181438
  C     -0.079857   -2.335548   -3.480381
  C      1.212615   -2.160216   -3.191734
  C      1.323563   -2.651971   -1.741946
  C      0.467788   -3.963717   -1.839560
  H      0.786139    1.943144   -0.957833
  H     -0.385022    1.710203    0.365191
  H      1.363344    1.752289    0.720125
  H     -1.220999   -0.305477   -0.731716
  H     -0.054904   -0.071322   -2.050990
  H     -0.125105   -2.422422   -0.091666
  H     -1.717440   -3.172265   -2.143538
  H     -0.626595   -2.131954   -4.390068
  H      2.015481   -1.767778   -3.799235
  H      2.291552   -2.617411   -1.244998
  H      0.323121   -4.468353   -0.879022
  H      0.736775   -4.675872   -2.622521

 Total Charge           Charge          ....    0
 Multiplicity           Mult            ....    1
 Number of Electrons    NEL             ....   68
 Basis Dimension        Dim             ....  351

ORBITAL ENERGIES
----------------

  NO   OCC          E(Eh)            E(eV)
   0   2.0000     -20.549525      -559.1810
   1   2.0000     -11.266417      -306.5748
   2   2.0000     -11.264320      -306.5177
   3   2.0000     -11.237175      -305.7791
   4   2.0000     -11.233343      -305.6748
   5   2.0000     -11.228975      -305.5559
   6   2.0000     -11.224268      -305.4279
   7   2.0000     -11.221005      -305.3391
   8   2.0000     -11.219250      -305.2913
   9   2.0000      -1.369802       -37.2742
  10   2.0000      -1.191732       -32.4287
  11   2.0000      -1.006016       -27.3751
  12   2.0000      -0.971930       -26.4476
  13   2.0000      -0.912029       -24.8176
  14   2.0000      -0.896384       -24.3918
  15   2.0000      -0.828426       -22.5426
  16   2.0000      -0.741597       -20.1799
  17   2.0000      -0.715677       -19.4745
  18   2.0000      -0.692962       -18.8565
  19   2.0000      -0.659620       -17.9492
  20   2.0000      -0.644391       -17.5348
  21   2.0000      -0.642906       -17.4944
  22   2.0000      -0.580947       -15.8084
  23   2.0000      -0.566418       -15.4130
  24   2.0000      -0.558816       -15.2062
  25   2.0000      -0.520822       -14.1723
  26   2.0000      -0.488212       -13.2849
  27   2.0000      -0.485288       -13.2054
  28   2.0000      -0.468789       -12.7564
  29   2.0000      -0.459730       -12.5099
  30   2.0000      -0.450722       -12.2648
  31   2.0000      -0.431722       -11.7478
  32   2.0000      -0.415130       -11.2963
  33   2.0000      -0.327491        -8.9115
  34   0.0000       0.142820         3.8863
  35   0.0000       0.147329         4.0090
  36   0.0000       0.158211         4.3051
  37   0.0000       0.174346         4.7442
  38   0.0000       0.179875         4.8947

MULLIKEN ATOMIC CHARGES
-----------------------
   0 C :   -0.219180
   1 O :   -0.304722
   2 C :   -0.109436
   3 C :   -0.040542
   4 C :   -0.029934
   5 C :   -0.244910
   6 C :   -0.223582
   7 C :   -0.035449
   8 C :   -0.203139
   9 H :    0.110340
  10 H :    0.108706
  11 H :    0.137029
  12 H :    0.092526
  13 H :    0.112905
  14 H :    0.103135
  15 H :    0.127933
  16 H :    0.129449
  17 H :    0.130040
  18 H :    0.130251
  19 H :    0.113742
  20 H :    0.114840
Sum of atomic charges:    0.0000000

LOEWDIN ATOMIC CHARGES
----------------------
   0 C :   -0.365713
   1 O :    0.135167
   2 C :   -0.308276
   3 C :   -0.180362
   4 C :   -0.168096
   5 C :   -0.138310
   6 C :   -0.134341
   7 C :   -0.164530
   8 C :   -0.180757
   9 H :    0.100664
  10 H :    0.100124
  11 H :    0.112506
  12 H :    0.121299
  13 H :    0.125712
  14 H :    0.155826
  15 H :    0.131632
  16 H :    0.132156
  17 H :    0.132952
  18 H :    0.134526
  19 H :    0.131054
  20 H :    0.126765

  Mayer bond orders larger than 0.1
B(  0-C ,  1-O ) :   0.9277 B(  0-C ,  9-H ) :   0.9368 B(  0-C , 10-H ) :   0.9384
B(  0-C , 11-H ) :   0.9395 B(  1-O ,  2-C ) :   0.9565 B(  2-C ,  3-C ) :   0.9380
B(  2-C , 12-H ) :   0.9215 B(  2-C , 13-H ) :   0.9188 B(  3-C ,  4-C ) :   0.9049
B(  3-C ,  7-C ) :   0.9061 B(  3-C , 14-H ) :   0.9202 B(  4-C ,  5-C ) :   0.8917
B(  4-C ,  8-C ) :   0.9197 B(  4-C , 15-H ) :   0.9117 B(  5-C ,  6-C ) :   1.7577
B(  5-C , 16-H ) :   0.9396 B(  6-C ,  7-C ) :   0.8982 B(  6-C , 17-H ) :   0.9402
B(  7-C ,  8-C ) :   0.9211 B(  7-C , 18-H ) :   0.9151 B(  8-C , 19-H ) :   0.9270
B(  8-C , 20-H ) :   0.9124

MP2 TOTAL ENERGY:     -386.362552793 Eh
FINAL SINGLE POINT ENERGY      -386.362552792890

DIPOLE MOMENT
-------------
                                X             Y             Z
Electronic contribution:      0.87048      -2.53451      -1.13549
Nuclear contribution   :     -1.16771       2.74308       1.01142
                        -----------------------------------------
Total Dipole Moment    :     -0.29723       0.20857      -0.12407
                        -----------------------------------------
Magnitude (a.u.)       :      0.38372
Magnitude (Debye)      :      0.97533

                             ****ORCA TERMINATED NORMALLY****
TOTAL RUN TIME: 0 days 0 hours 17 minutes 29 seconds 794 msec
