                         Program Version 3.0.3 - RELEASE   -
|  1> ! RI-MP2 RIJK def2-TZVP def2-TZVP/C def2-TZVP/JK TIGHTSCF
|  2> % maxcore 2000
|  3> % mp2 density relaxed end
|  4> *xyz 0 1
|  5>  C       -0.0249852191     1.5326895153     0.1030746842
|  6>  C        1.5162760417     1.4988814558    -0.0317237397
|  7>  C        2.1963762231     0.7624878923     1.1751101632
|  8>  C        1.2082005527     0.2888618764     2.2546708307
|  9>  C        0.7205287173    -0.6956690823     1.1780373010
| 10>  C       -0.0100324416    -0.0091314666    -0.0286966430
| 11>  C        1.3999718645     0.0888473565    -0.6926964568
| 12>  N        2.0803241555    -0.5974190981     0.4729085478
| 13>  H       -0.4744280342     1.9893665275     0.9903213388
| 14>  H       -0.4723331777     1.9836755908    -0.7883532021
| 15>  H        2.0441402291     2.3520693413    -0.4567843801
| 16>  H        3.1915639494     1.1099092118     1.4601565365
| 17>  H        1.7368350209    -0.2445914678     3.0490831987
| 18>  H        0.5075296856     0.9989290105     2.7007780802
| 19>  H        0.3617071627    -1.6860268679     1.4657696526
| 20>  H       -0.8703734207    -0.5275102774    -0.4510039564
| 21>  H        1.6538508323    -0.1701760164    -1.7213790056
| 22> *
| 23>
| 24>                          ****END OF INPUT****

CARTESIAN COORDINATES (ANGSTROEM)
---------------------------------
  C     -0.024985    1.532690    0.103075
  C      1.516276    1.498881   -0.031724
  C      2.196376    0.762488    1.175110
  C      1.208201    0.288862    2.254671
  C      0.720529   -0.695669    1.178037
  C     -0.010032   -0.009131   -0.028697
  C      1.399972    0.088847   -0.692696
  N      2.080324   -0.597419    0.472909
  H     -0.474428    1.989367    0.990321
  H     -0.472333    1.983676   -0.788353
  H      2.044140    2.352069   -0.456784
  H      3.191564    1.109909    1.460157
  H      1.736835   -0.244591    3.049083
  H      0.507530    0.998929    2.700778
  H      0.361707   -1.686027    1.465770
  H     -0.870373   -0.527510   -0.451004
  H      1.653851   -0.170176   -1.721379

 Total Charge           Charge          ....    0
 Multiplicity           Mult            ....    1
 Number of Electrons    NEL             ....   58
 Basis Dimension        Dim             ....  302

ORBITAL ENERGIES
----------------

  NO   OCC          E(Eh)            E(eV)
   0   2.0000     -15.537235      -422.7897
   1   2.0000     -11.256791      -306.3128
   2   2.0000     -11.256781      -306.3126
   3   2.0000     -11.253222      -306.2157
   4   2.0000     -11.232013      -305.6386
   5   2.0000     -11.231984      -305.6378
   6   2.0000     -11.227390      -305.5128
   7   2.0000     -11.223732      -305.4133
   8   2.0000      -1.290325       -35.1115
   9   2.0000      -1.075829       -29.2748
  10   2.0000      -0.997165       -27.1342
  11   2.0000      -0.979434       -26.6518
  12   2.0000      -0.844560       -22.9817
  13   2.0000      -0.796505       -21.6740
  14   2.0000      -0.791881       -21.5482
  15   2.0000      -0.711294       -19.3553
  16   2.0000      -0.654944       -17.8219
  17   2.0000      -0.653571       -17.7846
  18   2.0000      -0.606341       -16.4994
  19   2.0000      -0.596735       -16.2380
  20   2.0000      -0.543579       -14.7915
  21   2.0000      -0.533954       -14.5296
  22   2.0000      -0.525981       -14.3127
  23   2.0000      -0.459967       -12.5163
  24   2.0000      -0.459135       -12.4937
  25   2.0000      -0.436575       -11.8798
  26   2.0000      -0.408469       -11.1150
  27   2.0000      -0.395883       -10.7725
  28   2.0000      -0.348797        -9.4913
  29   0.0000       0.140871         3.8333
  30   0.0000       0.160237         4.3603
  31   0.0000       0.164621         4.4796
  32   0.0000       0.170986         4.6528
  33   0.0000       0.193321         5.2605

MULLIKEN ATOMIC CHARGES
-----------------------
   0 C :   -0.277821
   1 C :   -0.078848
   2 C :   -0.042462
   3 C :   -0.268001
   4 C :   -0.042462
   5 C :   -0.078848
   6 C :   -0.090791
   7 N :   -0.209487
   8 H :    0.111869
   9 H :    0.121910
  10 H :    0.126250
  11 H :    0.120651
  12 H :    0.125315
  13 H :    0.118672
  14 H :    0.120651
  15 H :    0.126250
  16 H :    0.117152
Sum of atomic charges:    0.0000000

LOEWDIN ATOMIC CHARGES
----------------------
   0 C :   -0.209031
   1 C :   -0.169331
   2 C :   -0.185796
   3 C :   -0.218205
   4 C :   -0.185796
   5 C :   -0.169331
   6 C :   -0.159168
   7 N :    0.117853
   8 H :    0.123943
   9 H :    0.141204
  10 H :    0.131458
  11 H :    0.128516
  12 H :    0.144188
  13 H :    0.127233
  14 H :    0.128516
  15 H :    0.131458
  16 H :    0.122289

  Mayer bond orders larger than 0.1
B(  0-C ,  1-C ) :   0.9518 B(  0-C ,  5-C ) :   0.9518 B(  0-C ,  8-H ) :   0.9089
B(  0-C ,  9-H ) :   0.9264 B(  1-C ,  2-C ) :   0.9123 B(  1-C ,  6-C ) :   0.8962
B(  1-C , 10-H ) :   0.9184 B(  2-C ,  3-C ) :   0.9758 B(  2-C ,  7-N ) :   0.9540
B(  2-C , 11-H ) :   0.9037 B(  3-C ,  4-C ) :   0.9758 B(  3-C , 12-H ) :   0.9138
B(  3-C , 13-H ) :   0.9142 B(  4-C ,  5-C ) :   0.9123 B(  4-C ,  7-N ) :   0.9540
B(  4-C , 14-H ) :   0.9037 B(  5-C ,  6-C ) :   0.8962 B(  5-C , 15-H ) :   0.9184
B(  6-C ,  7-N ) :   0.9461 B(  6-C , 16-H ) :   0.9086

MP2 TOTAL ENERGY:     -326.051797032 Eh
FINAL SINGLE POINT ENERGY      -326.051797032491

DIPOLE MOMENT
-------------
                                X             Y             Z
Electronic contribution:      1.79160      -1.81546      -1.05927
Nuclear contribution   :     -2.32797       2.35842       1.09774
                        -----------------------------------------
Total Dipole Moment    :     -0.53638       0.54296       0.03848
                        -----------------------------------------
Magnitude (a.u.)       :      0.76419
Magnitude (Debye)      :      1.94241

                             ****ORCA TERMINATED NORMALLY****
TOTAL RUN TIME: 0 days 0 hours 13 minutes 56 seconds 422 msec
