                         Program Version 3.0.3 - RELEASE   -
|  1> ! RI-MP2 RIJK def2-TZVP def2-TZVP/C def2-TZVP/JK TIGHTSCF
|  2> % maxcore 2000
|  3> % mp2 density relaxed end
|  4> *xyz 0 1
|  5>  C        0.0343354244     1.4816333116    -0.1100478305
|  6>  N       -0.0214991361     0.0406750836     0.0787679524
|  7>  C       -1.2805790829    -0.6762610083     0.3235447238
|  8>  C       -0.7575438159    -2.1169497703     0.1957667911
|  9>  C        0.4857054977    -2.1011928644     0.6837072003
| 10>  C        0.7504587515    -0.6505166318     1.1206562684
| 11>  C       -0.1351268668    -0.5211147835     2.4039880955
| 12>  N       -0.9670412963     0.7028394835     2.4666213716
| 13>  C       -1.5071971299    -0.5385116140     1.8654981101
| 14>  H        1.0707064509     1.7495178763    -0.3485969487
| 15>  H       -0.5686177420     1.7287135916    -0.9921663851
| 16>  H       -0.3043117144     2.0899707064     0.7329193921
| 17>  H       -2.1018175424    -0.3760058468    -0.3273823751
| 18>  H       -1.3349220680    -2.9607445934    -0.1563255044
| 19>  H        1.1667957772    -2.9290379084     0.8255262848
| 20>  H        1.7883586909    -0.3266970203     1.1993710117
| 21>  H        0.1374017222    -1.0424268056     3.3160161931
| 22>  H       -1.3384375301     0.8007515128     3.4097606189
| 23>  H       -2.3157005600    -1.0735292790     2.3532598100
| 24> *
| 25>
| 26>                          ****END OF INPUT****

CARTESIAN COORDINATES (ANGSTROEM)
---------------------------------
  C      0.034335    1.481633   -0.110048
  N     -0.021499    0.040675    0.078768
  C     -1.280579   -0.676261    0.323545
  C     -0.757544   -2.116950    0.195767
  C      0.485705   -2.101193    0.683707
  C      0.750459   -0.650517    1.120656
  C     -0.135127   -0.521115    2.403988
  N     -0.967041    0.702839    2.466621
  C     -1.507197   -0.538512    1.865498
  H      1.070706    1.749518   -0.348597
  H     -0.568618    1.728714   -0.992166
  H     -0.304312    2.089971    0.732919
  H     -2.101818   -0.376006   -0.327382
  H     -1.334922   -2.960745   -0.156326
  H      1.166796   -2.929038    0.825526
  H      1.788359   -0.326697    1.199371
  H      0.137402   -1.042427    3.316016
  H     -1.338438    0.800752    3.409761
  H     -2.315701   -1.073529    2.353260

 Total Charge           Charge          ....    0
 Multiplicity           Mult            ....    1
 Number of Electrons    NEL             ....   66
 Basis Dimension        Dim             ....  339

ORBITAL ENERGIES
----------------

  NO   OCC          E(Eh)            E(eV)
   0   2.0000     -15.555698      -423.2921
   1   2.0000     -15.532898      -422.6716
   2   2.0000     -11.262156      -306.4588
   3   2.0000     -11.262134      -306.4583
   4   2.0000     -11.253856      -306.2330
   5   2.0000     -11.253047      -306.2110
   6   2.0000     -11.224043      -305.4217
   7   2.0000     -11.223977      -305.4200
   8   2.0000     -11.222328      -305.3751
   9   2.0000      -1.293530       -35.1987
  10   2.0000      -1.209304       -32.9068
  11   2.0000      -1.061927       -28.8965
  12   2.0000      -0.977394       -26.5962
  13   2.0000      -0.933933       -25.4136
  14   2.0000      -0.880757       -23.9666
  15   2.0000      -0.787739       -21.4355
  16   2.0000      -0.760477       -20.6936
  17   2.0000      -0.730121       -19.8676
  18   2.0000      -0.714830       -19.4515
  19   2.0000      -0.686150       -18.6711
  20   2.0000      -0.620869       -16.8947
  21   2.0000      -0.574164       -15.6238
  22   2.0000      -0.566414       -15.4129
  23   2.0000      -0.559675       -15.2295
  24   2.0000      -0.523112       -14.2346
  25   2.0000      -0.513990       -13.9864
  26   2.0000      -0.503882       -13.7113
  27   2.0000      -0.486670       -13.2430
  28   2.0000      -0.482293       -13.1239
  29   2.0000      -0.437358       -11.9011
  30   2.0000      -0.384487       -10.4624
  31   2.0000      -0.349153        -9.5009
  32   2.0000      -0.327438        -8.9100
  33   0.0000       0.138818         3.7774
  34   0.0000       0.142378         3.8743
  35   0.0000       0.162208         4.4139
  36   0.0000       0.170543         4.6407
  37   0.0000       0.174565         4.7502

MULLIKEN ATOMIC CHARGES
-----------------------
   0 C :   -0.333625
   1 N :   -0.159092
   2 C :    0.067182
   3 C :   -0.215915
   4 C :   -0.215909
   5 C :    0.067177
   6 C :   -0.106068
   7 N :   -0.395955
   8 C :   -0.106072
   9 H :    0.123778
  10 H :    0.123779
  11 H :    0.146547
  12 H :    0.136364
  13 H :    0.133487
  14 H :    0.133487
  15 H :    0.136363
  16 H :    0.124355
  17 H :    0.215762
  18 H :    0.124356
Sum of atomic charges:    0.0000000

LOEWDIN ATOMIC CHARGES
----------------------
   0 C :   -0.332268
   1 N :    0.134864
   2 C :   -0.213217
   3 C :   -0.121660
   4 C :   -0.121659
   5 C :   -0.213218
   6 C :   -0.232474
   7 N :    0.004613
   8 C :   -0.232474
   9 H :    0.117016
  10 H :    0.117014
  11 H :    0.106844
  12 H :    0.141549
  13 H :    0.134123
  14 H :    0.134123
  15 H :    0.141548
  16 H :    0.133898
  17 H :    0.167479
  18 H :    0.133898

  Mayer bond orders larger than 0.1
B(  0-C ,  1-N ) :   0.8955 B(  0-C ,  9-H ) :   0.9380 B(  0-C , 10-H ) :   0.9380
B(  0-C , 11-H ) :   0.9223 B(  1-N ,  2-C ) :   0.9750 B(  1-N ,  5-C ) :   0.9750
B(  2-C ,  3-C ) :   0.9257 B(  2-C ,  8-C ) :   0.8512 B(  2-C , 12-H ) :   0.9050
B(  3-C ,  4-C ) :   1.8047 B(  3-C , 13-H ) :   0.9263 B(  4-C ,  5-C ) :   0.9257
B(  4-C , 14-H ) :   0.9263 B(  5-C ,  6-C ) :   0.8512 B(  5-C , 15-H ) :   0.9050
B(  6-C ,  7-N ) :   0.9684 B(  6-C ,  8-C ) :   0.9570 B(  6-C , 16-H ) :   0.9156
B(  7-N ,  8-C ) :   0.9684 B(  7-N , 17-H ) :   0.8715 B(  8-C , 18-H ) :   0.9156

MP2 TOTAL ENERGY:     -381.336626285 Eh
FINAL SINGLE POINT ENERGY      -381.336626285443

DIPOLE MOMENT
-------------
                                X             Y             Z
Electronic contribution:     -0.25061      -2.30775       0.71308
Nuclear contribution   :      0.01348       1.92053      -0.09635
                        -----------------------------------------
Total Dipole Moment    :     -0.23713      -0.38722       0.61673
                        -----------------------------------------
Magnitude (a.u.)       :      0.76585
Magnitude (Debye)      :      1.94663

                             ****ORCA TERMINATED NORMALLY****
TOTAL RUN TIME: 0 days 0 hours 20 minutes 14 seconds 342 msec
