                         Program Version 3.0.3 - RELEASE   -
|  1> ! RI-MP2 RIJK def2-TZVP def2-TZVP/C def2-TZVP/JK TIGHTSCF
|  2> % maxcore 2000
|  3> % mp2 density relaxed end
|  4> *xyz 0 1
|  5>  O       -0.0555860153    -0.0393318088     0.0030683675
|  6>  C       -0.0004003177     1.1659086768     0.0089805370
|  7>  C       -1.2234909119     2.1201363577     0.0319751924
|  8>  C       -0.6632845845     3.5611919187     0.0320302878
|  9>  N        0.7765795719     3.3300278404     0.0097949890
| 10>  N        1.7703972836     4.2036776086     0.0002776063
| 11>  C        2.8754053943     3.4297423657    -0.0201948314
| 12>  C        2.5680872264     2.0600321379    -0.0232828533
| 13>  C        1.1791515113     2.0326128859    -0.0032960289
| 14>  H       -1.8498564019     1.9147735130    -0.8397739989
| 15>  H       -1.8245705590     1.9048560294     0.9189960006
| 16>  H       -0.9619038027     4.1403055522    -0.8457657249
| 17>  H       -0.9361770784     4.1302135705     0.9246777487
| 18>  H        3.8479044121     3.8994323659    -0.0317389007
| 19>  H        3.2421313919     1.2201388661    -0.0377423713
| 20> *
| 21>
| 22>                          ****END OF INPUT****

CARTESIAN COORDINATES (ANGSTROEM)
---------------------------------
  O     -0.055586   -0.039332    0.003068
  C     -0.000400    1.165909    0.008981
  C     -1.223491    2.120136    0.031975
  C     -0.663285    3.561192    0.032030
  N      0.776580    3.330028    0.009795
  N      1.770397    4.203678    0.000278
  C      2.875405    3.429742   -0.020195
  C      2.568087    2.060032   -0.023283
  C      1.179152    2.032613   -0.003296
  H     -1.849856    1.914774   -0.839774
  H     -1.824571    1.904856    0.918996
  H     -0.961904    4.140306   -0.845766
  H     -0.936177    4.130214    0.924678
  H      3.847904    3.899432   -0.031739
  H      3.242131    1.220139   -0.037742

 Total Charge           Charge          ....    0
 Multiplicity           Mult            ....    1
 Number of Electrons    NEL             ....   64
 Basis Dimension        Dim             ....  315

ORBITAL ENERGIES
----------------

  NO   OCC          E(Eh)            E(eV)
   0   2.0000     -20.558822      -559.4340
   1   2.0000     -15.663781      -426.2331
   2   2.0000     -15.607608      -424.7046
   3   2.0000     -11.354683      -308.9766
   4   2.0000     -11.301791      -307.5374
   5   2.0000     -11.282089      -307.0012
   6   2.0000     -11.267336      -306.5998
   7   2.0000     -11.264824      -306.5315
   8   2.0000     -11.243916      -305.9625
   9   2.0000      -1.415329       -38.5131
  10   2.0000      -1.397112       -38.0174
  11   2.0000      -1.178194       -32.0603
  12   2.0000      -1.083890       -29.4941
  13   2.0000      -1.025859       -27.9150
  14   2.0000      -0.947691       -25.7880
  15   2.0000      -0.849798       -23.1242
  16   2.0000      -0.808546       -22.0016
  17   2.0000      -0.766525       -20.8582
  18   2.0000      -0.700832       -19.0706
  19   2.0000      -0.685989       -18.6667
  20   2.0000      -0.642281       -17.4774
  21   2.0000      -0.625128       -17.0106
  22   2.0000      -0.608174       -16.5492
  23   2.0000      -0.601646       -16.3716
  24   2.0000      -0.592733       -16.1291
  25   2.0000      -0.573655       -15.6099
  26   2.0000      -0.548803       -14.9337
  27   2.0000      -0.507084       -13.7985
  28   2.0000      -0.478129       -13.0105
  29   2.0000      -0.428715       -11.6659
  30   2.0000      -0.366539        -9.9740
  31   2.0000      -0.360840        -9.8189
  32   0.0000       0.079619         2.1665
  33   0.0000       0.124923         3.3993
  34   0.0000       0.149044         4.0557
  35   0.0000       0.169508         4.6126
  36   0.0000       0.177136         4.8201

MULLIKEN ATOMIC CHARGES
-----------------------
   0 O :   -0.271674
   1 C :    0.117387
   2 C :   -0.204814
   3 C :   -0.189624
   4 N :    0.173138
   5 N :   -0.267354
   6 C :   -0.065742
   7 C :   -0.183769
   8 C :   -0.003238
   9 H :    0.148041
  10 H :    0.148043
  11 H :    0.148133
  12 H :    0.148125
  13 H :    0.144320
  14 H :    0.159029
Sum of atomic charges:    0.0000000

LOEWDIN ATOMIC CHARGES
----------------------
   0 O :    0.152543
   1 C :   -0.305980
   2 C :   -0.201709
   3 C :   -0.210273
   4 N :    0.229047
   5 N :    0.049463
   6 C :   -0.245422
   7 C :   -0.148832
   8 C :   -0.191309
   9 H :    0.153111
  10 H :    0.153107
  11 H :    0.140852
  12 H :    0.140853
  13 H :    0.135730
  14 H :    0.148821

  Mayer bond orders larger than 0.1
B(  0-O ,  1-C ) :   2.0795 B(  1-C ,  2-C ) :   0.9425 B(  1-C ,  8-C ) :   0.8529
B(  2-C ,  3-C ) :   0.9297 B(  2-C ,  8-C ) :  -0.1176 B(  2-C ,  9-H ) :   0.9091
B(  2-C , 10-H ) :   0.9091 B(  3-C ,  4-N ) :   0.8526 B(  3-C , 11-H ) :   0.9209
B(  3-C , 12-H ) :   0.9209 B(  4-N ,  5-N ) :   1.0561 B(  4-N ,  8-C ) :   1.1631
B(  5-N ,  6-C ) :   1.4034 B(  6-C ,  7-C ) :   1.3745 B(  6-C , 13-H ) :   0.9333
B(  7-C ,  8-C ) :   1.3553 B(  7-C , 14-H ) :   0.9201

MP2 TOTAL ENERGY:     -416.148885481 Eh
FINAL SINGLE POINT ENERGY      -416.148885480589

DIPOLE MOMENT
-------------
                                X             Y             Z
Electronic contribution:      2.37541      -1.91390      -0.04503
Nuclear contribution   :     -2.87824       2.53482       0.05575
                        -----------------------------------------
Total Dipole Moment    :     -0.50283       0.62091       0.01072
                        -----------------------------------------
Magnitude (a.u.)       :      0.79905
Magnitude (Debye)      :      2.03103

                             ****ORCA TERMINATED NORMALLY****
TOTAL RUN TIME: 0 days 0 hours 17 minutes 14 seconds 718 msec
