                         Program Version 3.0.3 - RELEASE   -
|  1> ! RI-MP2 RIJK def2-TZVP def2-TZVP/C def2-TZVP/JK TIGHTSCF
|  2> % maxcore 2000
|  3> % mp2 density relaxed end
|  4> *xyz 0 1
|  5>  C        0.1113876078     1.3421345852     0.3998121569
|  6>  C        0.0660599930    -0.1156218132     0.0183855832
|  7>  C       -1.1256352807    -0.7492286472    -0.0910741224
|  8>  C       -1.4141555262    -2.1295457635    -0.4352177117
|  9>  C       -0.5738022679    -3.1506395066    -0.2232083951
| 10>  C        0.7694771048    -2.8979274825     0.3848013776
| 11>  O        1.5786306167    -2.0337206234    -0.4302546676
| 12>  C        1.3837973082    -0.6865716972    -0.3688853299
| 13>  N        2.3229829957     0.1060599231    -0.7069858094
| 14>  H        0.7453602559     1.4967901943     1.2791973946
| 15>  H        0.5602795842     1.9324611284    -0.4036147419
| 16>  H       -0.8899922801     1.7209865222     0.6176735181
| 17>  H       -2.0058354029    -0.1343919630     0.0886058704
| 18>  H       -2.4035132980    -2.3241509321    -0.8417182980
| 19>  H       -0.8519869789    -4.1667707942    -0.4821047551
| 20>  H        0.6611850133    -2.4467993580     1.3816699611
| 21>  H        1.3519477974    -3.8157562260     0.4831974640
| 22>  H        3.1542004277    -0.4361486661    -0.9500501949
| 23> *
| 24>
| 25>                          ****END OF INPUT****

CARTESIAN COORDINATES (ANGSTROEM)
---------------------------------
  C      0.111388    1.342135    0.399812
  C      0.066060   -0.115622    0.018386
  C     -1.125635   -0.749229   -0.091074
  C     -1.414156   -2.129546   -0.435218
  C     -0.573802   -3.150640   -0.223208
  C      0.769477   -2.897927    0.384801
  O      1.578631   -2.033721   -0.430255
  C      1.383797   -0.686572   -0.368885
  N      2.322983    0.106060   -0.706986
  H      0.745360    1.496790    1.279197
  H      0.560280    1.932461   -0.403615
  H     -0.889992    1.720987    0.617674
  H     -2.005835   -0.134392    0.088606
  H     -2.403513   -2.324151   -0.841718
  H     -0.851987   -4.166771   -0.482105
  H      0.661185   -2.446799    1.381670
  H      1.351948   -3.815756    0.483197
  H      3.154200   -0.436149   -0.950050

 Total Charge           Charge          ....    0
 Multiplicity           Mult            ....    1
 Number of Electrons    NEL             ....   66
 Basis Dimension        Dim             ....  333

ORBITAL ENERGIES
----------------

  NO   OCC          E(Eh)            E(eV)
   0   2.0000     -20.588734      -560.2479
   1   2.0000     -15.530085      -422.5951
   2   2.0000     -11.337642      -308.5129
   3   2.0000     -11.300110      -307.4916
   4   2.0000     -11.260106      -306.4031
   5   2.0000     -11.250967      -306.1544
   6   2.0000     -11.248991      -306.1006
   7   2.0000     -11.245382      -306.0024
   8   2.0000     -11.218623      -305.2742
   9   2.0000      -1.421025       -38.6680
  10   2.0000      -1.195975       -32.5441
  11   2.0000      -1.124268       -30.5929
  12   2.0000      -1.058609       -28.8062
  13   2.0000      -0.977195       -26.5908
  14   2.0000      -0.908901       -24.7325
  15   2.0000      -0.874724       -23.8025
  16   2.0000      -0.776130       -21.1196
  17   2.0000      -0.733411       -19.9571
  18   2.0000      -0.703084       -19.1319
  19   2.0000      -0.677994       -18.4491
  20   2.0000      -0.636046       -17.3077
  21   2.0000      -0.623785       -16.9740
  22   2.0000      -0.595832       -16.2134
  23   2.0000      -0.579719       -15.7749
  24   2.0000      -0.564988       -15.3741
  25   2.0000      -0.536846       -14.6083
  26   2.0000      -0.529082       -14.3971
  27   2.0000      -0.515055       -14.0154
  28   2.0000      -0.479529       -13.0486
  29   2.0000      -0.443316       -12.0632
  30   2.0000      -0.431091       -11.7306
  31   2.0000      -0.403122       -10.9695
  32   2.0000      -0.323514        -8.8033
  33   0.0000       0.075241         2.0474
  34   0.0000       0.141867         3.8604
  35   0.0000       0.150570         4.0972
  36   0.0000       0.163840         4.4583
  37   0.0000       0.170605         4.6424

MULLIKEN ATOMIC CHARGES
-----------------------
   0 C :   -0.377308
   1 C :    0.032903
   2 C :   -0.140635
   3 C :   -0.111312
   4 C :   -0.202844
   5 C :   -0.032388
   6 O :   -0.255125
   7 C :    0.169693
   8 N :   -0.386820
   9 H :    0.136562
  10 H :    0.164688
  11 H :    0.122581
  12 H :    0.125812
  13 H :    0.131743
  14 H :    0.134603
  15 H :    0.127754
  16 H :    0.142420
  17 H :    0.217673
Sum of atomic charges:   -0.0000000

LOEWDIN ATOMIC CHARGES
----------------------
   0 C :   -0.259544
   1 C :   -0.144006
   2 C :   -0.118967
   3 C :   -0.154540
   4 C :   -0.159990
   5 C :   -0.276000
   6 O :    0.240295
   7 C :   -0.375573
   8 N :   -0.044897
   9 H :    0.134545
  10 H :    0.140665
  11 H :    0.124360
  12 H :    0.155629
  13 H :    0.151580
  14 H :    0.143884
  15 H :    0.140771
  16 H :    0.136539
  17 H :    0.165249

  Mayer bond orders larger than 0.1
B(  0-C ,  1-C ) :   0.9054 B(  0-C ,  9-H ) :   0.9229 B(  0-C , 10-H ) :   0.9174
B(  0-C , 11-H ) :   0.9400 B(  1-C ,  2-C ) :   1.6465 B(  1-C ,  7-C ) :   0.9424
B(  1-C ,  8-N ) :  -0.1059 B(  2-C ,  3-C ) :   1.0204 B(  2-C , 12-H ) :   0.9217
B(  3-C ,  4-C ) :   1.7219 B(  3-C , 13-H ) :   0.9253 B(  4-C ,  5-C ) :   0.9577
B(  4-C , 14-H ) :   0.9230 B(  5-C ,  6-O ) :   0.8336 B(  5-C , 15-H ) :   0.9199
B(  5-C , 16-H ) :   0.9350 B(  6-O ,  7-C ) :   1.1226 B(  7-C ,  8-N ) :   1.9725
B(  8-N , 17-H ) :   0.8574

MP2 TOTAL ENERGY:     -401.261682726 Eh
FINAL SINGLE POINT ENERGY      -401.261682726071

DIPOLE MOMENT
-------------
                                X             Y             Z
Electronic contribution:      2.28089      -2.66833      -1.96667
Nuclear contribution   :     -3.01011       1.92583       2.42283
                        -----------------------------------------
Total Dipole Moment    :     -0.72922      -0.74249       0.45616
                        -----------------------------------------
Magnitude (a.u.)       :      1.13628
Magnitude (Debye)      :      2.88821

                             ****ORCA TERMINATED NORMALLY****
TOTAL RUN TIME: 0 days 0 hours 18 minutes 37 seconds 98 msec
