                         Program Version 3.0.3 - RELEASE   -
|  1> ! RI-MP2 RIJK def2-TZVP def2-TZVP/C def2-TZVP/JK TIGHTSCF
|  2> % maxcore 2000
|  3> % mp2 density relaxed end
|  4> *xyz 0 1
|  5>  C        0.0956169232     1.3800838103     0.3826853043
|  6>  C        0.0486638091    -0.0978449535    -0.0151018808
|  7>  C        0.8280336558    -0.9957293490     0.9654906895
|  8>  N        2.2396611166    -0.6708863519     1.0553731819
|  9>  C        2.8002794103    -0.1002285016     2.1585873366
| 10>  O        2.1995992456     0.2134472461     3.1633697056
| 11>  C       -1.4056957250    -0.6212085349    -0.1012494496
| 12>  C       -2.1906394314     0.0514370772    -1.1332013058
| 13>  N       -2.7933532958     0.5895502664    -1.9594869321
| 14>  H        1.1261090100     1.7419454666     0.4086384300
| 15>  H       -0.4621550637     1.9941784189    -0.3296415187
| 16>  H       -0.3335241690     1.5308118883     1.3791360035
| 17>  H        0.4965966143    -0.2105101688    -1.0117104309
| 18>  H        0.4268819018    -0.8870444899     1.9774239754
| 19>  H        0.7187653914    -2.0471436628     0.6704072681
| 20>  H        2.8422100225    -0.8915901559     0.2783021700
| 21>  H        3.8910096028     0.0470694263     2.0334835536
| 22>  H       -1.4135093581    -1.6971470173    -0.3128980280
| 23>  H       -1.9087090805    -0.4854954346     0.8642363073
| 24> *
| 25>
| 26>                          ****END OF INPUT****

CARTESIAN COORDINATES (ANGSTROEM)
---------------------------------
  C      0.095617    1.380084    0.382685
  C      0.048664   -0.097845   -0.015102
  C      0.828034   -0.995729    0.965491
  N      2.239661   -0.670886    1.055373
  C      2.800279   -0.100229    2.158587
  O      2.199599    0.213447    3.163370
  C     -1.405696   -0.621209   -0.101249
  C     -2.190639    0.051437   -1.133201
  N     -2.793353    0.589550   -1.959487
  H      1.126109    1.741945    0.408638
  H     -0.462155    1.994178   -0.329642
  H     -0.333524    1.530812    1.379136
  H      0.496597   -0.210510   -1.011710
  H      0.426882   -0.887044    1.977424
  H      0.718765   -2.047144    0.670407
  H      2.842210   -0.891590    0.278302
  H      3.891010    0.047069    2.033484
  H     -1.413509   -1.697147   -0.312898
  H     -1.908709   -0.485495    0.864236

 Total Charge           Charge          ....    0
 Multiplicity           Mult            ....    1
 Number of Electrons    NEL             ....   68
 Basis Dimension        Dim             ....  339

ORBITAL ENERGIES
----------------

  NO   OCC          E(Eh)            E(eV)
   0   2.0000     -20.534093      -558.7611
   1   2.0000     -15.603540      -424.5939
   2   2.0000     -15.571250      -423.7152
   3   2.0000     -11.360975      -309.1479
   4   2.0000     -11.288020      -307.1627
   5   2.0000     -11.285307      -307.0888
   6   2.0000     -11.276179      -306.8404
   7   2.0000     -11.266499      -306.5770
   8   2.0000     -11.228154      -305.5336
   9   2.0000      -1.395329       -37.9688
  10   2.0000      -1.252085       -34.0710
  11   2.0000      -1.221787       -33.2465
  12   2.0000      -1.119004       -30.4496
  13   2.0000      -1.000301       -27.2196
  14   2.0000      -0.963259       -26.2116
  15   2.0000      -0.842056       -22.9135
  16   2.0000      -0.813233       -22.1292
  17   2.0000      -0.747447       -20.3391
  18   2.0000      -0.710721       -19.3397
  19   2.0000      -0.666079       -18.1249
  20   2.0000      -0.660414       -17.9708
  21   2.0000      -0.643143       -17.5008
  22   2.0000      -0.605306       -16.4712
  23   2.0000      -0.590762       -16.0755
  24   2.0000      -0.572007       -15.5651
  25   2.0000      -0.563266       -15.3272
  26   2.0000      -0.554641       -15.0926
  27   2.0000      -0.524920       -14.2838
  28   2.0000      -0.513811       -13.9815
  29   2.0000      -0.501218       -13.6388
  30   2.0000      -0.460440       -12.5292
  31   2.0000      -0.458887       -12.4870
  32   2.0000      -0.442504       -12.0411
  33   2.0000      -0.407607       -11.0916
  34   0.0000       0.108472         2.9517
  35   0.0000       0.127004         3.4560
  36   0.0000       0.151892         4.1332
  37   0.0000       0.162925         4.4334
  38   0.0000       0.162979         4.4349

MULLIKEN ATOMIC CHARGES
-----------------------
   0 C :   -0.412068
   1 C :   -0.081531
   2 C :   -0.122350
   3 N :   -0.338924
   4 C :    0.201023
   5 O :   -0.362651
   6 C :   -0.127110
   7 C :   -0.193800
   8 N :   -0.053215
   9 H :    0.138436
  10 H :    0.162941
  11 H :    0.136621
  12 H :    0.102667
  13 H :    0.162591
  14 H :    0.139244
  15 H :    0.242052
  16 H :    0.087819
  17 H :    0.155760
  18 H :    0.162494
Sum of atomic charges:    0.0000000

LOEWDIN ATOMIC CHARGES
----------------------
   0 C :   -0.281900
   1 C :   -0.273443
   2 C :   -0.257265
   3 N :    0.084916
   4 C :   -0.437691
   5 O :    0.059306
   6 C :   -0.224591
   7 C :   -0.193865
   8 N :    0.057522
   9 H :    0.128597
  10 H :    0.132663
  11 H :    0.131438
  12 H :    0.155258
  13 H :    0.152763
  14 H :    0.136360
  15 H :    0.185132
  16 H :    0.111335
  17 H :    0.165049
  18 H :    0.168416

  Mayer bond orders larger than 0.1
B(  0-C ,  1-C ) :   0.9321 B(  0-C ,  9-H ) :   0.9335 B(  0-C , 10-H ) :   0.9307
B(  0-C , 11-H ) :   0.9239 B(  1-C ,  2-C ) :   0.9184 B(  1-C ,  6-C ) :   0.9066
B(  1-C , 12-H ) :   0.9242 B(  2-C ,  3-N ) :   0.8257 B(  2-C , 13-H ) :   0.9120
B(  2-C , 14-H ) :   0.9375 B(  3-N ,  4-C ) :   1.1497 B(  3-N , 15-H ) :   0.8719
B(  4-C ,  5-O ) :   1.8854 B(  4-C , 16-H ) :   0.9309 B(  6-C ,  7-C ) :   0.9397
B(  6-C , 17-H ) :   0.9049 B(  6-C , 18-H ) :   0.9010 B(  7-C ,  8-N ) :   2.8795

MP2 TOTAL ENERGY:     -418.549390545 Eh
FINAL SINGLE POINT ENERGY      -418.549390544803

DIPOLE MOMENT
-------------
                                X             Y             Z
Electronic contribution:     -1.30579      -0.49487      -0.57432
Nuclear contribution   :      2.47192      -0.60447       0.33175
                        -----------------------------------------
Total Dipole Moment    :      1.16613      -1.09934      -0.24257
                        -----------------------------------------
Magnitude (a.u.)       :      1.62088
Magnitude (Debye)      :      4.11996

                             ****ORCA TERMINATED NORMALLY****
TOTAL RUN TIME: 0 days 0 hours 17 minutes 35 seconds 166 msec
