                         Program Version 3.0.3 - RELEASE   -
|  1> ! RI-MP2 RIJK def2-TZVP def2-TZVP/C def2-TZVP/JK TIGHTSCF
|  2> % maxcore 2000
|  3> % mp2 density relaxed end
|  4> *xyz 0 1
|  5>  C       -0.1133503110     1.5040996666     0.0343559102
|  6>  C        0.0078191613    -0.0041559769    -0.0031836281
|  7>  C       -0.8158874356    -0.8334031122     0.9632139747
|  8>  C        0.6901837782    -0.7188822954     1.1254005819
|  9>  N        1.5649857644    -1.8085763268     0.7907400535
| 10>  C        1.4242673444    -2.5619649664    -0.3596077108
| 11>  O        1.9502585314    -3.6514401076    -0.5024519402
| 12>  N        0.6151708825    -1.9911916742    -1.3232855821
| 13>  C        0.3000352195    -0.5722079706    -1.3828288744
| 14>  H        0.7949972675     1.9866773464    -0.3445714449
| 15>  H       -0.9557472728     1.8476836321    -0.5778122014
| 16>  H       -0.2812840766     1.8597496277     1.0550585229
| 17>  H       -1.4505873370    -0.3062835465     1.6678965743
| 18>  H       -1.2051563377    -1.7839062538     0.6163147409
| 19>  H        1.0710653267    -0.1235296706     1.9489412392
| 20>  H        1.9359579851    -2.3559997420     1.5531698646
| 21>  H        0.6558966549    -2.4949563695    -2.1958079904
| 22>  H       -0.5675257046    -0.4406883879    -2.0412573730
| 23>  H        1.1273580495     0.0091169076    -1.8231293468
| 24> *
| 25>
| 26>                          ****END OF INPUT****

CARTESIAN COORDINATES (ANGSTROEM)
---------------------------------
  C     -0.113350    1.504100    0.034356
  C      0.007819   -0.004156   -0.003184
  C     -0.815887   -0.833403    0.963214
  C      0.690184   -0.718882    1.125401
  N      1.564986   -1.808576    0.790740
  C      1.424267   -2.561965   -0.359608
  O      1.950259   -3.651440   -0.502452
  N      0.615171   -1.991192   -1.323286
  C      0.300035   -0.572208   -1.382829
  H      0.794997    1.986677   -0.344571
  H     -0.955747    1.847684   -0.577812
  H     -0.281284    1.859750    1.055059
  H     -1.450587   -0.306284    1.667897
  H     -1.205156   -1.783906    0.616315
  H      1.071065   -0.123530    1.948941
  H      1.935958   -2.356000    1.553170
  H      0.655897   -2.494956   -2.195808
  H     -0.567526   -0.440688   -2.041257
  H      1.127358    0.009117   -1.823129

 Total Charge           Charge          ....    0
 Multiplicity           Mult            ....    1
 Number of Electrons    NEL             ....   68
 Basis Dimension        Dim             ....  339

ORBITAL ENERGIES
----------------

  NO   OCC          E(Eh)            E(eV)
   0   2.0000     -20.499701      -557.8252
   1   2.0000     -15.578203      -423.9045
   2   2.0000     -15.576174      -423.8492
   3   2.0000     -11.367014      -309.3122
   4   2.0000     -11.279756      -306.9378
   5   2.0000     -11.279173      -306.9219
   6   2.0000     -11.254349      -306.2464
   7   2.0000     -11.233849      -305.6886
   8   2.0000     -11.232281      -305.6459
   9   2.0000      -1.384871       -37.6843
  10   2.0000      -1.264184       -34.4002
  11   2.0000      -1.202430       -32.7198
  12   2.0000      -1.142741       -31.0956
  13   2.0000      -0.988680       -26.9034
  14   2.0000      -0.946369       -25.7520
  15   2.0000      -0.865996       -23.5650
  16   2.0000      -0.822991       -22.3947
  17   2.0000      -0.735339       -20.0096
  18   2.0000      -0.702793       -19.1240
  19   2.0000      -0.696842       -18.9620
  20   2.0000      -0.648408       -17.6441
  21   2.0000      -0.640429       -17.4270
  22   2.0000      -0.620038       -16.8721
  23   2.0000      -0.597532       -16.2597
  24   2.0000      -0.592696       -16.1281
  25   2.0000      -0.569450       -15.4955
  26   2.0000      -0.559190       -15.2163
  27   2.0000      -0.541230       -14.7276
  28   2.0000      -0.508792       -13.8449
  29   2.0000      -0.475556       -12.9405
  30   2.0000      -0.430336       -11.7100
  31   2.0000      -0.421651       -11.4737
  32   2.0000      -0.390512       -10.6264
  33   2.0000      -0.365774        -9.9532
  34   0.0000       0.125633         3.4186
  35   0.0000       0.148640         4.0447
  36   0.0000       0.152401         4.1471
  37   0.0000       0.178780         4.8649
  38   0.0000       0.182658         4.9704

MULLIKEN ATOMIC CHARGES
-----------------------
   0 C :   -0.424272
   1 C :    0.086424
   2 C :   -0.312036
   3 C :   -0.026066
   4 N :   -0.343581
   5 C :    0.313800
   6 O :   -0.384607
   7 N :   -0.358418
   8 C :   -0.107842
   9 H :    0.139011
  10 H :    0.137204
  11 H :    0.132847
  12 H :    0.132173
  13 H :    0.157258
  14 H :    0.130109
  15 H :    0.244698
  16 H :    0.241648
  17 H :    0.125270
  18 H :    0.116381
Sum of atomic charges:    0.0000000

LOEWDIN ATOMIC CHARGES
----------------------
   0 C :   -0.261999
   1 C :   -0.262932
   2 C :   -0.185614
   3 C :   -0.227076
   4 N :    0.115004
   5 C :   -0.551874
   6 O :    0.043827
   7 N :    0.089112
   8 C :   -0.235043
   9 H :    0.129284
  10 H :    0.129479
  11 H :    0.130665
  12 H :    0.135011
  13 H :    0.143330
  14 H :    0.147185
  15 H :    0.195210
  16 H :    0.191168
  17 H :    0.139564
  18 H :    0.135699

  Mayer bond orders larger than 0.1
B(  0-C ,  1-C ) :   0.8975 B(  0-C ,  9-H ) :   0.9368 B(  0-C , 10-H ) :   0.9402
B(  0-C , 11-H ) :   0.9317 B(  1-C ,  2-C ) :   0.8539 B(  1-C ,  3-C ) :   0.8824
B(  1-C ,  8-C ) :   0.9470 B(  2-C ,  3-C ) :   0.8813 B(  2-C , 12-H ) :   0.9204
B(  2-C , 13-H ) :   0.9173 B(  3-C ,  4-N ) :   0.9172 B(  3-C , 14-H ) :   0.9275
B(  4-N ,  5-C ) :   1.1200 B(  4-N , 15-H ) :   0.8649 B(  5-C ,  6-O ) :   1.9805
B(  5-C ,  7-N ) :   1.1027 B(  7-N ,  8-C ) :   0.8918 B(  7-N , 16-H ) :   0.8693
B(  8-C , 17-H ) :   0.9246 B(  8-C , 18-H ) :   0.9288

MP2 TOTAL ENERGY:     -418.545976372 Eh
FINAL SINGLE POINT ENERGY      -418.545976372144

DIPOLE MOMENT
-------------
                                X             Y             Z
Electronic contribution:      4.16612      -8.04671      -0.53177
Nuclear contribution   :     -4.92942       9.54891       0.68549
                        -----------------------------------------
Total Dipole Moment    :     -0.76331       1.50221       0.15372
                        -----------------------------------------
Magnitude (a.u.)       :      1.69201
Magnitude (Debye)      :      4.30075

                             ****ORCA TERMINATED NORMALLY****
TOTAL RUN TIME: 0 days 0 hours 18 minutes 20 seconds 312 msec
