                         Program Version 3.0.3 - RELEASE   -
|  1> ! RI-MP2 RIJK def2-TZVP def2-TZVP/C def2-TZVP/JK TIGHTSCF
|  2> % maxcore 2000
|  3> % mp2 density relaxed end
|  4> *xyz 0 1
|  5>  C       -0.1038201933    -1.2543603028    -0.0963157489
|  6>  C       -0.0804490539    -0.0552420698    -0.0264332507
|  7>  C       -0.0596019462     1.3875447117     0.0570356243
|  8>  C       -0.0918660133     1.9863177362     1.5007562416
|  9>  N        1.3669362821     2.2110335273     1.4235904423
| 10>  C        1.3584816889     2.0745100870    -0.0437567763
| 11>  C        2.4735341961     1.3211095048    -0.6150106322
| 12>  N        3.3578812498     0.7463772382    -1.0865119241
| 13>  H       -0.1112565486    -2.3144395503    -0.1609181589
| 14>  H       -0.7876706903     1.8217722366    -0.6309797962
| 15>  H       -0.7002413473     2.8992543302     1.5463660839
| 16>  H       -0.3981788044     1.3048758954     2.2975722409
| 17>  H        1.7118539989     3.0966304169     1.7753584188
| 18>  H        1.2724594016     3.0225604783    -0.5937342644
| 19> *
| 20>
| 21>                          ****END OF INPUT****

CARTESIAN COORDINATES (ANGSTROEM)
---------------------------------
  C     -0.103820   -1.254360   -0.096316
  C     -0.080449   -0.055242   -0.026433
  C     -0.059602    1.387545    0.057036
  C     -0.091866    1.986318    1.500756
  N      1.366936    2.211034    1.423590
  C      1.358482    2.074510   -0.043757
  C      2.473534    1.321110   -0.615011
  N      3.357881    0.746377   -1.086512
  H     -0.111257   -2.314440   -0.160918
  H     -0.787671    1.821772   -0.630980
  H     -0.700241    2.899254    1.546366
  H     -0.398179    1.304876    2.297572
  H      1.711854    3.096630    1.775358
  H      1.272459    3.022560   -0.593734

 Total Charge           Charge          ....    0
 Multiplicity           Mult            ....    1
 Number of Electrons    NEL             ....   56
 Basis Dimension        Dim             ....  284

ORBITAL ENERGIES
----------------

  NO   OCC          E(Eh)            E(eV)
   0   2.0000     -15.578943      -423.9246
   1   2.0000     -15.570057      -423.6828
   2   2.0000     -11.325933      -308.1943
   3   2.0000     -11.291490      -307.2571
   4   2.0000     -11.286466      -307.1203
   5   2.0000     -11.269026      -306.6458
   6   2.0000     -11.243335      -305.9467
   7   2.0000     -11.235084      -305.7222
   8   2.0000      -1.279508       -34.8172
   9   2.0000      -1.212104       -32.9830
  10   2.0000      -1.074627       -29.2421
  11   2.0000      -0.998459       -27.1694
  12   2.0000      -0.983460       -26.7613
  13   2.0000      -0.847166       -23.0525
  14   2.0000      -0.760976       -20.7072
  15   2.0000      -0.741692       -20.1825
  16   2.0000      -0.708116       -19.2688
  17   2.0000      -0.629433       -17.1277
  18   2.0000      -0.608630       -16.5617
  19   2.0000      -0.589414       -16.0388
  20   2.0000      -0.564389       -15.3578
  21   2.0000      -0.545164       -14.8347
  22   2.0000      -0.531268       -14.4565
  23   2.0000      -0.462577       -12.5874
  24   2.0000      -0.455036       -12.3822
  25   2.0000      -0.418716       -11.3938
  26   2.0000      -0.395283       -10.7562
  27   2.0000      -0.393405       -10.7051
  28   0.0000       0.107866         2.9352
  29   0.0000       0.130284         3.5452
  30   0.0000       0.144929         3.9437
  31   0.0000       0.161440         4.3930
  32   0.0000       0.169114         4.6018

MULLIKEN ATOMIC CHARGES
-----------------------
   0 C :   -0.123669
   1 C :   -0.073775
   2 C :   -0.128773
   3 C :   -0.135163
   4 N :   -0.335939
   5 C :    0.070942
   6 C :   -0.164750
   7 N :   -0.049450
   8 H :    0.197210
   9 H :    0.145982
  10 H :    0.119591
  11 H :    0.130264
  12 H :    0.215448
  13 H :    0.132083
Sum of atomic charges:   -0.0000000

LOEWDIN ATOMIC CHARGES
----------------------
   0 C :   -0.070823
   1 C :   -0.090864
   2 C :   -0.178434
   3 C :   -0.225615
   4 N :    0.020296
   5 C :   -0.235297
   6 C :   -0.161759
   7 N :    0.075463
   8 H :    0.130026
   9 H :    0.164317
  10 H :    0.121713
  11 H :    0.129346
  12 H :    0.161988
  13 H :    0.159642

  Mayer bond orders larger than 0.1
B(  0-C ,  1-C ) :   2.5969 B(  0-C ,  8-H ) :   0.8879 B(  1-C ,  2-C ) :   1.1705
B(  2-C ,  3-C ) :   0.8597 B(  2-C ,  5-C ) :   0.8808 B(  2-C ,  9-H ) :   0.9243
B(  3-C ,  4-N ) :   0.9655 B(  3-C , 10-H ) :   0.9261 B(  3-C , 11-H ) :   0.9147
B(  4-N ,  5-C ) :   1.0739 B(  4-N , 12-H ) :   0.8792 B(  5-C ,  6-C ) :   0.9043
B(  5-C , 13-H ) :   0.9197 B(  6-C ,  7-N ) :   2.8660

MP2 TOTAL ENERGY:     -340.917193651 Eh
FINAL SINGLE POINT ENERGY      -340.917193651215

DIPOLE MOMENT
-------------
                                X             Y             Z
Electronic contribution:      3.43781      -1.88780      -2.49647
Nuclear contribution   :     -4.84973       3.02598       3.00056
                        -----------------------------------------
Total Dipole Moment    :     -1.41192       1.13818       0.50409
                        -----------------------------------------
Magnitude (a.u.)       :      1.88230
Magnitude (Debye)      :      4.78443

                             ****ORCA TERMINATED NORMALLY****
TOTAL RUN TIME: 0 days 0 hours 11 minutes 11 seconds 490 msec
