                         Program Version 3.0.3 - RELEASE   -
|  1> ! RI-MP2 RIJK def2-TZVP def2-TZVP/C def2-TZVP/JK TIGHTSCF
|  2> % maxcore 2000
|  3> % mp2 density relaxed end
|  4> *xyz 0 1
|  5>  N       -0.1828544142    -1.1251733444     0.0013675513
|  6>  C       -0.1000646060     0.0272187131    -0.0079065886
|  7>  C        0.0040742165     1.4855881534    -0.0194559129
|  8>  C        1.4510837284     1.9884189476     0.0001362870
|  9>  C        1.6857440026     3.5109606832     0.1968849953
| 10>  C        2.7265051567     3.1139480327     1.2732192364
| 11>  C        2.2724674416     3.1628331173     2.7442008523
| 12>  C        1.7153143282     1.7298636072     2.5265766013
| 13>  N        2.3383476827     1.6471916488     1.1611779740
| 14>  H       -0.4785529356     1.8629593427    -0.9289263739
| 15>  H       -0.5710087619     1.8854816842     0.8223398852
| 16>  H        1.9442920120     1.6192083080    -0.9053905621
| 17>  H        2.0604508688     4.0538963300    -0.6734021156
| 18>  H        0.8234798406     4.0524173833     0.6004494247
| 19>  H        3.7654306851     3.3712508756     1.0507762801
| 20>  H        3.0981371257     3.2084726080     3.4572603756
| 21>  H        1.5486780820     3.9419823930     2.9974681549
| 22>  H        2.1177836381     0.9622346754     3.1923243701
| 23>  H        0.6243615987     1.6472731007     2.5502786049
| 24> *
| 25>
| 26>                          ****END OF INPUT****

CARTESIAN COORDINATES (ANGSTROEM)
---------------------------------
  N     -0.182854   -1.125173    0.001368
  C     -0.100065    0.027219   -0.007907
  C      0.004074    1.485588   -0.019456
  C      1.451084    1.988419    0.000136
  C      1.685744    3.510961    0.196885
  C      2.726505    3.113948    1.273219
  C      2.272467    3.162833    2.744201
  C      1.715314    1.729864    2.526577
  N      2.338348    1.647192    1.161178
  H     -0.478553    1.862959   -0.928926
  H     -0.571009    1.885482    0.822340
  H      1.944292    1.619208   -0.905391
  H      2.060451    4.053896   -0.673402
  H      0.823480    4.052417    0.600449
  H      3.765431    3.371251    1.050776
  H      3.098137    3.208473    3.457260
  H      1.548678    3.941982    2.997468
  H      2.117784    0.962235    3.192324
  H      0.624362    1.647273    2.550279

 Total Charge           Charge          ....    0
 Multiplicity           Mult            ....    1
 Number of Electrons    NEL             ....   66
 Basis Dimension        Dim             ....  339

ORBITAL ENERGIES
----------------

  NO   OCC          E(Eh)            E(eV)
   0   2.0000     -15.566465      -423.5850
   1   2.0000     -15.551411      -423.1754
   2   2.0000     -11.285181      -307.0854
   3   2.0000     -11.283227      -307.0322
   4   2.0000     -11.271026      -306.7002
   5   2.0000     -11.268980      -306.6445
   6   2.0000     -11.260327      -306.4091
   7   2.0000     -11.242634      -305.9276
   8   2.0000     -11.235606      -305.7364
   9   2.0000      -1.272735       -34.6329
  10   2.0000      -1.215364       -33.0717
  11   2.0000      -1.084619       -29.5140
  12   2.0000      -1.016596       -27.6630
  13   2.0000      -0.983409       -26.7599
  14   2.0000      -0.878999       -23.9188
  15   2.0000      -0.836873       -22.7725
  16   2.0000      -0.732299       -19.9269
  17   2.0000      -0.709368       -19.3029
  18   2.0000      -0.687465       -18.7069
  19   2.0000      -0.655821       -17.8458
  20   2.0000      -0.641486       -17.4557
  21   2.0000      -0.611148       -16.6302
  22   2.0000      -0.587202       -15.9786
  23   2.0000      -0.554868       -15.0987
  24   2.0000      -0.548118       -14.9150
  25   2.0000      -0.530824       -14.4445
  26   2.0000      -0.510127       -13.8812
  27   2.0000      -0.496240       -13.5034
  28   2.0000      -0.467004       -12.7078
  29   2.0000      -0.456382       -12.4188
  30   2.0000      -0.446268       -12.1436
  31   2.0000      -0.433039       -11.7836
  32   2.0000      -0.366079        -9.9615
  33   0.0000       0.120266         3.2726
  34   0.0000       0.139545         3.7972
  35   0.0000       0.146032         3.9737
  36   0.0000       0.158083         4.3016
  37   0.0000       0.173034         4.7085

MULLIKEN ATOMIC CHARGES
-----------------------
   0 N :   -0.054699
   1 C :   -0.164884
   2 C :   -0.188141
   3 C :   -0.023088
   4 C :   -0.255842
   5 C :    0.006570
   6 C :   -0.275043
   7 C :   -0.152821
   8 N :   -0.174126
   9 H :    0.165796
  10 H :    0.159691
  11 H :    0.117674
  12 H :    0.133165
  13 H :    0.115305
  14 H :    0.114248
  15 H :    0.130833
  16 H :    0.113629
  17 H :    0.128384
  18 H :    0.103349
Sum of atomic charges:    0.0000000

LOEWDIN ATOMIC CHARGES
----------------------
   0 N :    0.061535
   1 C :   -0.188141
   2 C :   -0.237948
   3 C :   -0.246090
   4 C :   -0.202971
   5 C :   -0.209758
   6 C :   -0.232263
   7 C :   -0.243425
   8 N :    0.108487
   9 H :    0.170923
  10 H :    0.160768
  11 H :    0.153222
  12 H :    0.130978
  13 H :    0.134666
  14 H :    0.131123
  15 H :    0.134519
  16 H :    0.127927
  17 H :    0.126447
  18 H :    0.120000

  Mayer bond orders larger than 0.1
B(  0-N ,  1-C ) :   2.8714 B(  1-C ,  2-C ) :   0.9441 B(  2-C ,  3-C ) :   0.9022
B(  2-C ,  9-H ) :   0.9021 B(  2-C , 10-H ) :   0.9143 B(  3-C ,  4-C ) :   0.9369
B(  3-C ,  8-N ) :   0.9331 B(  3-C , 11-H ) :   0.9177 B(  4-C ,  5-C ) :   0.9303
B(  4-C , 12-H ) :   0.9223 B(  4-C , 13-H ) :   0.9204 B(  5-C ,  6-C ) :   0.9439
B(  5-C ,  8-N ) :   0.9269 B(  5-C , 14-H ) :   0.9002 B(  6-C ,  7-C ) :   0.9601
B(  6-C , 15-H ) :   0.9245 B(  6-C , 16-H ) :   0.9171 B(  7-C ,  8-N ) :   0.8876
B(  7-C , 17-H ) :   0.9244 B(  7-C , 18-H ) :   0.9216

MP2 TOTAL ENERGY:     -381.356900166 Eh
FINAL SINGLE POINT ENERGY      -381.356900166321

DIPOLE MOMENT
-------------
                                X             Y             Z
Electronic contribution:     -1.61568      -6.44274      -2.86382
Nuclear contribution   :      1.53501       8.47037       3.02346
                        -----------------------------------------
Total Dipole Moment    :     -0.08067       2.02762       0.15964
                        -----------------------------------------
Magnitude (a.u.)       :      2.03550
Magnitude (Debye)      :      5.17382

                             ****ORCA TERMINATED NORMALLY****
TOTAL RUN TIME: 0 days 0 hours 17 minutes 48 seconds 937 msec
